Generated by trjconv : CNT in water t= 256.00000
33518
    1C        C    1   2.848   2.775   4.752
    1C        C    2   2.905   2.726   4.872
    1C        C    3   2.845   2.777   4.987
    1C        C    4   2.848   2.772   4.260
    1C        C    5   2.900   2.727   4.383
    1C        C    6   2.847   2.770   4.507
    1C        C    7   3.015   2.644   4.626
    1C        C    8   2.898   2.723   4.630
    1C        C    9   3.079   2.607   4.747
    1C        C   10   3.017   2.639   4.869
    1C        C   11   3.188   2.494   4.979
    1C        C   12   3.069   2.568   4.978
    1C        C   13   2.850   2.770   3.774
    1C        C   14   2.904   2.720   3.895
    1C        C   15   2.853   2.776   4.014
    1C        C   16   3.016   2.644   4.140
    1C        C   17   2.900   2.725   4.137
    1C        C   18   3.082   2.616   4.262
    1C        C   19   3.019   2.651   4.383
    1C        C   20   3.211   2.560   4.508
    1C        C   21   3.079   2.611   4.505
    1C        C   22   3.281   2.538   4.629
    1C        C   23   3.210   2.552   4.750
    1C        C   24   3.417   2.481   4.867
    1C        C   25   3.275   2.502   4.866
    1C        C   26   3.493   2.475   4.984
    1C        C   27   2.851   2.769   3.281
    1C        C   28   2.903   2.721   3.403
    1C        C   29   2.856   2.768   3.528
    1C        C   30   3.019   2.640   3.650
    1C        C   31   2.904   2.722   3.652
    1C        C   32   3.075   2.598   3.773
    1C        C   33   3.014   2.632   3.896
    1C        C   34   3.208   2.551   4.016
    1C        C   35   3.076   2.601   4.019
    1C        C   36   3.275   2.538   4.140
    1C        C   37   3.212   2.560   4.264
    1C        C   38   3.418   2.513   4.382
    1C        C   39   3.279   2.538   4.387
    1C        C   40   3.488   2.500   4.504
    1C        C   41   3.418   2.505   4.626
    1C        C   42   3.633   2.487   4.745
    1C        C   43   3.490   2.483   4.746
    1C        C   44   3.708   2.489   4.864
    1C        C   45   3.632   2.477   4.982
    1C        C   46   2.836   2.756   2.791
    1C        C   47   2.891   2.714   2.914
    1C        C   48   2.842   2.763   3.037
    1C        C   49   3.015   2.636   3.163
    1C        C   50   2.900   2.718   3.158
    1C        C   51   3.079   2.603   3.284
    1C        C   52   3.013   2.633   3.405
    1C        C   53   3.206   2.544   3.528
    1C        C   54   3.076   2.599   3.528
    1C        C   55   3.274   2.522   3.650
    1C        C   56   3.206   2.544   3.771
    1C        C   57   3.414   2.510   3.895
    1C        C   58   3.274   2.526   3.894
    1C        C   59   3.486   2.508   4.017
    1C        C   60   3.415   2.514   4.138
    1C        C   61   3.629   2.498   4.260
    1C        C   62   3.487   2.503   4.259
    1C        C   63   3.700   2.507   4.381
    1C        C   64   3.630   2.501   4.503
    1C        C   65   3.840   2.540   4.622
    1C        C   66   3.702   2.509   4.624
    1C        C   67   3.910   2.557   4.743
    1C        C   68   3.844   2.529   4.865
    1C        C   69   4.055   2.588   4.980
    1C        C   70   3.924   2.537   4.979
    1C        C   71   2.825   2.737   2.308
    1C        C   72   2.882   2.695   2.430
    1C        C   73   2.831   2.747   2.551
    1C        C   74   3.012   2.632   2.672
    1C        C   75   2.890   2.704   2.672
    1C        C   76   3.075   2.604   2.795
    1C        C   77   3.010   2.638   2.916
    1C        C   78   3.205   2.552   3.036
    1C        C   79   3.074   2.605   3.038
    1C        C   80   3.274   2.533   3.158
    1C        C   81   3.210   2.550   3.283
    1C        C   82   3.414   2.504   3.403
    1C        C   83   3.275   2.526   3.406
    1C        C   84   3.483   2.499   3.527
    1C        C   85   3.414   2.500   3.650
    1C        C   86   3.626   2.504   3.770
    1C        C   87   3.484   2.503   3.773
    1C        C   88   3.696   2.513   3.892
    1C        C   89   3.627   2.511   4.016
    1C        C   90   3.835   2.548   4.136
    1C        C   91   3.698   2.514   4.138
    1C        C   92   3.903   2.573   4.258
    1C        C   93   3.836   2.547   4.379
    1C        C   94   4.030   2.633   4.498
    1C        C   95   3.908   2.563   4.500
    1C        C   96   4.094   2.669   4.619
    1C        C   97   4.034   2.626   4.740
    1C        C   98   4.194   2.763   4.864
    1C        C   99   4.102   2.653   4.862
    1C        C  100   4.226   2.832   4.982
    1C        C  101   2.820   2.734   2.073
    1C        C  102   2.993   2.594   2.191
    1C        C  103   2.878   2.679   2.189
    1C        C  104   3.063   2.572   2.312
    1C        C  105   3.000   2.618   2.430
    1C        C  106   3.199   2.534   2.549
    1C        C  107   3.069   2.590   2.550
    1C        C  108   3.269   2.517   2.670
    1C        C  109   3.204   2.547   2.792
    1C        C  110   3.409   2.498   2.915
    1C        C  111   3.271   2.525   2.914
    1C        C  112   3.483   2.492   3.036
    1C        C  113   3.412   2.505   3.158
    1C        C  114   3.624   2.503   3.282
    1C        C  115   3.483   2.499   3.280
    1C        C  116   3.695   2.512   3.404
    1C        C  117   3.624   2.504   3.526
    1C        C  118   3.833   2.547   3.646
    1C        C  119   3.695   2.514   3.647
    1C        C  120   3.899   2.568   3.769
    1C        C  121   3.833   2.548   3.892
    1C        C  122   4.026   2.637   4.013
    1C        C  123   3.903   2.567   4.014
    1C        C  124   4.087   2.674   4.134
    1C        C  125   4.031   2.632   4.256
    1C        C  126   4.196   2.768   4.378
    1C        C  127   4.090   2.674   4.378
    1C        C  128   4.245   2.820   4.500
    1C        C  129   4.197   2.765   4.621
    1C        C  130   4.321   2.938   4.742
    1C        C  131   4.241   2.821   4.743
    1C        C  132   4.354   3.004   4.862
    1C        C  133   4.290   2.956   4.977
    1C        C  134   3.172   2.470   2.083
    1C        C  135   3.037   2.509   2.084
    1C        C  136   3.262   2.478   2.191
    1C        C  137   3.195   2.519   2.308
    1C        C  138   3.407   2.479   2.427
    1C        C  139   3.268   2.507   2.428
    1C        C  140   3.479   2.484   2.548
    1C        C  141   3.408   2.493   2.670
    1C        C  142   3.619   2.496   2.791
    1C        C  143   3.478   2.486   2.793
    1C        C  144   3.690   2.512   2.912
    1C        C  145   3.624   2.500   3.036
    1C        C  146   3.831   2.542   3.155
    1C        C  147   3.694   2.508   3.159
    1C        C  148   3.898   2.564   3.278
    1C        C  149   3.833   2.544   3.402
    1C        C  150   4.027   2.629   3.523
    1C        C  151   3.901   2.567   3.524
    1C        C  152   4.087   2.666   3.646
    1C        C  153   4.024   2.633   3.768
    1C        C  154   4.195   2.761   3.889
    1C        C  155   4.081   2.678   3.889
    1C        C  156   4.247   2.810   4.011
    1C        C  157   4.199   2.761   4.134
    1C        C  158   4.338   2.923   4.252
    1C        C  159   4.250   2.812   4.255
    1C        C  160   4.374   2.983   4.374
    1C        C  161   4.332   2.931   4.499
    1C        C  162   4.439   3.115   4.617
    1C        C  163   4.366   2.994   4.620
    1C        C  164   4.468   3.182   4.738
    1C        C  165   4.433   3.121   4.860
    1C        C  166   4.512   3.324   4.971
    1C        C  167   4.469   3.192   4.976
    1C        C  168   3.478   2.434   2.073
    1C        C  169   3.402   2.458   2.189
    1C        C  170   3.620   2.475   2.308
    1C        C  171   3.479   2.460   2.307
    1C        C  172   3.693   2.496   2.427
    1C        C  173   3.620   2.495   2.548
    1C        C  174   3.827   2.546   2.665
    1C        C  175   3.691   2.509   2.670
    1C        C  176   3.895   2.563   2.788
    1C        C  177   3.828   2.541   2.910
    1C        C  178   4.025   2.617   3.033
    1C        C  179   3.899   2.554   3.032
    1C        C  180   4.086   2.659   3.154
    1C        C  181   4.027   2.621   3.276
    1C        C  182   4.192   2.755   3.398
    1C        C  183   4.081   2.667   3.398
    1C        C  184   4.246   2.803   3.520
    1C        C  185   4.196   2.756   3.644
    1C        C  186   4.335   2.918   3.765
    1C        C  187   4.248   2.806   3.765
    1C        C  188   4.373   2.980   3.886
    1C        C  189   4.334   2.921   4.009
    1C        C  190   4.442   3.106   4.128
    1C        C  191   4.380   2.980   4.129
    1C        C  192   4.465   3.173   4.251
    1C        C  193   4.441   3.107   4.374
    1C        C  194   4.501   3.316   4.491
    1C        C  195   4.465   3.179   4.493
    1C        C  196   4.519   3.388   4.610
    1C        C  197   4.511   3.317   4.732
    1C        C  198   4.558   3.534   4.851
    1C        C  199   4.531   3.394   4.851
    1C        C  200   4.590   3.620   4.962
    1C        C  201   3.617   2.422   2.072
    1C        C  202   3.827   2.511   2.183
    1C        C  203   3.692   2.464   2.186
    1C        C  204   3.902   2.538   2.301
    1C        C  205   3.832   2.522   2.422
    1C        C  206   4.022   2.623   2.543
    1C        C  207   3.895   2.560   2.542
    1C        C  208   4.082   2.658   2.667
    1C        C  209   4.022   2.626   2.791
    1C        C  210   4.198   2.744   2.909
    1C        C  211   4.084   2.661   2.913
    1C        C  212   4.249   2.796   3.030
    1C        C  213   4.192   2.753   3.152
    1C        C  214   4.335   2.908   3.273
    1C        C  215   4.244   2.800   3.275
    1C        C  216   4.372   2.970   3.394
    1C        C  217   4.331   2.915   3.518
    1C        C  218   4.437   3.098   3.638
    1C        C  219   4.374   2.972   3.640
    1C        C  220   4.459   3.168   3.758
    1C        C  221   4.434   3.107   3.883
    1C        C  222   4.497   3.309   4.004
    1C        C  223   4.466   3.171   4.005
    1C        C  224   4.509   3.380   4.126
    1C        C  225   4.500   3.309   4.248
    1C        C  226   4.518   3.525   4.366
    1C        C  227   4.510   3.384   4.367
    1C        C  228   4.506   3.595   4.488
    1C        C  229   4.523   3.530   4.613
    1C        C  230   4.504   3.745   4.727
    1C        C  231   4.537   3.606   4.730
    1C        C  232   4.496   3.821   4.846
    1C        C  233   4.547   3.753   4.957
    1C        C  234   4.016   2.615   2.062
    1C        C  235   3.893   2.550   2.065
    1C        C  236   4.086   2.651   2.178
    1C        C  237   4.026   2.608   2.298
    1C        C  238   4.195   2.740   2.420
    1C        C  239   4.083   2.653   2.420
    1C        C  240   4.247   2.789   2.542
    1C        C  241   4.194   2.744   2.665
    1C        C  242   4.338   2.901   2.783
    1C        C  243   4.248   2.792   2.786
    1C        C  244   4.379   2.961   2.904
    1C        C  245   4.340   2.904   3.028
    1C        C  246   4.437   3.091   3.150
    1C        C  247   4.376   2.964   3.150
    1C        C  248   4.454   3.163   3.271
    1C        C  249   4.432   3.098   3.394
    1C        C  250   4.490   3.303   3.515
    1C        C  251   4.459   3.165   3.515
    1C        C  252   4.501   3.374   3.637
    1C        C  253   4.495   3.305   3.760
    1C        C  254   4.517   3.518   3.879
    1C        C  255   4.511   3.377   3.881
    1C        C  256   4.508   3.591   4.000
    1C        C  257   4.509   3.521   4.123
    1C        C  258   4.478   3.733   4.242
    1C        C  259   4.506   3.594   4.244
    1C        C  260   4.460   3.802   4.363
    1C        C  261   4.476   3.733   4.485
    1C        C  262   4.429   3.942   4.603
    1C        C  263   4.471   3.807   4.605
    1C        C  264   4.404   4.014   4.722
    1C        C  265   4.433   3.947   4.843
    1C        C  266   4.320   4.132   4.959
    1C        C  267   4.396   4.015   4.960
    1C        C  268   4.263   2.779   2.062
    1C        C  269   4.200   2.733   2.179
    1C        C  270   4.342   2.896   2.300
    1C        C  271   4.253   2.784   2.299
    1C        C  272   4.384   2.955   2.421
    1C        C  273   4.339   2.896   2.541
    1C        C  274   4.442   3.085   2.662
    1C        C  275   4.379   2.959   2.661
    1C        C  276   4.470   3.151   2.784
    1C        C  277   4.447   3.085   2.907
    1C        C  278   4.505   3.291   3.027
    1C        C  279   4.470   3.154   3.028
    1C        C  280   4.513   3.366   3.146
    1C        C  281   4.496   3.298   3.269
    1C        C  282   4.510   3.511   3.390
    1C        C  283   4.502   3.370   3.391
    1C        C  284   4.507   3.583   3.511
    1C        C  285   4.505   3.515   3.635
    1C        C  286   4.491   3.726   3.754
    1C        C  287   4.514   3.587   3.756
    1C        C  288   4.471   3.795   3.875
    1C        C  289   4.486   3.730   4.000
    1C        C  290   4.425   3.937   4.116
    1C        C  291   4.470   3.803   4.119
    1C        C  292   4.396   4.000   4.239
    1C        C  293   4.423   3.939   4.363
    1C        C  294   4.323   4.129   4.480
    1C        C  295   4.390   4.005   4.483
    1C        C  296   4.288   4.193   4.601
    1C        C  297   4.331   4.136   4.723
    1C        C  298   4.199   4.314   4.840
    1C        C  299   4.283   4.198   4.841
    1C        C  300   4.170   4.401   4.950
    1C        C  301   4.355   2.883   2.061
    1C        C  302   4.470   3.070   2.175
    1C        C  303   4.393   2.949   2.179
    1C        C  304   4.484   3.142   2.297
    1C        C  305   4.453   3.079   2.419
    1C        C  306   4.512   3.285   2.536
    1C        C  307   4.479   3.147   2.540
    1C        C  308   4.515   3.356   2.658
    1C        C  309   4.497   3.289   2.781
    1C        C  310   4.521   3.500   2.901
    1C        C  311   4.515   3.359   2.903
    1C        C  312   4.517   3.574   3.021
    1C        C  313   4.514   3.507   3.146
    1C        C  314   4.485   3.719   3.264
    1C        C  315   4.507   3.579   3.267
    1C        C  316   4.470   3.791   3.384
    1C        C  317   4.486   3.723   3.507
    1C        C  318   4.423   3.924   3.630
    1C        C  319   4.471   3.791   3.630
    1C        C  320   4.393   3.992   3.750
    1C        C  321   4.426   3.929   3.872
    1C        C  322   4.316   4.116   3.994
    1C        C  323   4.393   3.997   3.992
    1C        C  324   4.283   4.179   4.116
    1C        C  325   4.333   4.127   4.237
    1C        C  326   4.191   4.289   4.354
    1C        C  327   4.292   4.190   4.357
    1C        C  328   4.139   4.345   4.473
    1C        C  329   4.194   4.299   4.595
    1C        C  330   4.027   4.435   4.714
    1C        C  331   4.143   4.353   4.715
    1C        C  332   3.974   4.493   4.831
    1C        C  333   4.056   4.482   4.944
    1C        C  334   4.554   3.265   2.063
    1C        C  335   4.538   3.126   2.063
    1C        C  336   4.544   3.350   2.174
    1C        C  337   4.517   3.280   2.293
    1C        C  338   4.529   3.495   2.414
    1C        C  339   4.527   3.353   2.414
    1C        C  340   4.520   3.568   2.534
    1C        C  341   4.520   3.497   2.657
    1C        C  342   4.491   3.708   2.773
    1C        C  343   4.510   3.568   2.778
    1C        C  344   4.474   3.779   2.894
    1C        C  345   4.492   3.713   3.018
    1C        C  346   4.422   3.915   3.138
    1C        C  347   4.470   3.783   3.139
    1C        C  348   4.392   3.984   3.258
    1C        C  349   4.422   3.924   3.382
    1C        C  350   4.317   4.104   3.505
    1C        C  351   4.396   3.987   3.506
    1C        C  352   4.275   4.166   3.624
    1C        C  353   4.318   4.112   3.747
    1C        C  354   4.181   4.274   3.866
    1C        C  355   4.274   4.168   3.869
    1C        C  356   4.130   4.324   3.988
    1C        C  357   4.185   4.281   4.111
    1C        C  358   4.017   4.411   4.229
    1C        C  359   4.134   4.332   4.233
    1C        C  360   3.957   4.452   4.350
    1C        C  361   4.023   4.426   4.472
    1C        C  362   3.832   4.520   4.593
    1C        C  363   3.964   4.470   4.593
    1C        C  364   3.765   4.551   4.714
    1C        C  365   3.843   4.547   4.832
    1C        C  366   3.631   4.600   4.947
    1C        C  367   3.767   4.571   4.946
    1C        C  368   4.504   3.564   2.054
    1C        C  369   4.530   3.491   2.171
    1C        C  370   4.505   3.705   2.289
    1C        C  371   4.523   3.565   2.291
    1C        C  372   4.486   3.777   2.408
    1C        C  373   4.501   3.708   2.531
    1C        C  374   4.427   3.910   2.648
    1C        C  375   4.477   3.778   2.651
    1C        C  376   4.393   3.974   2.770
    1C        C  377   4.421   3.910   2.892
    1C        C  378   4.321   4.097   3.012
    1C        C  379   4.395   3.977   3.014
    1C        C  380   4.277   4.156   3.133
    1C        C  381   4.317   4.104   3.258
    1C        C  382   4.181   4.264   3.378
    1C        C  383   4.275   4.159   3.381
    1C        C  384   4.128   4.316   3.498
    1C        C  385   4.180   4.271   3.621
    1C        C  386   4.011   4.398   3.742
    1C        C  387   4.129   4.320   3.744
    1C        C  388   3.947   4.431   3.863
    1C        C  389   4.008   4.395   3.985
    1C        C  390   3.821   4.494   4.108
    1C        C  391   3.952   4.440   4.107
    1C        C  392   3.754   4.512   4.230
    1C        C  393   3.826   4.503   4.352
    1C        C  394   3.619   4.552   4.473
    1C        C  395   3.759   4.532   4.473
    1C        C  396   3.548   4.555   4.595
    1C        C  397   3.625   4.562   4.714
    1C        C  398   3.413   4.548   4.840
    1C        C  399   3.552   4.572   4.834
    1C        C  400   3.344   4.514   4.957
    1C        C  401   4.504   3.703   2.052
    1C        C  402   4.461   3.916   2.168
    1C        C  403   4.495   3.779   2.169
    1C        C  404   4.413   3.977   2.286
    1C        C  405   4.433   3.908   2.407
    1C        C  406   4.324   4.095   2.524
    1C        C  407   4.399   3.976   2.526
    1C        C  408   4.277   4.149   2.646
    1C        C  409   4.314   4.091   2.769
    1C        C  410   4.175   4.252   2.889
    1C        C  411   4.275   4.151   2.891
    1C        C  412   4.126   4.304   3.011
    1C        C  413   4.180   4.259   3.133
    1C        C  414   4.009   4.385   3.253
    1C        C  415   4.126   4.307   3.255
    1C        C  416   3.949   4.422   3.376
    1C        C  417   4.010   4.393   3.500
    1C        C  418   3.811   4.473   3.618
    1C        C  419   3.943   4.424   3.621
    1C        C  420   3.745   4.497   3.741
    1C        C  421   3.817   4.487   3.862
    1C        C  422   3.614   4.534   3.989
    1C        C  423   3.753   4.514   3.986
    1C        C  424   3.544   4.537   4.112
    1C        C  425   3.615   4.538   4.234
    1C        C  426   3.402   4.549   4.356
    1C        C  427   3.543   4.554   4.354
    1C        C  428   3.332   4.547   4.479
    1C        C  429   3.407   4.551   4.598
    1C        C  430   3.197   4.516   4.723
    1C        C  431   3.337   4.540   4.721
    1C        C  432   3.126   4.495   4.844
    1C        C  433   3.205   4.504   4.959
    1C        C  434   4.381   4.118   2.050
    1C        C  435   4.450   3.997   2.054
    1C        C  436   4.300   4.160   2.161
    1C        C  437   4.335   4.096   2.283
    1C        C  438   4.182   4.250   2.400
    1C        C  439   4.285   4.154   2.402
    1C        C  440   4.128   4.296   2.522
    1C        C  441   4.180   4.251   2.646
    1C        C  442   4.001   4.370   2.766
    1C        C  443   4.123   4.298   2.766
    1C        C  444   3.943   4.408   2.889
    1C        C  445   4.010   4.384   3.011
    1C        C  446   3.813   4.469   3.131
    1C        C  447   3.943   4.414   3.131
    1C        C  448   3.746   4.492   3.253
    1C        C  449   3.817   4.472   3.374
    1C        C  450   3.608   4.523   3.497
    1C        C  451   3.745   4.491   3.495
    1C        C  452   3.540   4.536   3.621
    1C        C  453   3.609   4.533   3.744
    1C        C  454   3.400   4.531   3.865
    1C        C  455   3.541   4.542   3.868
    1C        C  456   3.334   4.522   3.990
    1C        C  457   3.403   4.528   4.113
    1C        C  458   3.194   4.504   4.237
    1C        C  459   3.332   4.534   4.234
    1C        C  460   3.129   4.480   4.360
    1C        C  461   3.196   4.508   4.482
    1C        C  462   2.997   4.432   4.604
    1C        C  463   3.127   4.489   4.603
    1C        C  464   2.932   4.400   4.725
    1C        C  465   2.993   4.442   4.846
    1C        C  466   2.801   4.335   4.958
    1C        C  467   2.912   4.420   4.962
    1C        C  468   4.129   4.297   2.042
    1C        C  469   4.187   4.248   2.160
    1C        C  470   4.008   4.375   2.280
    1C        C  471   4.127   4.297   2.279
    1C        C  472   3.942   4.400   2.402
    1C        C  473   4.007   4.369   2.524
    1C        C  474   3.813   4.466   2.645
    1C        C  475   3.943   4.410   2.643
    1C        C  476   3.746   4.491   2.766
    1C        C  477   3.816   4.469   2.887
    1C        C  478   3.607   4.514   3.010
    1C        C  479   3.746   4.490   3.008
    1C        C  480   3.535   4.524   3.131
    1C        C  481   3.607   4.517   3.253
    1C        C  482   3.397   4.530   3.377
    1C        C  483   3.538   4.534   3.375
    1C        C  484   3.328   4.521   3.500
    1C        C  485   3.399   4.530   3.622
    1C        C  486   3.189   4.498   3.744
    1C        C  487   3.328   4.523   3.744
    1C        C  488   3.127   4.475   3.869
    1C        C  489   3.194   4.498   3.991
    1C        C  490   3.003   4.412   4.118
    1C        C  491   3.128   4.477   4.114
    1C        C  492   2.940   4.380   4.240
    1C        C  493   3.002   4.418   4.361
    1C        C  494   2.823   4.308   4.482
    1C        C  495   2.937   4.391   4.483
    1C        C  496   2.770   4.257   4.603
    1C        C  497   2.817   4.316   4.722
    1C        C  498   2.665   4.165   4.844
    1C        C  499   2.751   4.277   4.841
    1C        C  500   2.603   4.114   4.958
    1C        C  501   4.001   4.352   2.042
    1C        C  502   3.817   4.467   2.158
    1C        C  503   3.944   4.405   2.158
    1C        C  504   3.746   4.482   2.279
    1C        C  505   3.811   4.453   2.401
    1C        C  506   3.606   4.505   2.522
    1C        C  507   3.745   4.480   2.522
    1C        C  508   3.533   4.509   2.643
    1C        C  509   3.606   4.510   2.765
    1C        C  510   3.395   4.524   2.889
    1C        C  511   3.537   4.519   2.888
    1C        C  512   3.324   4.519   3.011
    1C        C  513   3.394   4.528   3.133
    1C        C  514   3.187   4.491   3.254
    1C        C  515   3.324   4.526   3.255
    1C        C  516   3.122   4.468   3.377
    1C        C  517   3.190   4.494   3.498
    1C        C  518   2.998   4.410   3.624
    1C        C  519   3.123   4.476   3.621
    1C        C  520   2.940   4.376   3.748
    1C        C  521   3.002   4.411   3.871
    1C        C  522   2.837   4.283   3.996
    1C        C  523   2.949   4.369   3.995
    1C        C  524   2.785   4.235   4.119
    1C        C  525   2.830   4.290   4.240
    1C        C  526   2.689   4.137   4.366
    1C        C  527   2.774   4.249   4.363
    1C        C  528   2.649   4.077   4.488
    1C        C  529   2.681   4.147   4.607
    1C        C  530   2.587   3.958   4.732
    1C        C  531   2.633   4.092   4.727
    1C        C  532   2.542   3.903   4.855
    1C        C  533   2.531   3.994   4.965
    1C        C  534   3.620   4.558   2.042
    1C        C  535   3.751   4.507   2.041
    1C        C  536   3.538   4.535   2.157
    1C        C  537   3.608   4.516   2.280
    1C        C  538   3.393   4.514   2.400
    1C        C  539   3.535   4.517   2.400
    1C        C  540   3.323   4.513   2.522
    1C        C  541   3.392   4.510   2.645
    1C        C  542   3.185   4.487   2.766
    1C        C  543   3.323   4.515   2.768
    1C        C  544   3.119   4.468   2.889
    1C        C  545   3.186   4.488   3.012
    1C        C  546   2.990   4.404   3.136
    1C        C  547   3.117   4.466   3.134
    1C        C  548   2.934   4.369   3.260
    1C        C  549   2.993   4.411   3.382
    1C        C  550   2.825   4.281   3.505
    1C        C  551   2.935   4.370   3.504
    1C        C  552   2.778   4.235   3.630
    1C        C  553   2.830   4.287   3.751
    1C        C  554   2.696   4.126   3.878
    1C        C  555   2.782   4.238   3.874
    1C        C  556   2.658   4.065   4.000
    1C        C  557   2.696   4.126   4.122
    1C        C  558   2.597   3.942   4.247
    1C        C  559   2.655   4.071   4.246
    1C        C  560   2.568   3.879   4.370
    1C        C  561   2.591   3.948   4.491
    1C        C  562   2.529   3.747   4.617
    1C        C  563   2.561   3.885   4.613
    1C        C  564   2.517   3.680   4.741
    1C        C  565   2.525   3.760   4.858
    1C        C  566   2.536   3.545   4.979
    1C        C  567   2.528   3.684   4.975
    1C        C  568   3.327   4.486   2.038
    1C        C  569   3.399   4.509   2.156
    1C        C  570   3.184   4.478   2.282
    1C        C  571   3.324   4.503   2.277
    1C        C  572   3.115   4.459   2.403
    1C        C  573   3.183   4.489   2.523
    1C        C  574   2.991   4.402   2.650
    1C        C  575   3.114   4.471   2.645
    1C        C  576   2.929   4.364   2.771
    1C        C  577   2.992   4.405   2.891
    1C        C  578   2.824   4.275   3.014
    1C        C  579   2.932   4.366   3.013
    1C        C  580   2.775   4.226   3.137
    1C        C  581   2.827   4.277   3.259
    1C        C  582   2.693   4.117   3.386
    1C        C  583   2.776   4.231   3.382
    1C        C  584   2.660   4.060   3.512
    1C        C  585   2.695   4.121   3.635
    1C        C  586   2.594   3.937   3.757
    1C        C  587   2.657   4.063   3.758
    1C        C  588   2.570   3.872   3.881
    1C        C  589   2.598   3.937   4.003
    1C        C  590   2.539   3.736   4.129
    1C        C  591   2.571   3.874   4.127
    1C        C  592   2.527   3.669   4.252
    1C        C  593   2.531   3.742   4.373
    1C        C  594   2.512   3.535   4.500
    1C        C  595   2.514   3.676   4.496
    1C        C  596   2.513   3.463   4.622
    1C        C  597   2.510   3.538   4.742
    1C        C  598   2.538   3.327   4.862
    1C        C  599   2.532   3.468   4.862
    1C        C  600   2.534   3.251   4.980
    1C        C  601   3.195   4.445   2.043
    1C        C  602   2.983   4.397   2.163
    1C        C  603   3.118   4.447   2.160
    1C        C  604   2.922   4.364   2.287
    1C        C  605   2.987   4.399   2.407
    1C        C  606   2.818   4.273   2.528
    1C        C  607   2.928   4.361   2.530
    1C        C  608   2.772   4.220   2.651
    1C        C  609   2.820   4.274   2.772
    1C        C  610   2.681   4.114   2.895
    1C        C  611   2.769   4.225   2.894
    1C        C  612   2.654   4.052   3.019
    1C        C  613   2.694   4.110   3.142
    1C        C  614   2.596   3.926   3.269
    1C        C  615   2.653   4.056   3.265
    1C        C  616   2.568   3.866   3.393
    1C        C  617   2.598   3.933   3.514
    1C        C  618   2.536   3.731   3.639
    1C        C  619   2.570   3.868   3.636
    1C        C  620   2.518   3.666   3.763
    1C        C  621   2.528   3.738   3.884
    1C        C  622   2.511   3.527   4.009
    1C        C  623   2.524   3.667   4.007
    1C        C  624   2.513   3.457   4.132
    1C        C  625   2.512   3.528   4.254
    1C        C  626   2.537   3.322   4.381
    1C        C  627   2.518   3.462   4.379
    1C        C  628   2.559   3.252   4.501
    1C        C  629   2.539   3.324   4.621
    1C        C  630   2.599   3.119   4.742
    1C        C  631   2.551   3.253   4.743
    1C        C  632   2.622   3.053   4.866
    1C        C  633   2.561   3.113   4.981
    1C        C  634   2.781   4.303   2.054
    1C        C  635   2.891   4.389   2.054
    1C        C  636   2.749   4.231   2.170
    1C        C  637   2.808   4.279   2.288
    1C        C  638   2.677   4.111   2.411
    1C        C  639   2.757   4.227   2.409
    1C        C  640   2.639   4.049   2.532
    1C        C  641   2.685   4.109   2.652
    1C        C  642   2.585   3.923   2.776
    1C        C  643   2.647   4.049   2.775
    1C        C  644   2.564   3.858   2.900
    1C        C  645   2.590   3.926   3.022
    1C        C  646   2.530   3.726   3.151
    1C        C  647   2.566   3.863   3.146
    1C        C  648   2.516   3.657   3.273
    1C        C  649   2.528   3.730   3.393
    1C        C  650   2.517   3.521   3.520
    1C        C  651   2.521   3.662   3.516
    1C        C  652   2.513   3.454   3.644
    1C        C  653   2.509   3.525   3.766
    1C        C  654   2.535   3.314   3.890
    1C        C  655   2.515   3.454   3.888
    1C        C  656   2.550   3.247   4.014
    1C        C  657   2.534   3.318   4.135
    1C        C  658   2.610   3.123   4.257
    1C        C  659   2.559   3.254   4.259
    1C        C  660   2.639   3.056   4.378
    1C        C  661   2.604   3.118   4.500
    1C        C  662   2.712   2.937   4.626
    1C        C  663   2.631   3.053   4.622
    1C        C  664   2.759   2.885   4.748
    1C        C  665   2.696   2.930   4.868
    1C        C  666   2.746   2.875   4.986
    1C        C  667   2.673   4.027   2.055
    1C        C  668   2.683   4.105   2.170
    1C        C  669   2.594   3.910   2.292
    1C        C  670   2.650   4.041   2.291
    1C        C  671   2.559   3.849   2.414
    1C        C  672   2.582   3.920   2.534
    1C        C  673   2.518   3.718   2.661
    1C        C  674   2.558   3.853   2.656
    1C        C  675   2.506   3.649   2.784
    1C        C  676   2.525   3.722   2.903
    1C        C  677   2.515   3.516   3.030
    1C        C  678   2.517   3.657   3.028
    1C        C  679   2.516   3.446   3.152
    1C        C  680   2.513   3.515   3.275
    1C        C  681   2.536   3.307   3.401
    1C        C  682   2.518   3.448   3.399
    1C        C  683   2.552   3.241   3.525
    1C        C  684   2.537   3.314   3.645
    1C        C  685   2.607   3.115   3.768
    1C        C  686   2.555   3.246   3.768
    1C        C  687   2.639   3.052   3.891
    1C        C  688   2.608   3.118   4.012
    1C        C  689   2.718   2.939   4.138
    1C        C  690   2.641   3.057   4.136
    1C        C  691   2.760   2.883   4.261
    1C        C  692   2.718   2.938   4.383
    1C        C  693   2.759   2.880   4.505
    1C        C  694   2.623   3.896   2.057
    1C        C  695   2.529   3.702   2.174
    1C        C  696   2.579   3.834   2.174
    1C        C  697   2.514   3.635   2.298
    1C        C  698   2.521   3.712   2.416
    1C        C  699   2.486   3.507   2.543
    1C        C  700   2.498   3.648   2.539
    1C        C  701   2.497   3.439   2.666
    1C        C  702   2.495   3.509   2.789
    1C        C  703   2.523   3.299   2.912
    1C        C  704   2.504   3.439   2.911
    1C        C  705   2.543   3.232   3.036
    1C        C  706   2.540   3.306   3.156
    1C        C  707   2.600   3.105   3.280
    1C        C  708   2.555   3.239   3.279
    1C        C  709   2.635   3.046   3.403
    1C        C  710   2.605   3.110   3.525
    1C        C  711   2.715   2.930   3.647
    1C        C  712   2.638   3.048   3.648
    1C        C  713   2.760   2.878   3.770
    1C        C  714   2.713   2.932   3.892
    1C        C  715   2.758   2.880   4.016
    1C        C  716   2.446   3.497   2.066
    1C        C  717   2.493   3.629   2.060
    1C        C  718   2.458   3.420   2.185
    1C        C  719   2.483   3.496   2.303
    1C        C  720   2.515   3.289   2.425
    1C        C  721   2.487   3.428   2.426
    1C        C  722   2.537   3.227   2.550
    1C        C  723   2.519   3.299   2.670
    1C        C  724   2.588   3.096   2.792
    1C        C  725   2.534   3.227   2.791
    1C        C  726   2.613   3.032   2.915
    1C        C  727   2.580   3.096   3.037
    1C        C  728   2.706   2.923   3.160
    1C        C  729   2.624   3.038   3.158
    1C        C  730   2.752   2.869   3.283
    1C        C  731   2.713   2.928   3.405
    1C        C  732   2.761   2.873   3.526
    1C        C  733   2.487   3.194   2.074
    1C        C  734   2.487   3.279   2.185
    1C        C  735   2.584   3.087   2.305
    1C        C  736   2.518   3.213   2.307
    1C        C  737   2.617   3.026   2.428
    1C        C  738   2.593   3.097   2.548
    1C        C  739   2.692   2.911   2.670
    1C        C  740   2.619   3.032   2.670
    1C        C  741   2.739   2.860   2.793
    1C        C  742   2.697   2.919   2.914
    1C        C  743   2.748   2.868   3.037
    1C        C  744   2.541   3.066   2.073
    1C        C  745   2.678   2.893   2.186
    1C        C  746   2.606   3.014   2.186
    1C        C  747   2.732   2.844   2.307
    1C        C  748   2.690   2.905   2.428
    1C        C  749   2.732   2.848   2.550
    1C        C  750   2.736   2.845   2.068
    1C        C  751   3.667   2.337   1.961
    1C        O  752   3.759   2.255   1.987
    1C        O  753   3.669   2.379   1.827
    1C        C  754   4.627   3.054   1.969
    1C        O  755   4.602   3.046   1.845
    1C        O  756   4.760   3.026   2.004
    1C        C  757   4.463   4.226   1.992
    1C        O  758   4.532   4.304   2.062
    1C        O  759   4.432   4.277   1.865
    1C        C  760   3.617   4.686   1.967
    1C        O  761   3.687   4.783   2.006
    1C        O  762   3.565   4.701   1.838
    1C        C  763   2.890   4.483   1.940
    1C        O  764   2.928   4.436   1.830
    1C        O  765   2.796   4.587   1.948
    1C        C  766   2.347   3.461   1.962
    1C        O  767   2.378   3.434   1.843
    1C        O  768   2.221   3.405   1.986
    1C        C  769   4.690   3.598   5.069
    1C        O  770   4.656   3.569   5.186
    1C        O  771   4.825   3.634   5.055
    1C        C  772   4.277   4.450   5.040
    1C        O  773   4.254   4.453   5.164
    1C        O  774   4.392   4.518   5.000
    1C        C  775   4.160   2.522   5.061
    1C        O  776   4.174   2.398   5.044
    1C        O  777   4.146   2.531   5.200
    1C        C  778   2.904   4.521   5.070
    1C        O  779   2.846   4.632   5.054
    1C        O  780   2.967   4.507   5.194
    1C        C  781   2.455   3.040   5.053
    1C        O  782   2.337   3.020   5.014
    1C        O  783   2.491   2.993   5.178
    1C        C  784   2.409   4.001   5.047
    1C        O  785   2.297   4.029   4.996
    1C        O  786   2.411   3.925   5.165
    1C        C  787   2.952   2.444   1.982
    1C        O  788   2.950   2.476   1.860
    1C        O  789   2.845   2.359   2.007
    1C        C  790   3.176   2.376   5.068
    1C        O  791   3.174   2.255   5.033
    1C        O  792   3.202   2.398   5.204
    1C        H  793   4.290   3.011   5.068
    1C        H  794   4.161   2.820   5.066
    1C        H  795   4.499   3.136   5.061
    1C        H  796   4.521   3.375   5.065
    1C        H  797   4.573   3.814   5.042
    1C        H  798   4.461   4.011   5.045
    1C        H  799   4.285   4.165   5.055
    1C        H  800   4.035   4.550   5.024
    1C        H  801   3.808   4.537   5.039
    1C        H  802   3.599   4.680   5.011
    1C        H  803   3.396   4.450   5.025
    1C        H  804   3.159   4.511   5.055
    1C        H  805   3.888   2.497   5.072
    1C        H  806   3.677   2.451   5.075
    1C        H  807   2.995   2.538   5.048
    1C        H  808   3.443   2.459   5.078
    1C        H  809   2.841   2.718   5.077
    1C        H  810   2.730   2.927   5.078
    1C        H  811   2.478   3.290   5.062
    1C        H  812   2.537   3.504   5.078
    1C        H  813   2.493   3.726   5.067
    1C        H  814   2.592   4.177   5.044
    1C        H  815   2.726   4.357   5.031
    1C        H  816   2.731   2.902   1.978
    1C        H  817   2.849   2.690   1.980
    1C        H  818   3.212   2.431   1.992
    1C        H  819   3.432   2.459   1.980
    1C        H  820   3.831   2.551   1.978
    1C        H  821   4.062   2.630   1.966
    1C        H  822   4.293   2.704   1.991
    1C        H  823   4.416   2.888   1.974
    1C        H  824   4.594   3.309   1.974
    1C        H  825   4.508   3.517   1.958
    1C        H  826   4.524   3.747   1.956
    1C        H  827   3.782   4.472   1.945
    1C        H  828   3.942   4.323   1.958
    1C        H  829   4.193   4.344   1.970
    1C        H  830   4.535   3.989   1.989
    1C        H  831   2.657   3.838   1.974
    1C        H  832   2.698   4.065   1.958
    1C        H  833   2.708   4.311   1.976
    1C        H  834   3.359   4.528   1.945
    1C        H  835   3.169   4.365   1.977
    1C        H  836   2.487   2.995   2.014
    1C        H  837   2.448   3.232   1.982
    1C        H  838   2.536   3.664   1.968
    2V3OU   H29  839   2.809   3.553   2.518
    2V3OU   C27  840   2.792   3.503   2.618
    2V3OU   H27  841   2.734   3.571   2.686
    2V3OU   H28  842   2.734   3.409   2.601
    2V3OU   O11  843   2.918   3.482   2.682
    2V3OU   C15  844   2.931   3.401   2.793
    2V3OU   C13  845   3.058   3.374   2.846
    2V3OU   C14  846   3.083   3.270   2.937
    2V3OU   C16  847   2.978   3.193   2.984
    2V3OU    H6  848   2.993   3.104   3.047
    2V3OU   C12  849   3.217   3.231   2.988
    2V3OU    O2  850   3.240   3.118   3.036
    2V3OU   C10  851   3.332   3.315   2.950
    2V3OU    C8  852   3.462   3.274   2.977
    2V3OU   O10  853   3.491   3.153   3.030
    2V3OU   H26  854   3.403   3.114   3.045
    2V3OU    C6  855   3.567   3.355   2.922
    2V3OU    C5  856   3.542   3.466   2.843
    2V3OU    C4  857   3.705   3.298   2.923
    2V3OU    H4  858   3.724   3.224   3.007
    2V3OU    H5  859   3.713   3.229   2.834
    2V3OU    C2  860   3.819   3.399   2.917
    2V3OU    O6  861   3.807   3.478   3.036
    2V3OU   H21  862   3.762   3.558   3.005
    2V3OU    C3  863   3.787   3.494   2.801
    2V3OU    H2  864   3.868   3.572   2.801
    2V3OU    H3  865   3.782   3.437   2.705
    2V3OU   C25  866   3.955   3.328   2.914
    2V3OU    O7  867   4.006   3.290   2.809
    2V3OU   C26  868   4.030   3.291   3.041
    2V3OU   H22  869   4.062   3.382   3.098
    2V3OU   H23  870   4.121   3.231   3.015
    2V3OU    O8  871   3.955   3.200   3.118
    2V3OU   H24  872   3.920   3.263   3.184
    2V3OU    C1  873   3.653   3.563   2.819
    2V3OU    H1  874   3.623   3.617   2.725
    2V3OU    O3  875   3.661   3.653   2.930
    2V3OU   C19  876   3.622   3.790   2.923
    2V3OU    H9  877   3.524   3.798   2.868
    2V3OU    O4  878   3.712   3.848   2.831
    2V3OU   C20  879   3.844   3.876   2.880
    2V3OU   H10  880   3.886   3.774   2.904
    2V3OU   C24  881   3.613   3.858   3.060
    2V3OU   H16  882   3.546   3.797   3.126
    2V3OU   H17  883   3.567   3.960   3.048
    2V3OU   C23  884   3.754   3.875   3.115
    2V3OU   H15  885   3.791   3.769   3.138
    2V3OU    N1  886   3.742   3.956   3.235
    2V3OU   H19  887   3.812   3.918   3.295
    2V3OU   H20  888   3.655   3.939   3.282
    2V3OU   C21  889   3.848   3.948   3.015
    2V3OU   H11  890   3.954   3.929   3.051
    2V3OU    O5  891   3.830   4.089   3.017
    2V3OU   H18  892   3.778   4.106   3.097
    2V3OU   C22  893   3.913   3.955   2.770
    2V3OU   H12  894   3.854   4.045   2.741
    2V3OU   H13  895   3.906   3.894   2.676
    2V3OU   H14  896   4.022   3.964   2.794
    2V3OU   C11  897   3.165   3.474   2.841
    2V3OU    O1  898   3.136   3.594   2.821
    2V3OU    C9  899   3.303   3.429   2.871
    2V3OU    C7  900   3.407   3.506   2.818
    2V3OU    O9  901   3.386   3.626   2.754
    2V3OU   H25  902   3.289   3.624   2.753
    2V3OU   C17  903   2.826   3.319   2.839
    2V3OU    H7  904   2.727   3.356   2.814
    2V3OU   C18  905   2.851   3.221   2.935
    2V3OU    H8  906   2.782   3.166   3.000
    3SOL     OW  907   2.559   5.400   0.284
    3SOL    HW1  908   2.648   5.404   0.330
    3SOL    HW2  909   2.557   5.464   0.208
    4SOL     OW  910   6.740   0.271   2.102
    4SOL    HW1  911   6.652   0.319   2.093
    4SOL    HW2  912   6.799   0.297   2.026
    5SOL     OW  913   4.328   1.622   2.528
    5SOL    HW1  914   4.365   1.715   2.521
    5SOL    HW2  915   4.260   1.619   2.601
    6SOL     OW  916   3.850   0.945   1.797
    6SOL    HW1  917   3.932   0.890   1.812
    6SOL    HW2  918   3.779   0.889   1.757
    7SOL     OW  919   0.040   4.248   3.144
    7SOL    HW1  920   7.003   4.182   3.101
    7SOL    HW2  921   7.013   4.330   3.168
    8SOL     OW  922   3.297   1.144   6.846
    8SOL    HW1  923   3.285   1.093   6.761
    8SOL    HW2  924   3.263   1.238   6.833
    9SOL     OW  925   4.858   0.685   5.771
    9SOL    HW1  926   4.843   0.757   5.839
    9SOL    HW2  927   4.774   0.631   5.761
   10SOL     OW  928   1.846   5.094   5.239
   10SOL    HW1  929   1.816   5.012   5.191
   10SOL    HW2  930   1.911   5.070   5.311
   11SOL     OW  931   2.819   0.734   5.775
   11SOL    HW1  932   2.730   0.688   5.765
   11SOL    HW2  933   2.827   0.806   5.707
   12SOL     OW  934   3.514   5.744   3.501
   12SOL    HW1  935   3.458   5.761   3.420
   12SOL    HW2  936   3.462   5.690   3.567
   13SOL     OW  937   4.130   6.472   3.464
   13SOL    HW1  938   4.153   6.544   3.530
   13SOL    HW2  939   4.123   6.385   3.511
   14SOL     OW  940   3.830   5.393   5.997
   14SOL    HW1  941   3.920   5.432   5.974
   14SOL    HW2  942   3.839   5.295   6.010
   15SOL     OW  943   0.968   6.696   1.872
   15SOL    HW1  944   1.034   6.626   1.846
   15SOL    HW2  945   0.948   6.689   1.970
   16SOL     OW  946   5.689   2.511   5.989
   16SOL    HW1  947   5.731   2.555   6.069
   16SOL    HW2  948   5.741   2.429   5.965
   17SOL     OW  949   5.555   6.556   6.815
   17SOL    HW1  950   5.618   6.517   6.881
   17SOL    HW2  951   5.477   6.597   6.862
   18SOL     OW  952   3.298   0.967   5.369
   18SOL    HW1  953   3.215   0.998   5.415
   18SOL    HW2  954   3.357   1.046   5.349
   19SOL     OW  955   0.220   1.195   2.802
   19SOL    HW1  956   0.250   1.220   2.894
   19SOL    HW2  957   0.226   1.096   2.790
   20SOL     OW  958   5.420   1.750   4.201
   20SOL    HW1  959   5.389   1.743   4.295
   20SOL    HW2  960   5.368   1.821   4.153
   21SOL     OW  961   3.165   1.171   2.571
   21SOL    HW1  962   3.188   1.253   2.519
   21SOL    HW2  963   3.240   1.147   2.632
   22SOL     OW  964   1.257   6.536   6.693
   22SOL    HW1  965   1.236   6.520   6.790
   22SOL    HW2  966   1.303   6.456   6.656
   23SOL     OW  967   5.785   5.391   3.019
   23SOL    HW1  968   5.727   5.324   3.064
   23SOL    HW2  969   5.758   5.400   2.923
   24SOL     OW  970   3.500   0.124   3.447
   24SOL    HW1  971   3.555   0.044   3.469
   24SOL    HW2  972   3.551   0.207   3.468
   25SOL     OW  973   3.838   0.450   4.596
   25SOL    HW1  974   3.756   0.421   4.646
   25SOL    HW2  975   3.883   0.369   4.558
   26SOL     OW  976   6.658   0.519   0.675
   26SOL    HW1  977   6.749   0.484   0.656
   26SOL    HW2  978   6.605   0.521   0.591
   27SOL     OW  979   1.683   1.877   3.071
   27SOL    HW1  980   1.689   1.957   3.131
   27SOL    HW2  981   1.588   1.866   3.041
   28SOL     OW  982   2.709   1.019   5.816
   28SOL    HW1  983   2.667   1.002   5.905
   28SOL    HW2  984   2.654   0.975   5.745
   29SOL     OW  985   6.197   2.046   1.965
   29SOL    HW1  986   6.180   2.123   1.903
   29SOL    HW2  987   6.152   2.064   2.053
   30SOL     OW  988   3.757   1.208   3.586
   30SOL    HW1  989   3.676   1.202   3.643
   30SOL    HW2  990   3.738   1.265   3.506
   31SOL     OW  991   0.812   2.704   6.662
   31SOL    HW1  992   0.804   2.783   6.602
   31SOL    HW2  993   0.860   2.630   6.614
   32SOL     OW  994   6.900   1.997   2.756
   32SOL    HW1  995   6.819   2.051   2.781
   32SOL    HW2  996   6.875   1.901   2.747
   33SOL     OW  997   1.129   4.912   5.500
   33SOL    HW1  998   1.085   4.824   5.518
   33SOL    HW2  999   1.148   4.921   5.403
   34SOL     OW 1000   3.000   6.978   4.936
   34SOL    HW1 1001   3.004   7.017   4.843
   34SOL    HW2 1002   2.906   6.979   4.968
   35SOL     OW 1003   4.453   3.176   6.621
   35SOL    HW1 1004   4.531   3.171   6.559
   35SOL    HW2 1005   4.484   3.207   6.711
   36SOL     OW 1006   5.721   1.047   4.916
   36SOL    HW1 1007   5.741   1.035   5.014
   36SOL    HW2 1008   5.623   1.056   4.903
   37SOL     OW 1009   1.386   2.048   6.874
   37SOL    HW1 1010   1.291   2.036   6.904
   37SOL    HW2 1011   1.431   1.958   6.871
   38SOL     OW 1012   0.516   5.350   2.474
   38SOL    HW1 1013   0.447   5.279   2.459
   38SOL    HW2 1014   0.590   5.312   2.529
   39SOL     OW 1015   6.828   3.997   6.869
   39SOL    HW1 1016   6.890   4.073   6.847
   39SOL    HW2 1017   6.738   4.017   6.829
   40SOL     OW 1018   4.639   1.641   0.421
   40SOL    HW1 1019   4.627   1.732   0.381
   40SOL    HW2 1020   4.734   1.630   0.452
   41SOL     OW 1021   6.784   4.676   3.494
   41SOL    HW1 1022   6.710   4.609   3.505
   41SOL    HW2 1023   6.764   4.734   3.415
   42SOL     OW 1024   3.059   4.870   4.350
   42SOL    HW1 1025   2.997   4.802   4.311
   42SOL    HW2 1026   3.008   4.955   4.366
   43SOL     OW 1027   4.920   6.900   5.720
   43SOL    HW1 1028   4.846   6.877   5.657
   43SOL    HW2 1029   4.988   6.826   5.720
   44SOL     OW 1030   4.523   1.896   6.545
   44SOL    HW1 1031   4.558   1.932   6.459
   44SOL    HW2 1032   4.507   1.797   6.536
   45SOL     OW 1033   4.884   5.996   1.842
   45SOL    HW1 1034   4.788   5.969   1.839
   45SOL    HW2 1035   4.898   6.074   1.781
   46SOL     OW 1036   0.679   3.399   3.440
   46SOL    HW1 1037   0.633   3.430   3.523
   46SOL    HW2 1038   0.653   3.304   3.421
   47SOL     OW 1039   4.626   4.365   0.863
   47SOL    HW1 1040   4.663   4.386   0.953
   47SOL    HW2 1041   4.640   4.268   0.843
   48SOL     OW 1042   6.559   3.201   6.304
   48SOL    HW1 1043   6.624   3.164   6.370
   48SOL    HW2 1044   6.580   3.298   6.288
   49SOL     OW 1045   5.510   3.367   1.488
   49SOL    HW1 1046   5.553   3.379   1.578
   49SOL    HW2 1047   5.580   3.347   1.420
   50SOL     OW 1048   5.447   1.078   4.948
   50SOL    HW1 1049   5.408   1.156   4.996
   50SOL    HW2 1050   5.386   1.049   4.875
   51SOL     OW 1051   2.233   6.521   3.561
   51SOL    HW1 1052   2.292   6.582   3.507
   51SOL    HW2 1053   2.159   6.488   3.503
   52SOL     OW 1054   5.996   3.441   2.574
   52SOL    HW1 1055   5.928   3.398   2.513
   52SOL    HW2 1056   5.984   3.404   2.666
   53SOL     OW 1057   4.783   6.790   3.748
   53SOL    HW1 1058   4.783   6.885   3.779
   53SOL    HW2 1059   4.862   6.743   3.786
   54SOL     OW 1060   4.508   5.256   1.294
   54SOL    HW1 1061   4.465   5.329   1.348
   54SOL    HW2 1062   4.574   5.295   1.231
   55SOL     OW 1063   1.760   2.946   6.192
   55SOL    HW1 1064   1.717   3.032   6.164
   55SOL    HW2 1065   1.781   2.892   6.110
   56SOL     OW 1066   0.091   1.116   0.745
   56SOL    HW1 1067   0.006   1.131   0.794
   56SOL    HW2 1068   0.159   1.078   0.808
   57SOL     OW 1069   4.336   0.892   1.281
   57SOL    HW1 1070   4.420   0.906   1.334
   57SOL    HW2 1071   4.344   0.808   1.227
   58SOL     OW 1072   0.323   6.635   5.436
   58SOL    HW1 1073   0.243   6.669   5.387
   58SOL    HW2 1074   0.398   6.701   5.427
   59SOL     OW 1075   0.752   2.528   5.925
   59SOL    HW1 1076   0.799   2.446   5.893
   59SOL    HW2 1077   0.818   2.593   5.962
   60SOL     OW 1078   5.248   2.789   4.427
   60SOL    HW1 1079   5.160   2.806   4.383
   60SOL    HW2 1080   5.237   2.794   4.526
   61SOL     OW 1081   6.603   2.105   4.136
   61SOL    HW1 1082   6.553   2.077   4.054
   61SOL    HW2 1083   6.667   2.178   4.113
   62SOL     OW 1084   0.952   0.974   1.655
   62SOL    HW1 1085   0.928   1.013   1.566
   62SOL    HW2 1086   0.978   0.878   1.644
   63SOL     OW 1087   5.370   1.445   3.482
   63SOL    HW1 1088   5.440   1.503   3.526
   63SOL    HW2 1089   5.283   1.456   3.530
   64SOL     OW 1090   0.429   2.957   6.307
   64SOL    HW1 1091   0.346   3.011   6.320
   64SOL    HW2 1092   0.508   3.018   6.304
   65SOL     OW 1093   0.885   4.381   6.482
   65SOL    HW1 1094   0.872   4.345   6.574
   65SOL    HW2 1095   0.861   4.311   6.415
   66SOL     OW 1096   4.086   1.121   4.990
   66SOL    HW1 1097   4.115   1.161   5.078
   66SOL    HW2 1098   4.161   1.130   4.924
   67SOL     OW 1099   6.979   3.097   5.497
   67SOL    HW1 1100   6.996   3.181   5.445
   67SOL    HW2 1101   0.006   3.022   5.457
   68SOL     OW 1102   6.196   1.172   0.038
   68SOL    HW1 1103   6.272   1.147   0.098
   68SOL    HW2 1104   6.227   1.236   6.993
   69SOL     OW 1105   0.862   3.241   6.237
   69SOL    HW1 1106   0.922   3.264   6.313
   69SOL    HW2 1107   0.878   3.304   6.161
   70SOL     OW 1108   5.467   4.495   4.994
   70SOL    HW1 1109   5.374   4.469   5.020
   70SOL    HW2 1110   5.528   4.417   5.007
   71SOL     OW 1111   3.749   1.933   3.640
   71SOL    HW1 1112   3.666   1.930   3.584
   71SOL    HW2 1113   3.824   1.890   3.590
   72SOL     OW 1114   1.497   0.392   3.851
   72SOL    HW1 1115   1.570   0.450   3.813
   72SOL    HW2 1116   1.505   0.391   3.951
   73SOL     OW 1117   3.633   0.623   1.389
   73SOL    HW1 1118   3.695   0.581   1.456
   73SOL    HW2 1119   3.631   0.722   1.403
   74SOL     OW 1120   4.070   0.551   0.388
   74SOL    HW1 1121   3.993   0.489   0.402
   74SOL    HW2 1122   4.151   0.514   0.435
   75SOL     OW 1123   4.487   1.076   1.128
   75SOL    HW1 1124   4.415   1.008   1.146
   75SOL    HW2 1125   4.533   1.099   1.214
   76SOL     OW 1126   2.873   3.387   1.150
   76SOL    HW1 1127   2.948   3.409   1.213
   76SOL    HW2 1128   2.794   3.353   1.202
   77SOL     OW 1129   0.593   0.328   3.642
   77SOL    HW1 1130   0.609   0.233   3.667
   77SOL    HW2 1131   0.627   0.388   3.715
   78SOL     OW 1132   5.561   1.752   0.108
   78SOL    HW1 1133   5.595   1.734   0.200
   78SOL    HW2 1134   5.474   1.704   0.094
   79SOL     OW 1135   2.989   5.640   1.295
   79SOL    HW1 1136   2.978   5.595   1.206
   79SOL    HW2 1137   2.967   5.737   1.286
   80SOL     OW 1138   4.351   1.377   3.907
   80SOL    HW1 1139   4.320   1.364   3.813
   80SOL    HW2 1140   4.368   1.474   3.923
   81SOL     OW 1141   2.655   7.006   2.460
   81SOL    HW1 1142   2.631   0.079   2.456
   81SOL    HW2 1143   2.578   6.954   2.499
   82SOL     OW 1144   5.887   4.707   0.792
   82SOL    HW1 1145   5.824   4.660   0.731
   82SOL    HW2 1146   5.970   4.652   0.804
   83SOL     OW 1147   0.172   7.008   0.440
   83SOL    HW1 1148   0.267   6.984   0.461
   83SOL    HW2 1149   0.111   6.968   0.508
   84SOL     OW 1150   6.053   2.841   3.103
   84SOL    HW1 1151   6.029   2.746   3.081
   84SOL    HW2 1152   5.969   2.895   3.112
   85SOL     OW 1153   1.946   1.280   3.658
   85SOL    HW1 1154   1.936   1.256   3.755
   85SOL    HW2 1155   2.039   1.312   3.641
   86SOL     OW 1156   0.746   1.480   6.586
   86SOL    HW1 1157   0.701   1.449   6.669
   86SOL    HW2 1158   0.836   1.519   6.608
   87SOL     OW 1159   5.237   4.606   0.769
   87SOL    HW1 1160   5.286   4.658   0.838
   87SOL    HW2 1161   5.292   4.527   0.741
   88SOL     OW 1162   2.996   1.462   6.329
   88SOL    HW1 1163   2.898   1.481   6.336
   88SOL    HW2 1164   3.021   1.448   6.234
   89SOL     OW 1165   2.209   2.354   6.987
   89SOL    HW1 1166   2.205   2.443   0.006
   89SOL    HW2 1167   2.195   2.364   6.888
   90SOL     OW 1168   4.184   4.995   2.309
   90SOL    HW1 1169   4.110   4.978   2.243
   90SOL    HW2 1170   4.158   5.070   2.369
   91SOL     OW 1171   5.971   3.706   6.197
   91SOL    HW1 1172   5.985   3.787   6.140
   91SOL    HW2 1173   6.048   3.644   6.186
   92SOL     OW 1174   4.481   4.705   1.155
   92SOL    HW1 1175   4.482   4.803   1.175
   92SOL    HW2 1176   4.391   4.678   1.122
   93SOL     OW 1177   3.765   3.658   0.837
   93SOL    HW1 1178   3.671   3.693   0.844
   93SOL    HW2 1179   3.829   3.726   0.872
   94SOL     OW 1180   2.260   5.751   6.120
   94SOL    HW1 1181   2.360   5.745   6.118
   94SOL    HW2 1182   2.229   5.754   6.215
   95SOL     OW 1183   1.000   0.200   2.707
   95SOL    HW1 1184   1.062   0.231   2.779
   95SOL    HW2 1185   1.007   0.101   2.697
   96SOL     OW 1186   3.778   6.966   4.751
   96SOL    HW1 1187   3.776   0.030   4.798
   96SOL    HW2 1188   3.688   6.948   4.710
   97SOL     OW 1189   2.011   3.279   6.316
   97SOL    HW1 1190   1.969   3.275   6.406
   97SOL    HW2 1191   2.044   3.188   6.291
   98SOL     OW 1192   1.388   3.051   0.692
   98SOL    HW1 1193   1.346   2.964   0.718
   98SOL    HW2 1194   1.487   3.043   0.700
   99SOL     OW 1195   4.000   2.743   1.583
   99SOL    HW1 1196   3.961   2.819   1.637
   99SOL    HW2 1197   3.930   2.706   1.522
  100SOL     OW 1198   0.809   6.404   4.563
  100SOL    HW1 1199   0.840   6.397   4.468
  100SOL    HW2 1200   0.788   6.500   4.584
  101SOL     OW 1201   2.207   5.046   1.956
  101SOL    HW1 1202   2.171   5.078   2.044
  101SOL    HW2 1203   2.298   5.084   1.942
  102SOL     OW 1204   3.466   5.742   1.231
  102SOL    HW1 1205   3.449   5.814   1.163
  102SOL    HW2 1206   3.388   5.680   1.234
  103SOL     OW 1207   2.459   2.145   1.674
  103SOL    HW1 1208   2.391   2.167   1.605
  103SOL    HW2 1209   2.530   2.087   1.634
  104SOL     OW 1210   1.409   5.840   3.175
  104SOL    HW1 1211   1.395   5.924   3.123
  104SOL    HW2 1212   1.425   5.863   3.271
  105SOL     OW 1213   6.477   1.248   6.531
  105SOL    HW1 1214   6.396   1.213   6.578
  105SOL    HW2 1215   6.544   1.175   6.520
  106SOL     OW 1216   3.762   6.269   4.362
  106SOL    HW1 1217   3.773   6.277   4.461
  106SOL    HW2 1218   3.665   6.270   4.340
  107SOL     OW 1219   1.111   1.257   0.511
  107SOL    HW1 1220   1.072   1.196   0.579
  107SOL    HW2 1221   1.126   1.348   0.551
  108SOL     OW 1222   3.405   0.024   5.586
  108SOL    HW1 1223   3.446   6.962   5.557
  108SOL    HW2 1224   3.325   0.006   5.643
  109SOL     OW 1225   1.684   0.969   2.441
  109SOL    HW1 1226   1.585   0.982   2.444
  109SOL    HW2 1227   1.706   0.873   2.460
  110SOL     OW 1228   2.815   5.158   4.097
  110SOL    HW1 1229   2.785   5.242   4.050
  110SOL    HW2 1230   2.755   5.141   4.175
  111SOL     OW 1231   1.926   1.200   3.978
  111SOL    HW1 1232   1.889   1.161   4.061
  111SOL    HW2 1233   2.024   1.180   3.972
  112SOL     OW 1234   3.210   5.813   6.339
  112SOL    HW1 1235   3.209   5.735   6.276
  112SOL    HW2 1236   3.133   5.805   6.402
  113SOL     OW 1237   0.743   5.768   2.205
  113SOL    HW1 1238   0.781   5.711   2.132
  113SOL    HW2 1239   0.731   5.712   2.287
  114SOL     OW 1240   0.917   6.684   2.145
  114SOL    HW1 1241   0.926   6.699   2.243
  114SOL    HW2 1242   0.825   6.650   2.125
  115SOL     OW 1243   4.998   1.592   2.847
  115SOL    HW1 1244   5.032   1.515   2.902
  115SOL    HW2 1245   4.929   1.559   2.783
  116SOL     OW 1246   6.125   5.942   1.475
  116SOL    HW1 1247   6.218   5.975   1.457
  116SOL    HW2 1248   6.105   5.950   1.572
  117SOL     OW 1249   1.267   1.447   1.217
  117SOL    HW1 1250   1.318   1.528   1.187
  117SOL    HW2 1251   1.295   1.368   1.162
  118SOL     OW 1252   1.220   0.933   2.111
  118SOL    HW1 1253   1.175   0.849   2.142
  118SOL    HW2 1254   1.152   1.006   2.104
  119SOL     OW 1255   0.142   0.292   0.446
  119SOL    HW1 1256   0.099   0.204   0.426
  119SOL    HW2 1257   0.241   0.280   0.453
  120SOL     OW 1258   5.132   1.224   5.941
  120SOL    HW1 1259   5.092   1.246   6.030
  120SOL    HW2 1260   5.101   1.134   5.911
  121SOL     OW 1261   2.193   2.885   0.238
  121SOL    HW1 1262   2.176   2.971   0.287
  121SOL    HW2 1263   2.217   2.905   0.143
  122SOL     OW 1264   1.474   3.569   6.612
  122SOL    HW1 1265   1.474   3.527   6.703
  122SOL    HW2 1266   1.405   3.524   6.555
  123SOL     OW 1267   0.948   1.200   2.728
  123SOL    HW1 1268   1.036   1.230   2.765
  123SOL    HW2 1269   0.876   1.262   2.757
  124SOL     OW 1270   3.930   2.465   0.945
  124SOL    HW1 1271   3.958   2.475   0.850
  124SOL    HW2 1272   4.010   2.448   1.002
  125SOL     OW 1273   3.702   2.449   0.519
  125SOL    HW1 1274   3.720   2.405   0.607
  125SOL    HW2 1275   3.706   2.381   0.446
  126SOL     OW 1276   2.928   4.096   1.492
  126SOL    HW1 1277   2.851   4.129   1.437
  126SOL    HW2 1278   2.927   4.141   1.581
  127SOL     OW 1279   0.823   4.801   6.787
  127SOL    HW1 1280   0.829   4.731   6.716
  127SOL    HW2 1281   0.874   4.771   6.867
  128SOL     OW 1282   4.380   2.753   1.301
  128SOL    HW1 1283   4.426   2.832   1.341
  128SOL    HW2 1284   4.417   2.669   1.339
  129SOL     OW 1285   3.443   3.841   6.233
  129SOL    HW1 1286   3.391   3.830   6.318
  129SOL    HW2 1287   3.518   3.775   6.230
  130SOL     OW 1288   1.558   1.528   4.519
  130SOL    HW1 1289   1.616   1.578   4.455
  130SOL    HW2 1290   1.505   1.458   4.469
  131SOL     OW 1291   4.402   0.718   3.353
  131SOL    HW1 1292   4.336   0.674   3.414
  131SOL    HW2 1293   4.492   0.717   3.395
  132SOL     OW 1294   3.046   2.705   1.749
  132SOL    HW1 1295   3.030   2.610   1.777
  132SOL    HW2 1296   3.130   2.738   1.792
  133SOL     OW 1297   5.028   0.527   4.063
  133SOL    HW1 1298   4.981   0.606   4.023
  133SOL    HW2 1299   5.127   0.539   4.051
  134SOL     OW 1300   6.764   1.272   2.666
  134SOL    HW1 1301   6.822   1.197   2.698
  134SOL    HW2 1302   6.780   1.287   2.569
  135SOL     OW 1303   5.097   3.838   3.614
  135SOL    HW1 1304   5.038   3.757   3.610
  135SOL    HW2 1305   5.192   3.812   3.598
  136SOL     OW 1306   1.623   5.349   5.037
  136SOL    HW1 1307   1.639   5.347   5.136
  136SOL    HW2 1308   1.709   5.328   4.990
  137SOL     OW 1309   5.051   1.867   2.927
  137SOL    HW1 1310   5.001   1.785   2.897
  137SOL    HW2 1311   5.070   1.860   3.025
  138SOL     OW 1312   1.096   3.770   3.004
  138SOL    HW1 1313   1.000   3.762   2.975
  138SOL    HW2 1314   1.153   3.791   2.924
  139SOL     OW 1315   1.398   0.062   5.345
  139SOL    HW1 1316   1.343   7.016   5.389
  139SOL    HW2 1317   1.402   0.045   5.247
  140SOL     OW 1318   1.684   6.976   3.911
  140SOL    HW1 1319   1.593   6.964   3.872
  140SOL    HW2 1320   1.753   6.960   3.840
  141SOL     OW 1321   0.222   2.600   4.870
  141SOL    HW1 1322   0.223   2.644   4.780
  141SOL    HW2 1323   0.255   2.665   4.939
  142SOL     OW 1324   1.452   4.622   1.443
  142SOL    HW1 1325   1.534   4.676   1.428
  142SOL    HW2 1326   1.454   4.541   1.383
  143SOL     OW 1327   6.103   4.394   0.223
  143SOL    HW1 1328   6.063   4.484   0.239
  143SOL    HW2 1329   6.030   4.327   0.205
  144SOL     OW 1330   1.222   4.392   5.639
  144SOL    HW1 1331   1.309   4.393   5.688
  144SOL    HW2 1332   1.232   4.341   5.553
  145SOL     OW 1333   1.686   5.121   1.427
  145SOL    HW1 1334   1.758   5.159   1.484
  145SOL    HW2 1335   1.597   5.138   1.469
  146SOL     OW 1336   5.162   0.339   5.754
  146SOL    HW1 1337   5.065   0.336   5.780
  146SOL    HW2 1338   5.215   0.280   5.814
  147SOL     OW 1339   5.417   2.531   6.029
  147SOL    HW1 1340   5.510   2.566   6.013
  147SOL    HW2 1341   5.422   2.444   6.078
  148SOL     OW 1342   6.940   5.167   0.664
  148SOL    HW1 1343   0.012   5.143   0.659
  148SOL    HW2 1344   6.886   5.104   0.608
  149SOL     OW 1345   3.620   2.113   4.015
  149SOL    HW1 1346   3.601   2.015   4.002
  149SOL    HW2 1347   3.710   2.124   4.058
  150SOL     OW 1348   5.737   0.011   6.873
  150SOL    HW1 1349   5.738   6.938   6.851
  150SOL    HW2 1350   5.813   0.033   6.934
  151SOL     OW 1351   3.161   1.291   2.020
  151SOL    HW1 1352   3.137   1.340   1.936
  151SOL    HW2 1353   3.096   1.313   2.092
  152SOL     OW 1354   6.893   1.177   1.756
  152SOL    HW1 1355   6.932   1.208   1.669
  152SOL    HW2 1356   6.815   1.116   1.738
  153SOL     OW 1357   2.943   0.306   3.679
  153SOL    HW1 1358   3.017   0.247   3.710
  153SOL    HW2 1359   2.944   0.391   3.733
  154SOL     OW 1360   0.849   3.181   1.276
  154SOL    HW1 1361   0.877   3.265   1.229
  154SOL    HW2 1362   0.928   3.121   1.287
  155SOL     OW 1363   0.736   1.484   5.487
  155SOL    HW1 1364   0.761   1.528   5.574
  155SOL    HW2 1365   0.662   1.536   5.444
  156SOL     OW 1366   6.860   0.707   0.997
  156SOL    HW1 1367   6.949   0.691   0.954
  156SOL    HW2 1368   6.872   0.769   1.075
  157SOL     OW 1369   5.719   3.071   1.349
  157SOL    HW1 1370   5.645   3.006   1.367
  157SOL    HW2 1371   5.796   3.023   1.307
  158SOL     OW 1372   1.199   3.069   1.962
  158SOL    HW1 1373   1.103   3.045   1.946
  158SOL    HW2 1374   1.226   3.039   2.054
  159SOL     OW 1375   4.328   4.929   2.657
  159SOL    HW1 1376   4.289   4.841   2.630
  159SOL    HW2 1377   4.258   5.000   2.650
  160SOL     OW 1378   5.318   6.791   0.720
  160SOL    HW1 1379   5.228   6.747   0.728
  160SOL    HW2 1380   5.325   6.865   0.786
  161SOL     OW 1381   1.337   6.442   3.518
  161SOL    HW1 1382   1.347   6.366   3.453
  161SOL    HW2 1383   1.283   6.514   3.475
  162SOL     OW 1384   3.761   6.502   7.020
  162SOL    HW1 1385   3.825   6.577   7.002
  162SOL    HW2 1386   3.811   6.422   0.027
  163SOL     OW 1387   6.428   5.762   2.045
  163SOL    HW1 1388   6.413   5.859   2.024
  163SOL    HW2 1389   6.515   5.733   2.006
  164SOL     OW 1390   0.522   4.299   2.835
  164SOL    HW1 1391   0.443   4.272   2.780
  164SOL    HW2 1392   0.563   4.381   2.795
  165SOL     OW 1393   4.721   4.132   1.249
  165SOL    HW1 1394   4.758   4.094   1.164
  165SOL    HW2 1395   4.762   4.222   1.265
  166SOL     OW 1396   1.608   3.285   2.210
  166SOL    HW1 1397   1.604   3.202   2.155
  166SOL    HW2 1398   1.703   3.307   2.231
  167SOL     OW 1399   5.462   2.587   6.868
  167SOL    HW1 1400   5.557   2.606   6.891
  167SOL    HW2 1401   5.457   2.542   6.779
  168SOL     OW 1402   3.388   2.750   0.888
  168SOL    HW1 1403   3.383   2.684   0.963
  168SOL    HW2 1404   3.305   2.743   0.832
  169SOL     OW 1405   6.696   1.950   1.430
  169SOL    HW1 1406   6.766   1.895   1.386
  169SOL    HW2 1407   6.635   1.989   1.360
  170SOL     OW 1408   0.106   6.691   2.518
  170SOL    HW1 1409   0.057   6.733   2.442
  170SOL    HW2 1410   0.129   6.596   2.496
  171SOL     OW 1411   2.431   3.749   6.712
  171SOL    HW1 1412   2.474   3.803   6.639
  171SOL    HW2 1413   2.382   3.672   6.672
  172SOL     OW 1414   6.321   0.930   2.853
  172SOL    HW1 1415   6.239   0.953   2.904
  172SOL    HW2 1416   6.386   1.006   2.857
  173SOL     OW 1417   6.663   1.285   3.980
  173SOL    HW1 1418   6.727   1.340   4.034
  173SOL    HW2 1419   6.664   1.316   3.885
  174SOL     OW 1420   4.002   5.222   3.619
  174SOL    HW1 1421   4.036   5.133   3.648
  174SOL    HW2 1422   3.944   5.211   3.538
  175SOL     OW 1423   2.859   0.379   1.486
  175SOL    HW1 1424   2.792   0.345   1.552
  175SOL    HW2 1425   2.917   0.304   1.456
  176SOL     OW 1426   6.617   4.607   1.051
  176SOL    HW1 1427   6.616   4.547   1.130
  176SOL    HW2 1428   6.712   4.630   1.028
  177SOL     OW 1429   5.729   3.413   3.769
  177SOL    HW1 1430   5.672   3.493   3.750
  177SOL    HW2 1431   5.794   3.435   3.841
  178SOL     OW 1432   3.417   4.291   5.785
  178SOL    HW1 1433   3.330   4.257   5.821
  178SOL    HW2 1434   3.411   4.298   5.686
  179SOL     OW 1435   4.259   1.456   6.048
  179SOL    HW1 1436   4.347   1.458   6.002
  179SOL    HW2 1437   4.248   1.370   6.097
  180SOL     OW 1438   2.137   6.716   0.494
  180SOL    HW1 1439   2.103   6.622   0.487
  180SOL    HW2 1440   2.221   6.725   0.440
  181SOL     OW 1441   3.774   3.699   5.856
  181SOL    HW1 1442   3.703   3.656   5.912
  181SOL    HW2 1443   3.842   3.630   5.830
  182SOL     OW 1444   3.693   2.215   5.603
  182SOL    HW1 1445   3.593   2.221   5.615
  182SOL    HW2 1446   3.733   2.306   5.614
  183SOL     OW 1447   3.527   1.578   3.527
  183SOL    HW1 1448   3.594   1.645   3.557
  183SOL    HW2 1449   3.451   1.624   3.480
  184SOL     OW 1450   0.733   6.760   4.313
  184SOL    HW1 1451   0.664   6.787   4.380
  184SOL    HW2 1452   0.733   6.660   4.304
  185SOL     OW 1453   0.732   0.562   5.477
  185SOL    HW1 1454   0.723   0.549   5.575
  185SOL    HW2 1455   0.643   0.584   5.437
  186SOL     OW 1456   6.131   0.987   4.035
  186SOL    HW1 1457   6.119   0.896   4.074
  186SOL    HW2 1458   6.091   0.989   3.943
  187SOL     OW 1459   5.143   6.697   2.358
  187SOL    HW1 1460   5.070   6.650   2.309
  187SOL    HW2 1461   5.231   6.677   2.316
  188SOL     OW 1462   1.458   3.190   3.079
  188SOL    HW1 1463   1.365   3.157   3.061
  188SOL    HW2 1464   1.519   3.113   3.092
  189SOL     OW 1465   2.514   5.795   0.458
  189SOL    HW1 1466   2.456   5.730   0.507
  189SOL    HW2 1467   2.609   5.762   0.459
  190SOL     OW 1468   5.834   3.264   5.585
  190SOL    HW1 1469   5.862   3.309   5.500
  190SOL    HW2 1470   5.779   3.183   5.563
  191SOL     OW 1471   5.777   0.410   6.491
  191SOL    HW1 1472   5.831   0.409   6.407
  191SOL    HW2 1473   5.838   0.416   6.570
  192SOL     OW 1474   0.596   4.931   2.501
  192SOL    HW1 1475   0.612   4.842   2.456
  192SOL    HW2 1476   0.614   4.922   2.599
  193SOL     OW 1477   4.542   3.509   5.434
  193SOL    HW1 1478   4.540   3.410   5.451
  193SOL    HW2 1479   4.579   3.526   5.343
  194SOL     OW 1480   3.839   0.140   2.829
  194SOL    HW1 1481   3.777   0.217   2.847
  194SOL    HW2 1482   3.786   0.057   2.813
  195SOL     OW 1483   1.811   0.357   4.220
  195SOL    HW1 1484   1.764   0.275   4.186
  195SOL    HW2 1485   1.743   0.428   4.239
  196SOL     OW 1486   2.755   0.450   0.577
  196SOL    HW1 1487   2.827   0.478   0.513
  196SOL    HW2 1488   2.671   0.502   0.558
  197SOL     OW 1489   2.646   0.227   1.585
  197SOL    HW1 1490   2.546   0.220   1.586
  197SOL    HW2 1491   2.686   0.136   1.597
  198SOL     OW 1492   4.908   6.990   2.120
  198SOL    HW1 1493   4.971   6.919   2.153
  198SOL    HW2 1494   4.919   7.002   2.021
  199SOL     OW 1495   6.664   1.357   3.611
  199SOL    HW1 1496   6.682   1.389   3.518
  199SOL    HW2 1497   6.676   1.432   3.676
  200SOL     OW 1498   1.237   4.105   1.636
  200SOL    HW1 1499   1.187   4.180   1.678
  200SOL    HW2 1500   1.282   4.137   1.552
  201SOL     OW 1501   6.935   0.044   6.372
  201SOL    HW1 1502   6.874   7.013   6.316
  201SOL    HW2 1503   6.880   0.101   6.434
  202SOL     OW 1504   4.896   0.334   5.731
  202SOL    HW1 1505   4.897   0.346   5.631
  202SOL    HW2 1506   4.821   0.386   5.770
  203SOL     OW 1507   4.432   2.423   4.349
  203SOL    HW1 1508   4.359   2.381   4.294
  203SOL    HW2 1509   4.410   2.413   4.446
  204SOL     OW 1510   0.359   1.003   6.254
  204SOL    HW1 1511   0.446   1.041   6.283
  204SOL    HW2 1512   0.308   0.969   6.334
  205SOL     OW 1513   0.530   0.993   3.276
  205SOL    HW1 1514   0.598   0.958   3.210
  205SOL    HW2 1515   0.548   1.090   3.293
  206SOL     OW 1516   0.206   4.847   1.845
  206SOL    HW1 1517   0.162   4.926   1.886
  206SOL    HW2 1518   0.300   4.869   1.821
  207SOL     OW 1519   5.064   1.199   3.658
  207SOL    HW1 1520   5.105   1.139   3.589
  207SOL    HW2 1521   4.965   1.197   3.650
  208SOL     OW 1522   5.673   2.717   5.186
  208SOL    HW1 1523   5.586   2.750   5.149
  208SOL    HW2 1524   5.742   2.716   5.114
  209SOL     OW 1525   0.441   4.628   4.765
  209SOL    HW1 1526   0.395   4.539   4.770
  209SOL    HW2 1527   0.382   4.698   4.804
  210SOL     OW 1528   4.486   1.983   0.701
  210SOL    HW1 1529   4.558   1.954   0.765
  210SOL    HW2 1530   4.399   1.940   0.728
  211SOL     OW 1531   2.762   5.844   3.394
  211SOL    HW1 1532   2.665   5.836   3.371
  211SOL    HW2 1533   2.806   5.910   3.333
  212SOL     OW 1534   1.746   4.395   1.458
  212SOL    HW1 1535   1.780   4.457   1.529
  212SOL    HW2 1536   1.693   4.322   1.500
  213SOL     OW 1537   3.083   0.615   6.316
  213SOL    HW1 1538   3.062   0.619   6.219
  213SOL    HW2 1539   3.035   0.537   6.358
  214SOL     OW 1540   4.911   5.525   1.974
  214SOL    HW1 1541   4.945   5.617   1.954
  214SOL    HW2 1542   4.970   5.481   2.042
  215SOL     OW 1543   2.274   3.710   0.861
  215SOL    HW1 1544   2.294   3.613   0.844
  215SOL    HW2 1545   2.207   3.717   0.934
  216SOL     OW 1546   2.151   5.814   4.526
  216SOL    HW1 1547   2.215   5.834   4.451
  216SOL    HW2 1548   2.096   5.734   4.502
  217SOL     OW 1549   1.991   2.662   4.192
  217SOL    HW1 1550   1.968   2.610   4.274
  217SOL    HW2 1551   1.911   2.713   4.161
  218SOL     OW 1552   1.004   3.064   4.484
  218SOL    HW1 1553   0.913   3.091   4.516
  218SOL    HW2 1554   0.999   3.035   4.389
  219SOL     OW 1555   4.175   6.575   5.766
  219SOL    HW1 1556   4.153   6.672   5.752
  219SOL    HW2 1557   4.260   6.553   5.717
  220SOL     OW 1558   3.880   6.667   0.801
  220SOL    HW1 1559   3.793   6.688   0.756
  220SOL    HW2 1560   3.934   6.751   0.808
  221SOL     OW 1561   6.301   3.034   2.008
  221SOL    HW1 1562   6.396   3.051   2.037
  221SOL    HW2 1563   6.259   3.120   1.981
  222SOL     OW 1564   2.791   5.034   5.947
  222SOL    HW1 1565   2.691   5.031   5.954
  222SOL    HW2 1566   2.824   4.945   5.916
  223SOL     OW 1567   5.736   2.960   0.779
  223SOL    HW1 1568   5.718   2.866   0.810
  223SOL    HW2 1569   5.714   3.023   0.853
  224SOL     OW 1570   1.940   2.202   4.472
  224SOL    HW1 1571   1.956   2.167   4.379
  224SOL    HW2 1572   1.987   2.144   4.538
  225SOL     OW 1573   5.205   2.517   6.212
  225SOL    HW1 1574   5.276   2.526   6.141
  225SOL    HW2 1575   5.175   2.422   6.218
  226SOL     OW 1576   1.447   0.675   6.283
  226SOL    HW1 1577   1.453   0.677   6.383
  226SOL    HW2 1578   1.510   0.743   6.245
  227SOL     OW 1579   1.593   3.505   3.322
  227SOL    HW1 1580   1.520   3.501   3.253
  227SOL    HW2 1581   1.556   3.542   3.407
  228SOL     OW 1582   3.330   6.315   3.578
  228SOL    HW1 1583   3.422   6.338   3.611
  228SOL    HW2 1584   3.328   6.221   3.546
  229SOL     OW 1585   4.896   5.998   6.966
  229SOL    HW1 1586   4.853   5.916   6.929
  229SOL    HW2 1587   4.929   6.056   6.891
  230SOL     OW 1588   2.698   4.791   3.069
  230SOL    HW1 1589   2.668   4.770   2.976
  230SOL    HW2 1590   2.653   4.875   3.100
  231SOL     OW 1591   6.080   1.832   6.766
  231SOL    HW1 1592   6.173   1.802   6.744
  231SOL    HW2 1593   6.045   1.777   6.842
  232SOL     OW 1594   1.223   3.810   6.315
  232SOL    HW1 1595   1.227   3.904   6.283
  232SOL    HW2 1596   1.134   3.770   6.290
  233SOL     OW 1597   2.287   2.126   4.043
  233SOL    HW1 1598   2.237   2.045   4.012
  233SOL    HW2 1599   2.371   2.135   3.990
  234SOL     OW 1600   4.189   6.382   5.090
  234SOL    HW1 1601   4.126   6.389   5.012
  234SOL    HW2 1602   4.166   6.451   5.158
  235SOL     OW 1603   3.545   2.988   1.748
  235SOL    HW1 1604   3.450   2.978   1.718
  235SOL    HW2 1605   3.585   2.898   1.764
  236SOL     OW 1606   5.426   2.974   6.909
  236SOL    HW1 1607   5.483   2.977   6.826
  236SOL    HW2 1608   5.336   2.937   6.886
  237SOL     OW 1609   6.230   5.270   2.136
  237SOL    HW1 1610   6.236   5.361   2.096
  237SOL    HW2 1611   6.317   5.222   2.125
  238SOL     OW 1612   5.371   2.212   6.948
  238SOL    HW1 1613   5.459   2.258   6.959
  238SOL    HW2 1614   5.369   2.129   7.003
  239SOL     OW 1615   0.024   5.808   6.152
  239SOL    HW1 1616   0.122   5.794   6.139
  239SOL    HW2 1617   7.006   5.722   6.180
  240SOL     OW 1618   0.708   2.563   4.065
  240SOL    HW1 1619   0.718   2.474   4.109
  240SOL    HW2 1620   0.611   2.588   4.062
  241SOL     OW 1621   1.684   0.189   5.129
  241SOL    HW1 1622   1.740   0.265   5.095
  241SOL    HW2 1623   1.732   0.103   5.115
  242SOL     OW 1624   2.804   3.205   5.532
  242SOL    HW1 1625   2.749   3.189   5.450
  242SOL    HW2 1626   2.896   3.169   5.519
  243SOL     OW 1627   4.667   0.455   5.823
  243SOL    HW1 1628   4.624   0.472   5.911
  243SOL    HW2 1629   4.598   0.427   5.756
  244SOL     OW 1630   5.620   2.480   4.458
  244SOL    HW1 1631   5.610   2.393   4.507
  244SOL    HW2 1632   5.579   2.553   4.512
  245SOL     OW 1633   6.305   3.639   4.616
  245SOL    HW1 1634   6.242   3.706   4.655
  245SOL    HW2 1635   6.340   3.674   4.529
  246SOL     OW 1636   5.094   2.631   2.964
  246SOL    HW1 1637   5.190   2.601   2.968
  246SOL    HW2 1638   5.069   2.673   3.051
  247SOL     OW 1639   3.287   1.671   1.835
  247SOL    HW1 1640   3.314   1.576   1.817
  247SOL    HW2 1641   3.233   1.705   1.758
  248SOL     OW 1642   3.934   2.032   2.701
  248SOL    HW1 1643   3.846   2.042   2.747
  248SOL    HW2 1644   3.921   1.990   2.612
  249SOL     OW 1645   4.338   0.024   5.862
  249SOL    HW1 1646   4.344   0.117   5.825
  249SOL    HW2 1647   4.332   0.028   5.961
  250SOL     OW 1648   5.667   2.749   0.964
  250SOL    HW1 1649   5.672   2.665   0.909
  250SOL    HW2 1650   5.658   2.726   1.061
  251SOL     OW 1651   4.808   3.707   5.535
  251SOL    HW1 1652   4.768   3.615   5.538
  251SOL    HW2 1653   4.870   3.713   5.457
  252SOL     OW 1654   6.392   0.133   6.338
  252SOL    HW1 1655   6.366   0.072   6.414
  252SOL    HW2 1656   6.435   0.079   6.266
  253SOL     OW 1657   2.373   4.232   6.691
  253SOL    HW1 1658   2.375   4.153   6.629
  253SOL    HW2 1659   2.433   4.303   6.654
  254SOL     OW 1660   4.848   3.276   2.943
  254SOL    HW1 1661   4.926   3.242   2.890
  254SOL    HW2 1662   4.764   3.235   2.908
  255SOL     OW 1663   2.132   3.377   4.677
  255SOL    HW1 1664   2.194   3.346   4.749
  255SOL    HW2 1665   2.108   3.473   4.693
  256SOL     OW 1666   5.903   4.082   6.471
  256SOL    HW1 1667   5.838   4.121   6.405
  256SOL    HW2 1668   5.852   4.042   6.547
  257SOL     OW 1669   4.559   0.029   4.046
  257SOL    HW1 1670   4.546   6.967   4.094
  257SOL    HW2 1671   4.517   0.024   3.955
  258SOL     OW 1672   0.236   4.790   4.914
  258SOL    HW1 1673   0.295   4.797   4.995
  258SOL    HW2 1674   0.241   4.875   4.862
  259SOL     OW 1675   1.432   2.162   2.067
  259SOL    HW1 1676   1.500   2.139   1.997
  259SOL    HW2 1677   1.467   2.138   2.157
  260SOL     OW 1678   4.670   1.238   0.732
  260SOL    HW1 1679   4.591   1.283   0.774
  260SOL    HW2 1680   4.679   1.269   0.637
  261SOL     OW 1681   6.700   3.691   0.352
  261SOL    HW1 1682   6.668   3.605   0.313
  261SOL    HW2 1683   6.650   3.767   0.310
  262SOL     OW 1684   0.174   4.402   0.538
  262SOL    HW1 1685   0.255   4.344   0.527
  262SOL    HW2 1686   0.092   4.345   0.530
  263SOL     OW 1687   0.678   0.792   3.994
  263SOL    HW1 1688   0.671   0.773   3.896
  263SOL    HW2 1689   0.771   0.821   4.017
  264SOL     OW 1690   4.741   2.894   5.931
  264SOL    HW1 1691   4.717   2.883   5.834
  264SOL    HW2 1692   4.681   2.837   5.987
  265SOL     OW 1693   5.081   5.046   3.236
  265SOL    HW1 1694   5.154   4.978   3.243
  265SOL    HW2 1695   4.992   5.001   3.244
  266SOL     OW 1696   3.827   3.417   5.718
  266SOL    HW1 1697   3.730   3.399   5.730
  266SOL    HW2 1698   3.859   3.377   5.632
  267SOL     OW 1699   6.069   2.185   6.000
  267SOL    HW1 1700   6.104   2.102   5.957
  267SOL    HW2 1701   6.113   2.198   6.089
  268SOL     OW 1702   4.101   0.199   5.145
  268SOL    HW1 1703   4.081   0.186   5.048
  268SOL    HW2 1704   4.172   0.269   5.156
  269SOL     OW 1705   1.558   3.396   1.327
  269SOL    HW1 1706   1.559   3.376   1.229
  269SOL    HW2 1707   1.513   3.484   1.344
  270SOL     OW 1708   0.111   0.283   0.796
  270SOL    HW1 1709   0.067   0.340   0.866
  270SOL    HW2 1710   0.041   0.247   0.734
  271SOL     OW 1711   2.753   1.112   0.774
  271SOL    HW1 1712   2.747   1.211   0.789
  271SOL    HW2 1713   2.661   1.073   0.773
  272SOL     OW 1714   3.264   4.865   4.156
  272SOL    HW1 1715   3.244   4.843   4.060
  272SOL    HW2 1716   3.179   4.863   4.209
  273SOL     OW 1717   2.195   4.912   4.670
  273SOL    HW1 1718   2.134   4.921   4.749
  273SOL    HW2 1719   2.267   4.981   4.676
  274SOL     OW 1720   4.834   2.401   3.614
  274SOL    HW1 1721   4.770   2.352   3.555
  274SOL    HW2 1722   4.925   2.400   3.572
  275SOL     OW 1723   6.314   4.985   6.028
  275SOL    HW1 1724   6.297   4.926   6.106
  275SOL    HW2 1725   6.398   5.038   6.043
  276SOL     OW 1726   6.950   5.118   2.622
  276SOL    HW1 1727   6.930   5.096   2.526
  276SOL    HW2 1728   0.023   5.136   2.632
  277SOL     OW 1729   2.413   3.696   0.264
  277SOL    HW1 1730   2.370   3.662   0.180
  277SOL    HW2 1731   2.350   3.683   0.341
  278SOL     OW 1732   0.132   5.321   1.729
  278SOL    HW1 1733   0.156   5.376   1.809
  278SOL    HW2 1734   0.034   5.331   1.710
  279SOL     OW 1735   6.670   3.118   4.198
  279SOL    HW1 1736   6.725   3.177   4.258
  279SOL    HW2 1737   6.609   3.174   4.142
  280SOL     OW 1738   1.912   6.868   2.883
  280SOL    HW1 1739   1.883   6.794   2.944
  280SOL    HW2 1740   1.899   6.841   2.788
  281SOL     OW 1741   3.405   4.900   2.013
  281SOL    HW1 1742   3.326   4.847   1.982
  281SOL    HW2 1743   3.489   4.860   1.975
  282SOL     OW 1744   3.696   1.727   5.692
  282SOL    HW1 1745   3.691   1.808   5.634
  282SOL    HW2 1746   3.733   1.752   5.782
  283SOL     OW 1747   6.680   1.168   6.075
  283SOL    HW1 1748   6.611   1.131   6.013
  283SOL    HW2 1749   6.636   1.206   6.156
  284SOL     OW 1750   0.663   4.522   4.486
  284SOL    HW1 1751   0.711   4.562   4.408
  284SOL    HW2 1752   0.651   4.591   4.557
  285SOL     OW 1753   5.669   5.162   6.356
  285SOL    HW1 1754   5.743   5.155   6.423
  285SOL    HW2 1755   5.696   5.116   6.271
  286SOL     OW 1756   3.492   5.194   5.365
  286SOL    HW1 1757   3.567   5.188   5.432
  286SOL    HW2 1758   3.464   5.290   5.355
  287SOL     OW 1759   0.795   4.543   0.080
  287SOL    HW1 1760   0.717   4.486   0.055
  287SOL    HW2 1761   0.872   4.524   0.020
  288SOL     OW 1762   4.352   2.339   6.615
  288SOL    HW1 1763   4.306   2.399   6.550
  288SOL    HW2 1764   4.305   2.252   6.620
  289SOL     OW 1765   6.855   5.464   5.363
  289SOL    HW1 1766   6.890   5.551   5.329
  289SOL    HW2 1767   6.902   5.440   5.448
  290SOL     OW 1768   4.754   1.587   3.703
  290SOL    HW1 1769   4.754   1.540   3.792
  290SOL    HW2 1770   4.847   1.616   3.681
  291SOL     OW 1771   2.586   1.662   4.943
  291SOL    HW1 1772   2.662   1.644   4.882
  291SOL    HW2 1773   2.605   1.744   4.997
  292SOL     OW 1774   2.419   1.796   2.641
  292SOL    HW1 1775   2.452   1.868   2.580
  292SOL    HW2 1776   2.440   1.707   2.600
  293SOL     OW 1777   4.914   5.000   1.849
  293SOL    HW1 1778   4.817   5.012   1.831
  293SOL    HW2 1779   4.964   4.999   1.762
  294SOL     OW 1780   6.274   5.588   6.479
  294SOL    HW1 1781   6.335   5.510   6.496
  294SOL    HW2 1782   6.236   5.619   6.565
  295SOL     OW 1783   3.153   1.486   4.632
  295SOL    HW1 1784   3.211   1.444   4.562
  295SOL    HW2 1785   3.186   1.460   4.723
  296SOL     OW 1786   6.012   1.885   2.367
  296SOL    HW1 1787   5.956   1.809   2.333
  296SOL    HW2 1788   6.038   1.868   2.462
  297SOL     OW 1789   2.638   4.815   2.811
  297SOL    HW1 1790   2.724   4.850   2.774
  297SOL    HW2 1791   2.563   4.837   2.748
  298SOL     OW 1792   3.060   6.275   0.660
  298SOL    HW1 1793   3.028   6.207   0.726
  298SOL    HW2 1794   3.119   6.231   0.593
  299SOL     OW 1795   3.952   3.164   6.544
  299SOL    HW1 1796   4.029   3.119   6.498
  299SOL    HW2 1797   3.969   3.262   6.550
  300SOL     OW 1798   5.308   0.625   1.938
  300SOL    HW1 1799   5.365   0.663   1.865
  300SOL    HW2 1800   5.270   0.699   1.993
  301SOL     OW 1801   5.651   3.241   0.670
  301SOL    HW1 1802   5.664   3.283   0.760
  301SOL    HW2 1803   5.641   3.142   0.681
  302SOL     OW 1804   0.272   0.958   3.738
  302SOL    HW1 1805   0.311   0.913   3.818
  302SOL    HW2 1806   0.316   0.924   3.656
  303SOL     OW 1807   6.475   6.867   2.029
  303SOL    HW1 1808   6.451   6.895   1.937
  303SOL    HW2 1809   6.575   6.869   2.040
  304SOL     OW 1810   1.671   6.555   5.548
  304SOL    HW1 1811   1.760   6.587   5.515
  304SOL    HW2 1812   1.683   6.464   5.590
  305SOL     OW 1813   1.420   3.209   6.995
  305SOL    HW1 1814   1.337   3.189   6.943
  305SOL    HW2 1815   1.420   3.154   0.054
  306SOL     OW 1816   1.726   0.165   3.497
  306SOL    HW1 1817   1.759   0.231   3.429
  306SOL    HW2 1818   1.759   0.074   3.474
  307SOL     OW 1819   4.933   5.858   0.486
  307SOL    HW1 1820   4.962   5.952   0.466
  307SOL    HW2 1821   4.951   5.800   0.406
  308SOL     OW 1822   5.994   3.568   4.256
  308SOL    HW1 1823   5.964   3.476   4.228
  308SOL    HW2 1824   5.987   3.576   4.356
  309SOL     OW 1825   2.445   6.026   0.063
  309SOL    HW1 1826   2.534   5.991   0.091
  309SOL    HW2 1827   2.450   6.125   0.051
  310SOL     OW 1828   5.421   6.297   5.353
  310SOL    HW1 1829   5.390   6.250   5.435
  310SOL    HW2 1830   5.475   6.235   5.297
  311SOL     OW 1831   4.507   4.848   3.058
  311SOL    HW1 1832   4.525   4.913   2.984
  311SOL    HW2 1833   4.455   4.770   3.023
  312SOL     OW 1834   4.084   1.192   4.623
  312SOL    HW1 1835   4.003   1.133   4.629
  312SOL    HW2 1836   4.157   1.153   4.678
  313SOL     OW 1837   3.060   3.920   2.251
  313SOL    HW1 1838   3.070   3.836   2.197
  313SOL    HW2 1839   2.966   3.930   2.281
  314SOL     OW 1840   2.859   5.256   6.728
  314SOL    HW1 1841   2.797   5.287   6.800
  314SOL    HW2 1842   2.953   5.276   6.754
  315SOL     OW 1843   1.231   3.175   3.991
  315SOL    HW1 1844   1.261   3.179   3.896
  315SOL    HW2 1845   1.310   3.188   4.052
  316SOL     OW 1846   2.760   1.366   4.272
  316SOL    HW1 1847   2.817   1.426   4.329
  316SOL    HW2 1848   2.813   1.286   4.245
  317SOL     OW 1849   7.020   1.462   0.822
  317SOL    HW1 1850   0.043   1.505   0.899
  317SOL    HW2 1851   6.944   1.406   0.856
  318SOL     OW 1852   0.969   5.723   6.586
  318SOL    HW1 1853   0.974   5.780   6.503
  318SOL    HW2 1854   0.915   5.771   6.655
  319SOL     OW 1855   6.506   1.143   3.306
  319SOL    HW1 1856   6.456   1.204   3.368
  319SOL    HW2 1857   6.442   1.083   3.260
  320SOL     OW 1858   6.785   2.439   1.598
  320SOL    HW1 1859   6.786   2.459   1.696
  320SOL    HW2 1860   6.796   2.524   1.546
  321SOL     OW 1861   3.974   1.981   0.165
  321SOL    HW1 1862   3.961   1.957   0.261
  321SOL    HW2 1863   4.053   2.042   0.156
  322SOL     OW 1864   3.741   2.896   4.148
  322SOL    HW1 1865   3.715   2.915   4.053
  322SOL    HW2 1866   3.661   2.865   4.198
  323SOL     OW 1867   1.177   2.743   6.664
  323SOL    HW1 1868   1.113   2.770   6.592
  323SOL    HW2 1869   1.222   2.657   6.639
  324SOL     OW 1870   2.841   1.237   4.991
  324SOL    HW1 1871   2.757   1.287   4.972
  324SOL    HW2 1872   2.850   1.224   5.090
  325SOL     OW 1873   0.661   2.880   1.986
  325SOL    HW1 1874   0.673   2.897   1.888
  325SOL    HW2 1875   0.645   2.782   2.000
  326SOL     OW 1876   1.150   4.849   6.785
  326SOL    HW1 1877   1.244   4.862   6.815
  326SOL    HW2 1878   1.093   4.824   6.863
  327SOL     OW 1879   1.491   4.637   3.336
  327SOL    HW1 1880   1.407   4.583   3.326
  327SOL    HW2 1881   1.561   4.600   3.276
  328SOL     OW 1882   1.293   5.953   1.858
  328SOL    HW1 1883   1.288   5.854   1.857
  328SOL    HW2 1884   1.385   5.982   1.885
  329SOL     OW 1885   3.823   3.494   4.792
  329SOL    HW1 1886   3.844   3.487   4.889
  329SOL    HW2 1887   3.791   3.586   4.771
  330SOL     OW 1888   3.780   6.814   1.554
  330SOL    HW1 1889   3.837   6.798   1.474
  330SOL    HW2 1890   3.719   6.891   1.538
  331SOL     OW 1891   3.672   5.558   0.111
  331SOL    HW1 1892   3.609   5.510   0.051
  331SOL    HW2 1893   3.764   5.518   0.102
  332SOL     OW 1894   4.246   1.637   5.285
  332SOL    HW1 1895   4.165   1.608   5.234
  332SOL    HW2 1896   4.224   1.719   5.337
  333SOL     OW 1897   2.828   0.308   6.017
  333SOL    HW1 1898   2.894   0.369   5.972
  333SOL    HW2 1899   2.778   0.360   6.086
  334SOL     OW 1900   3.393   0.491   1.636
  334SOL    HW1 1901   3.356   0.570   1.587
  334SOL    HW2 1902   3.397   0.512   1.734
  335SOL     OW 1903   4.050   0.024   5.565
  335SOL    HW1 1904   4.094   0.099   5.616
  335SOL    HW2 1905   4.077   0.030   5.469
  336SOL     OW 1906   1.703   0.528   3.626
  336SOL    HW1 1907   1.789   0.508   3.579
  336SOL    HW2 1908   1.706   0.623   3.660
  337SOL     OW 1909   0.258   2.573   0.056
  337SOL    HW1 1910   0.166   2.592   0.023
  337SOL    HW2 1911   0.259   2.485   0.105
  338SOL     OW 1912   2.808   2.631   1.592
  338SOL    HW1 1913   2.733   2.634   1.658
  338SOL    HW2 1914   2.893   2.660   1.637
  339SOL     OW 1915   3.132   6.519   3.746
  339SOL    HW1 1916   3.168   6.529   3.653
  339SOL    HW2 1917   3.036   6.490   3.742
  340SOL     OW 1918   4.885   4.431   5.192
  340SOL    HW1 1919   4.950   4.375   5.243
  340SOL    HW2 1920   4.925   4.459   5.105
  341SOL     OW 1921   6.304   0.957   4.614
  341SOL    HW1 1922   6.343   1.046   4.590
  341SOL    HW2 1923   6.214   0.970   4.656
  342SOL     OW 1924   6.151   3.693   0.328
  342SOL    HW1 1925   6.103   3.640   0.398
  342SOL    HW2 1926   6.116   3.668   0.237
  343SOL     OW 1927   2.219   5.569   0.371
  343SOL    HW1 1928   2.220   5.600   0.277
  343SOL    HW2 1929   2.272   5.484   0.379
  344SOL     OW 1930   1.540   4.309   2.029
  344SOL    HW1 1931   1.524   4.216   2.063
  344SOL    HW2 1932   1.483   4.373   2.081
  345SOL     OW 1933   4.146   1.684   3.063
  345SOL    HW1 1934   4.121   1.723   2.974
  345SOL    HW2 1935   4.104   1.594   3.073
  346SOL     OW 1936   2.083   0.729   2.981
  346SOL    HW1 1937   2.045   0.773   3.062
  346SOL    HW2 1938   2.061   0.784   2.900
  347SOL     OW 1939   2.852   5.634   6.339
  347SOL    HW1 1940   2.858   5.583   6.253
  347SOL    HW2 1941   2.811   5.577   6.409
  348SOL     OW 1942   5.417   4.061   2.082
  348SOL    HW1 1943   5.346   3.997   2.052
  348SOL    HW2 1944   5.400   4.151   2.041
  349SOL     OW 1945   6.957   5.359   0.912
  349SOL    HW1 1946   6.910   5.315   0.989
  349SOL    HW2 1947   6.904   5.346   0.829
  350SOL     OW 1948   3.634   3.533   1.058
  350SOL    HW1 1949   3.676   3.561   0.972
  350SOL    HW2 1950   3.561   3.468   1.040
  351SOL     OW 1951   1.925   2.986   1.152
  351SOL    HW1 1952   1.973   2.934   1.222
  351SOL    HW2 1953   1.989   3.050   1.108
  352SOL     OW 1954   2.781   0.904   4.759
  352SOL    HW1 1955   2.856   0.951   4.805
  352SOL    HW2 1956   2.807   0.881   4.665
  353SOL     OW 1957   2.490   0.022   0.810
  353SOL    HW1 1958   2.470   6.963   0.862
  353SOL    HW2 1959   2.449   0.015   0.720
  354SOL     OW 1960   3.486   2.473   0.872
  354SOL    HW1 1961   3.483   2.524   0.958
  354SOL    HW2 1962   3.407   2.411   0.868
  355SOL     OW 1963   0.989   3.583   2.765
  355SOL    HW1 1964   0.964   3.678   2.746
  355SOL    HW2 1965   0.913   3.535   2.808
  356SOL     OW 1966   2.869   0.037   6.095
  356SOL    HW1 1967   2.834   0.113   6.040
  356SOL    HW2 1968   2.954   0.003   6.055
  357SOL     OW 1969   6.659   6.544   5.474
  357SOL    HW1 1970   6.600   6.464   5.482
  357SOL    HW2 1971   6.641   6.590   5.387
  358SOL     OW 1972   4.278   0.003   0.361
  358SOL    HW1 1973   4.201   7.022   0.426
  358SOL    HW2 1974   4.319   6.937   0.351
  359SOL     OW 1975   1.632   2.640   2.091
  359SOL    HW1 1976   1.685   2.686   2.162
  359SOL    HW2 1977   1.676   2.554   2.067
  360SOL     OW 1978   1.047   5.236   6.696
  360SOL    HW1 1979   0.957   5.201   6.719
  360SOL    HW2 1980   1.083   5.187   6.617
  361SOL     OW 1981   5.822   5.693   3.112
  361SOL    HW1 1982   5.836   5.595   3.097
  361SOL    HW2 1983   5.807   5.738   3.023
  362SOL     OW 1984   3.848   3.971   1.587
  362SOL    HW1 1985   3.906   3.973   1.505
  362SOL    HW2 1986   3.804   3.882   1.594
  363SOL     OW 1987   5.358   4.358   3.315
  363SOL    HW1 1988   5.278   4.415   3.295
  363SOL    HW2 1989   5.440   4.402   3.279
  364SOL     OW 1990   6.471   5.244   6.238
  364SOL    HW1 1991   6.383   5.287   6.221
  364SOL    HW2 1992   6.513   5.284   6.320
  365SOL     OW 1993   6.086   6.116   2.435
  365SOL    HW1 1994   6.057   6.108   2.530
  365SOL    HW2 1995   6.011   6.087   2.375
  366SOL     OW 1996   6.274   0.702   6.061
  366SOL    HW1 1997   6.207   0.773   6.039
  366SOL    HW2 1998   6.269   0.681   6.158
  367SOL     OW 1999   5.037   2.774   0.868
  367SOL    HW1 2000   5.121   2.747   0.914
  367SOL    HW2 2001   5.059   2.822   0.783
  368SOL     OW 2002   0.136   4.081   4.943
  368SOL    HW1 2003   0.212   4.034   4.900
  368SOL    HW2 2004   0.168   4.165   4.987
  369SOL     OW 2005   6.571   5.584   1.885
  369SOL    HW1 2006   6.549   5.489   1.904
  369SOL    HW2 2007   6.499   5.625   1.829
  370SOL     OW 2008   2.935   1.162   5.790
  370SOL    HW1 2009   2.858   1.099   5.782
  370SOL    HW2 2010   2.901   1.256   5.796
  371SOL     OW 2011   2.428   3.609   6.156
  371SOL    HW1 2012   2.411   3.700   6.194
  371SOL    HW2 2013   2.358   3.545   6.190
  372SOL     OW 2014   0.833   6.352   6.129
  372SOL    HW1 2015   0.781   6.318   6.050
  372SOL    HW2 2016   0.918   6.393   6.098
  373SOL     OW 2017   6.769   6.935   4.544
  373SOL    HW1 2018   6.786   6.914   4.640
  373SOL    HW2 2019   6.825   7.013   4.516
  374SOL     OW 2020   2.479   1.882   3.172
  374SOL    HW1 2021   2.476   1.839   3.082
  374SOL    HW2 2022   2.390   1.923   3.193
  375SOL     OW 2023   1.115   4.120   3.759
  375SOL    HW1 2024   1.111   4.149   3.855
  375SOL    HW2 2025   1.048   4.047   3.744
  376SOL     OW 2026   2.317   1.600   5.009
  376SOL    HW1 2027   2.320   1.518   5.066
  376SOL    HW2 2028   2.406   1.646   5.013
  377SOL     OW 2029   1.332   2.084   1.277
  377SOL    HW1 2030   1.391   2.068   1.198
  377SOL    HW2 2031   1.246   2.035   1.265
  378SOL     OW 2032   3.524   2.285   5.895
  378SOL    HW1 2033   3.492   2.316   5.984
  378SOL    HW2 2034   3.621   2.259   5.902
  379SOL     OW 2035   6.264   3.917   1.183
  379SOL    HW1 2036   6.234   4.006   1.217
  379SOL    HW2 2037   6.224   3.845   1.239
  380SOL     OW 2038   2.593   1.457   1.299
  380SOL    HW1 2039   2.514   1.454   1.238
  380SOL    HW2 2040   2.575   1.401   1.380
  381SOL     OW 2041   1.468   3.569   2.835
  381SOL    HW1 2042   1.532   3.556   2.758
  381SOL    HW2 2043   1.520   3.593   2.917
  382SOL     OW 2044   5.618   6.303   6.206
  382SOL    HW1 2045   5.682   6.232   6.176
  382SOL    HW2 2046   5.666   6.389   6.217
  383SOL     OW 2047   4.560   3.145   5.744
  383SOL    HW1 2048   4.599   3.061   5.708
  383SOL    HW2 2049   4.608   3.171   5.828
  384SOL     OW 2050   6.863   5.713   4.482
  384SOL    HW1 2051   6.852   5.742   4.387
  384SOL    HW2 2052   6.900   5.788   4.536
  385SOL     OW 2053   4.037   5.723   5.043
  385SOL    HW1 2054   4.051   5.680   4.954
  385SOL    HW2 2055   3.958   5.681   5.088
  386SOL     OW 2056   2.413   6.488   5.749
  386SOL    HW1 2057   2.316   6.464   5.743
  386SOL    HW2 2058   2.467   6.418   5.704
  387SOL     OW 2059   0.849   6.802   3.735
  387SOL    HW1 2060   0.857   6.820   3.637
  387SOL    HW2 2061   0.754   6.815   3.764
  388SOL     OW 2062   1.502   1.534   4.166
  388SOL    HW1 2063   1.553   1.561   4.085
  388SOL    HW2 2064   1.507   1.434   4.177
  389SOL     OW 2065   4.030   4.771   1.009
  389SOL    HW1 2066   3.976   4.792   0.928
  389SOL    HW2 2067   4.123   4.746   0.982
  390SOL     OW 2068   3.263   1.593   0.199
  390SOL    HW1 2069   3.210   1.518   0.158
  390SOL    HW2 2070   3.355   1.595   0.159
  391SOL     OW 2071   2.282   3.770   5.420
  391SOL    HW1 2072   2.220   3.732   5.352
  391SOL    HW2 2073   2.311   3.862   5.392
  392SOL     OW 2074   2.026   4.338   1.133
  392SOL    HW1 2075   2.116   4.300   1.154
  392SOL    HW2 2076   1.978   4.277   1.069
  393SOL     OW 2077   1.456   4.791   6.798
  393SOL    HW1 2078   1.446   4.800   6.698
  393SOL    HW2 2079   1.516   4.714   6.818
  394SOL     OW 2080   6.958   2.490   0.643
  394SOL    HW1 2081   0.016   2.441   0.615
  394SOL    HW2 2082   6.981   2.558   0.713
  395SOL     OW 2083   4.831   4.969   3.336
  395SOL    HW1 2084   4.819   4.896   3.269
  395SOL    HW2 2085   4.747   5.023   3.342
  396SOL     OW 2086   2.806   3.439   2.110
  396SOL    HW1 2087   2.714   3.429   2.149
  396SOL    HW2 2088   2.802   3.431   2.011
  397SOL     OW 2089   5.782   1.419   6.053
  397SOL    HW1 2090   5.793   1.425   5.954
  397SOL    HW2 2091   5.718   1.345   6.075
  398SOL     OW 2092   1.122   0.127   3.870
  398SOL    HW1 2093   1.156   0.040   3.907
  398SOL    HW2 2094   1.025   0.137   3.894
  399SOL     OW 2095   5.358   6.751   3.908
  399SOL    HW1 2096   5.336   6.654   3.895
  399SOL    HW2 2097   5.322   6.781   3.997
  400SOL     OW 2098   6.472   6.850   5.617
  400SOL    HW1 2099   6.434   6.942   5.612
  400SOL    HW2 2100   6.505   6.832   5.710
  401SOL     OW 2101   4.932   0.479   6.693
  401SOL    HW1 2102   4.973   0.451   6.780
  401SOL    HW2 2103   4.948   0.408   6.625
  402SOL     OW 2104   6.551   0.516   3.299
  402SOL    HW1 2105   6.623   0.585   3.307
  402SOL    HW2 2106   6.472   0.545   3.352
  403SOL     OW 2107   3.827   1.151   4.970
  403SOL    HW1 2108   3.798   1.063   5.008
  403SOL    HW2 2109   3.925   1.149   4.953
  404SOL     OW 2110   1.643   4.413   3.771
  404SOL    HW1 2111   1.596   4.400   3.858
  404SOL    HW2 2112   1.742   4.413   3.786
  405SOL     OW 2113   2.175   3.090   3.319
  405SOL    HW1 2114   2.219   3.000   3.319
  405SOL    HW2 2115   2.153   3.116   3.226
  406SOL     OW 2116   0.317   4.401   4.777
  406SOL    HW1 2117   0.292   4.344   4.855
  406SOL    HW2 2118   0.267   4.370   4.696
  407SOL     OW 2119   1.112   1.878   5.403
  407SOL    HW1 2120   1.082   1.783   5.406
  407SOL    HW2 2121   1.200   1.885   5.357
  408SOL     OW 2122   3.173   2.203   3.087
  408SOL    HW1 2123   3.132   2.192   3.177
  408SOL    HW2 2124   3.103   2.192   3.016
  409SOL     OW 2125   6.209   3.256   1.890
  409SOL    HW1 2126   6.147   3.296   1.958
  409SOL    HW2 2127   6.300   3.297   1.900
  410SOL     OW 2128   0.919   1.681   1.081
  410SOL    HW1 2129   0.905   1.596   1.030
  410SOL    HW2 2130   1.015   1.708   1.074
  411SOL     OW 2131   7.004   0.922   1.494
  411SOL    HW1 2132   6.908   0.948   1.499
  411SOL    HW2 2133   0.003   0.865   1.573
  412SOL     OW 2134   3.776   5.579   2.776
  412SOL    HW1 2135   3.764   5.628   2.863
  412SOL    HW2 2136   3.697   5.520   2.760
  413SOL     OW 2137   5.768   4.218   2.001
  413SOL    HW1 2138   5.809   4.222   2.092
  413SOL    HW2 2139   5.726   4.128   1.987
  414SOL     OW 2140   3.856   6.002   3.345
  414SOL    HW1 2141   3.895   5.942   3.275
  414SOL    HW2 2142   3.864   5.958   3.435
  415SOL     OW 2143   0.144   0.489   0.258
  415SOL    HW1 2144   0.193   0.570   0.289
  415SOL    HW2 2145   0.136   0.424   0.333
  416SOL     OW 2146   4.976   5.854   5.116
  416SOL    HW1 2147   5.059   5.906   5.094
  416SOL    HW2 2148   4.929   5.829   5.032
  417SOL     OW 2149   2.009   6.863   5.676
  417SOL    HW1 2150   2.051   6.856   5.586
  417SOL    HW2 2151   2.076   6.895   5.742
  418SOL     OW 2152   3.344   6.571   6.456
  418SOL    HW1 2153   3.294   6.488   6.481
  418SOL    HW2 2154   3.443   6.553   6.463
  419SOL     OW 2155   1.025   6.648   2.752
  419SOL    HW1 2156   1.049   6.610   2.842
  419SOL    HW2 2157   1.109   6.677   2.705
  420SOL     OW 2158   5.917   1.350   6.660
  420SOL    HW1 2159   5.843   1.334   6.726
  420SOL    HW2 2160   5.937   1.448   6.655
  421SOL     OW 2161   5.703   4.056   4.833
  421SOL    HW1 2162   5.666   4.147   4.854
  421SOL    HW2 2163   5.801   4.054   4.855
  422SOL     OW 2164   5.085   3.493   1.296
  422SOL    HW1 2165   5.155   3.563   1.278
  422SOL    HW2 2166   5.037   3.472   1.211
  423SOL     OW 2167   1.522   2.319   0.074
  423SOL    HW1 2168   1.521   2.418   0.087
  423SOL    HW2 2169   1.496   2.298   7.004
  424SOL     OW 2170   1.846   5.104   2.131
  424SOL    HW1 2171   1.944   5.119   2.140
  424SOL    HW2 2172   1.825   5.069   2.040
  425SOL     OW 2173   4.708   1.922   4.014
  425SOL    HW1 2174   4.657   1.871   3.945
  425SOL    HW2 2175   4.660   2.006   4.037
  426SOL     OW 2176   2.602   1.847   4.629
  426SOL    HW1 2177   2.550   1.904   4.693
  426SOL    HW2 2178   2.700   1.865   4.639
  427SOL     OW 2179   6.542   6.859   3.744
  427SOL    HW1 2180   6.516   6.831   3.837
  427SOL    HW2 2181   6.519   6.956   3.732
  428SOL     OW 2182   3.670   0.305   3.545
  428SOL    HW1 2183   3.618   0.390   3.531
  428SOL    HW2 2184   3.734   0.318   3.621
  429SOL     OW 2185   0.614   4.657   3.491
  429SOL    HW1 2186   0.656   4.744   3.464
  429SOL    HW2 2187   0.514   4.668   3.493
  430SOL     OW 2188   1.257   6.623   4.445
  430SOL    HW1 2189   1.323   6.586   4.380
  430SOL    HW2 2190   1.211   6.548   4.493
  431SOL     OW 2191   2.952   0.619   1.400
  431SOL    HW1 2192   2.879   0.663   1.349
  431SOL    HW2 2193   2.921   0.532   1.438
  432SOL     OW 2194   6.859   2.196   1.443
  432SOL    HW1 2195   6.800   2.116   1.434
  432SOL    HW2 2196   6.823   2.255   1.515
  433SOL     OW 2197   2.058   6.435   5.952
  433SOL    HW1 2198   2.124   6.481   6.012
  433SOL    HW2 2199   1.965   6.461   5.979
  434SOL     OW 2200   4.377   6.087   3.580
  434SOL    HW1 2201   4.386   6.003   3.632
  434SOL    HW2 2202   4.426   6.161   3.626
  435SOL     OW 2203   3.937   2.050   5.968
  435SOL    HW1 2204   3.917   2.096   6.054
  435SOL    HW2 2205   3.973   2.117   5.902
  436SOL     OW 2206   2.977   5.757   1.737
  436SOL    HW1 2207   3.052   5.781   1.675
  436SOL    HW2 2208   2.932   5.841   1.768
  437SOL     OW 2209   0.846   0.817   6.599
  437SOL    HW1 2210   0.795   0.900   6.575
  437SOL    HW2 2211   0.898   0.833   6.683
  438SOL     OW 2212   1.386   3.498   4.183
  438SOL    HW1 2213   1.385   3.560   4.104
  438SOL    HW2 2214   1.336   3.541   4.258
  439SOL     OW 2215   5.745   6.147   2.588
  439SOL    HW1 2216   5.837   6.148   2.629
  439SOL    HW2 2217   5.678   6.129   2.660
  440SOL     OW 2218   2.776   2.028   5.611
  440SOL    HW1 2219   2.681   2.054   5.628
  440SOL    HW2 2220   2.805   1.964   5.682
  441SOL     OW 2221   6.956   3.523   3.409
  441SOL    HW1 2222   6.890   3.457   3.374
  441SOL    HW2 2223   6.909   3.591   3.465
  442SOL     OW 2224   4.511   5.729   5.180
  442SOL    HW1 2225   4.503   5.827   5.202
  442SOL    HW2 2226   4.442   5.678   5.231
  443SOL     OW 2227   5.625   3.781   4.475
  443SOL    HW1 2228   5.678   3.861   4.504
  443SOL    HW2 2229   5.649   3.759   4.380
  444SOL     OW 2230   4.666   6.733   5.965
  444SOL    HW1 2231   4.749   6.766   5.920
  444SOL    HW2 2232   4.686   6.711   6.060
  445SOL     OW 2233   1.924   6.219   3.196
  445SOL    HW1 2234   1.948   6.188   3.289
  445SOL    HW2 2235   2.001   6.202   3.135
  446SOL     OW 2236   4.834   5.683   2.509
  446SOL    HW1 2237   4.755   5.732   2.546
  446SOL    HW2 2238   4.870   5.732   2.429
  447SOL     OW 2239   6.224   3.848   5.268
  447SOL    HW1 2240   6.223   3.885   5.361
  447SOL    HW2 2241   6.315   3.862   5.228
  448SOL     OW 2242   2.398   0.757   3.018
  448SOL    HW1 2243   2.423   0.767   2.922
  448SOL    HW2 2244   2.299   0.772   3.029
  449SOL     OW 2245   2.895   1.133   4.211
  449SOL    HW1 2246   2.866   1.050   4.163
  449SOL    HW2 2247   2.978   1.169   4.168
  450SOL     OW 2248   1.715   4.546   3.202
  450SOL    HW1 2249   1.747   4.503   3.117
  450SOL    HW2 2250   1.763   4.506   3.280
  451SOL     OW 2251   1.630   1.916   4.307
  451SOL    HW1 2252   1.535   1.893   4.287
  451SOL    HW2 2253   1.674   1.954   4.226
  452SOL     OW 2254   4.755   6.391   1.542
  452SOL    HW1 2255   4.787   6.422   1.452
  452SOL    HW2 2256   4.659   6.363   1.536
  453SOL     OW 2257   3.748   6.959   6.534
  453SOL    HW1 2258   3.836   7.006   6.533
  453SOL    HW2 2259   3.678   7.017   6.491
  454SOL     OW 2260   6.806   3.196   6.544
  454SOL    HW1 2261   6.814   3.097   6.543
  454SOL    HW2 2262   6.771   3.227   6.632
  455SOL     OW 2263   5.172   2.274   4.697
  455SOL    HW1 2264   5.085   2.267   4.649
  455SOL    HW2 2265   5.162   2.238   4.790
  456SOL     OW 2266   0.945   0.567   4.936
  456SOL    HW1 2267   0.934   0.477   4.977
  456SOL    HW2 2268   0.933   0.560   4.837
  457SOL     OW 2269   2.096   4.369   4.370
  457SOL    HW1 2270   2.054   4.316   4.443
  457SOL    HW2 2271   2.043   4.453   4.354
  458SOL     OW 2272   2.851   0.086   2.958
  458SOL    HW1 2273   2.866   0.149   3.034
  458SOL    HW2 2274   2.854   0.136   2.871
  459SOL     OW 2275   1.600   0.155   5.871
  459SOL    HW1 2276   1.668   0.143   5.798
  459SOL    HW2 2277   1.588   0.253   5.889
  460SOL     OW 2278   1.562   0.093   4.912
  460SOL    HW1 2279   1.640   0.122   4.968
  460SOL    HW2 2280   1.571   0.131   4.820
  461SOL     OW 2281   6.450   4.500   6.220
  461SOL    HW1 2282   6.367   4.453   6.250
  461SOL    HW2 2283   6.457   4.588   6.267
  462SOL     OW 2284   3.925   3.375   6.138
  462SOL    HW1 2285   3.992   3.441   6.172
  462SOL    HW2 2286   3.895   3.401   6.046
  463SOL     OW 2287   0.270   0.275   3.867
  463SOL    HW1 2288   0.271   0.375   3.864
  463SOL    HW2 2289   0.237   0.246   3.957
  464SOL     OW 2290   2.212   0.678   5.704
  464SOL    HW1 2291   2.293   0.619   5.714
  464SOL    HW2 2292   2.187   0.714   5.794
  465SOL     OW 2293   0.466   2.099   6.946
  465SOL    HW1 2294   0.428   2.118   6.856
  465SOL    HW2 2295   0.563   2.124   6.947
  466SOL     OW 2296   2.630   6.414   4.009
  466SOL    HW1 2297   2.723   6.451   4.015
  466SOL    HW2 2298   2.628   6.322   4.049
  467SOL     OW 2299   1.479   1.237   2.334
  467SOL    HW1 2300   1.423   1.306   2.381
  467SOL    HW2 2301   1.444   1.146   2.354
  468SOL     OW 2302   3.928   5.292   5.086
  468SOL    HW1 2303   3.844   5.247   5.117
  468SOL    HW2 2304   3.908   5.386   5.059
  469SOL     OW 2305   2.953   3.420   5.812
  469SOL    HW1 2306   2.922   3.461   5.726
  469SOL    HW2 2307   3.043   3.456   5.836
  470SOL     OW 2308   4.200   5.980   1.242
  470SOL    HW1 2309   4.225   5.895   1.195
  470SOL    HW2 2310   4.147   6.038   1.180
  471SOL     OW 2311   2.547   2.515   4.270
  471SOL    HW1 2312   2.587   2.511   4.361
  471SOL    HW2 2313   2.457   2.558   4.274
  472SOL     OW 2314   5.774   4.621   6.969
  472SOL    HW1 2315   5.677   4.627   6.947
  472SOL    HW2 2316   5.828   4.653   6.891
  473SOL     OW 2317   1.040   1.792   2.069
  473SOL    HW1 2318   1.135   1.766   2.084
  473SOL    HW2 2319   1.002   1.831   2.153
  474SOL     OW 2320   5.421   5.299   5.024
  474SOL    HW1 2321   5.361   5.377   5.008
  474SOL    HW2 2322   5.434   5.249   4.938
  475SOL     OW 2323   6.151   2.468   0.580
  475SOL    HW1 2324   6.173   2.564   0.563
  475SOL    HW2 2325   6.054   2.452   0.560
  476SOL     OW 2326   6.970   3.873   2.015
  476SOL    HW1 2327   6.920   3.958   2.027
  476SOL    HW2 2328   0.037   3.882   2.054
  477SOL     OW 2329   2.856   5.603   3.449
  477SOL    HW1 2330   2.832   5.537   3.378
  477SOL    HW2 2331   2.806   5.688   3.435
  478SOL     OW 2332   4.227   6.115   3.246
  478SOL    HW1 2333   4.155   6.122   3.178
  478SOL    HW2 2334   4.302   6.176   3.222
  479SOL     OW 2335   3.896   2.967   5.064
  479SOL    HW1 2336   3.876   2.874   5.032
  479SOL    HW2 2337   3.917   3.025   4.985
  480SOL     OW 2338   3.117   0.413   1.131
  480SOL    HW1 2339   3.033   0.386   1.084
  480SOL    HW2 2340   3.109   0.395   1.229
  481SOL     OW 2341   0.616   6.660   1.569
  481SOL    HW1 2342   0.617   6.561   1.555
  481SOL    HW2 2343   0.658   6.681   1.658
  482SOL     OW 2344   4.564   5.078   2.358
  482SOL    HW1 2345   4.530   5.016   2.287
  482SOL    HW2 2346   4.497   5.150   2.374
  483SOL     OW 2347   7.016   2.473   2.843
  483SOL    HW1 2348   0.006   2.556   2.789
  483SOL    HW2 2349   0.074   2.452   2.895
  484SOL     OW 2350   1.537   3.972   4.685
  484SOL    HW1 2351   1.632   3.975   4.717
  484SOL    HW2 2352   1.533   4.001   4.590
  485SOL     OW 2353   4.671   4.725   2.278
  485SOL    HW1 2354   4.767   4.750   2.281
  485SOL    HW2 2355   4.619   4.782   2.343
  486SOL     OW 2356   5.931   1.643   6.924
  486SOL    HW1 2357   5.937   1.632   6.824
  486SOL    HW2 2358   5.853   1.703   6.946
  487SOL     OW 2359   0.713   0.669   3.272
  487SOL    HW1 2360   0.795   0.613   3.255
  487SOL    HW2 2361   0.702   0.735   3.198
  488SOL     OW 2362   0.774   6.697   2.407
  488SOL    HW1 2363   0.753   6.614   2.459
  488SOL    HW2 2364   0.791   6.773   2.470
  489SOL     OW 2365   5.860   6.059   5.568
  489SOL    HW1 2366   5.810   6.075   5.483
  489SOL    HW2 2367   5.932   6.127   5.579
  490SOL     OW 2368   2.077   6.059   3.889
  490SOL    HW1 2369   2.174   6.069   3.912
  490SOL    HW2 2370   2.040   6.148   3.862
  491SOL     OW 2371   1.088   3.082   1.357
  491SOL    HW1 2372   1.162   3.066   1.291
  491SOL    HW2 2373   1.127   3.091   1.448
  492SOL     OW 2374   1.196   1.282   5.608
  492SOL    HW1 2375   1.103   1.245   5.605
  492SOL    HW2 2376   1.234   1.267   5.699
  493SOL     OW 2377   2.981   6.718   5.663
  493SOL    HW1 2378   2.974   6.818   5.661
  493SOL    HW2 2379   2.929   6.679   5.587
  494SOL     OW 2380   1.371   6.919   6.365
  494SOL    HW1 2381   1.272   6.914   6.351
  494SOL    HW2 2382   1.409   6.996   6.314
  495SOL     OW 2383   3.481   6.053   3.972
  495SOL    HW1 2384   3.520   6.144   3.986
  495SOL    HW2 2385   3.483   6.030   3.874
  496SOL     OW 2386   6.555   2.571   2.022
  496SOL    HW1 2387   6.489   2.507   2.060
  496SOL    HW2 2388   6.535   2.587   1.926
  497SOL     OW 2389   3.180   1.375   4.883
  497SOL    HW1 2390   3.197   1.452   4.944
  497SOL    HW2 2391   3.228   1.294   4.916
  498SOL     OW 2392   0.558   4.441   2.383
  498SOL    HW1 2393   0.468   4.419   2.345
  498SOL    HW2 2394   0.576   4.383   2.462
  499SOL     OW 2395   1.642   5.221   4.599
  499SOL    HW1 2396   1.637   5.310   4.555
  499SOL    HW2 2397   1.658   5.150   4.531
  500SOL     OW 2398   5.763   2.513   6.986
  500SOL    HW1 2399   5.784   2.530   0.057
  500SOL    HW2 2400   5.793   2.590   6.930
  501SOL     OW 2401   4.093   0.101   0.669
  501SOL    HW1 2402   3.998   0.099   0.635
  501SOL    HW2 2403   4.110   0.189   0.714
  502SOL     OW 2404   0.855   4.471   6.049
  502SOL    HW1 2405   0.827   4.567   6.057
  502SOL    HW2 2406   0.914   4.460   5.969
  503SOL     OW 2407   1.758   5.062   5.847
  503SOL    HW1 2408   1.704   5.144   5.829
  503SOL    HW2 2409   1.856   5.085   5.842
  504SOL     OW 2410   1.370   5.405   2.334
  504SOL    HW1 2411   1.336   5.315   2.307
  504SOL    HW2 2412   1.344   5.472   2.265
  505SOL     OW 2413   3.954   6.627   4.700
  505SOL    HW1 2414   3.945   6.677   4.614
  505SOL    HW2 2415   3.884   6.556   4.704
  506SOL     OW 2416   3.018   6.248   2.577
  506SOL    HW1 2417   2.920   6.256   2.560
  506SOL    HW2 2418   3.051   6.332   2.621
  507SOL     OW 2419   3.184   6.182   2.871
  507SOL    HW1 2420   3.186   6.194   2.970
  507SOL    HW2 2421   3.133   6.257   2.829
  508SOL     OW 2422   0.079   3.344   1.944
  508SOL    HW1 2423   0.075   3.443   1.939
  508SOL    HW2 2424   0.026   3.313   2.023
  509SOL     OW 2425   3.536   1.117   1.264
  509SOL    HW1 2426   3.531   1.194   1.199
  509SOL    HW2 2427   3.474   1.045   1.234
  510SOL     OW 2428   6.908   4.265   6.135
  510SOL    HW1 2429   6.865   4.176   6.155
  510SOL    HW2 2430   6.980   4.252   6.067
  511SOL     OW 2431   1.177   2.361   6.876
  511SOL    HW1 2432   1.188   2.274   6.924
  511SOL    HW2 2433   1.081   2.389   6.878
  512SOL     OW 2434   6.341   2.306   6.987
  512SOL    HW1 2435   6.246   2.314   6.960
  512SOL    HW2 2436   6.354   2.348   0.052
  513SOL     OW 2437   5.036   0.030   3.228
  513SOL    HW1 2438   5.091   0.076   3.298
  513SOL    HW2 2439   4.996   6.971   3.267
  514SOL     OW 2440   6.720   1.180   4.591
  514SOL    HW1 2441   6.679   1.135   4.670
  514SOL    HW2 2442   6.734   1.277   4.611
  515SOL     OW 2443   1.877   0.598   0.393
  515SOL    HW1 2444   1.871   0.697   0.408
  515SOL    HW2 2445   1.949   0.579   0.327
  516SOL     OW 2446   2.952   4.805   1.943
  516SOL    HW1 2447   2.908   4.716   1.934
  516SOL    HW2 2448   2.884   4.877   1.926
  517SOL     OW 2449   3.355   4.688   1.717
  517SOL    HW1 2450   3.445   4.692   1.758
  517SOL    HW2 2451   3.296   4.758   1.758
  518SOL     OW 2452   2.265   2.045   3.142
  518SOL    HW1 2453   2.330   2.122   3.146
  518SOL    HW2 2454   2.179   2.071   3.185
  519SOL     OW 2455   0.272   6.736   3.384
  519SOL    HW1 2456   0.173   6.748   3.385
  519SOL    HW2 2457   0.301   6.700   3.295
  520SOL     OW 2458   6.252   3.370   6.716
  520SOL    HW1 2459   6.157   3.340   6.719
  520SOL    HW2 2460   6.256   3.467   6.690
  521SOL     OW 2461   5.958   5.701   5.667
  521SOL    HW1 2462   6.014   5.770   5.621
  521SOL    HW2 2463   5.958   5.617   5.612
  522SOL     OW 2464   4.130   3.644   2.931
  522SOL    HW1 2465   4.225   3.626   2.959
  522SOL    HW2 2466   4.075   3.663   3.012
  523SOL     OW 2467   0.278   5.936   1.421
  523SOL    HW1 2468   0.179   5.928   1.413
  523SOL    HW2 2469   0.320   5.930   1.331
  524SOL     OW 2470   1.660   2.590   2.657
  524SOL    HW1 2471   1.701   2.680   2.673
  524SOL    HW2 2472   1.629   2.585   2.562
  525SOL     OW 2473   1.961   4.368   5.724
  525SOL    HW1 2474   1.961   4.435   5.650
  525SOL    HW2 2475   1.929   4.280   5.689
  526SOL     OW 2476   3.322   6.615   3.911
  526SOL    HW1 2477   3.397   6.653   3.857
  526SOL    HW2 2478   3.246   6.591   3.851
  527SOL     OW 2479   6.702   2.381   0.867
  527SOL    HW1 2480   6.682   2.355   0.961
  527SOL    HW2 2481   6.792   2.346   0.842
  528SOL     OW 2482   1.976   2.505   3.886
  528SOL    HW1 2483   2.029   2.586   3.909
  528SOL    HW2 2484   1.884   2.514   3.924
  529SOL     OW 2485   1.719   6.762   5.070
  529SOL    HW1 2486   1.701   6.674   5.025
  529SOL    HW2 2487   1.770   6.747   5.154
  530SOL     OW 2488   4.062   3.667   2.663
  530SOL    HW1 2489   4.064   3.764   2.637
  530SOL    HW2 2490   4.076   3.659   2.762
  531SOL     OW 2491   1.127   1.230   2.939
  531SOL    HW1 2492   1.126   1.135   2.968
  531SOL    HW2 2493   1.153   1.289   3.016
  532SOL     OW 2494   1.398   3.129   0.437
  532SOL    HW1 2495   1.472   3.196   0.425
  532SOL    HW2 2496   1.409   3.082   0.525
  533SOL     OW 2497   4.171   0.079   3.427
  533SOL    HW1 2498   4.091   0.072   3.367
  533SOL    HW2 2499   4.169   0.168   3.473
  534SOL     OW 2500   5.660   5.648   2.762
  534SOL    HW1 2501   5.587   5.651   2.831
  534SOL    HW2 2502   5.619   5.633   2.671
  535SOL     OW 2503   6.798   4.174   3.374
  535SOL    HW1 2504   6.832   4.265   3.350
  535SOL    HW2 2505   6.737   4.181   3.453
  536SOL     OW 2506   6.615   4.749   2.762
  536SOL    HW1 2507   6.579   4.667   2.807
  536SOL    HW2 2508   6.559   4.828   2.786
  537SOL     OW 2509   3.285   6.922   4.713
  537SOL    HW1 2510   3.293   6.854   4.786
  537SOL    HW2 2511   3.200   6.974   4.724
  538SOL     OW 2512   0.468   4.643   4.227
  538SOL    HW1 2513   0.566   4.623   4.226
  538SOL    HW2 2514   0.454   4.740   4.207
  539SOL     OW 2515   2.170   4.780   1.893
  539SOL    HW1 2516   2.189   4.793   1.796
  539SOL    HW2 2517   2.173   4.869   1.939
  540SOL     OW 2518   1.405   1.544   2.761
  540SOL    HW1 2519   1.493   1.520   2.721
  540SOL    HW2 2520   1.417   1.562   2.859
  541SOL     OW 2521   5.338   5.547   3.835
  541SOL    HW1 2522   5.253   5.521   3.882
  541SOL    HW2 2523   5.335   5.644   3.813
  542SOL     OW 2524   4.550   6.398   6.908
  542SOL    HW1 2525   4.502   6.411   6.996
  542SOL    HW2 2526   4.628   6.459   6.904
  543SOL     OW 2527   6.135   3.942   3.723
  543SOL    HW1 2528   6.041   3.911   3.737
  543SOL    HW2 2529   6.194   3.902   3.793
  544SOL     OW 2530   1.010   4.823   0.018
  544SOL    HW1 2531   1.038   4.745   0.073
  544SOL    HW2 2532   0.983   4.898   0.079
  545SOL     OW 2533   3.486   0.517   1.172
  545SOL    HW1 2534   3.541   0.559   1.244
  545SOL    HW2 2535   3.397   0.563   1.168
  546SOL     OW 2536   0.885   3.875   1.120
  546SOL    HW1 2537   0.938   3.891   1.203
  546SOL    HW2 2538   0.830   3.792   1.130
  547SOL     OW 2539   3.300   1.986   1.089
  547SOL    HW1 2540   3.360   2.013   1.164
  547SOL    HW2 2541   3.341   2.012   1.002
  548SOL     OW 2542   3.146   3.350   1.581
  548SOL    HW1 2543   3.114   3.282   1.646
  548SOL    HW2 2544   3.164   3.306   1.493
  549SOL     OW 2545   5.512   2.560   2.168
  549SOL    HW1 2546   5.475   2.630   2.229
  549SOL    HW2 2547   5.480   2.576   2.075
  550SOL     OW 2548   0.900   5.698   3.465
  550SOL    HW1 2549   0.985   5.734   3.428
  550SOL    HW2 2550   0.851   5.770   3.515
  551SOL     OW 2551   0.348   6.824   1.817
  551SOL    HW1 2552   0.435   6.820   1.865
  551SOL    HW2 2553   0.357   6.780   1.728
  552SOL     OW 2554   5.850   3.870   6.897
  552SOL    HW1 2555   5.762   3.905   6.926
  552SOL    HW2 2556   5.920   3.941   6.907
  553SOL     OW 2557   2.640   6.778   4.463
  553SOL    HW1 2558   2.622   6.722   4.382
  553SOL    HW2 2559   2.636   6.875   4.438
  554SOL     OW 2560   6.049   0.294   0.027
  554SOL    HW1 2561   6.032   0.196   0.042
  554SOL    HW2 2562   6.060   0.339   0.116
  555SOL     OW 2563   3.656   4.945   4.964
  555SOL    HW1 2564   3.578   4.913   4.911
  555SOL    HW2 2565   3.651   4.908   5.057
  556SOL     OW 2566   4.912   2.013   3.821
  556SOL    HW1 2567   4.854   2.030   3.900
  556SOL    HW2 2568   4.866   2.044   3.738
  557SOL     OW 2569   6.913   5.650   0.447
  557SOL    HW1 2570   6.947   5.559   0.469
  557SOL    HW2 2571   6.845   5.678   0.515
  558SOL     OW 2572   3.629   3.248   3.435
  558SOL    HW1 2573   3.639   3.250   3.534
  558SOL    HW2 2574   3.564   3.176   3.409
  559SOL     OW 2575   0.064   5.512   5.951
  559SOL    HW1 2576   0.116   5.432   5.978
  559SOL    HW2 2577   0.018   5.551   6.031
  560SOL     OW 2578   6.479   3.685   3.579
  560SOL    HW1 2579   6.488   3.765   3.520
  560SOL    HW2 2580   6.494   3.712   3.674
  561SOL     OW 2581   0.618   2.400   0.968
  561SOL    HW1 2582   0.662   2.403   1.057
  561SOL    HW2 2583   0.684   2.369   0.899
  562SOL     OW 2584   4.277   0.096   6.144
  562SOL    HW1 2585   4.335   0.175   6.164
  562SOL    HW2 2586   4.181   0.122   6.154
  563SOL     OW 2587   3.001   0.508   3.838
  563SOL    HW1 2588   3.023   0.605   3.838
  563SOL    HW2 2589   3.079   0.456   3.873
  564SOL     OW 2590   0.957   3.115   0.217
  564SOL    HW1 2591   1.049   3.153   0.223
  564SOL    HW2 2592   0.893   3.187   0.191
  565SOL     OW 2593   3.672   4.018   4.451
  565SOL    HW1 2594   3.595   4.056   4.399
  565SOL    HW2 2595   3.702   3.933   4.408
  566SOL     OW 2596   0.601   4.151   3.200
  566SOL    HW1 2597   0.506   4.125   3.182
  566SOL    HW2 2598   0.606   4.250   3.217
  567SOL     OW 2599   2.879   2.978   1.720
  567SOL    HW1 2600   2.895   2.888   1.761
  567SOL    HW2 2601   2.929   2.985   1.634
  568SOL     OW 2602   4.900   0.030   0.032
  568SOL    HW1 2603   4.837   6.985   0.068
  568SOL    HW2 2604   4.935   0.086   0.107
  569SOL     OW 2605   1.369   3.006   0.168
  569SOL    HW1 2606   1.338   3.022   0.261
  569SOL    HW2 2607   1.350   2.911   0.143
  570SOL     OW 2608   3.738   0.142   6.257
  570SOL    HW1 2609   3.668   0.127   6.327
  570SOL    HW2 2610   3.694   0.177   6.174
  571SOL     OW 2611   2.980   4.862   3.041
  571SOL    HW1 2612   3.029   4.886   2.957
  571SOL    HW2 2613   2.883   4.850   3.021
  572SOL     OW 2614   2.801   4.957   5.640
  572SOL    HW1 2615   2.816   5.045   5.595
  572SOL    HW2 2616   2.706   4.930   5.630
  573SOL     OW 2617   5.439   0.640   5.649
  573SOL    HW1 2618   5.466   0.719   5.594
  573SOL    HW2 2619   5.517   0.607   5.701
  574SOL     OW 2620   3.471   1.638   4.645
  574SOL    HW1 2621   3.496   1.571   4.716
  574SOL    HW2 2622   3.387   1.685   4.671
  575SOL     OW 2623   5.000   3.795   1.365
  575SOL    HW1 2624   5.018   3.891   1.341
  575SOL    HW2 2625   4.914   3.766   1.323
  576SOL     OW 2626   1.449   2.433   2.657
  576SOL    HW1 2627   1.470   2.339   2.629
  576SOL    HW2 2628   1.534   2.481   2.680
  577SOL     OW 2629   1.281   1.312   2.725
  577SOL    HW1 2630   1.328   1.397   2.749
  577SOL    HW2 2631   1.211   1.292   2.794
  578SOL     OW 2632   6.649   5.193   4.867
  578SOL    HW1 2633   6.610   5.171   4.777
  578SOL    HW2 2634   6.707   5.274   4.858
  579SOL     OW 2635   1.829   3.521   4.100
  579SOL    HW1 2636   1.874   3.444   4.145
  579SOL    HW2 2637   1.802   3.589   4.169
  580SOL     OW 2638   5.072   4.884   5.255
  580SOL    HW1 2639   5.124   4.966   5.229
  580SOL    HW2 2640   4.988   4.880   5.200
  581SOL     OW 2641   1.839   2.495   1.812
  581SOL    HW1 2642   1.813   2.433   1.885
  581SOL    HW2 2643   1.851   2.588   1.848
  582SOL     OW 2644   4.826   6.125   2.741
  582SOL    HW1 2645   4.887   6.051   2.769
  582SOL    HW2 2646   4.857   6.163   2.654
  583SOL     OW 2647   2.784   6.074   5.078
  583SOL    HW1 2648   2.796   6.020   4.994
  583SOL    HW2 2649   2.748   6.164   5.054
  584SOL     OW 2650   2.640   5.673   6.763
  584SOL    HW1 2651   2.647   5.762   6.718
  584SOL    HW2 2652   2.550   5.664   6.805
  585SOL     OW 2653   4.490   1.630   6.614
  585SOL    HW1 2654   4.429   1.646   6.691
  585SOL    HW2 2655   4.576   1.590   6.646
  586SOL     OW 2656   3.147   0.308   6.176
  586SOL    HW1 2657   3.228   0.251   6.189
  586SOL    HW2 2658   3.078   0.285   6.246
  587SOL     OW 2659   4.758   2.450   4.106
  587SOL    HW1 2660   4.751   2.386   4.030
  587SOL    HW2 2661   4.743   2.401   4.192
  588SOL     OW 2662   2.478   5.450   1.191
  588SOL    HW1 2663   2.454   5.357   1.217
  588SOL    HW2 2664   2.545   5.487   1.256
  589SOL     OW 2665   3.653   5.055   1.480
  589SOL    HW1 2666   3.568   5.008   1.501
  589SOL    HW2 2667   3.710   5.060   1.562
  590SOL     OW 2668   5.309   2.994   2.058
  590SOL    HW1 2669   5.263   2.992   2.147
  590SOL    HW2 2670   5.387   3.056   2.062
  591SOL     OW 2671   3.760   5.574   3.475
  591SOL    HW1 2672   3.671   5.614   3.498
  591SOL    HW2 2673   3.755   5.530   3.386
  592SOL     OW 2674   3.891   1.415   1.270
  592SOL    HW1 2675   3.969   1.371   1.314
  592SOL    HW2 2676   3.861   1.360   1.192
  593SOL     OW 2677   3.984   2.218   4.379
  593SOL    HW1 2678   4.055   2.221   4.449
  593SOL    HW2 2679   3.896   2.199   4.421
  594SOL     OW 2680   6.063   1.097   0.786
  594SOL    HW1 2681   6.052   1.094   0.686
  594SOL    HW2 2682   6.151   1.057   0.810
  595SOL     OW 2683   5.586   0.683   3.551
  595SOL    HW1 2684   5.608   0.779   3.538
  595SOL    HW2 2685   5.670   0.628   3.544
  596SOL     OW 2686   0.487   5.505   3.737
  596SOL    HW1 2687   0.564   5.518   3.675
  596SOL    HW2 2688   0.481   5.584   3.799
  597SOL     OW 2689   2.192   0.055   0.274
  597SOL    HW1 2690   2.124   0.050   0.348
  597SOL    HW2 2691   2.252   0.133   0.291
  598SOL     OW 2692   3.760   3.813   5.078
  598SOL    HW1 2693   3.774   3.717   5.057
  598SOL    HW2 2694   3.735   3.824   5.174
  599SOL     OW 2695   2.630   6.316   2.288
  599SOL    HW1 2696   2.724   6.350   2.278
  599SOL    HW2 2697   2.571   6.361   2.221
  600SOL     OW 2698   6.223   1.554   6.606
  600SOL    HW1 2699   6.213   1.520   6.512
  600SOL    HW2 2700   6.259   1.481   6.664
  601SOL     OW 2701   1.249   0.654   4.386
  601SOL    HW1 2702   1.171   0.679   4.443
  601SOL    HW2 2703   1.302   0.736   4.365
  602SOL     OW 2704   1.188   1.317   6.345
  602SOL    HW1 2705   1.141   1.350   6.263
  602SOL    HW2 2706   1.133   1.247   6.389
  603SOL     OW 2707   2.925   2.698   5.315
  603SOL    HW1 2708   2.980   2.624   5.353
  603SOL    HW2 2709   2.882   2.750   5.389
  604SOL     OW 2710   1.004   2.121   1.389
  604SOL    HW1 2711   1.044   2.073   1.312
  604SOL    HW2 2712   1.010   2.065   1.471
  605SOL     OW 2713   6.638   5.279   6.960
  605SOL    HW1 2714   6.647   5.304   6.864
  605SOL    HW2 2715   6.641   5.179   6.969
  606SOL     OW 2716   5.117   6.485   6.300
  606SOL    HW1 2717   5.139   6.569   6.349
  606SOL    HW2 2718   5.200   6.448   6.259
  607SOL     OW 2719   6.036   5.173   4.991
  607SOL    HW1 2720   5.994   5.163   5.081
  607SOL    HW2 2721   6.100   5.250   4.993
  608SOL     OW 2722   3.664   6.313   6.575
  608SOL    HW1 2723   3.611   6.345   6.654
  608SOL    HW2 2724   3.760   6.340   6.586
  609SOL     OW 2725   3.959   3.088   2.597
  609SOL    HW1 2726   3.987   3.149   2.671
  609SOL    HW2 2727   3.873   3.044   2.622
  610SOL     OW 2728   6.034   3.877   2.042
  610SOL    HW1 2729   6.072   3.969   2.052
  610SOL    HW2 2730   5.936   3.879   2.061
  611SOL     OW 2731   4.204   6.881   2.044
  611SOL    HW1 2732   4.233   6.808   2.106
  611SOL    HW2 2733   4.283   6.938   2.020
  612SOL     OW 2734   4.029   6.492   4.381
  612SOL    HW1 2735   4.125   6.478   4.353
  612SOL    HW2 2736   4.006   6.427   4.454
  613SOL     OW 2737   4.940   5.726   5.370
  613SOL    HW1 2738   4.958   5.766   5.280
  613SOL    HW2 2739   5.024   5.683   5.404
  614SOL     OW 2740   4.981   5.579   6.802
  614SOL    HW1 2741   5.044   5.648   6.765
  614SOL    HW2 2742   4.900   5.625   6.839
  615SOL     OW 2743   0.124   2.400   2.312
  615SOL    HW1 2744   0.160   2.318   2.268
  615SOL    HW2 2745   0.094   2.378   2.405
  616SOL     OW 2746   0.861   3.097   3.330
  616SOL    HW1 2747   0.942   3.099   3.388
  616SOL    HW2 2748   0.815   3.009   3.341
  617SOL     OW 2749   0.538   4.403   6.553
  617SOL    HW1 2750   0.616   4.446   6.508
  617SOL    HW2 2751   0.565   4.371   6.644
  618SOL     OW 2752   6.600   2.275   0.609
  618SOL    HW1 2753   6.506   2.279   0.576
  618SOL    HW2 2754   6.611   2.335   0.688
  619SOL     OW 2755   4.198   1.183   0.033
  619SOL    HW1 2756   4.240   1.185   0.124
  619SOL    HW2 2757   4.169   1.275   0.007
  620SOL     OW 2758   3.903   2.413   1.532
  620SOL    HW1 2759   3.995   2.412   1.492
  620SOL    HW2 2760   3.901   2.355   1.613
  621SOL     OW 2761   2.252   6.689   6.925
  621SOL    HW1 2762   2.337   6.669   6.973
  621SOL    HW2 2763   2.262   6.669   6.828
  622SOL     OW 2764   1.020   0.538   6.693
  622SOL    HW1 2765   0.927   0.559   6.663
  622SOL    HW2 2766   1.024   0.539   6.793
  623SOL     OW 2767   0.460   5.443   5.462
  623SOL    HW1 2768   0.487   5.381   5.388
  623SOL    HW2 2769   0.538   5.498   5.491
  624SOL     OW 2770   0.132   2.460   0.873
  624SOL    HW1 2771   0.110   2.364   0.891
  624SOL    HW2 2772   0.064   2.519   0.918
  625SOL     OW 2773   2.049   1.901   1.784
  625SOL    HW1 2774   1.979   1.844   1.741
  625SOL    HW2 2775   2.012   1.940   1.869
  626SOL     OW 2776   2.047   6.169   3.462
  626SOL    HW1 2777   2.009   6.260   3.476
  626SOL    HW2 2778   2.135   6.161   3.511
  627SOL     OW 2779   5.316   6.648   0.075
  627SOL    HW1 2780   5.369   6.732   0.062
  627SOL    HW2 2781   5.361   6.590   0.143
  628SOL     OW 2782   6.093   5.574   6.279
  628SOL    HW1 2783   6.147   5.592   6.197
  628SOL    HW2 2784   6.151   5.580   6.360
  629SOL     OW 2785   6.661   6.585   0.545
  629SOL    HW1 2786   6.720   6.618   0.472
  629SOL    HW2 2787   6.717   6.552   0.621
  630SOL     OW 2788   6.482   2.017   2.213
  630SOL    HW1 2789   6.513   1.974   2.298
  630SOL    HW2 2790   6.450   1.947   2.149
  631SOL     OW 2791   3.176   6.669   5.340
  631SOL    HW1 2792   3.198   6.667   5.437
  631SOL    HW2 2793   3.197   6.580   5.299
  632SOL     OW 2794   2.460   1.170   0.830
  632SOL    HW1 2795   2.505   1.258   0.842
  632SOL    HW2 2796   2.409   1.170   0.744
  633SOL     OW 2797   4.777   4.101   0.143
  633SOL    HW1 2798   4.712   4.170   0.175
  633SOL    HW2 2799   4.826   4.136   0.064
  634SOL     OW 2800   4.553   4.600   1.452
  634SOL    HW1 2801   4.531   4.660   1.529
  634SOL    HW2 2802   4.532   4.646   1.366
  635SOL     OW 2803   4.724   4.816   0.922
  635SOL    HW1 2804   4.668   4.807   1.004
  635SOL    HW2 2805   4.707   4.905   0.879
  636SOL     OW 2806   4.228   5.539   6.415
  636SOL    HW1 2807   4.252   5.443   6.396
  636SOL    HW2 2808   4.172   5.574   6.341
  637SOL     OW 2809   6.800   4.083   2.651
  637SOL    HW1 2810   6.808   4.107   2.554
  637SOL    HW2 2811   6.704   4.092   2.680
  638SOL     OW 2812   5.531   1.993   3.032
  638SOL    HW1 2813   5.488   2.065   2.978
  638SOL    HW2 2814   5.519   2.012   3.129
  639SOL     OW 2815   5.051   3.816   2.584
  639SOL    HW1 2816   4.971   3.787   2.532
  639SOL    HW2 2817   5.129   3.757   2.563
  640SOL     OW 2818   0.340   5.255   4.293
  640SOL    HW1 2819   0.404   5.206   4.233
  640SOL    HW2 2820   0.391   5.319   4.351
  641SOL     OW 2821   6.934   6.278   4.844
  641SOL    HW1 2822   6.870   6.242   4.775
  641SOL    HW2 2823   6.913   6.237   4.933
  642SOL     OW 2824   0.263   3.323   4.508
  642SOL    HW1 2825   0.356   3.336   4.544
  642SOL    HW2 2826   0.247   3.388   4.434
  643SOL     OW 2827   4.916   5.382   5.095
  643SOL    HW1 2828   4.928   5.473   5.055
  643SOL    HW2 2829   4.935   5.313   5.026
  644SOL     OW 2830   1.024   5.868   4.328
  644SOL    HW1 2831   1.060   5.799   4.390
  644SOL    HW2 2832   1.056   5.958   4.357
  645SOL     OW 2833   4.689   1.507   4.682
  645SOL    HW1 2834   4.620   1.435   4.671
  645SOL    HW2 2835   4.780   1.468   4.669
  646SOL     OW 2836   3.355   1.404   4.444
  646SOL    HW1 2837   3.378   1.494   4.483
  646SOL    HW2 2838   3.416   1.383   4.369
  647SOL     OW 2839   5.656   1.952   4.872
  647SOL    HW1 2840   5.738   1.999   4.906
  647SOL    HW2 2841   5.683   1.870   4.823
  648SOL     OW 2842   0.118   4.254   4.174
  648SOL    HW1 2843   0.162   4.341   4.196
  648SOL    HW2 2844   0.032   4.246   4.223
  649SOL     OW 2845   3.612   3.868   0.609
  649SOL    HW1 2846   3.704   3.863   0.648
  649SOL    HW2 2847   3.545   3.834   0.675
  650SOL     OW 2848   6.384   4.487   0.783
  650SOL    HW1 2849   6.482   4.469   0.773
  650SOL    HW2 2850   6.346   4.427   0.853
  651SOL     OW 2851   6.753   6.938   6.214
  651SOL    HW1 2852   6.668   6.985   6.192
  651SOL    HW2 2853   6.734   6.860   6.274
  652SOL     OW 2854   5.222   6.338   3.723
  652SOL    HW1 2855   5.152   6.373   3.660
  652SOL    HW2 2856   5.294   6.294   3.670
  653SOL     OW 2857   2.866   6.035   4.795
  653SOL    HW1 2858   2.778   6.044   4.748
  653SOL    HW2 2859   2.923   6.115   4.775
  654SOL     OW 2860   0.521   4.013   6.047
  654SOL    HW1 2861   0.479   4.041   5.960
  654SOL    HW2 2862   0.600   4.071   6.066
  655SOL     OW 2863   0.722   6.258   2.011
  655SOL    HW1 2864   0.687   6.187   1.949
  655SOL    HW2 2865   0.653   6.329   2.022
  656SOL     OW 2866   1.608   5.883   1.845
  656SOL    HW1 2867   1.678   5.828   1.891
  656SOL    HW2 2868   1.588   5.964   1.900
  657SOL     OW 2869   1.505   2.291   1.359
  657SOL    HW1 2870   1.434   2.226   1.334
  657SOL    HW2 2871   1.593   2.260   1.324
  658SOL     OW 2872   2.720   3.407   5.928
  658SOL    HW1 2873   2.811   3.415   5.888
  658SOL    HW2 2874   2.666   3.488   5.904
  659SOL     OW 2875   2.298   5.799   5.632
  659SOL    HW1 2876   2.382   5.765   5.675
  659SOL    HW2 2877   2.246   5.853   5.699
  660SOL     OW 2878   5.118   4.389   2.193
  660SOL    HW1 2879   5.175   4.312   2.221
  660SOL    HW2 2880   5.072   4.428   2.272
  661SOL     OW 2881   4.242   5.634   3.090
  661SOL    HW1 2882   4.337   5.651   3.065
  661SOL    HW2 2883   4.189   5.614   3.008
  662SOL     OW 2884   3.823   0.715   5.759
  662SOL    HW1 2885   3.858   0.630   5.800
  662SOL    HW2 2886   3.805   0.782   5.831
  663SOL     OW 2887   2.203   3.978   6.096
  663SOL    HW1 2888   2.288   3.927   6.105
  663SOL    HW2 2889   2.223   4.071   6.065
  664SOL     OW 2890   6.832   5.195   6.185
  664SOL    HW1 2891   6.804   5.291   6.196
  664SOL    HW2 2892   6.775   5.137   6.243
  665SOL     OW 2893   5.675   5.481   2.084
  665SOL    HW1 2894   5.735   5.498   2.006
  665SOL    HW2 2895   5.627   5.394   2.070
  666SOL     OW 2896   5.291   1.996   2.492
  666SOL    HW1 2897   5.271   1.905   2.528
  666SOL    HW2 2898   5.381   2.025   2.523
  667SOL     OW 2899   1.160   4.843   3.046
  667SOL    HW1 2900   1.070   4.873   3.015
  667SOL    HW2 2901   1.152   4.756   3.093
  668SOL     OW 2902   5.350   6.682   5.875
  668SOL    HW1 2903   5.288   6.624   5.927
  668SOL    HW2 2904   5.391   6.627   5.802
  669SOL     OW 2905   4.069   0.431   2.639
  669SOL    HW1 2906   4.118   0.428   2.552
  669SOL    HW2 2907   4.112   0.498   2.699
  670SOL     OW 2908   3.161   2.703   1.371
  670SOL    HW1 2909   3.139   2.614   1.411
  670SOL    HW2 2910   3.260   2.712   1.363
  671SOL     OW 2911   1.495   6.373   0.199
  671SOL    HW1 2912   1.455   6.457   0.163
  671SOL    HW2 2913   1.493   6.302   0.128
  672SOL     OW 2914   0.400   5.603   2.101
  672SOL    HW1 2915   0.469   5.548   2.146
  672SOL    HW2 2916   0.380   5.684   2.156
  673SOL     OW 2917   6.769   6.445   1.619
  673SOL    HW1 2918   6.843   6.416   1.559
  673SOL    HW2 2919   6.804   6.515   1.683
  674SOL     OW 2920   1.253   1.482   5.055
  674SOL    HW1 2921   1.288   1.575   5.055
  674SOL    HW2 2922   1.257   1.445   5.148
  675SOL     OW 2923   0.768   0.863   3.088
  675SOL    HW1 2924   0.809   0.862   2.997
  675SOL    HW2 2925   0.814   0.932   3.144
  676SOL     OW 2926   3.149   6.124   2.370
  676SOL    HW1 2927   3.101   6.157   2.451
  676SOL    HW2 2928   3.186   6.201   2.319
  677SOL     OW 2929   5.790   1.997   0.858
  677SOL    HW1 2930   5.822   2.065   0.792
  677SOL    HW2 2931   5.709   2.033   0.905
  678SOL     OW 2932   2.131   0.371   5.434
  678SOL    HW1 2933   2.078   0.352   5.352
  678SOL    HW2 2934   2.072   0.415   5.502
  679SOL     OW 2935   4.473   2.121   3.307
  679SOL    HW1 2936   4.440   2.070   3.386
  679SOL    HW2 2937   4.452   2.070   3.223
  680SOL     OW 2938   5.801   5.382   5.936
  680SOL    HW1 2939   5.750   5.459   5.898
  680SOL    HW2 2940   5.736   5.311   5.965
  681SOL     OW 2941   5.560   4.616   1.775
  681SOL    HW1 2942   5.574   4.710   1.803
  681SOL    HW2 2943   5.572   4.608   1.676
  682SOL     OW 2944   6.892   1.403   1.115
  682SOL    HW1 2945   6.809   1.412   1.060
  682SOL    HW2 2946   6.957   1.475   1.089
  683SOL     OW 2947   4.874   3.597   0.375
  683SOL    HW1 2948   4.920   3.509   0.371
  683SOL    HW2 2949   4.835   3.610   0.466
  684SOL     OW 2950   6.599   1.378   0.078
  684SOL    HW1 2951   6.581   1.361   7.006
  684SOL    HW2 2952   6.593   1.293   0.129
  685SOL     OW 2953   3.824   1.357   3.370
  685SOL    HW1 2954   3.922   1.371   3.388
  685SOL    HW2 2955   3.787   1.439   3.326
  686SOL     OW 2956   5.084   3.166   3.729
  686SOL    HW1 2957   5.018   3.092   3.743
  686SOL    HW2 2958   5.084   3.193   3.633
  687SOL     OW 2959   0.303   2.147   4.388
  687SOL    HW1 2960   0.376   2.096   4.342
  687SOL    HW2 2961   0.214   2.112   4.358
  688SOL     OW 2962   0.362   1.443   6.915
  688SOL    HW1 2963   0.454   1.463   6.880
  688SOL    HW2 2964   0.369   1.376   6.989
  689SOL     OW 2965   0.311   4.982   6.569
  689SOL    HW1 2966   0.271   5.046   6.504
  689SOL    HW2 2967   0.408   5.004   6.582
  690SOL     OW 2968   0.674   3.901   2.539
  690SOL    HW1 2969   0.654   3.969   2.609
  690SOL    HW2 2970   0.594   3.891   2.479
  691SOL     OW 2971   2.540   0.192   0.387
  691SOL    HW1 2972   2.578   0.126   0.322
  691SOL    HW2 2973   2.614   0.227   0.446
  692SOL     OW 2974   3.473   0.650   3.811
  692SOL    HW1 2975   3.397   0.711   3.791
  692SOL    HW2 2976   3.482   0.640   3.910
  693SOL     OW 2977   5.425   0.664   3.805
  693SOL    HW1 2978   5.504   0.715   3.840
  693SOL    HW2 2979   5.428   0.665   3.705
  694SOL     OW 2980   3.959   6.363   3.302
  694SOL    HW1 2981   3.910   6.290   3.349
  694SOL    HW2 2982   4.016   6.413   3.368
  695SOL     OW 2983   4.445   6.807   4.202
  695SOL    HW1 2984   4.413   6.718   4.169
  695SOL    HW2 2985   4.429   6.813   4.301
  696SOL     OW 2986   4.821   5.015   2.850
  696SOL    HW1 2987   4.727   4.989   2.874
  696SOL    HW2 2988   4.883   4.939   2.870
  697SOL     OW 2989   1.800   3.843   3.552
  697SOL    HW1 2990   1.825   3.793   3.635
  697SOL    HW2 2991   1.811   3.784   3.472
  698SOL     OW 2992   4.489   6.968   0.907
  698SOL    HW1 2993   4.486   0.043   0.910
  698SOL    HW2 2994   4.576   6.936   0.944
  699SOL     OW 2995   2.133   3.527   6.418
  699SOL    HW1 2996   2.099   3.433   6.410
  699SOL    HW2 2997   2.064   3.590   6.381
  700SOL     OW 2998   2.750   0.604   2.327
  700SOL    HW1 2999   2.669   0.600   2.269
  700SOL    HW2 3000   2.786   0.697   2.328
  701SOL     OW 3001   6.373   3.899   6.149
  701SOL    HW1 3002   6.412   3.859   6.231
  701SOL    HW2 3003   6.353   3.827   6.083
  702SOL     OW 3004   1.342   5.892   4.656
  702SOL    HW1 3005   1.284   5.974   4.655
  702SOL    HW2 3006   1.291   5.815   4.619
  703SOL     OW 3007   3.791   3.898   6.725
  703SOL    HW1 3008   3.785   3.952   6.641
  703SOL    HW2 3009   3.742   3.812   6.712
  704SOL     OW 3010   1.553   2.760   0.499
  704SOL    HW1 3011   1.586   2.671   0.469
  704SOL    HW2 3012   1.463   2.777   0.459
  705SOL     OW 3013   6.282   5.294   2.932
  705SOL    HW1 3014   6.251   5.365   2.995
  705SOL    HW2 3015   6.270   5.325   2.838
  706SOL     OW 3016   4.366   2.036   4.807
  706SOL    HW1 3017   4.448   1.986   4.832
  706SOL    HW2 3018   4.375   2.132   4.836
  707SOL     OW 3019   4.512   5.035   2.857
  707SOL    HW1 3020   4.485   5.124   2.894
  707SOL    HW2 3021   4.459   5.016   2.775
  708SOL     OW 3022   3.803   0.481   2.151
  708SOL    HW1 3023   3.882   0.491   2.211
  708SOL    HW2 3024   3.772   0.386   2.152
  709SOL     OW 3025   0.503   5.931   0.733
  709SOL    HW1 3026   0.569   5.856   0.735
  709SOL    HW2 3027   0.413   5.896   0.705
  710SOL     OW 3028   3.724   2.597   1.107
  710SOL    HW1 3029   3.758   2.551   1.025
  710SOL    HW2 3030   3.702   2.529   1.177
  711SOL     OW 3031   6.980   3.092   5.769
  711SOL    HW1 3032   6.984   3.102   5.670
  711SOL    HW2 3033   0.044   3.057   5.802
  712SOL     OW 3034   4.104   2.438   1.324
  712SOL    HW1 3035   4.073   2.365   1.264
  712SOL    HW2 3036   4.162   2.502   1.272
  713SOL     OW 3037   4.231   2.491   5.969
  713SOL    HW1 3038   4.274   2.521   6.054
  713SOL    HW2 3039   4.179   2.568   5.930
  714SOL     OW 3040   0.037   4.598   3.563
  714SOL    HW1 3041   6.974   4.619   3.519
  714SOL    HW2 3042   0.074   4.513   3.526
  715SOL     OW 3043   5.183   6.259   6.929
  715SOL    HW1 3044   5.243   6.230   6.854
  715SOL    HW2 3045   5.100   6.299   6.891
  716SOL     OW 3046   0.409   0.640   2.086
  716SOL    HW1 3047   0.368   0.698   2.156
  716SOL    HW2 3048   0.459   0.565   2.130
  717SOL     OW 3049   6.717   4.582   4.127
  717SOL    HW1 3050   6.735   4.620   4.036
  717SOL    HW2 3051   6.803   4.577   4.178
  718SOL     OW 3052   4.454   2.870   6.158
  718SOL    HW1 3053   4.469   2.885   6.060
  718SOL    HW2 3054   4.356   2.864   6.176
  719SOL     OW 3055   6.562   0.930   2.658
  719SOL    HW1 3056   6.563   0.841   2.704
  719SOL    HW2 3057   6.619   0.926   2.576
  720SOL     OW 3058   2.194   0.351   5.981
  720SOL    HW1 3059   2.149   0.290   5.916
  720SOL    HW2 3060   2.154   0.339   6.072
  721SOL     OW 3061   2.444   1.475   2.817
  721SOL    HW1 3062   2.362   1.500   2.765
  721SOL    HW2 3063   2.416   1.431   2.902
  722SOL     OW 3064   2.720   0.493   5.429
  722SOL    HW1 3065   2.804   0.476   5.481
  722SOL    HW2 3066   2.713   0.590   5.409
  723SOL     OW 3067   1.467   4.477   3.569
  723SOL    HW1 3068   1.491   4.559   3.517
  723SOL    HW2 3069   1.522   4.472   3.652
  724SOL     OW 3070   1.451   2.171   3.999
  724SOL    HW1 3071   1.485   2.163   4.093
  724SOL    HW2 3072   1.406   2.260   3.987
  725SOL     OW 3073   2.285   5.539   1.594
  725SOL    HW1 3074   2.365   5.479   1.600
  725SOL    HW2 3075   2.218   5.510   1.662
  726SOL     OW 3076   3.623   4.729   1.055
  726SOL    HW1 3077   3.677   4.646   1.069
  726SOL    HW2 3078   3.659   4.780   0.978
  727SOL     OW 3079   6.498   4.532   5.711
  727SOL    HW1 3080   6.578   4.475   5.731
  727SOL    HW2 3081   6.425   4.510   5.775
  728SOL     OW 3082   6.306   3.121   3.752
  728SOL    HW1 3083   6.285   3.108   3.655
  728SOL    HW2 3084   6.383   3.061   3.777
  729SOL     OW 3085   0.673   1.809   1.721
  729SOL    HW1 3086   0.711   1.884   1.775
  729SOL    HW2 3087   0.728   1.727   1.735
  730SOL     OW 3088   5.773   0.435   4.385
  730SOL    HW1 3089   5.741   0.383   4.306
  730SOL    HW2 3090   5.771   0.377   4.466
  731SOL     OW 3091   4.825   4.868   6.597
  731SOL    HW1 3092   4.829   4.967   6.608
  731SOL    HW2 3093   4.831   4.824   6.687
  732SOL     OW 3094   5.535   2.858   1.409
  732SOL    HW1 3095   5.473   2.818   1.342
  732SOL    HW2 3096   5.488   2.869   1.496
  733SOL     OW 3097   5.462   0.058   4.550
  733SOL    HW1 3098   5.512   0.012   4.624
  733SOL    HW2 3099   5.454   0.155   4.571
  734SOL     OW 3100   6.175   4.519   3.124
  734SOL    HW1 3101   6.142   4.483   3.037
  734SOL    HW2 3102   6.098   4.540   3.184
  735SOL     OW 3103   4.313   1.732   0.356
  735SOL    HW1 3104   4.347   1.641   0.331
  735SOL    HW2 3105   4.264   1.727   0.442
  736SOL     OW 3106   0.004   2.041   3.308
  736SOL    HW1 3107   6.985   2.062   3.395
  736SOL    HW2 3108   0.097   2.078   3.307
  737SOL     OW 3109   4.997   1.811   4.877
  737SOL    HW1 3110   5.087   1.778   4.905
  737SOL    HW2 3111   4.947   1.845   4.957
  738SOL     OW 3112   2.704   3.648   1.058
  738SOL    HW1 3113   2.743   3.573   1.005
  738SOL    HW2 3114   2.728   3.636   1.154
  739SOL     OW 3115   4.570   0.990   4.187
  739SOL    HW1 3116   4.594   1.084   4.211
  739SOL    HW2 3117   4.513   0.990   4.105
  740SOL     OW 3118   6.227   1.293   1.560
  740SOL    HW1 3119   6.224   1.372   1.622
  740SOL    HW2 3120   6.209   1.324   1.466
  741SOL     OW 3121   1.518   0.496   3.408
  741SOL    HW1 3122   1.556   0.511   3.500
  741SOL    HW2 3123   1.477   0.405   3.404
  742SOL     OW 3124   2.649   6.759   1.699
  742SOL    HW1 3125   2.591   6.678   1.703
  742SOL    HW2 3126   2.603   6.831   1.648
  743SOL     OW 3127   1.076   5.157   3.479
  743SOL    HW1 3128   1.075   5.064   3.443
  743SOL    HW2 3129   1.006   5.166   3.550
  744SOL     OW 3130   5.557   0.320   1.202
  744SOL    HW1 3131   5.650   0.299   1.170
  744SOL    HW2 3132   5.560   0.335   1.301
  745SOL     OW 3133   1.328   5.377   4.445
  745SOL    HW1 3134   1.278   5.377   4.358
  745SOL    HW2 3135   1.423   5.405   4.428
  746SOL     OW 3136   6.625   3.802   6.956
  746SOL    HW1 3137   6.707   3.855   6.936
  746SOL    HW2 3138   6.592   3.824   0.024
  747SOL     OW 3139   3.778   6.468   4.170
  747SOL    HW1 3140   3.813   6.557   4.200
  747SOL    HW2 3141   3.788   6.401   4.244
  748SOL     OW 3142   4.047   4.916   2.075
  748SOL    HW1 3143   4.103   4.884   1.998
  748SOL    HW2 3144   3.969   4.855   2.087
  749SOL     OW 3145   5.733   3.604   4.632
  749SOL    HW1 3146   5.676   3.667   4.579
  749SOL    HW2 3147   5.787   3.656   4.699
  750SOL     OW 3148   2.319   1.854   1.367
  750SOL    HW1 3149   2.378   1.799   1.426
  750SOL    HW2 3150   2.237   1.881   1.417
  751SOL     OW 3151   4.058   1.570   0.120
  751SOL    HW1 3152   3.975   1.599   0.071
  751SOL    HW2 3153   4.134   1.564   0.055
  752SOL     OW 3154   3.181   1.342   1.613
  752SOL    HW1 3155   3.225   1.291   1.540
  752SOL    HW2 3156   3.105   1.289   1.651
  753SOL     OW 3157   0.983   3.584   5.876
  753SOL    HW1 3158   0.894   3.630   5.865
  753SOL    HW2 3159   1.018   3.558   5.786
  754SOL     OW 3160   4.583   1.713   5.732
  754SOL    HW1 3161   4.494   1.731   5.774
  754SOL    HW2 3162   4.577   1.633   5.673
  755SOL     OW 3163   1.847   5.231   4.963
  755SOL    HW1 3164   1.824   5.156   4.900
  755SOL    HW2 3165   1.868   5.194   5.053
  756SOL     OW 3166   3.106   6.384   6.738
  756SOL    HW1 3167   3.074   6.290   6.746
  756SOL    HW2 3168   3.098   6.429   6.827
  757SOL     OW 3169   0.388   0.383   4.335
  757SOL    HW1 3170   0.346   0.294   4.351
  757SOL    HW2 3171   0.456   0.375   4.262
  758SOL     OW 3172   3.168   0.540   3.111
  758SOL    HW1 3173   3.141   0.491   3.029
  758SOL    HW2 3174   3.215   0.625   3.086
  759SOL     OW 3175   0.639   2.593   1.976
  759SOL    HW1 3176   0.620   2.514   1.918
  759SOL    HW2 3177   0.574   2.595   2.052
  760SOL     OW 3178   6.415   6.542   4.165
  760SOL    HW1 3179   6.432   6.444   4.159
  760SOL    HW2 3180   6.365   6.572   4.084
  761SOL     OW 3181   5.524   3.674   6.123
  761SOL    HW1 3182   5.569   3.728   6.052
  761SOL    HW2 3183   5.482   3.594   6.082
  762SOL     OW 3184   2.617   6.966   4.878
  762SOL    HW1 3185   2.600   6.947   4.975
  762SOL    HW2 3186   2.604   6.882   4.825
  763SOL     OW 3187   4.276   5.324   6.258
  763SOL    HW1 3188   4.309   5.378   6.180
  763SOL    HW2 3189   4.176   5.322   6.256
  764SOL     OW 3190   5.613   0.814   5.250
  764SOL    HW1 3191   5.695   0.866   5.225
  764SOL    HW2 3192   5.572   0.854   5.332
  765SOL     OW 3193   1.203   5.912   1.570
  765SOL    HW1 3194   1.131   5.930   1.637
  765SOL    HW2 3195   1.292   5.909   1.617
  766SOL     OW 3196   2.308   2.226   6.240
  766SOL    HW1 3197   2.294   2.262   6.148
  766SOL    HW2 3198   2.273   2.292   6.307
  767SOL     OW 3199   6.472   5.885   3.346
  767SOL    HW1 3200   6.524   5.852   3.426
  767SOL    HW2 3201   6.512   5.970   3.313
  768SOL     OW 3202   2.461   5.875   2.775
  768SOL    HW1 3203   2.361   5.873   2.778
  768SOL    HW2 3204   2.493   5.801   2.715
  769SOL     OW 3205   2.573   1.361   5.277
  769SOL    HW1 3206   2.607   1.268   5.293
  769SOL    HW2 3207   2.640   1.428   5.310
  770SOL     OW 3208   1.657   4.869   3.196
  770SOL    HW1 3209   1.561   4.886   3.177
  770SOL    HW2 3210   1.682   4.777   3.165
  771SOL     OW 3211   0.850   5.069   2.428
  771SOL    HW1 3212   0.755   5.055   2.456
  771SOL    HW2 3213   0.887   5.149   2.476
  772SOL     OW 3214   5.633   4.451   6.420
  772SOL    HW1 3215   5.693   4.403   6.356
  772SOL    HW2 3216   5.543   4.408   6.419
  773SOL     OW 3217   0.065   4.699   4.077
  773SOL    HW1 3218   0.083   4.625   4.142
  773SOL    HW2 3219   0.055   4.661   3.985
  774SOL     OW 3220   1.741   1.427   1.203
  774SOL    HW1 3221   1.838   1.442   1.182
  774SOL    HW2 3222   1.705   1.508   1.249
  775SOL     OW 3223   1.810   2.335   4.236
  775SOL    HW1 3224   1.766   2.424   4.249
  775SOL    HW2 3225   1.770   2.268   4.298
  776SOL     OW 3226   0.913   0.332   5.352
  776SOL    HW1 3227   0.901   0.250   5.407
  776SOL    HW2 3228   0.844   0.400   5.377
  777SOL     OW 3229   1.702   4.849   1.480
  777SOL    HW1 3230   1.676   4.940   1.450
  777SOL    HW2 3231   1.788   4.853   1.531
  778SOL     OW 3232   2.354   1.118   2.006
  778SOL    HW1 3233   2.324   1.095   2.099
  778SOL    HW2 3234   2.406   1.203   2.008
  779SOL     OW 3235   0.021   2.728   2.734
  779SOL    HW1 3236   7.023   2.794   2.661
  779SOL    HW2 3237   0.043   2.778   2.818
  780SOL     OW 3238   0.593   3.170   4.023
  780SOL    HW1 3239   0.660   3.111   4.069
  780SOL    HW2 3240   0.522   3.114   3.982
  781SOL     OW 3241   5.907   6.884   0.249
  781SOL    HW1 3242   5.958   6.801   0.272
  781SOL    HW2 3243   5.877   6.928   0.333
  782SOL     OW 3244   1.390   3.522   6.219
  782SOL    HW1 3245   1.303   3.530   6.170
  782SOL    HW2 3246   1.373   3.493   6.313
  783SOL     OW 3247   5.178   4.878   2.113
  783SOL    HW1 3248   5.183   4.778   2.118
  783SOL    HW2 3249   5.246   4.918   2.175
  784SOL     OW 3250   4.601   4.813   0.462
  784SOL    HW1 3251   4.688   4.806   0.413
  784SOL    HW2 3252   4.526   4.795   0.399
  785SOL     OW 3253   0.674   2.080   3.507
  785SOL    HW1 3254   0.746   2.111   3.568
  785SOL    HW2 3255   0.590   2.063   3.560
  786SOL     OW 3256   0.555   0.213   3.279
  786SOL    HW1 3257   0.475   0.185   3.226
  786SOL    HW2 3258   0.597   0.293   3.236
  787SOL     OW 3259   1.552   0.525   0.114
  787SOL    HW1 3260   1.559   0.503   0.211
  787SOL    HW2 3261   1.625   0.588   0.088
  788SOL     OW 3262   3.939   1.356   0.393
  788SOL    HW1 3263   3.851   1.380   0.433
  788SOL    HW2 3264   3.947   1.396   0.301
  789SOL     OW 3265   3.865   4.541   1.222
  789SOL    HW1 3266   3.920   4.625   1.229
  789SOL    HW2 3267   3.920   4.463   1.251
  790SOL     OW 3268   1.925   1.577   2.993
  790SOL    HW1 3269   1.840   1.573   3.046
  790SOL    HW2 3270   1.937   1.669   2.955
  791SOL     OW 3271   1.304   5.627   4.182
  791SOL    HW1 3272   1.323   5.693   4.255
  791SOL    HW2 3273   1.243   5.556   4.217
  792SOL     OW 3274   0.378   0.938   1.262
  792SOL    HW1 3275   0.418   1.009   1.320
  792SOL    HW2 3276   0.431   0.854   1.272
  793SOL     OW 3277   5.266   4.960   4.100
  793SOL    HW1 3278   5.323   5.011   4.164
  793SOL    HW2 3279   5.241   5.018   4.023
  794SOL     OW 3280   2.886   3.933   5.916
  794SOL    HW1 3281   2.836   3.855   5.878
  794SOL    HW2 3282   2.963   3.955   5.855
  795SOL     OW 3283   3.997   6.869   4.507
  795SOL    HW1 3284   4.088   6.889   4.544
  795SOL    HW2 3285   3.929   6.883   4.579
  796SOL     OW 3286   1.019   2.667   5.649
  796SOL    HW1 3287   0.920   2.675   5.648
  796SOL    HW2 3288   1.054   2.677   5.556
  797SOL     OW 3289   5.699   1.959   1.228
  797SOL    HW1 3290   5.681   1.895   1.154
  797SOL    HW2 3291   5.613   1.989   1.268
  798SOL     OW 3292   3.470   6.524   1.940
  798SOL    HW1 3293   3.457   6.443   1.883
  798SOL    HW2 3294   3.385   6.577   1.942
  799SOL     OW 3295   0.331   0.018   6.483
  799SOL    HW1 3296   0.416   0.020   6.430
  799SOL    HW2 3297   0.333   0.091   6.551
  800SOL     OW 3298   5.605   1.206   2.482
  800SOL    HW1 3299   5.696   1.165   2.479
  800SOL    HW2 3300   5.536   1.136   2.463
  801SOL     OW 3301   2.382   4.339   4.398
  801SOL    HW1 3302   2.285   4.349   4.374
  801SOL    HW2 3303   2.410   4.244   4.387
  802SOL     OW 3304   3.186   1.325   0.785
  802SOL    HW1 3305   3.098   1.371   0.770
  802SOL    HW2 3306   3.257   1.372   0.732
  803SOL     OW 3307   1.104   0.140   6.172
  803SOL    HW1 3308   1.107   0.056   6.118
  803SOL    HW2 3309   1.018   0.188   6.153
  804SOL     OW 3310   5.724   6.682   0.357
  804SOL    HW1 3311   5.654   6.619   0.323
  804SOL    HW2 3312   5.733   6.758   0.292
  805SOL     OW 3313   2.818   0.903   4.052
  805SOL    HW1 3314   2.851   0.865   3.966
  805SOL    HW2 3315   2.733   0.858   4.079
  806SOL     OW 3316   5.279   0.911   4.459
  806SOL    HW1 3317   5.350   0.976   4.429
  806SOL    HW2 3318   5.200   0.919   4.398
  807SOL     OW 3319   0.909   0.782   5.386
  807SOL    HW1 3320   0.875   0.762   5.294
  807SOL    HW2 3321   0.847   0.742   5.454
  808SOL     OW 3322   4.081   4.186   6.396
  808SOL    HW1 3323   4.108   4.106   6.449
  808SOL    HW2 3324   4.051   4.157   6.305
  809SOL     OW 3325   0.482   4.979   1.495
  809SOL    HW1 3326   0.409   5.047   1.483
  809SOL    HW2 3327   0.441   4.892   1.524
  810SOL     OW 3328   3.541   4.169   0.796
  810SOL    HW1 3329   3.551   4.100   0.867
  810SOL    HW2 3330   3.455   4.155   0.748
  811SOL     OW 3331   5.184   6.140   5.372
  811SOL    HW1 3332   5.225   6.051   5.355
  811SOL    HW2 3333   5.217   6.175   5.461
  812SOL     OW 3334   6.912   0.456   2.762
  812SOL    HW1 3335   6.989   0.394   2.750
  812SOL    HW2 3336   6.889   0.497   2.674
  813SOL     OW 3337   4.313   6.568   4.128
  813SOL    HW1 3338   4.305   6.498   4.199
  813SOL    HW2 3339   4.223   6.600   4.101
  814SOL     OW 3340   5.860   5.821   2.881
  814SOL    HW1 3341   5.785   5.786   2.825
  814SOL    HW2 3342   5.866   5.921   2.870
  815SOL     OW 3343   6.802   3.741   3.542
  815SOL    HW1 3344   6.712   3.733   3.584
  815SOL    HW2 3345   6.845   3.827   3.572
  816SOL     OW 3346   6.121   5.954   0.478
  816SOL    HW1 3347   6.052   6.025   0.492
  816SOL    HW2 3348   6.129   5.898   0.560
  817SOL     OW 3349   1.273   5.572   1.590
  817SOL    HW1 3350   1.244   5.636   1.661
  817SOL    HW2 3351   1.371   5.580   1.576
  818SOL     OW 3352   6.077   2.463   3.343
  818SOL    HW1 3353   5.984   2.434   3.321
  818SOL    HW2 3354   6.093   2.556   3.309
  819SOL     OW 3355   5.730   2.856   2.292
  819SOL    HW1 3356   5.651   2.807   2.330
  819SOL    HW2 3357   5.814   2.809   2.320
  820SOL     OW 3358   3.220   2.029   4.883
  820SOL    HW1 3359   3.191   2.116   4.923
  820SOL    HW2 3360   3.171   1.954   4.929
  821SOL     OW 3361   6.749   4.166   0.214
  821SOL    HW1 3362   6.737   4.213   0.301
  821SOL    HW2 3363   6.816   4.214   0.158
  822SOL     OW 3364   0.462   3.774   3.688
  822SOL    HW1 3365   0.472   3.835   3.610
  822SOL    HW2 3366   0.368   3.741   3.694
  823SOL     OW 3367   5.735   3.896   6.284
  823SOL    HW1 3368   5.820   3.902   6.338
  823SOL    HW2 3369   5.713   3.799   6.269
  824SOL     OW 3370   4.756   1.367   6.343
  824SOL    HW1 3371   4.716   1.279   6.319
  824SOL    HW2 3372   4.836   1.384   6.285
  825SOL     OW 3373   0.104   4.983   1.128
  825SOL    HW1 3374   0.186   5.040   1.119
  825SOL    HW2 3375   0.068   4.962   1.037
  826SOL     OW 3376   3.985   2.297   5.842
  826SOL    HW1 3377   4.069   2.335   5.879
  826SOL    HW2 3378   3.910   2.313   5.906
  827SOL     OW 3379   2.708   4.599   5.591
  827SOL    HW1 3380   2.808   4.606   5.593
  827SOL    HW2 3381   2.668   4.686   5.620
  828SOL     OW 3382   5.289   6.239   6.681
  828SOL    HW1 3383   5.331   6.170   6.622
  828SOL    HW2 3384   5.313   6.330   6.647
  829SOL     OW 3385   4.102   3.775   2.246
  829SOL    HW1 3386   4.069   3.691   2.289
  829SOL    HW2 3387   4.201   3.781   2.256
  830SOL     OW 3388   5.950   4.617   6.426
  830SOL    HW1 3389   5.888   4.665   6.365
  830SOL    HW2 3390   6.001   4.684   6.481
  831SOL     OW 3391   5.949   0.468   6.734
  831SOL    HW1 3392   5.943   0.517   6.820
  831SOL    HW2 3393   6.042   0.431   6.723
  832SOL     OW 3394   4.203   0.949   2.849
  832SOL    HW1 3395   4.285   0.990   2.887
  832SOL    HW2 3396   4.226   0.863   2.804
  833SOL     OW 3397   1.879   3.662   6.661
  833SOL    HW1 3398   1.916   3.752   6.641
  833SOL    HW2 3399   1.938   3.615   6.727
  834SOL     OW 3400   4.293   4.176   0.972
  834SOL    HW1 3401   4.305   4.099   0.909
  834SOL    HW2 3402   4.311   4.146   1.066
  835SOL     OW 3403   3.175   0.117   5.359
  835SOL    HW1 3404   3.181   0.128   5.260
  835SOL    HW2 3405   3.253   0.062   5.391
  836SOL     OW 3406   3.592   6.840   5.218
  836SOL    HW1 3407   3.663   6.910   5.216
  836SOL    HW2 3408   3.633   6.750   5.205
  837SOL     OW 3409   6.460   0.003   0.823
  837SOL    HW1 3410   6.485   0.095   0.794
  837SOL    HW2 3411   6.526   6.962   0.787
  838SOL     OW 3412   2.234   0.843   4.398
  838SOL    HW1 3413   2.249   0.936   4.434
  838SOL    HW2 3414   2.136   0.825   4.393
  839SOL     OW 3415   1.433   1.535   1.878
  839SOL    HW1 3416   1.475   1.595   1.945
  839SOL    HW2 3417   1.451   1.440   1.902
  840SOL     OW 3418   6.001   5.978   0.201
  840SOL    HW1 3419   6.049   5.979   0.289
  840SOL    HW2 3420   6.065   6.004   0.128
  841SOL     OW 3421   2.835   5.458   6.125
  841SOL    HW1 3422   2.929   5.485   6.105
  841SOL    HW2 3423   2.782   5.457   6.040
  842SOL     OW 3424   3.623   0.359   4.747
  842SOL    HW1 3425   3.542   0.377   4.802
  842SOL    HW2 3426   3.689   0.305   4.800
  843SOL     OW 3427   0.789   1.544   1.373
  843SOL    HW1 3428   0.875   1.594   1.378
  843SOL    HW2 3429   0.716   1.598   1.414
  844SOL     OW 3430   5.846   0.007   0.486
  844SOL    HW1 3431   5.821   0.072   0.557
  844SOL    HW2 3432   5.899   6.956   0.526
  845SOL     OW 3433   4.847   4.151   3.952
  845SOL    HW1 3434   4.818   4.133   4.046
  845SOL    HW2 3435   4.941   4.118   3.939
  846SOL     OW 3436   2.015   0.981   5.883
  846SOL    HW1 3437   2.104   1.024   5.898
  846SOL    HW2 3438   1.956   1.042   5.830
  847SOL     OW 3439   1.564   3.589   1.020
  847SOL    HW1 3440   1.511   3.616   0.939
  847SOL    HW2 3441   1.533   3.642   1.099
  848SOL     OW 3442   6.848   6.741   6.017
  848SOL    HW1 3443   6.944   6.712   6.023
  848SOL    HW2 3444   6.830   6.809   6.088
  849SOL     OW 3445   6.221   3.616   6.214
  849SOL    HW1 3446   6.211   3.537   6.154
  849SOL    HW2 3447   6.272   3.589   6.296
  850SOL     OW 3448   4.559   1.255   4.260
  850SOL    HW1 3449   4.573   1.318   4.336
  850SOL    HW2 3450   4.471   1.276   4.216
  851SOL     OW 3451   0.057   2.603   1.429
  851SOL    HW1 3452   0.085   2.595   1.333
  851SOL    HW2 3453   6.997   2.657   1.435
  852SOL     OW 3454   1.574   4.251   0.237
  852SOL    HW1 3455   1.570   4.216   0.331
  852SOL    HW2 3456   1.492   4.221   0.187
  853SOL     OW 3457   0.695   4.805   1.070
  853SOL    HW1 3458   0.719   4.708   1.071
  853SOL    HW2 3459   0.708   4.844   1.161
  854SOL     OW 3460   5.361   5.194   0.858
  854SOL    HW1 3461   5.417   5.131   0.805
  854SOL    HW2 3462   5.416   5.235   0.930
  855SOL     OW 3463   0.069   0.210   1.389
  855SOL    HW1 3464   0.100   0.190   1.482
  855SOL    HW2 3465   7.001   0.247   1.392
  856SOL     OW 3466   1.480   1.876   6.384
  856SOL    HW1 3467   1.408   1.888   6.453
  856SOL    HW2 3468   1.465   1.940   6.308
  857SOL     OW 3469   6.483   5.160   2.148
  857SOL    HW1 3470   6.481   5.196   2.241
  857SOL    HW2 3471   6.533   5.073   2.147
  858SOL     OW 3472   3.130   4.008   1.319
  858SOL    HW1 3473   3.139   4.061   1.235
  858SOL    HW2 3474   3.054   4.043   1.373
  859SOL     OW 3475   5.797   0.237   4.565
  859SOL    HW1 3476   5.791   0.138   4.550
  859SOL    HW2 3477   5.888   0.259   4.600
  860SOL     OW 3478   6.349   2.273   0.534
  860SOL    HW1 3479   6.287   2.347   0.558
  860SOL    HW2 3480   6.309   2.185   0.562
  861SOL     OW 3481   2.588   5.421   4.219
  861SOL    HW1 3482   2.565   5.367   4.138
  861SOL    HW2 3483   2.567   5.517   4.202
  862SOL     OW 3484   1.068   3.695   4.021
  862SOL    HW1 3485   1.112   3.636   3.953
  862SOL    HW2 3486   0.980   3.654   4.048
  863SOL     OW 3487   5.733   1.274   6.864
  863SOL    HW1 3488   5.806   1.241   6.923
  863SOL    HW2 3489   5.694   1.358   6.902
  864SOL     OW 3490   4.060   5.770   4.129
  864SOL    HW1 3491   4.153   5.799   4.109
  864SOL    HW2 3492   4.043   5.680   4.088
  865SOL     OW 3493   1.300   6.652   6.015
  865SOL    HW1 3494   1.353   6.688   6.091
  865SOL    HW2 3495   1.351   6.666   5.930
  866SOL     OW 3496   2.121   1.640   1.323
  866SOL    HW1 3497   2.137   1.585   1.404
  866SOL    HW2 3498   2.188   1.715   1.319
  867SOL     OW 3499   5.394   3.917   0.365
  867SOL    HW1 3500   5.402   3.823   0.397
  867SOL    HW2 3501   5.423   3.922   0.269
  868SOL     OW 3502   6.488   1.282   0.662
  868SOL    HW1 3503   6.470   1.313   0.568
  868SOL    HW2 3504   6.431   1.334   0.725
  869SOL     OW 3505   0.312   4.196   3.126
  869SOL    HW1 3506   0.336   4.173   3.031
  869SOL    HW2 3507   0.218   4.230   3.128
  870SOL     OW 3508   3.915   3.594   0.074
  870SOL    HW1 3509   4.008   3.568   0.048
  870SOL    HW2 3510   3.899   3.690   0.050
  871SOL     OW 3511   5.035   2.156   2.480
  871SOL    HW1 3512   5.121   2.105   2.479
  871SOL    HW2 3513   5.048   2.243   2.528
  872SOL     OW 3514   5.517   3.284   4.053
  872SOL    HW1 3515   5.444   3.217   4.056
  872SOL    HW2 3516   5.606   3.238   4.048
  873SOL     OW 3517   6.071   6.353   5.099
  873SOL    HW1 3518   6.045   6.294   5.022
  873SOL    HW2 3519   6.006   6.428   5.108
  874SOL     OW 3520   0.680   3.642   6.060
  874SOL    HW1 3521   0.692   3.716   5.995
  874SOL    HW2 3522   0.605   3.664   6.123
  875SOL     OW 3523   5.328   4.411   0.581
  875SOL    HW1 3524   5.309   4.329   0.635
  875SOL    HW2 3525   5.376   4.385   0.497
  876SOL     OW 3526   1.290   4.605   1.988
  876SOL    HW1 3527   1.230   4.609   1.908
  876SOL    HW2 3528   1.268   4.523   2.042
  877SOL     OW 3529   3.933   4.823   5.686
  877SOL    HW1 3530   3.981   4.756   5.630
  877SOL    HW2 3531   3.989   4.846   5.766
  878SOL     OW 3532   3.747   5.628   4.822
  878SOL    HW1 3533   3.678   5.697   4.799
  878SOL    HW2 3534   3.823   5.634   4.757
  879SOL     OW 3535   3.614   1.708   0.854
  879SOL    HW1 3536   3.691   1.765   0.881
  879SOL    HW2 3537   3.603   1.710   0.755
  880SOL     OW 3538   3.021   3.423   4.739
  880SOL    HW1 3539   3.032   3.438   4.838
  880SOL    HW2 3540   3.057   3.502   4.689
  881SOL     OW 3541   5.800   3.464   5.740
  881SOL    HW1 3542   5.883   3.491   5.790
  881SOL    HW2 3543   5.821   3.385   5.683
  882SOL     OW 3544   0.819   2.578   4.729
  882SOL    HW1 3545   0.911   2.539   4.727
  882SOL    HW2 3546   0.806   2.635   4.648
  883SOL     OW 3547   3.890   0.760   0.375
  883SOL    HW1 3548   3.904   0.809   0.461
  883SOL    HW2 3549   3.956   0.684   0.369
  884SOL     OW 3550   6.951   4.322   0.088
  884SOL    HW1 3551   6.903   4.397   0.040
  884SOL    HW2 3552   7.015   4.361   0.154
  885SOL     OW 3553   4.297   6.508   5.437
  885SOL    HW1 3554   4.217   6.560   5.407
  885SOL    HW2 3555   4.275   6.411   5.439
  886SOL     OW 3556   4.687   0.603   0.884
  886SOL    HW1 3557   4.714   0.563   0.971
  886SOL    HW2 3558   4.608   0.553   0.847
  887SOL     OW 3559   4.205   5.327   3.494
  887SOL    HW1 3560   4.126   5.310   3.554
  887SOL    HW2 3561   4.237   5.240   3.457
  888SOL     OW 3562   0.357   6.558   3.172
  888SOL    HW1 3563   0.408   6.577   3.088
  888SOL    HW2 3564   0.262   6.536   3.150
  889SOL     OW 3565   6.963   1.110   6.379
  889SOL    HW1 3566   0.019   1.137   6.431
  889SOL    HW2 3567   6.919   1.191   6.340
  890SOL     OW 3568   2.466   5.048   2.262
  890SOL    HW1 3569   2.381   5.004   2.292
  890SOL    HW2 3570   2.506   4.995   2.188
  891SOL     OW 3571   6.721   3.603   0.590
  891SOL    HW1 3572   6.770   3.515   0.595
  891SOL    HW2 3573   6.734   3.642   0.499
  892SOL     OW 3574   3.318   3.740   5.343
  892SOL    HW1 3575   3.326   3.641   5.338
  892SOL    HW2 3576   3.320   3.778   5.250
  893SOL     OW 3577   1.784   0.280   2.685
  893SOL    HW1 3578   1.819   0.370   2.712
  893SOL    HW2 3579   1.813   0.212   2.752
  894SOL     OW 3580   1.393   2.362   2.980
  894SOL    HW1 3581   1.438   2.439   3.026
  894SOL    HW2 3582   1.420   2.360   2.884
  895SOL     OW 3583   1.362   4.965   3.753
  895SOL    HW1 3584   1.330   4.876   3.784
  895SOL    HW2 3585   1.360   4.968   3.653
  896SOL     OW 3586   6.104   5.623   1.370
  896SOL    HW1 3587   6.147   5.642   1.458
  896SOL    HW2 3588   6.045   5.543   1.377
  897SOL     OW 3589   4.184   0.321   6.430
  897SOL    HW1 3590   4.201   0.222   6.428
  897SOL    HW2 3591   4.261   0.367   6.475
  898SOL     OW 3592   4.009   5.707   2.105
  898SOL    HW1 3593   3.936   5.752   2.053
  898SOL    HW2 3594   4.093   5.760   2.098
  899SOL     OW 3595   0.191   5.564   0.659
  899SOL    HW1 3596   0.211   5.660   0.679
  899SOL    HW2 3597   0.272   5.509   0.682
  900SOL     OW 3598   4.993   6.358   6.703
  900SOL    HW1 3599   4.938   6.315   6.632
  900SOL    HW2 3600   5.090   6.350   6.679
  901SOL     OW 3601   1.006   0.997   4.412
  901SOL    HW1 3602   1.000   1.010   4.313
  901SOL    HW2 3603   1.015   0.900   4.433
  902SOL     OW 3604   1.473   2.628   0.897
  902SOL    HW1 3605   1.406   2.555   0.913
  902SOL    HW2 3606   1.514   2.655   0.984
  903SOL     OW 3607   0.451   3.014   6.877
  903SOL    HW1 3608   0.464   2.927   6.924
  903SOL    HW2 3609   0.428   2.998   6.781
  904SOL     OW 3610   2.229   2.917   2.668
  904SOL    HW1 3611   2.206   2.914   2.571
  904SOL    HW2 3612   2.294   2.845   2.689
  905SOL     OW 3613   4.878   4.339   6.142
  905SOL    HW1 3614   4.944   4.264   6.150
  905SOL    HW2 3615   4.918   4.422   6.180
  906SOL     OW 3616   0.966   2.526   6.522
  906SOL    HW1 3617   1.008   2.530   6.612
  906SOL    HW2 3618   1.037   2.511   6.452
  907SOL     OW 3619   5.249   2.753   1.882
  907SOL    HW1 3620   5.273   2.831   1.940
  907SOL    HW2 3621   5.150   2.745   1.876
  908SOL     OW 3622   2.339   4.873   2.990
  908SOL    HW1 3623   2.309   4.963   2.957
  908SOL    HW2 3624   2.354   4.812   2.913
  909SOL     OW 3625   3.667   5.787   2.197
  909SOL    HW1 3626   3.751   5.778   2.249
  909SOL    HW2 3627   3.601   5.841   2.249
  910SOL     OW 3628   3.066   0.828   0.673
  910SOL    HW1 3629   3.078   0.925   0.691
  910SOL    HW2 3630   3.062   0.779   0.760
  911SOL     OW 3631   0.825   5.845   6.773
  911SOL    HW1 3632   0.837   5.943   6.790
  911SOL    HW2 3633   0.802   5.799   6.858
  912SOL     OW 3634   4.609   0.445   3.352
  912SOL    HW1 3635   4.692   0.391   3.368
  912SOL    HW2 3636   4.618   0.535   3.395
  913SOL     OW 3637   2.309   0.721   3.935
  913SOL    HW1 3638   2.285   0.626   3.952
  913SOL    HW2 3639   2.372   0.726   3.857
  914SOL     OW 3640   2.653   5.964   5.299
  914SOL    HW1 3641   2.706   6.002   5.224
  914SOL    HW2 3642   2.610   6.038   5.351
  915SOL     OW 3643   0.068   3.477   0.806
  915SOL    HW1 3644   0.048   3.458   0.710
  915SOL    HW2 3645   0.037   3.400   0.862
  916SOL     OW 3646   1.976   2.795   2.752
  916SOL    HW1 3647   1.883   2.807   2.718
  916SOL    HW2 3648   2.041   2.830   2.685
  917SOL     OW 3649   6.200   0.713   2.500
  917SOL    HW1 3650   6.219   0.784   2.432
  917SOL    HW2 3651   6.274   0.709   2.567
  918SOL     OW 3652   3.491   0.038   1.043
  918SOL    HW1 3653   3.453   0.094   1.117
  918SOL    HW2 3654   3.442   6.976   1.039
  919SOL     OW 3655   6.733   6.852   3.373
  919SOL    HW1 3656   6.787   6.792   3.432
  919SOL    HW2 3657   6.716   6.938   3.420
  920SOL     OW 3658   2.676   5.042   2.501
  920SOL    HW1 3659   2.610   5.116   2.496
  920SOL    HW2 3660   2.733   5.043   2.419
  921SOL     OW 3661   3.992   4.951   3.190
  921SOL    HW1 3662   4.048   4.871   3.170
  921SOL    HW2 3663   4.006   5.020   3.119
  922SOL     OW 3664   3.281   3.482   4.926
  922SOL    HW1 3665   3.325   3.466   4.837
  922SOL    HW2 3666   3.226   3.565   4.921
  923SOL     OW 3667   2.419   4.161   5.691
  923SOL    HW1 3668   2.478   4.095   5.644
  923SOL    HW2 3669   2.331   4.167   5.644
  924SOL     OW 3670   6.115   2.886   3.398
  924SOL    HW1 3671   6.028   2.933   3.382
  924SOL    HW2 3672   6.147   2.847   3.312
  925SOL     OW 3673   6.975   2.081   6.523
  925SOL    HW1 3674   7.009   2.128   6.604
  925SOL    HW2 3675   6.877   2.064   6.533
  926SOL     OW 3676   6.646   1.198   1.053
  926SOL    HW1 3677   6.675   1.291   1.030
  926SOL    HW2 3678   6.591   1.200   1.137
  927SOL     OW 3679   5.214   4.189   2.940
  927SOL    HW1 3680   5.196   4.120   3.010
  927SOL    HW2 3681   5.304   4.229   2.956
  928SOL     OW 3682   1.368   6.623   0.111
  928SOL    HW1 3683   1.313   6.633   0.028
  928SOL    HW2 3684   1.309   6.590   0.185
  929SOL     OW 3685   0.358   0.344   0.699
  929SOL    HW1 3686   0.399   0.305   0.617
  929SOL    HW2 3687   0.270   0.299   0.716
  930SOL     OW 3688   5.476   5.968   4.385
  930SOL    HW1 3689   5.465   5.909   4.304
  930SOL    HW2 3690   5.390   6.014   4.405
  931SOL     OW 3691   5.575   1.360   4.449
  931SOL    HW1 3692   5.580   1.395   4.543
  931SOL    HW2 3693   5.666   1.367   4.407
  932SOL     OW 3694   2.983   7.000   3.364
  932SOL    HW1 3695   3.068   7.019   3.414
  932SOL    HW2 3696   2.906   7.001   3.428
  933SOL     OW 3697   1.871   5.957   3.529
  933SOL    HW1 3698   1.926   6.034   3.498
  933SOL    HW2 3699   1.832   5.909   3.449
  934SOL     OW 3700   1.503   0.176   6.437
  934SOL    HW1 3701   1.510   0.112   6.514
  934SOL    HW2 3702   1.407   0.203   6.426
  935SOL     OW 3703   5.053   4.058   3.775
  935SOL    HW1 3704   5.042   4.140   3.720
  935SOL    HW2 3705   5.063   3.978   3.715
  936SOL     OW 3706   0.513   0.610   6.372
  936SOL    HW1 3707   0.515   0.674   6.449
  936SOL    HW2 3708   0.429   0.624   6.319
  937SOL     OW 3709   5.230   1.713   5.098
  937SOL    HW1 3710   5.170   1.764   5.160
  937SOL    HW2 3711   5.310   1.680   5.149
  938SOL     OW 3712   6.581   5.128   6.002
  938SOL    HW1 3713   6.614   5.199   5.941
  938SOL    HW2 3714   6.580   5.162   6.096
  939SOL     OW 3715   6.744   6.640   5.001
  939SOL    HW1 3716   6.816   6.577   5.028
  939SOL    HW2 3717   6.773   6.691   4.920
  940SOL     OW 3718   1.466   3.952   1.698
  940SOL    HW1 3719   1.515   4.027   1.654
  940SOL    HW2 3720   1.368   3.972   1.701
  941SOL     OW 3721   5.122   1.169   6.309
  941SOL    HW1 3722   5.218   1.155   6.331
  941SOL    HW2 3723   5.074   1.208   6.388
  942SOL     OW 3724   5.308   6.736   2.849
  942SOL    HW1 3725   5.374   6.733   2.924
  942SOL    HW2 3726   5.251   6.817   2.858
  943SOL     OW 3727   2.104   3.941   4.020
  943SOL    HW1 3728   2.007   3.958   4.036
  943SOL    HW2 3729   2.116   3.855   3.971
  944SOL     OW 3730   0.482   4.806   6.403
  944SOL    HW1 3731   0.564   4.779   6.353
  944SOL    HW2 3732   0.431   4.873   6.349
  945SOL     OW 3733   6.535   3.581   5.861
  945SOL    HW1 3734   6.480   3.648   5.811
  945SOL    HW2 3735   6.566   3.509   5.798
  946SOL     OW 3736   5.460   3.252   5.525
  946SOL    HW1 3737   5.403   3.318   5.477
  946SOL    HW2 3738   5.412   3.218   5.606
  947SOL     OW 3739   3.769   2.931   3.544
  947SOL    HW1 3740   3.780   2.966   3.451
  947SOL    HW2 3741   3.858   2.900   3.578
  948SOL     OW 3742   3.970   1.087   2.877
  948SOL    HW1 3743   3.923   1.061   2.962
  948SOL    HW2 3744   4.042   1.020   2.858
  949SOL     OW 3745   1.045   6.072   0.039
  949SOL    HW1 3746   1.142   6.068   0.017
  949SOL    HW2 3747   1.018   5.988   0.086
  950SOL     OW 3748   4.950   5.843   2.310
  950SOL    HW1 3749   5.023   5.874   2.371
  950SOL    HW2 3750   4.927   5.916   2.246
  951SOL     OW 3751   1.863   0.822   4.034
  951SOL    HW1 3752   1.859   0.765   4.116
  951SOL    HW2 3753   1.953   0.865   4.027
  952SOL     OW 3754   4.369   2.358   3.247
  952SOL    HW1 3755   4.277   2.335   3.278
  952SOL    HW2 3756   4.431   2.281   3.263
  953SOL     OW 3757   5.329   4.710   4.037
  953SOL    HW1 3758   5.397   4.735   3.968
  953SOL    HW2 3759   5.280   4.791   4.068
  954SOL     OW 3760   4.113   5.683   1.234
  954SOL    HW1 3761   4.022   5.689   1.194
  954SOL    HW2 3762   4.176   5.641   1.168
  955SOL     OW 3763   0.345   3.601   1.906
  955SOL    HW1 3764   0.332   3.564   1.814
  955SOL    HW2 3765   0.351   3.525   1.971
  956SOL     OW 3766   6.657   0.500   2.599
  956SOL    HW1 3767   6.563   0.471   2.579
  956SOL    HW2 3768   6.720   0.427   2.572
  957SOL     OW 3769   5.854   3.331   4.225
  957SOL    HW1 3770   5.819   3.253   4.173
  957SOL    HW2 3771   5.780   3.370   4.279
  958SOL     OW 3772   4.190   2.082   1.539
  958SOL    HW1 3773   4.225   2.174   1.518
  958SOL    HW2 3774   4.166   2.077   1.636
  959SOL     OW 3775   4.134   6.196   2.994
  959SOL    HW1 3776   4.043   6.236   2.983
  959SOL    HW2 3777   4.130   6.098   2.975
  960SOL     OW 3778   0.394   6.410   2.604
  960SOL    HW1 3779   0.420   6.491   2.657
  960SOL    HW2 3780   0.468   6.342   2.609
  961SOL     OW 3781   4.250   6.605   3.270
  961SOL    HW1 3782   4.203   6.578   3.354
  961SOL    HW2 3783   4.274   6.523   3.218
  962SOL     OW 3784   0.526   1.643   5.425
  962SOL    HW1 3785   0.567   1.734   5.423
  962SOL    HW2 3786   0.450   1.640   5.360
  963SOL     OW 3787   5.785   1.354   6.353
  963SOL    HW1 3788   5.786   1.446   6.315
  963SOL    HW2 3789   5.876   1.329   6.385
  964SOL     OW 3790   5.701   4.418   0.150
  964SOL    HW1 3791   5.747   4.491   0.099
  964SOL    HW2 3792   5.768   4.347   0.173
  965SOL     OW 3793   5.546   2.126   1.641
  965SOL    HW1 3794   5.537   2.186   1.561
  965SOL    HW2 3795   5.473   2.145   1.706
  966SOL     OW 3796   5.861   2.117   2.797
  966SOL    HW1 3797   5.835   2.020   2.792
  966SOL    HW2 3798   5.835   2.154   2.886
  967SOL     OW 3799   2.785   4.580   1.199
  967SOL    HW1 3800   2.688   4.577   1.221
  967SOL    HW2 3801   2.803   4.522   1.119
  968SOL     OW 3802   3.509   0.142   2.101
  968SOL    HW1 3803   3.458   0.146   2.187
  968SOL    HW2 3804   3.596   0.188   2.112
  969SOL     OW 3805   2.477   5.277   5.542
  969SOL    HW1 3806   2.553   5.213   5.549
  969SOL    HW2 3807   2.508   5.369   5.565
  970SOL     OW 3808   5.315   0.845   6.002
  970SOL    HW1 3809   5.283   0.907   6.073
  970SOL    HW2 3810   5.280   0.753   6.019
  971SOL     OW 3811   0.204   2.656   3.032
  971SOL    HW1 3812   0.183   2.566   2.995
  971SOL    HW2 3813   0.179   2.660   3.128
  972SOL     OW 3814   5.591   2.605   1.574
  972SOL    HW1 3815   5.649   2.544   1.521
  972SOL    HW2 3816   5.501   2.563   1.585
  973SOL     OW 3817   0.183   5.330   6.899
  973SOL    HW1 3818   0.147   5.422   6.884
  973SOL    HW2 3819   0.276   5.325   6.863
  974SOL     OW 3820   5.166   6.108   2.434
  974SOL    HW1 3821   5.178   6.202   2.466
  974SOL    HW2 3822   5.254   6.071   2.403
  975SOL     OW 3823   1.790   0.340   6.348
  975SOL    HW1 3824   1.711   0.328   6.288
  975SOL    HW2 3825   1.775   0.290   6.433
  976SOL     OW 3826   0.008   3.505   2.549
  976SOL    HW1 3827   0.018   3.466   2.458
  976SOL    HW2 3828   0.047   3.597   2.550
  977SOL     OW 3829   0.679   6.708   1.835
  977SOL    HW1 3830   0.778   6.698   1.826
  977SOL    HW2 3831   0.659   6.801   1.867
  978SOL     OW 3832   5.148   3.042   5.615
  978SOL    HW1 3833   5.206   3.109   5.662
  978SOL    HW2 3834   5.198   2.956   5.603
  979SOL     OW 3835   0.575   2.048   0.363
  979SOL    HW1 3836   0.554   2.072   0.458
  979SOL    HW2 3837   0.516   1.973   0.333
  980SOL     OW 3838   4.268   2.346   3.901
  980SOL    HW1 3839   4.337   2.407   3.941
  980SOL    HW2 3840   4.238   2.383   3.813
  981SOL     OW 3841   0.487   1.824   4.679
  981SOL    HW1 3842   0.425   1.806   4.602
  981SOL    HW2 3843   0.469   1.758   4.752
  982SOL     OW 3844   1.814   1.837   4.805
  982SOL    HW1 3845   1.739   1.785   4.846
  982SOL    HW2 3846   1.788   1.934   4.798
  983SOL     OW 3847   5.860   3.054   3.831
  983SOL    HW1 3848   5.935   3.007   3.783
  983SOL    HW2 3849   5.781   3.058   3.770
  984SOL     OW 3850   2.450   2.008   4.831
  984SOL    HW1 3851   2.350   1.997   4.829
  984SOL    HW2 3852   2.476   2.060   4.912
  985SOL     OW 3853   6.395   3.014   5.224
  985SOL    HW1 3854   6.432   2.972   5.308
  985SOL    HW2 3855   6.398   2.947   5.150
  986SOL     OW 3856   5.188   4.695   1.393
  986SOL    HW1 3857   5.263   4.754   1.422
  986SOL    HW2 3858   5.220   4.634   1.321
  987SOL     OW 3859   4.578   0.015   2.566
  987SOL    HW1 3860   4.649   0.073   2.605
  987SOL    HW2 3861   4.596   6.944   2.590
  988SOL     OW 3862   3.409   3.651   1.691
  988SOL    HW1 3863   3.439   3.743   1.717
  988SOL    HW2 3864   3.488   3.590   1.687
  989SOL     OW 3865   6.432   1.543   6.276
  989SOL    HW1 3866   6.486   1.599   6.337
  989SOL    HW2 3867   6.476   1.454   6.263
  990SOL     OW 3868   4.596   1.051   2.229
  990SOL    HW1 3869   4.572   0.963   2.188
  990SOL    HW2 3870   4.525   1.118   2.208
  991SOL     OW 3871   0.777   3.891   4.878
  991SOL    HW1 3872   0.768   3.990   4.879
  991SOL    HW2 3873   0.856   3.864   4.932
  992SOL     OW 3874   0.279   3.394   1.088
  992SOL    HW1 3875   0.268   3.311   1.142
  992SOL    HW2 3876   0.193   3.444   1.084
  993SOL     OW 3877   0.166   5.077   0.573
  993SOL    HW1 3878   0.153   5.157   0.514
  993SOL    HW2 3879   0.256   5.038   0.558
  994SOL     OW 3880   4.220   5.186   1.280
  994SOL    HW1 3881   4.164   5.254   1.233
  994SOL    HW2 3882   4.313   5.188   1.242
  995SOL     OW 3883   3.487   2.848   5.513
  995SOL    HW1 3884   3.565   2.879   5.567
  995SOL    HW2 3885   3.482   2.748   5.516
  996SOL     OW 3886   3.456   4.921   4.774
  996SOL    HW1 3887   3.475   4.868   4.692
  996SOL    HW2 3888   3.359   4.916   4.796
  997SOL     OW 3889   1.085   0.366   3.721
  997SOL    HW1 3890   1.021   0.358   3.644
  997SOL    HW2 3891   1.075   0.285   3.780
  998SOL     OW 3892   5.178   0.614   5.008
  998SOL    HW1 3893   5.211   0.624   4.914
  998SOL    HW2 3894   5.227   0.678   5.067
  999SOL     OW 3895   5.244   4.537   2.812
  999SOL    HW1 3896   5.178   4.592   2.762
  999SOL    HW2 3897   5.306   4.492   2.748
 1000SOL     OW 3898   3.036   1.454   1.819
 1000SOL    HW1 3899   3.014   1.549   1.836
 1000SOL    HW2 3900   3.105   1.448   1.746
 1001SOL     OW 3901   4.960   5.792   1.050
 1001SOL    HW1 3902   4.999   5.875   1.090
 1001SOL    HW2 3903   4.961   5.798   0.951
 1002SOL     OW 3904   5.992   2.195   1.421
 1002SOL    HW1 3905   6.006   2.098   1.402
 1002SOL    HW2 3906   5.932   2.234   1.351
 1003SOL     OW 3907   1.643   6.479   2.606
 1003SOL    HW1 3908   1.553   6.445   2.579
 1003SOL    HW2 3909   1.696   6.406   2.648
 1004SOL     OW 3910   0.140   0.509   1.631
 1004SOL    HW1 3911   0.178   0.485   1.542
 1004SOL    HW2 3912   0.214   0.516   1.698
 1005SOL     OW 3913   2.146   2.879   4.125
 1005SOL    HW1 3914   2.090   2.800   4.150
 1005SOL    HW2 3915   2.226   2.848   4.074
 1006SOL     OW 3916   1.256   4.523   1.021
 1006SOL    HW1 3917   1.265   4.592   1.094
 1006SOL    HW2 3918   1.329   4.537   0.954
 1007SOL     OW 3919   4.217   0.411   5.008
 1007SOL    HW1 3920   4.271   0.407   4.924
 1007SOL    HW2 3921   4.132   0.461   4.992
 1008SOL     OW 3922   0.783   3.127   5.917
 1008SOL    HW1 3923   0.782   3.136   5.817
 1008SOL    HW2 3924   0.801   3.217   5.958
 1009SOL     OW 3925   0.339   4.600   5.411
 1009SOL    HW1 3926   0.381   4.584   5.500
 1009SOL    HW2 3927   0.376   4.685   5.372
 1010SOL     OW 3928   3.434   1.810   7.021
 1010SOL    HW1 3929   3.514   1.850   0.040
 1010SOL    HW2 3930   3.408   1.726   0.044
 1011SOL     OW 3931   1.665   5.435   2.637
 1011SOL    HW1 3932   1.626   5.343   2.638
 1011SOL    HW2 3933   1.723   5.445   2.556
 1012SOL     OW 3934   7.002   6.863   2.341
 1012SOL    HW1 3935   6.932   6.862   2.412
 1012SOL    HW2 3936   6.995   6.947   2.288
 1013SOL     OW 3937   1.281   1.526   5.978
 1013SOL    HW1 3938   1.288   1.612   5.928
 1013SOL    HW2 3939   1.359   1.517   6.040
 1014SOL     OW 3940   6.626   4.344   6.063
 1014SOL    HW1 3941   6.663   4.254   6.084
 1014SOL    HW2 3942   6.586   4.384   6.145
 1015SOL     OW 3943   2.640   6.437   6.048
 1015SOL    HW1 3944   2.549   6.476   6.037
 1015SOL    HW2 3945   2.693   6.450   5.964
 1016SOL     OW 3946   4.218   3.702   7.015
 1016SOL    HW1 3947   4.303   3.754   7.020
 1016SOL    HW2 3948   4.153   3.751   6.957
 1017SOL     OW 3949   4.131   2.872   1.370
 1017SOL    HW1 3950   4.114   2.824   1.457
 1017SOL    HW2 3951   4.211   2.832   1.325
 1018SOL     OW 3952   0.751   4.534   4.221
 1018SOL    HW1 3953   0.790   4.443   4.210
 1018SOL    HW2 3954   0.796   4.597   4.158
 1019SOL     OW 3955   6.996   6.551   0.893
 1019SOL    HW1 3956   0.032   6.490   0.945
 1019SOL    HW2 3957   6.936   6.496   0.835
 1020SOL     OW 3958   6.467   1.281   1.258
 1020SOL    HW1 3959   6.430   1.311   1.346
 1020SOL    HW2 3960   6.464   1.358   1.193
 1021SOL     OW 3961   5.446   0.011   1.545
 1021SOL    HW1 3962   5.413   7.024   1.639
 1021SOL    HW2 3963   5.497   0.097   1.538
 1022SOL     OW 3964   3.184   4.456   5.323
 1022SOL    HW1 3965   3.249   4.401   5.270
 1022SOL    HW2 3966   3.096   4.456   5.277
 1023SOL     OW 3967   0.313   0.398   2.784
 1023SOL    HW1 3968   0.381   0.422   2.715
 1023SOL    HW2 3969   0.321   0.461   2.862
 1024SOL     OW 3970   0.405   2.986   3.969
 1024SOL    HW1 3971   0.420   2.898   4.015
 1024SOL    HW2 3972   0.317   2.984   3.922
 1025SOL     OW 3973   3.754   3.718   1.657
 1025SOL    HW1 3974   3.711   3.628   1.646
 1025SOL    HW2 3975   3.765   3.737   1.755
 1026SOL     OW 3976   2.369   2.620   1.359
 1026SOL    HW1 3977   2.406   2.530   1.336
 1026SOL    HW2 3978   2.435   2.670   1.415
 1027SOL     OW 3979   3.233   6.374   2.200
 1027SOL    HW1 3980   3.281   6.453   2.239
 1027SOL    HW2 3981   3.151   6.405   2.152
 1028SOL     OW 3982   2.227   6.864   1.602
 1028SOL    HW1 3983   2.229   6.839   1.505
 1028SOL    HW2 3984   2.313   6.909   1.626
 1029SOL     OW 3985   1.585   0.313   6.176
 1029SOL    HW1 3986   1.494   0.309   6.217
 1029SOL    HW2 3987   1.592   0.394   6.118
 1030SOL     OW 3988   3.454   2.837   2.026
 1030SOL    HW1 3989   3.468   2.868   2.120
 1030SOL    HW2 3990   3.542   2.822   1.982
 1031SOL     OW 3991   4.296   4.116   1.245
 1031SOL    HW1 3992   4.325   4.192   1.303
 1031SOL    HW2 3993   4.279   4.035   1.302
 1032SOL     OW 3994   2.354   1.846   5.963
 1032SOL    HW1 3995   2.418   1.816   5.892
 1032SOL    HW2 3996   2.282   1.777   5.975
 1033SOL     OW 3997   1.301   6.468   1.961
 1033SOL    HW1 3998   1.243   6.387   1.969
 1033SOL    HW2 3999   1.260   6.533   1.897
 1034SOL     OW 4000   0.116   5.289   4.491
 1034SOL    HW1 4001   0.189   5.266   4.427
 1034SOL    HW2 4002   0.122   5.386   4.516
 1035SOL     OW 4003   0.312   1.598   5.263
 1035SOL    HW1 4004   0.365   1.520   5.229
 1035SOL    HW2 4005   0.282   1.654   5.186
 1036SOL     OW 4006   4.038   0.290   1.744
 1036SOL    HW1 4007   4.094   0.239   1.808
 1036SOL    HW2 4008   3.946   0.303   1.783
 1037SOL     OW 4009   1.507   1.371   1.621
 1037SOL    HW1 4010   1.444   1.386   1.697
 1037SOL    HW2 4011   1.548   1.280   1.630
 1038SOL     OW 4012   1.859   0.924   5.285
 1038SOL    HW1 4013   1.838   1.009   5.334
 1038SOL    HW2 4014   1.952   0.928   5.250
 1039SOL     OW 4015   3.722   3.791   4.262
 1039SOL    HW1 4016   3.640   3.808   4.207
 1039SOL    HW2 4017   3.789   3.742   4.206
 1040SOL     OW 4018   5.384   1.244   2.715
 1040SOL    HW1 4019   5.432   1.158   2.731
 1040SOL    HW2 4020   5.293   1.224   2.677
 1041SOL     OW 4021   0.343   6.650   3.814
 1041SOL    HW1 4022   0.402   6.683   3.888
 1041SOL    HW2 4023   0.269   6.716   3.799
 1042SOL     OW 4024   4.358   5.260   2.445
 1042SOL    HW1 4025   4.385   5.318   2.368
 1042SOL    HW2 4026   4.272   5.294   2.484
 1043SOL     OW 4027   3.014   2.200   4.249
 1043SOL    HW1 4028   3.016   2.110   4.204
 1043SOL    HW2 4029   3.023   2.272   4.181
 1044SOL     OW 4030   5.909   5.113   2.720
 1044SOL    HW1 4031   5.830   5.173   2.729
 1044SOL    HW2 4032   5.899   5.056   2.638
 1045SOL     OW 4033   3.991   0.368   2.939
 1045SOL    HW1 4034   3.935   0.426   2.881
 1045SOL    HW2 4035   3.988   0.273   2.905
 1046SOL     OW 4036   1.694   0.553   0.651
 1046SOL    HW1 4037   1.752   0.489   0.701
 1046SOL    HW2 4038   1.739   0.582   0.568
 1047SOL     OW 4039   1.961   0.219   3.968
 1047SOL    HW1 4040   1.903   0.240   4.046
 1047SOL    HW2 4041   1.960   0.121   3.950
 1048SOL     OW 4042   4.323   6.340   3.114
 1048SOL    HW1 4043   4.387   6.366   3.042
 1048SOL    HW2 4044   4.256   6.276   3.078
 1049SOL     OW 4045   6.667   6.675   4.157
 1049SOL    HW1 4046   6.571   6.645   4.158
 1049SOL    HW2 4047   6.706   6.659   4.067
 1050SOL     OW 4048   3.857   4.955   1.331
 1050SOL    HW1 4049   3.769   4.982   1.368
 1050SOL    HW2 4050   3.880   5.012   1.253
 1051SOL     OW 4051   0.868   5.729   0.527
 1051SOL    HW1 4052   0.823   5.717   0.615
 1051SOL    HW2 4053   0.865   5.643   0.475
 1052SOL     OW 4054   3.916   0.501   5.018
 1052SOL    HW1 4055   3.879   0.561   4.947
 1052SOL    HW2 4056   3.925   0.553   5.103
 1053SOL     OW 4057   5.995   4.687   2.727
 1053SOL    HW1 4058   6.088   4.655   2.712
 1053SOL    HW2 4059   5.996   4.771   2.781
 1054SOL     OW 4060   3.528   3.525   0.385
 1054SOL    HW1 4061   3.468   3.516   0.464
 1054SOL    HW2 4062   3.500   3.460   0.314
 1055SOL     OW 4063   3.695   6.177   4.931
 1055SOL    HW1 4064   3.680   6.083   4.962
 1055SOL    HW2 4065   3.612   6.209   4.884
 1056SOL     OW 4066   2.569   3.901   6.890
 1056SOL    HW1 4067   2.537   3.996   6.884
 1056SOL    HW2 4068   2.520   3.846   6.823
 1057SOL     OW 4069   3.053   3.498   1.329
 1057SOL    HW1 4070   3.027   3.493   1.425
 1057SOL    HW2 4071   3.085   3.590   1.308
 1058SOL     OW 4072   4.669   2.272   3.423
 1058SOL    HW1 4073   4.595   2.220   3.380
 1058SOL    HW2 4074   4.642   2.368   3.431
 1059SOL     OW 4075   3.008   0.604   2.069
 1059SOL    HW1 4076   3.068   0.669   2.117
 1059SOL    HW2 4077   3.050   0.513   2.072
 1060SOL     OW 4078   0.227   4.873   4.201
 1060SOL    HW1 4079   0.310   4.891   4.148
 1060SOL    HW2 4080   0.165   4.816   4.147
 1061SOL     OW 4081   6.720   2.999   0.643
 1061SOL    HW1 4082   6.719   3.014   0.544
 1061SOL    HW2 4083   6.745   3.084   0.689
 1062SOL     OW 4084   5.654   4.801   5.966
 1062SOL    HW1 4085   5.561   4.838   5.965
 1062SOL    HW2 4086   5.650   4.701   5.961
 1063SOL     OW 4087   1.363   5.382   1.117
 1063SOL    HW1 4088   1.405   5.472   1.119
 1063SOL    HW2 4089   1.275   5.388   1.069
 1064SOL     OW 4090   1.673   4.521   2.839
 1064SOL    HW1 4091   1.645   4.450   2.904
 1064SOL    HW2 4092   1.627   4.508   2.752
 1065SOL     OW 4093   4.131   0.926   3.809
 1065SOL    HW1 4094   4.045   0.880   3.787
 1065SOL    HW2 4095   4.185   0.937   3.725
 1066SOL     OW 4096   5.097   6.834   2.578
 1066SOL    HW1 4097   5.137   6.772   2.511
 1066SOL    HW2 4098   4.998   6.819   2.583
 1067SOL     OW 4099   0.857   3.066   0.863
 1067SOL    HW1 4100   0.777   3.071   0.923
 1067SOL    HW2 4101   0.938   3.042   0.917
 1068SOL     OW 4102   6.504   4.952   2.903
 1068SOL    HW1 4103   6.549   5.040   2.887
 1068SOL    HW2 4104   6.405   4.965   2.902
 1069SOL     OW 4105   4.696   5.078   0.802
 1069SOL    HW1 4106   4.784   5.124   0.811
 1069SOL    HW2 4107   4.648   5.113   0.721
 1070SOL     OW 4108   0.035   0.755   1.687
 1070SOL    HW1 4109   0.065   0.664   1.660
 1070SOL    HW2 4110   0.000   0.752   1.781
 1071SOL     OW 4111   1.384   0.879   4.263
 1071SOL    HW1 4112   1.480   0.898   4.239
 1071SOL    HW2 4113   1.344   0.961   4.304
 1072SOL     OW 4114   1.648   1.237   0.787
 1072SOL    HW1 4115   1.642   1.212   0.883
 1072SOL    HW2 4116   1.727   1.192   0.745
 1073SOL     OW 4117   4.415   0.333   2.813
 1073SOL    HW1 4118   4.430   0.410   2.751
 1073SOL    HW2 4119   4.371   0.258   2.764
 1074SOL     OW 4120   2.339   5.185   1.603
 1074SOL    HW1 4121   2.391   5.246   1.663
 1074SOL    HW2 4122   2.243   5.186   1.628
 1075SOL     OW 4123   5.372   0.525   3.450
 1075SOL    HW1 4124   5.354   0.440   3.499
 1075SOL    HW2 4125   5.459   0.563   3.480
 1076SOL     OW 4126   0.498   2.430   5.405
 1076SOL    HW1 4127   0.472   2.401   5.313
 1076SOL    HW2 4128   0.549   2.516   5.399
 1077SOL     OW 4129   5.842   0.201   1.165
 1077SOL    HW1 4130   5.930   0.157   1.185
 1077SOL    HW2 4131   5.768   0.141   1.196
 1078SOL     OW 4132   0.491   0.417   2.219
 1078SOL    HW1 4133   0.475   0.325   2.182
 1078SOL    HW2 4134   0.568   0.415   2.283
 1079SOL     OW 4135   1.674   6.966   2.156
 1079SOL    HW1 4136   1.617   6.895   2.115
 1079SOL    HW2 4137   1.730   7.009   2.084
 1080SOL     OW 4138   1.619   5.545   3.257
 1080SOL    HW1 4139   1.702   5.554   3.202
 1080SOL    HW2 4140   1.538   5.554   3.199
 1081SOL     OW 4141   7.007   4.964   6.171
 1081SOL    HW1 4142   6.990   5.062   6.160
 1081SOL    HW2 4143   6.977   4.915   6.088
 1082SOL     OW 4144   5.026   2.002   4.683
 1082SOL    HW1 4145   5.124   2.019   4.691
 1082SOL    HW2 4146   4.997   1.938   4.753
 1083SOL     OW 4147   4.729   4.160   0.687
 1083SOL    HW1 4148   4.756   4.225   0.616
 1083SOL    HW2 4149   4.642   4.117   0.662
 1084SOL     OW 4150   6.071   6.303   6.740
 1084SOL    HW1 4151   6.047   6.272   6.832
 1084SOL    HW2 4152   5.988   6.337   6.695
 1085SOL     OW 4153   2.044   3.646   4.727
 1085SOL    HW1 4154   1.990   3.651   4.643
 1085SOL    HW2 4155   2.072   3.738   4.754
 1086SOL     OW 4156   0.850   5.305   0.648
 1086SOL    HW1 4157   0.792   5.225   0.662
 1086SOL    HW2 4158   0.943   5.275   0.626
 1087SOL     OW 4159   5.919   2.165   5.369
 1087SOL    HW1 4160   5.871   2.080   5.389
 1087SOL    HW2 4161   6.003   2.145   5.318
 1088SOL     OW 4162   0.700   4.088   2.749
 1088SOL    HW1 4163   0.795   4.119   2.757
 1088SOL    HW2 4164   0.639   4.159   2.783
 1089SOL     OW 4165   0.747   5.917   4.940
 1089SOL    HW1 4166   0.818   5.901   4.870
 1089SOL    HW2 4167   0.789   5.917   5.030
 1090SOL     OW 4168   2.814   2.338   3.152
 1090SOL    HW1 4169   2.875   2.347   3.073
 1090SOL    HW2 4170   2.727   2.384   3.133
 1091SOL     OW 4171   2.820   2.049   4.830
 1091SOL    HW1 4172   2.833   1.972   4.893
 1091SOL    HW2 4173   2.853   2.023   4.739
 1092SOL     OW 4174   1.014   4.402   1.048
 1092SOL    HW1 4175   1.103   4.440   1.024
 1092SOL    HW2 4176   1.026   4.311   1.087
 1093SOL     OW 4177   1.842   1.154   1.905
 1093SOL    HW1 4178   1.788   1.134   1.823
 1093SOL    HW2 4179   1.939   1.149   1.883
 1094SOL     OW 4180   0.362   6.806   2.480
 1094SOL    HW1 4181   0.281   6.747   2.492
 1094SOL    HW2 4182   0.379   6.856   2.565
 1095SOL     OW 4183   1.044   2.870   6.441
 1095SOL    HW1 4184   1.112   2.890   6.371
 1095SOL    HW2 4185   0.953   2.868   6.400
 1096SOL     OW 4186   3.477   4.396   1.693
 1096SOL    HW1 4187   3.499   4.483   1.737
 1096SOL    HW2 4188   3.395   4.357   1.735
 1097SOL     OW 4189   2.427   4.380   4.108
 1097SOL    HW1 4190   2.419   4.474   4.075
 1097SOL    HW2 4191   2.419   4.379   4.208
 1098SOL     OW 4192   4.754   3.683   6.415
 1098SOL    HW1 4193   4.715   3.759   6.362
 1098SOL    HW2 4194   4.681   3.621   6.444
 1099SOL     OW 4195   3.274   0.934   5.891
 1099SOL    HW1 4196   3.321   1.014   5.853
 1099SOL    HW2 4197   3.336   0.856   5.892
 1100SOL     OW 4198   4.130   1.886   4.270
 1100SOL    HW1 4199   4.086   1.922   4.352
 1100SOL    HW2 4200   4.062   1.878   4.197
 1101SOL     OW 4201   5.607   3.032   5.860
 1101SOL    HW1 4202   5.633   3.126   5.882
 1101SOL    HW2 4203   5.617   2.974   5.941
 1102SOL     OW 4204   0.484   0.129   4.640
 1102SOL    HW1 4205   0.488   0.092   4.547
 1102SOL    HW2 4206   0.512   0.059   4.705
 1103SOL     OW 4207   4.205   1.815   0.069
 1103SOL    HW1 4208   4.118   1.862   0.084
 1103SOL    HW2 4209   4.231   1.764   0.151
 1104SOL     OW 4210   2.256   3.426   5.700
 1104SOL    HW1 4211   2.172   3.480   5.698
 1104SOL    HW2 4212   2.251   3.360   5.776
 1105SOL     OW 4213   5.962   4.054   4.872
 1105SOL    HW1 4214   6.011   4.125   4.821
 1105SOL    HW2 4215   6.019   4.024   4.949
 1106SOL     OW 4216   0.432   2.303   1.342
 1106SOL    HW1 4217   0.394   2.368   1.409
 1106SOL    HW2 4218   0.493   2.239   1.389
 1107SOL     OW 4219   1.013   0.752   0.078
 1107SOL    HW1 4220   1.070   0.726   0.156
 1107SOL    HW2 4221   1.000   0.851   0.077
 1108SOL     OW 4222   3.197   0.071   5.089
 1108SOL    HW1 4223   3.261   0.011   5.136
 1108SOL    HW2 4224   3.134   0.017   5.033
 1109SOL     OW 4225   4.906   0.964   3.827
 1109SOL    HW1 4226   4.874   1.036   3.765
 1109SOL    HW2 4227   5.000   0.984   3.854
 1110SOL     OW 4228   3.391   1.965   3.275
 1110SOL    HW1 4229   3.294   1.941   3.287
 1110SOL    HW2 4230   3.398   2.051   3.225
 1111SOL     OW 4231   4.700   5.224   6.321
 1111SOL    HW1 4232   4.654   5.250   6.406
 1111SOL    HW2 4233   4.660   5.276   6.245
 1112SOL     OW 4234   5.436   0.955   2.407
 1112SOL    HW1 4235   5.367   0.933   2.475
 1112SOL    HW2 4236   5.513   0.892   2.416
 1113SOL     OW 4237   5.920   4.616   1.747
 1113SOL    HW1 4238   5.856   4.609   1.670
 1113SOL    HW2 4239   5.941   4.525   1.781
 1114SOL     OW 4240   3.189   1.743   6.172
 1114SOL    HW1 4241   3.094   1.772   6.168
 1114SOL    HW2 4242   3.222   1.747   6.267
 1115SOL     OW 4243   3.905   3.142   6.018
 1115SOL    HW1 4244   3.892   3.230   6.065
 1115SOL    HW2 4245   3.995   3.141   5.976
 1116SOL     OW 4246   4.975   6.673   6.005
 1116SOL    HW1 4247   5.064   6.631   6.021
 1116SOL    HW2 4248   4.915   6.653   6.082
 1117SOL     OW 4249   2.145   2.449   2.149
 1117SOL    HW1 4250   2.122   2.472   2.244
 1117SOL    HW2 4251   2.232   2.490   2.125
 1118SOL     OW 4252   2.865   4.703   0.095
 1118SOL    HW1 4253   2.953   4.692   0.048
 1118SOL    HW2 4254   2.880   4.743   0.185
 1119SOL     OW 4255   4.191   4.791   1.880
 1119SOL    HW1 4256   4.209   4.845   1.797
 1119SOL    HW2 4257   4.263   4.722   1.891
 1120SOL     OW 4258   5.922   6.416   0.338
 1120SOL    HW1 4259   5.963   6.477   0.270
 1120SOL    HW2 4260   5.867   6.347   0.291
 1121SOL     OW 4261   6.100   4.198   4.349
 1121SOL    HW1 4262   6.165   4.245   4.408
 1121SOL    HW2 4263   6.108   4.099   4.363
 1122SOL     OW 4264   5.399   2.285   0.952
 1122SOL    HW1 4265   5.380   2.358   0.885
 1122SOL    HW2 4266   5.332   2.211   0.940
 1123SOL     OW 4267   5.487   1.725   3.119
 1123SOL    HW1 4268   5.466   1.744   3.215
 1123SOL    HW2 4269   5.514   1.811   3.074
 1124SOL     OW 4270   7.008   3.607   5.258
 1124SOL    HW1 4271   7.001   3.619   5.159
 1124SOL    HW2 4272   6.916   3.603   5.298
 1125SOL     OW 4273   2.691   2.437   3.714
 1125SOL    HW1 4274   2.596   2.413   3.689
 1125SOL    HW2 4275   2.692   2.479   3.805
 1126SOL     OW 4276   5.501   5.088   0.219
 1126SOL    HW1 4277   5.438   5.142   0.275
 1126SOL    HW2 4278   5.459   5.068   0.131
 1127SOL     OW 4279   5.277   5.384   4.523
 1127SOL    HW1 4280   5.234   5.473   4.506
 1127SOL    HW2 4281   5.336   5.360   4.446
 1128SOL     OW 4282   6.090   1.330   5.326
 1128SOL    HW1 4283   6.173   1.372   5.364
 1128SOL    HW2 4284   6.083   1.353   5.229
 1129SOL     OW 4285   1.638   0.077   0.693
 1129SOL    HW1 4286   1.596   0.077   0.784
 1129SOL    HW2 4287   1.568   0.054   0.625
 1130SOL     OW 4288   3.023   4.902   0.251
 1130SOL    HW1 4289   3.087   4.840   0.295
 1130SOL    HW2 4290   3.019   4.988   0.302
 1131SOL     OW 4291   1.155   5.900   5.730
 1131SOL    HW1 4292   1.124   5.879   5.637
 1131SOL    HW2 4293   1.155   6.000   5.743
 1132SOL     OW 4294   5.167   6.978   2.329
 1132SOL    HW1 4295   5.139   0.041   2.368
 1132SOL    HW2 4296   5.115   6.904   2.371
 1133SOL     OW 4297   0.615   1.174   0.546
 1133SOL    HW1 4298   0.598   1.101   0.480
 1133SOL    HW2 4299   0.528   1.218   0.570
 1134SOL     OW 4300   5.093   0.271   2.635
 1134SOL    HW1 4301   5.169   0.232   2.686
 1134SOL    HW2 4302   5.117   0.278   2.538
 1135SOL     OW 4303   2.345   0.088   3.174
 1135SOL    HW1 4304   2.339   0.024   3.097
 1135SOL    HW2 4305   2.423   0.149   3.161
 1136SOL     OW 4306   4.302   4.633   3.475
 1136SOL    HW1 4307   4.348   4.719   3.453
 1136SOL    HW2 4308   4.365   4.556   3.461
 1137SOL     OW 4309   1.136   6.835   0.165
 1137SOL    HW1 4310   1.146   6.841   0.265
 1137SOL    HW2 4311   1.070   6.764   0.143
 1138SOL     OW 4312   0.167   0.883   6.107
 1138SOL    HW1 4313   0.088   0.881   6.168
 1138SOL    HW2 4314   0.240   0.937   6.148
 1139SOL     OW 4315   3.068   4.879   2.533
 1139SOL    HW1 4316   3.008   4.891   2.454
 1139SOL    HW2 4317   3.156   4.922   2.515
 1140SOL     OW 4318   2.813   1.127   2.333
 1140SOL    HW1 4319   2.759   1.162   2.410
 1140SOL    HW2 4320   2.798   1.184   2.252
 1141SOL     OW 4321   0.743   6.557   6.932
 1141SOL    HW1 4322   0.775   6.465   6.954
 1141SOL    HW2 4323   0.764   6.578   6.837
 1142SOL     OW 4324   3.125   6.808   4.467
 1142SOL    HW1 4325   3.057   6.876   4.440
 1142SOL    HW2 4326   3.175   6.842   4.547
 1143SOL     OW 4327   2.248   2.841   3.309
 1143SOL    HW1 4328   2.274   2.765   3.249
 1143SOL    HW2 4329   2.264   2.816   3.404
 1144SOL     OW 4330   5.994   4.469   4.210
 1144SOL    HW1 4331   5.900   4.492   4.235
 1144SOL    HW2 4332   6.026   4.393   4.267
 1145SOL     OW 4333   6.333   3.875   1.930
 1145SOL    HW1 4334   6.299   3.782   1.945
 1145SOL    HW2 4335   6.382   3.906   2.011
 1146SOL     OW 4336   6.853   0.758   2.955
 1146SOL    HW1 4337   6.828   0.838   3.010
 1146SOL    HW2 4338   6.937   0.778   2.905
 1147SOL     OW 4339   2.671   5.924   1.601
 1147SOL    HW1 4340   2.739   5.910   1.528
 1147SOL    HW2 4341   2.608   5.847   1.602
 1148SOL     OW 4342   4.372   6.136   0.195
 1148SOL    HW1 4343   4.451   6.134   0.134
 1148SOL    HW2 4344   4.369   6.053   0.250
 1149SOL     OW 4345   5.811   3.444   2.866
 1149SOL    HW1 4346   5.880   3.372   2.853
 1149SOL    HW2 4347   5.769   3.466   2.779
 1150SOL     OW 4348   0.914   3.533   0.460
 1150SOL    HW1 4349   0.963   3.445   0.460
 1150SOL    HW2 4350   0.851   3.536   0.537
 1151SOL     OW 4351   4.972   4.223   6.402
 1151SOL    HW1 4352   4.993   4.153   6.334
 1151SOL    HW2 4353   4.872   4.229   6.414
 1152SOL     OW 4354   5.262   5.289   6.934
 1152SOL    HW1 4355   5.180   5.290   6.878
 1152SOL    HW2 4356   5.336   5.242   6.885
 1153SOL     OW 4357   0.619   0.394   1.711
 1153SOL    HW1 4358   0.568   0.310   1.728
 1153SOL    HW2 4359   0.556   0.467   1.684
 1154SOL     OW 4360   6.615   4.254   1.730
 1154SOL    HW1 4361   6.562   4.339   1.731
 1154SOL    HW2 4362   6.554   4.178   1.705
 1155SOL     OW 4363   2.156   4.832   5.844
 1155SOL    HW1 4364   2.223   4.758   5.857
 1155SOL    HW2 4365   2.123   4.863   5.932
 1156SOL     OW 4366   4.577   1.855   4.937
 1156SOL    HW1 4367   4.625   1.839   4.851
 1156SOL    HW2 4368   4.560   1.767   4.982
 1157SOL     OW 4369   4.959   2.065   5.931
 1157SOL    HW1 4370   4.921   2.057   6.023
 1157SOL    HW2 4371   5.059   2.064   5.936
 1158SOL     OW 4372   7.011   4.666   5.676
 1158SOL    HW1 4373   0.009   4.659   5.579
 1158SOL    HW2 4374   6.940   4.736   5.689
 1159SOL     OW 4375   6.671   0.060   3.497
 1159SOL    HW1 4376   6.574   0.038   3.508
 1159SOL    HW2 4377   6.685   0.156   3.520
 1160SOL     OW 4378   5.278   4.550   1.174
 1160SOL    HW1 4379   5.231   4.462   1.165
 1160SOL    HW2 4380   5.362   4.548   1.119
 1161SOL     OW 4381   5.954   6.051   5.995
 1161SOL    HW1 4382   5.971   5.976   6.060
 1161SOL    HW2 4383   5.966   6.017   5.902
 1162SOL     OW 4384   3.359   2.878   6.758
 1162SOL    HW1 4385   3.273   2.868   6.707
 1162SOL    HW2 4386   3.348   2.841   6.850
 1163SOL     OW 4387   6.748   3.756   1.579
 1163SOL    HW1 4388   6.842   3.733   1.554
 1163SOL    HW2 4389   6.744   3.785   1.674
 1164SOL     OW 4390   6.031   2.978   4.178
 1164SOL    HW1 4391   6.018   3.058   4.119
 1164SOL    HW2 4392   6.048   2.898   4.121
 1165SOL     OW 4393   3.953   4.903   3.821
 1165SOL    HW1 4394   3.860   4.918   3.788
 1165SOL    HW2 4395   3.996   4.991   3.843
 1166SOL     OW 4396   3.651   0.025   6.842
 1166SOL    HW1 4397   3.696   6.990   6.909
 1166SOL    HW2 4398   3.675   7.019   6.750
 1167SOL     OW 4399   4.393   6.479   0.100
 1167SOL    HW1 4400   4.381   6.495   0.197
 1167SOL    HW2 4401   4.433   6.560   0.058
 1168SOL     OW 4402   5.607   2.293   2.872
 1168SOL    HW1 4403   5.533   2.265   2.933
 1168SOL    HW2 4404   5.570   2.322   2.784
 1169SOL     OW 4405   4.726   2.550   5.882
 1169SOL    HW1 4406   4.727   2.585   5.976
 1169SOL    HW2 4407   4.802   2.591   5.831
 1170SOL     OW 4408   5.163   6.954   2.820
 1170SOL    HW1 4409   5.085   6.970   2.881
 1170SOL    HW2 4410   5.129   6.934   2.728
 1171SOL     OW 4411   2.031   6.573   0.218
 1171SOL    HW1 4412   2.043   6.672   0.222
 1171SOL    HW2 4413   2.120   6.528   0.218
 1172SOL     OW 4414   3.636   4.136   1.554
 1172SOL    HW1 4415   3.730   4.103   1.564
 1172SOL    HW2 4416   3.573   4.071   1.596
 1173SOL     OW 4417   3.058   0.862   0.349
 1173SOL    HW1 4418   3.147   0.883   0.309
 1173SOL    HW2 4419   3.065   0.860   0.448
 1174SOL     OW 4420   2.660   5.018   1.644
 1174SOL    HW1 4421   2.594   5.015   1.568
 1174SOL    HW2 4422   2.736   5.078   1.619
 1175SOL     OW 4423   4.503   4.613   6.579
 1175SOL    HW1 4424   4.529   4.686   6.516
 1175SOL    HW2 4425   4.405   4.619   6.599
 1176SOL     OW 4426   6.096   3.825   6.626
 1176SOL    HW1 4427   6.033   3.768   6.573
 1176SOL    HW2 4428   6.189   3.793   6.612
 1177SOL     OW 4429   0.066   3.569   4.740
 1177SOL    HW1 4430   0.125   3.488   4.737
 1177SOL    HW2 4431   0.016   3.577   4.654
 1178SOL     OW 4432   4.001   4.162   0.713
 1178SOL    HW1 4433   4.079   4.221   0.694
 1178SOL    HW2 4434   4.029   4.089   0.776
 1179SOL     OW 4435   2.264   6.224   1.199
 1179SOL    HW1 4436   2.222   6.146   1.154
 1179SOL    HW2 4437   2.195   6.294   1.216
 1180SOL     OW 4438   2.640   6.046   4.628
 1180SOL    HW1 4439   2.550   6.016   4.659
 1180SOL    HW2 4440   2.666   5.994   4.546
 1181SOL     OW 4441   0.192   3.982   6.069
 1181SOL    HW1 4442   0.163   3.935   6.152
 1181SOL    HW2 4443   0.158   4.076   6.070
 1182SOL     OW 4444   4.270   5.090   3.359
 1182SOL    HW1 4445   4.364   5.066   3.384
 1182SOL    HW2 4446   4.207   5.046   3.423
 1183SOL     OW 4447   3.136   4.887   1.555
 1183SOL    HW1 4448   3.140   4.885   1.655
 1183SOL    HW2 4449   3.099   4.801   1.522
 1184SOL     OW 4450   0.093   1.411   5.328
 1184SOL    HW1 4451   0.107   1.355   5.247
 1184SOL    HW2 4452   0.171   1.473   5.340
 1185SOL     OW 4453   1.356   0.889   0.293
 1185SOL    HW1 4454   1.290   0.823   0.327
 1185SOL    HW2 4455   1.396   0.854   0.208
 1186SOL     OW 4456   4.875   6.338   5.096
 1186SOL    HW1 4457   4.841   6.422   5.055
 1186SOL    HW2 4458   4.923   6.360   5.181
 1187SOL     OW 4459   5.169   0.228   4.698
 1187SOL    HW1 4460   5.149   0.190   4.788
 1187SOL    HW2 4461   5.242   0.296   4.705
 1188SOL     OW 4462   2.515   5.207   6.158
 1188SOL    HW1 4463   2.586   5.208   6.228
 1188SOL    HW2 4464   2.527   5.127   6.099
 1189SOL     OW 4465   6.628   2.127   1.737
 1189SOL    HW1 4466   6.645   2.159   1.830
 1189SOL    HW2 4467   6.682   2.044   1.719
 1190SOL     OW 4468   3.024   5.565   2.837
 1190SOL    HW1 4469   3.030   5.525   2.929
 1190SOL    HW2 4470   2.972   5.650   2.841
 1191SOL     OW 4471   4.369   5.983   4.248
 1191SOL    HW1 4472   4.288   6.037   4.273
 1191SOL    HW2 4473   4.451   6.028   4.283
 1192SOL     OW 4474   5.445   4.965   3.297
 1192SOL    HW1 4475   5.500   5.049   3.296
 1192SOL    HW2 4476   5.505   4.886   3.285
 1193SOL     OW 4477   6.952   2.297   5.639
 1193SOL    HW1 4478   0.000   2.254   5.585
 1193SOL    HW2 4479   6.910   2.371   5.586
 1194SOL     OW 4480   6.375   1.086   1.711
 1194SOL    HW1 4481   6.475   1.080   1.701
 1194SOL    HW2 4482   6.336   1.130   1.630
 1195SOL     OW 4483   0.212   3.505   0.292
 1195SOL    HW1 4484   0.126   3.555   0.284
 1195SOL    HW2 4485   0.229   3.481   0.387
 1196SOL     OW 4486   6.854   4.930   3.581
 1196SOL    HW1 4487   6.811   4.841   3.598
 1196SOL    HW2 4488   6.802   5.001   3.629
 1197SOL     OW 4489   4.524   6.400   4.440
 1197SOL    HW1 4490   4.524   6.459   4.521
 1197SOL    HW2 4491   4.584   6.439   4.371
 1198SOL     OW 4492   1.848   3.461   2.243
 1198SOL    HW1 4493   1.775   3.530   2.241
 1198SOL    HW2 4494   1.901   3.467   2.159
 1199SOL     OW 4495   3.470   3.822   2.570
 1199SOL    HW1 4496   3.396   3.870   2.523
 1199SOL    HW2 4497   3.432   3.747   2.624
 1200SOL     OW 4498   3.183   4.131   4.818
 1200SOL    HW1 4499   3.130   4.215   4.803
 1200SOL    HW2 4500   3.179   4.074   4.737
 1201SOL     OW 4501   0.702   1.192   4.049
 1201SOL    HW1 4502   0.724   1.279   4.092
 1201SOL    HW2 4503   0.603   1.179   4.048
 1202SOL     OW 4504   7.005   5.772   5.499
 1202SOL    HW1 4505   6.995   5.693   5.560
 1202SOL    HW2 4506   6.921   5.784   5.447
 1203SOL     OW 4507   0.706   5.267   0.955
 1203SOL    HW1 4508   0.616   5.249   0.995
 1203SOL    HW2 4509   0.739   5.356   0.986
 1204SOL     OW 4510   4.620   1.659   1.100
 1204SOL    HW1 4511   4.527   1.664   1.064
 1204SOL    HW2 4512   4.627   1.582   1.163
 1205SOL     OW 4513   4.018   3.851   0.617
 1205SOL    HW1 4514   3.971   3.827   0.533
 1205SOL    HW2 4515   4.112   3.815   0.615
 1206SOL     OW 4516   2.484   2.607   5.424
 1206SOL    HW1 4517   2.433   2.578   5.505
 1206SOL    HW2 4518   2.423   2.656   5.361
 1207SOL     OW 4519   0.807   0.157   1.025
 1207SOL    HW1 4520   0.819   0.083   0.959
 1207SOL    HW2 4521   0.712   0.189   1.022
 1208SOL     OW 4522   3.158   3.718   1.603
 1208SOL    HW1 4523   3.182   3.815   1.608
 1208SOL    HW2 4524   3.225   3.665   1.655
 1209SOL     OW 4525   4.732   0.553   3.691
 1209SOL    HW1 4526   4.741   0.459   3.657
 1209SOL    HW2 4527   4.723   0.552   3.791
 1210SOL     OW 4528   3.959   6.833   3.343
 1210SOL    HW1 4529   4.049   6.845   3.302
 1210SOL    HW2 4530   3.917   6.922   3.361
 1211SOL     OW 4531   1.541   2.943   3.137
 1211SOL    HW1 4532   1.514   2.879   3.209
 1211SOL    HW2 4533   1.641   2.953   3.138
 1212SOL     OW 4534   6.485   0.259   5.926
 1212SOL    HW1 4535   6.385   0.260   5.916
 1212SOL    HW2 4536   6.514   0.339   5.978
 1213SOL     OW 4537   6.178   2.631   1.392
 1213SOL    HW1 4538   6.183   2.623   1.292
 1213SOL    HW2 4539   6.189   2.541   1.434
 1214SOL     OW 4540   1.201   3.236   0.268
 1214SOL    HW1 4541   1.247   3.313   0.223
 1214SOL    HW2 4542   1.270   3.176   0.309
 1215SOL     OW 4543   0.740   4.888   3.425
 1215SOL    HW1 4544   0.700   4.969   3.384
 1215SOL    HW2 4545   0.839   4.894   3.424
 1216SOL     OW 4546   5.416   0.936   0.535
 1216SOL    HW1 4547   5.392   0.875   0.611
 1216SOL    HW2 4548   5.349   1.010   0.529
 1217SOL     OW 4549   2.895   4.205   1.072
 1217SOL    HW1 4550   2.897   4.118   1.022
 1217SOL    HW2 4551   2.838   4.195   1.154
 1218SOL     OW 4552   1.283   3.038   5.115
 1218SOL    HW1 4553   1.236   3.127   5.118
 1218SOL    HW2 4554   1.381   3.052   5.104
 1219SOL     OW 4555   5.863   6.092   1.688
 1219SOL    HW1 4556   5.830   6.169   1.745
 1219SOL    HW2 4557   5.957   6.072   1.713
 1220SOL     OW 4558   0.921   4.727   2.497
 1220SOL    HW1 4559   0.976   4.801   2.534
 1220SOL    HW2 4560   0.934   4.645   2.553
 1221SOL     OW 4561   4.262   3.698   6.349
 1221SOL    HW1 4562   4.329   3.671   6.279
 1221SOL    HW2 4563   4.179   3.643   6.337
 1222SOL     OW 4564   6.537   1.003   6.736
 1222SOL    HW1 4565   6.475   0.925   6.722
 1222SOL    HW2 4566   6.589   1.019   6.652
 1223SOL     OW 4567   4.255   1.617   0.605
 1223SOL    HW1 4568   4.353   1.595   0.609
 1223SOL    HW2 4569   4.202   1.532   0.598
 1224SOL     OW 4570   3.423   6.084   0.378
 1224SOL    HW1 4571   3.337   6.091   0.430
 1224SOL    HW2 4572   3.489   6.031   0.431
 1225SOL     OW 4573   3.426   3.290   6.624
 1225SOL    HW1 4574   3.404   3.276   6.720
 1225SOL    HW2 4575   3.384   3.218   6.569
 1226SOL     OW 4576   2.832   7.013   1.541
 1226SOL    HW1 4577   2.890   6.959   1.602
 1226SOL    HW2 4578   2.888   0.053   1.489
 1227SOL     OW 4579   5.200   4.668   6.141
 1227SOL    HW1 4580   5.136   4.594   6.160
 1227SOL    HW2 4581   5.153   4.756   6.151
 1228SOL     OW 4582   2.686   2.371   5.951
 1228SOL    HW1 4583   2.766   2.427   5.975
 1228SOL    HW2 4584   2.603   2.419   5.980
 1229SOL     OW 4585   3.068   5.847   6.051
 1229SOL    HW1 4586   3.098   5.759   6.087
 1229SOL    HW2 4587   3.143   5.913   6.059
 1230SOL     OW 4588   5.387   6.651   2.241
 1230SOL    HW1 4589   5.430   6.565   2.269
 1230SOL    HW2 4590   5.458   6.715   2.211
 1231SOL     OW 4591   1.653   2.171   5.393
 1231SOL    HW1 4592   1.628   2.221   5.311
 1231SOL    HW2 4593   1.704   2.089   5.368
 1232SOL     OW 4594   0.122   2.053   5.648
 1232SOL    HW1 4595   0.162   2.102   5.571
 1232SOL    HW2 4596   0.183   1.979   5.676
 1233SOL     OW 4597   0.784   5.109   5.129
 1233SOL    HW1 4598   0.704   5.102   5.189
 1233SOL    HW2 4599   0.757   5.094   5.035
 1234SOL     OW 4600   6.594   2.642   5.679
 1234SOL    HW1 4601   6.513   2.588   5.657
 1234SOL    HW2 4602   6.600   2.721   5.618
 1235SOL     OW 4603   6.204   5.485   3.117
 1235SOL    HW1 4604   6.268   5.551   3.156
 1235SOL    HW2 4605   6.151   5.529   3.044
 1236SOL     OW 4606   4.728   1.066   7.020
 1236SOL    HW1 4607   4.773   1.137   6.967
 1236SOL    HW2 4608   4.630   1.066   6.999
 1237SOL     OW 4609   2.362   4.589   6.220
 1237SOL    HW1 4610   2.347   4.548   6.310
 1237SOL    HW2 4611   2.451   4.635   6.219
 1238SOL     OW 4612   0.992   0.966   0.463
 1238SOL    HW1 4613   0.947   1.043   0.418
 1238SOL    HW2 4614   1.034   0.997   0.548
 1239SOL     OW 4615   6.803   6.758   6.692
 1239SOL    HW1 4616   6.872   6.745   6.621
 1239SOL    HW2 4617   6.753   6.672   6.707
 1240SOL     OW 4618   5.491   6.217   1.268
 1240SOL    HW1 4619   5.513   6.194   1.173
 1240SOL    HW2 4620   5.404   6.175   1.293
 1241SOL     OW 4621   5.318   3.460   4.266
 1241SOL    HW1 4622   5.392   3.411   4.219
 1241SOL    HW2 4623   5.241   3.470   4.203
 1242SOL     OW 4624   0.682   3.422   1.332
 1242SOL    HW1 4625   0.684   3.323   1.318
 1242SOL    HW2 4626   0.669   3.442   1.429
 1243SOL     OW 4627   0.335   0.089   5.031
 1243SOL    HW1 4628   0.391   0.020   5.077
 1243SOL    HW2 4629   0.279   0.045   4.961
 1244SOL     OW 4630   5.636   6.967   4.758
 1244SOL    HW1 4631   5.617   6.951   4.855
 1244SOL    HW2 4632   5.735   6.969   4.743
 1245SOL     OW 4633   5.739   4.201   0.819
 1245SOL    HW1 4634   5.673   4.126   0.827
 1245SOL    HW2 4635   5.798   4.186   0.740
 1246SOL     OW 4636   2.880   0.349   1.003
 1246SOL    HW1 4637   2.781   0.365   1.003
 1246SOL    HW2 4638   2.916   0.362   0.911
 1247SOL     OW 4639   0.554   7.014   6.326
 1247SOL    HW1 4640   0.615   6.935   6.332
 1247SOL    HW2 4641   0.575   0.042   6.243
 1248SOL     OW 4642   1.970   0.253   5.229
 1248SOL    HW1 4643   1.895   0.268   5.292
 1248SOL    HW2 4644   2.002   0.158   5.236
 1249SOL     OW 4645   6.222   2.097   2.243
 1249SOL    HW1 4646   6.319   2.076   2.235
 1249SOL    HW2 4647   6.173   2.018   2.281
 1250SOL     OW 4648   6.075   5.409   3.951
 1250SOL    HW1 4649   6.159   5.366   3.983
 1250SOL    HW2 4650   6.061   5.496   3.998
 1251SOL     OW 4651   2.353   0.176   3.653
 1251SOL    HW1 4652   2.321   0.172   3.747
 1251SOL    HW2 4653   2.396   0.089   3.629
 1252SOL     OW 4654   4.897   3.095   6.050
 1252SOL    HW1 4655   4.914   3.089   6.149
 1252SOL    HW2 4656   4.833   3.024   6.023
 1253SOL     OW 4657   2.656   5.856   2.419
 1253SOL    HW1 4658   2.748   5.854   2.457
 1253SOL    HW2 4659   2.660   5.895   2.327
 1254SOL     OW 4660   1.039   2.977   2.579
 1254SOL    HW1 4661   1.113   2.925   2.621
 1254SOL    HW2 4662   1.069   3.016   2.492
 1255SOL     OW 4663   5.723   1.354   5.658
 1255SOL    HW1 4664   5.700   1.283   5.725
 1255SOL    HW2 4665   5.800   1.408   5.692
 1256SOL     OW 4666   0.008   6.798   3.367
 1256SOL    HW1 4667   0.004   6.882   3.421
 1256SOL    HW2 4668   6.965   6.733   3.402
 1257SOL     OW 4669   6.478   6.307   5.552
 1257SOL    HW1 4670   6.565   6.280   5.593
 1257SOL    HW2 4671   6.441   6.231   5.499
 1258SOL     OW 4672   1.848   5.044   2.862
 1258SOL    HW1 4673   1.796   4.959   2.871
 1258SOL    HW2 4674   1.902   5.041   2.777
 1259SOL     OW 4675   3.888   0.828   3.706
 1259SOL    HW1 4676   3.855   0.810   3.613
 1259SOL    HW2 4677   3.853   0.758   3.768
 1260SOL     OW 4678   2.138   1.536   0.187
 1260SOL    HW1 4679   2.216   1.582   0.228
 1260SOL    HW2 4680   2.058   1.596   0.192
 1261SOL     OW 4681   0.091   6.087   6.954
 1261SOL    HW1 4682   0.002   6.066   6.913
 1261SOL    HW2 4683   0.119   6.179   6.926
 1262SOL     OW 4684   5.979   4.342   1.456
 1262SOL    HW1 4685   5.951   4.377   1.366
 1262SOL    HW2 4686   6.009   4.247   1.447
 1263SOL     OW 4687   0.159   2.526   1.880
 1263SOL    HW1 4688   0.173   2.513   1.781
 1263SOL    HW2 4689   0.228   2.588   1.916
 1264SOL     OW 4690   6.874   4.546   0.922
 1264SOL    HW1 4691   6.856   4.589   0.833
 1264SOL    HW2 4692   6.972   4.546   0.940
 1265SOL     OW 4693   5.563   5.568   4.733
 1265SOL    HW1 4694   5.506   5.487   4.724
 1265SOL    HW2 4695   5.574   5.612   4.644
 1266SOL     OW 4696   0.708   1.824   4.016
 1266SOL    HW1 4697   0.798   1.836   4.057
 1266SOL    HW2 4698   0.698   1.729   3.986
 1267SOL     OW 4699   4.570   6.983   1.377
 1267SOL    HW1 4700   4.635   0.024   1.414
 1267SOL    HW2 4701   4.487   0.006   1.348
 1268SOL     OW 4702   2.781   2.261   0.747
 1268SOL    HW1 4703   2.857   2.306   0.700
 1268SOL    HW2 4704   2.733   2.329   0.804
 1269SOL     OW 4705   5.652   4.309   5.037
 1269SOL    HW1 4706   5.601   4.234   5.080
 1269SOL    HW2 4707   5.732   4.330   5.093
 1270SOL     OW 4708   1.476   2.863   3.919
 1270SOL    HW1 4709   1.473   2.766   3.941
 1270SOL    HW2 4710   1.411   2.913   3.976
 1271SOL     OW 4711   2.843   1.966   3.301
 1271SOL    HW1 4712   2.824   1.949   3.204
 1271SOL    HW2 4713   2.831   2.063   3.321
 1272SOL     OW 4714   5.873   4.215   0.201
 1272SOL    HW1 4715   5.831   4.230   0.290
 1272SOL    HW2 4716   5.919   4.126   0.200
 1273SOL     OW 4717   0.463   2.765   0.008
 1273SOL    HW1 4718   0.370   2.745   0.036
 1273SOL    HW2 4719   0.526   2.702   0.054
 1274SOL     OW 4720   6.865   4.145   1.713
 1274SOL    HW1 4721   6.777   4.183   1.682
 1274SOL    HW2 4722   6.921   4.219   1.752
 1275SOL     OW 4723   3.700   1.468   4.401
 1275SOL    HW1 4724   3.708   1.562   4.367
 1275SOL    HW2 4725   3.791   1.426   4.404
 1276SOL     OW 4726   6.397   5.166   5.656
 1276SOL    HW1 4727   6.474   5.147   5.717
 1276SOL    HW2 4728   6.371   5.262   5.664
 1277SOL     OW 4729   1.570   5.322   5.868
 1277SOL    HW1 4730   1.537   5.274   5.787
 1277SOL    HW2 4731   1.580   5.419   5.848
 1278SOL     OW 4732   1.022   6.573   5.206
 1278SOL    HW1 4733   0.957   6.498   5.213
 1278SOL    HW2 4734   1.022   6.609   5.113
 1279SOL     OW 4735   2.206   4.978   0.389
 1279SOL    HW1 4736   2.257   4.987   0.303
 1279SOL    HW2 4737   2.256   4.917   0.451
 1280SOL     OW 4738   4.470   6.267   4.079
 1280SOL    HW1 4739   4.446   6.181   4.034
 1280SOL    HW2 4740   4.396   6.332   4.068
 1281SOL     OW 4741   2.213   6.669   3.117
 1281SOL    HW1 4742   2.114   6.660   3.107
 1281SOL    HW2 4743   2.255   6.579   3.115
 1282SOL     OW 4744   6.658   2.491   0.237
 1282SOL    HW1 4745   6.701   2.475   0.148
 1282SOL    HW2 4746   6.722   2.467   0.310
 1283SOL     OW 4747   6.737   3.475   5.145
 1283SOL    HW1 4748   6.646   3.515   5.153
 1283SOL    HW2 4749   6.744   3.424   5.059
 1284SOL     OW 4750   4.839   2.025   1.314
 1284SOL    HW1 4751   4.849   1.980   1.403
 1284SOL    HW2 4752   4.846   1.957   1.241
 1285SOL     OW 4753   4.391   1.926   6.094
 1285SOL    HW1 4754   4.294   1.924   6.116
 1285SOL    HW2 4755   4.404   1.941   5.996
 1286SOL     OW 4756   4.322   4.007   1.491
 1286SOL    HW1 4757   4.267   3.983   1.571
 1286SOL    HW2 4758   4.418   3.985   1.508
 1287SOL     OW 4759   5.859   4.861   4.935
 1287SOL    HW1 4760   5.837   4.950   4.895
 1287SOL    HW2 4761   5.921   4.874   5.012
 1288SOL     OW 4762   3.960   3.265   6.917
 1288SOL    HW1 4763   4.040   3.268   6.978
 1288SOL    HW2 4764   3.878   3.289   6.969
 1289SOL     OW 4765   6.678   6.827   1.134
 1289SOL    HW1 4766   6.594   6.785   1.100
 1289SOL    HW2 4767   6.749   6.819   1.065
 1290SOL     OW 4768   0.958   6.637   0.096
 1290SOL    HW1 4769   0.981   6.542   0.112
 1290SOL    HW2 4770   0.885   6.643   0.028
 1291SOL     OW 4771   0.842   4.295   4.107
 1291SOL    HW1 4772   0.867   4.207   4.146
 1291SOL    HW2 4773   0.921   4.334   4.059
 1292SOL     OW 4774   0.385   6.092   2.332
 1292SOL    HW1 4775   0.432   6.164   2.382
 1292SOL    HW2 4776   0.444   6.059   2.258
 1293SOL     OW 4777   1.682   2.028   0.459
 1293SOL    HW1 4778   1.623   2.048   0.380
 1293SOL    HW2 4779   1.649   1.946   0.505
 1294SOL     OW 4780   0.641   3.281   6.419
 1294SOL    HW1 4781   0.602   3.354   6.363
 1294SOL    HW2 4782   0.721   3.243   6.374
 1295SOL     OW 4783   0.465   3.726   1.489
 1295SOL    HW1 4784   0.553   3.747   1.533
 1295SOL    HW2 4785   0.482   3.683   1.400
 1296SOL     OW 4786   3.599   6.285   5.365
 1296SOL    HW1 4787   3.666   6.212   5.380
 1296SOL    HW2 4788   3.613   6.326   5.275
 1297SOL     OW 4789   6.792   0.135   1.774
 1297SOL    HW1 4790   6.722   0.142   1.703
 1297SOL    HW2 4791   6.875   0.182   1.746
 1298SOL     OW 4792   5.470   5.509   3.558
 1298SOL    HW1 4793   5.396   5.536   3.620
 1298SOL    HW2 4794   5.557   5.542   3.594
 1299SOL     OW 4795   2.248   2.968   3.673
 1299SOL    HW1 4796   2.162   2.932   3.637
 1299SOL    HW2 4797   2.324   2.913   3.640
 1300SOL     OW 4798   1.649   3.027   0.648
 1300SOL    HW1 4799   1.679   2.980   0.564
 1300SOL    HW2 4800   1.729   3.053   0.702
 1301SOL     OW 4801   0.410   6.368   1.013
 1301SOL    HW1 4802   0.480   6.362   0.942
 1301SOL    HW2 4803   0.320   6.367   0.971
 1302SOL     OW 4804   4.594   0.187   5.619
 1302SOL    HW1 4805   4.668   0.143   5.568
 1302SOL    HW2 4806   4.518   0.207   5.556
 1303SOL     OW 4807   3.671   2.012   1.954
 1303SOL    HW1 4808   3.704   2.106   1.956
 1303SOL    HW2 4809   3.591   2.006   1.894
 1304SOL     OW 4810   1.715   0.749   0.057
 1304SOL    HW1 4811   1.773   0.685   0.007
 1304SOL    HW2 4812   1.772   0.807   0.115
 1305SOL     OW 4813   5.360   3.395   0.704
 1305SOL    HW1 4814   5.423   3.458   0.657
 1305SOL    HW2 4815   5.362   3.306   0.659
 1306SOL     OW 4816   1.036   5.481   3.752
 1306SOL    HW1 4817   1.037   5.567   3.802
 1306SOL    HW2 4818   1.002   5.407   3.811
 1307SOL     OW 4819   1.842   4.001   4.060
 1307SOL    HW1 4820   1.819   4.097   4.045
 1307SOL    HW2 4821   1.774   3.943   4.014
 1308SOL     OW 4822   6.581   0.215   5.176
 1308SOL    HW1 4823   6.591   0.151   5.099
 1308SOL    HW2 4824   6.645   0.290   5.165
 1309SOL     OW 4825   6.032   4.883   5.146
 1309SOL    HW1 4826   6.042   4.962   5.206
 1309SOL    HW2 4827   6.085   4.807   5.183
 1310SOL     OW 4828   6.671   4.073   4.360
 1310SOL    HW1 4829   6.615   3.997   4.327
 1310SOL    HW2 4830   6.712   4.048   4.448
 1311SOL     OW 4831   0.400   5.673   5.783
 1311SOL    HW1 4832   0.403   5.684   5.883
 1311SOL    HW2 4833   0.474   5.727   5.742
 1312SOL     OW 4834   0.783   6.526   6.669
 1312SOL    HW1 4835   0.745   6.444   6.627
 1312SOL    HW2 4836   0.881   6.529   6.654
 1313SOL     OW 4837   0.284   4.859   2.856
 1313SOL    HW1 4838   0.272   4.824   2.763
 1313SOL    HW2 4839   0.328   4.789   2.913
 1314SOL     OW 4840   4.308   1.457   5.046
 1314SOL    HW1 4841   4.332   1.384   5.110
 1314SOL    HW2 4842   4.212   1.481   5.057
 1315SOL     OW 4843   0.118   1.759   2.671
 1315SOL    HW1 4844   0.153   1.677   2.626
 1315SOL    HW2 4845   0.159   1.767   2.762
 1316SOL     OW 4846   2.788   6.645   6.179
 1316SOL    HW1 4847   2.732   6.567   6.151
 1316SOL    HW2 4848   2.775   6.720   6.114
 1317SOL     OW 4849   2.225   4.422   6.025
 1317SOL    HW1 4850   2.249   4.461   6.114
 1317SOL    HW2 4851   2.125   4.420   6.016
 1318SOL     OW 4852   1.040   2.362   1.008
 1318SOL    HW1 4853   1.117   2.343   0.949
 1318SOL    HW2 4854   1.070   2.421   1.084
 1319SOL     OW 4855   6.640   6.359   0.286
 1319SOL    HW1 4856   6.673   6.284   0.343
 1319SOL    HW2 4857   6.709   6.431   0.283
 1320SOL     OW 4858   3.773   4.506   6.746
 1320SOL    HW1 4859   3.827   4.482   6.826
 1320SOL    HW2 4860   3.832   4.509   6.665
 1321SOL     OW 4861   6.012   2.222   6.453
 1321SOL    HW1 4862   5.993   2.124   6.463
 1321SOL    HW2 4863   6.073   2.236   6.375
 1322SOL     OW 4864   3.832   1.665   3.400
 1322SOL    HW1 4865   3.923   1.644   3.364
 1322SOL    HW2 4866   3.784   1.726   3.336
 1323SOL     OW 4867   4.018   0.289   5.922
 1323SOL    HW1 4868   3.976   0.227   5.987
 1323SOL    HW2 4869   4.017   0.248   5.831
 1324SOL     OW 4870   1.130   4.024   0.150
 1324SOL    HW1 4871   1.185   3.942   0.139
 1324SOL    HW2 4872   1.145   4.086   0.073
 1325SOL     OW 4873   2.584   6.639   4.212
 1325SOL    HW1 4874   2.500   6.587   4.230
 1325SOL    HW2 4875   2.649   6.581   4.163
 1326SOL     OW 4876   4.789   3.340   5.297
 1326SOL    HW1 4877   4.745   3.275   5.358
 1326SOL    HW2 4878   4.722   3.377   5.233
 1327SOL     OW 4879   1.119   6.347   1.257
 1327SOL    HW1 4880   1.029   6.377   1.286
 1327SOL    HW2 4881   1.147   6.268   1.312
 1328SOL     OW 4882   2.348   3.409   1.173
 1328SOL    HW1 4883   2.328   3.424   1.270
 1328SOL    HW2 4884   2.327   3.314   1.150
 1329SOL     OW 4885   0.703   2.284   2.198
 1329SOL    HW1 4886   0.605   2.300   2.181
 1329SOL    HW2 4887   0.753   2.369   2.186
 1330SOL     OW 4888   1.030   1.168   2.098
 1330SOL    HW1 4889   0.981   1.204   2.177
 1330SOL    HW2 4890   0.975   1.184   2.015
 1331SOL     OW 4891   4.895   3.525   2.561
 1331SOL    HW1 4892   4.874   3.575   2.477
 1331SOL    HW2 4893   4.886   3.427   2.544
 1332SOL     OW 4894   2.853   0.003   6.812
 1332SOL    HW1 4895   2.881   6.933   6.794
 1332SOL    HW2 4896   2.754   0.007   6.824
 1333SOL     OW 4897   3.816   3.476   3.722
 1333SOL    HW1 4898   3.810   3.379   3.699
 1333SOL    HW2 4899   3.752   3.498   3.795
 1334SOL     OW 4900   6.006   1.816   4.239
 1334SOL    HW1 4901   6.045   1.724   4.235
 1334SOL    HW2 4902   5.941   1.828   4.164
 1335SOL     OW 4903   2.478   1.990   2.203
 1335SOL    HW1 4904   2.538   2.070   2.190
 1335SOL    HW2 4905   2.415   1.982   2.126
 1336SOL     OW 4906   2.394   2.402   5.161
 1336SOL    HW1 4907   2.453   2.473   5.124
 1336SOL    HW2 4908   2.303   2.410   5.119
 1337SOL     OW 4909   1.729   1.385   3.498
 1337SOL    HW1 4910   1.810   1.345   3.540
 1337SOL    HW2 4911   1.726   1.362   3.401
 1338SOL     OW 4912   5.874   2.431   4.859
 1338SOL    HW1 4913   5.831   2.500   4.918
 1338SOL    HW2 4914   5.812   2.354   4.848
 1339SOL     OW 4915   6.346   2.115   6.754
 1339SOL    HW1 4916   6.312   2.092   6.663
 1339SOL    HW2 4917   6.318   2.209   6.777
 1340SOL     OW 4918   6.073   2.039   3.070
 1340SOL    HW1 4919   6.000   2.105   3.049
 1340SOL    HW2 4920   6.139   2.081   3.133
 1341SOL     OW 4921   5.498   6.842   6.706
 1341SOL    HW1 4922   5.564   6.768   6.720
 1341SOL    HW2 4923   5.410   6.817   6.747
 1342SOL     OW 4924   2.935   5.991   5.841
 1342SOL    HW1 4925   2.984   5.926   5.899
 1342SOL    HW2 4926   2.888   6.058   5.898
 1343SOL     OW 4927   5.820   5.743   2.326
 1343SOL    HW1 4928   5.873   5.704   2.401
 1343SOL    HW2 4929   5.781   5.670   2.271
 1344SOL     OW 4930   0.483   6.178   4.510
 1344SOL    HW1 4931   0.440   6.248   4.566
 1344SOL    HW2 4932   0.576   6.205   4.487
 1345SOL     OW 4933   1.064   6.598   3.267
 1345SOL    HW1 4934   0.965   6.586   3.262
 1345SOL    HW2 4935   1.106   6.567   3.181
 1346SOL     OW 4936   1.094   5.699   4.533
 1346SOL    HW1 4937   1.025   5.733   4.597
 1346SOL    HW2 4938   1.089   5.600   4.529
 1347SOL     OW 4939   0.237   6.630   5.993
 1347SOL    HW1 4940   0.236   6.665   5.899
 1347SOL    HW2 4941   0.289   6.693   6.051
 1348SOL     OW 4942   5.780   6.316   3.989
 1348SOL    HW1 4943   5.690   6.318   3.945
 1348SOL    HW2 4944   5.843   6.264   3.931
 1349SOL     OW 4945   4.635   2.758   5.444
 1349SOL    HW1 4946   4.584   2.788   5.364
 1349SOL    HW2 4947   4.733   2.763   5.425
 1350SOL     OW 4948   5.563   5.188   5.985
 1350SOL    HW1 4949   5.514   5.136   5.914
 1350SOL    HW2 4950   5.497   5.218   6.054
 1351SOL     OW 4951   5.523   1.534   2.833
 1351SOL    HW1 4952   5.579   1.615   2.850
 1351SOL    HW2 4953   5.427   1.556   2.853
 1352SOL     OW 4954   6.800   6.273   3.150
 1352SOL    HW1 4955   6.886   6.222   3.146
 1352SOL    HW2 4956   6.748   6.257   3.066
 1353SOL     OW 4957   0.320   2.339   0.245
 1353SOL    HW1 4958   0.401   2.281   0.234
 1353SOL    HW2 4959   0.286   2.332   0.338
 1354SOL     OW 4960   1.171   4.371   1.711
 1354SOL    HW1 4961   1.217   4.449   1.670
 1354SOL    HW2 4962   1.195   4.365   1.808
 1355SOL     OW 4963   5.659   2.446   4.189
 1355SOL    HW1 4964   5.631   2.472   4.281
 1355SOL    HW2 4965   5.603   2.496   4.122
 1356SOL     OW 4966   3.558   3.429   2.330
 1356SOL    HW1 4967   3.609   3.344   2.343
 1356SOL    HW2 4968   3.609   3.505   2.371
 1357SOL     OW 4969   0.578   3.537   6.314
 1357SOL    HW1 4970   0.647   3.552   6.384
 1357SOL    HW2 4971   0.529   3.622   6.297
 1358SOL     OW 4972   4.265   6.542   6.135
 1358SOL    HW1 4973   4.231   6.526   6.228
 1358SOL    HW2 4974   4.226   6.626   6.099
 1359SOL     OW 4975   6.055   4.911   2.525
 1359SOL    HW1 4976   6.098   4.963   2.451
 1359SOL    HW2 4977   5.969   4.873   2.493
 1360SOL     OW 4978   3.158   3.188   0.118
 1360SOL    HW1 4979   3.108   3.233   0.192
 1360SOL    HW2 4980   3.126   3.225   0.030
 1361SOL     OW 4981   6.297   4.707   6.483
 1361SOL    HW1 4982   6.385   4.748   6.507
 1361SOL    HW2 4983   6.302   4.608   6.493
 1362SOL     OW 4984   3.159   4.000   3.995
 1362SOL    HW1 4985   3.204   4.044   3.917
 1362SOL    HW2 4986   3.089   3.937   3.962
 1363SOL     OW 4987   6.828   5.312   2.765
 1363SOL    HW1 4988   6.741   5.269   2.789
 1363SOL    HW2 4989   6.888   5.244   2.722
 1364SOL     OW 4990   6.531   4.251   0.989
 1364SOL    HW1 4991   6.622   4.291   0.984
 1364SOL    HW2 4992   6.467   4.318   1.027
 1365SOL     OW 4993   0.944   4.070   6.406
 1365SOL    HW1 4994   0.888   4.089   6.325
 1365SOL    HW2 4995   0.901   4.110   6.487
 1366SOL     OW 4996   1.260   4.965   0.182
 1366SOL    HW1 4997   1.230   5.029   0.110
 1366SOL    HW2 4998   1.349   4.927   0.158
 1367SOL     OW 4999   1.418   0.202   3.394
 1367SOL    HW1 5000   1.411   0.110   3.354
 1367SOL    HW2 5001   1.427   0.194   3.493
 1368SOL     OW 5002   5.943   0.408   3.346
 1368SOL    HW1 5003   6.042   0.396   3.341
 1368SOL    HW2 5004   5.902   0.327   3.389
 1369SOL     OW 5005   2.560   6.964   1.527
 1369SOL    HW1 5006   2.532   6.981   1.433
 1369SOL    HW2 5007   2.654   6.995   1.541
 1370SOL     OW 5008   3.825   0.630   0.904
 1370SOL    HW1 5009   3.792   0.720   0.930
 1370SOL    HW2 5010   3.916   0.638   0.862
 1371SOL     OW 5011   5.932   2.220   4.433
 1371SOL    HW1 5012   5.942   2.286   4.508
 1371SOL    HW2 5013   5.944   2.267   4.346
 1372SOL     OW 5014   1.612   3.143   0.241
 1372SOL    HW1 5015   1.536   3.081   0.220
 1372SOL    HW2 5016   1.686   3.091   0.284
 1373SOL     OW 5017   5.591   3.379   0.104
 1373SOL    HW1 5018   5.556   3.312   0.039
 1373SOL    HW2 5019   5.691   3.379   0.100
 1374SOL     OW 5020   4.491   2.332   0.157
 1374SOL    HW1 5021   4.575   2.328   0.103
 1374SOL    HW2 5022   4.514   2.321   0.254
 1375SOL     OW 5023   6.859   3.635   6.276
 1375SOL    HW1 5024   6.824   3.649   6.183
 1375SOL    HW2 5025   6.928   3.563   6.275
 1376SOL     OW 5026   4.823   4.293   4.632
 1376SOL    HW1 5027   4.761   4.363   4.596
 1376SOL    HW2 5028   4.916   4.310   4.599
 1377SOL     OW 5029   6.750   3.698   6.008
 1377SOL    HW1 5030   6.736   3.785   5.960
 1377SOL    HW2 5031   6.678   3.634   5.980
 1378SOL     OW 5032   6.308   1.231   4.563
 1378SOL    HW1 5033   6.377   1.287   4.515
 1378SOL    HW2 5034   6.252   1.184   4.495
 1379SOL     OW 5035   3.201   6.868   2.479
 1379SOL    HW1 5036   3.141   6.899   2.552
 1379SOL    HW2 5037   3.294   6.903   2.494
 1380SOL     OW 5038   0.298   0.158   2.533
 1380SOL    HW1 5039   0.290   0.253   2.503
 1380SOL    HW2 5040   0.208   0.122   2.557
 1381SOL     OW 5041   5.715   2.080   6.759
 1381SOL    HW1 5042   5.782   2.030   6.705
 1381SOL    HW2 5043   5.705   2.172   6.723
 1382SOL     OW 5044   4.883   4.536   0.320
 1382SOL    HW1 5045   4.941   4.568   0.395
 1382SOL    HW2 5046   4.932   4.548   0.233
 1383SOL     OW 5047   0.554   0.175   0.811
 1383SOL    HW1 5048   0.484   0.237   0.774
 1383SOL    HW2 5049   0.510   0.105   0.866
 1384SOL     OW 5050   3.814   0.493   2.504
 1384SOL    HW1 5051   3.838   0.510   2.600
 1384SOL    HW2 5052   3.840   0.572   2.449
 1385SOL     OW 5053   1.231   3.032   3.024
 1385SOL    HW1 5054   1.140   3.072   3.026
 1385SOL    HW2 5055   1.227   2.937   3.054
 1386SOL     OW 5056   2.242   1.018   4.748
 1386SOL    HW1 5057   2.322   1.052   4.798
 1386SOL    HW2 5058   2.228   0.921   4.770
 1387SOL     OW 5059   3.825   6.162   2.755
 1387SOL    HW1 5060   3.818   6.137   2.851
 1387SOL    HW2 5061   3.783   6.252   2.741
 1388SOL     OW 5062   0.218   6.275   3.503
 1388SOL    HW1 5063   0.235   6.364   3.545
 1388SOL    HW2 5064   0.175   6.287   3.414
 1389SOL     OW 5065   0.435   0.917   3.996
 1389SOL    HW1 5066   0.527   0.884   4.019
 1389SOL    HW2 5067   0.439   1.014   3.974
 1390SOL     OW 5068   4.859   2.339   6.076
 1390SOL    HW1 5069   4.808   2.360   5.993
 1390SOL    HW2 5070   4.803   2.364   6.156
 1391SOL     OW 5071   6.264   0.368   5.588
 1391SOL    HW1 5072   6.188   0.360   5.523
 1391SOL    HW2 5073   6.248   0.446   5.648
 1392SOL     OW 5074   5.571   5.570   6.153
 1392SOL    HW1 5075   5.516   5.532   6.079
 1392SOL    HW2 5076   5.642   5.629   6.115
 1393SOL     OW 5077   5.894   3.416   6.473
 1393SOL    HW1 5078   5.935   3.398   6.384
 1393SOL    HW2 5079   5.797   3.392   6.471
 1394SOL     OW 5080   3.810   6.590   3.470
 1394SOL    HW1 5081   3.882   6.521   3.460
 1394SOL    HW2 5082   3.847   6.681   3.451
 1395SOL     OW 5083   1.435   4.243   3.432
 1395SOL    HW1 5084   1.510   4.182   3.456
 1395SOL    HW2 5085   1.441   4.327   3.485
 1396SOL     OW 5086   1.429   6.920   3.864
 1396SOL    HW1 5087   1.358   6.924   3.934
 1396SOL    HW2 5088   1.388   6.894   3.776
 1397SOL     OW 5089   0.590   6.199   4.242
 1397SOL    HW1 5090   0.503   6.220   4.285
 1397SOL    HW2 5091   0.575   6.135   4.166
 1398SOL     OW 5092   1.176   1.722   6.571
 1398SOL    HW1 5093   1.138   1.727   6.479
 1398SOL    HW2 5094   1.174   1.812   6.614
 1399SOL     OW 5095   4.266   0.123   0.114
 1399SOL    HW1 5096   4.345   0.151   0.060
 1399SOL    HW2 5097   4.296   0.086   0.202
 1400SOL     OW 5098   6.490   1.490   4.133
 1400SOL    HW1 5099   6.484   1.396   4.164
 1400SOL    HW2 5100   6.488   1.552   4.211
 1401SOL     OW 5101   6.250   6.650   4.718
 1401SOL    HW1 5102   6.289   6.711   4.650
 1401SOL    HW2 5103   6.275   6.555   4.696
 1402SOL     OW 5104   5.477   4.178   0.038
 1402SOL    HW1 5105   5.383   4.168   0.007
 1402SOL    HW2 5106   5.493   4.274   0.063
 1403SOL     OW 5107   1.980   2.256   0.982
 1403SOL    HW1 5108   1.967   2.227   0.887
 1403SOL    HW2 5109   2.075   2.281   0.997
 1404SOL     OW 5110   5.447   6.999   0.454
 1404SOL    HW1 5111   5.471   6.993   0.358
 1404SOL    HW2 5112   5.385   0.052   0.468
 1405SOL     OW 5113   2.783   3.463   0.112
 1405SOL    HW1 5114   2.735   3.524   0.175
 1405SOL    HW2 5115   2.811   3.381   0.161
 1406SOL     OW 5116   2.269   5.375   0.715
 1406SOL    HW1 5117   2.285   5.415   0.805
 1406SOL    HW2 5118   2.319   5.289   0.707
 1407SOL     OW 5119   1.853   3.690   3.300
 1407SOL    HW1 5120   1.948   3.718   3.285
 1407SOL    HW2 5121   1.842   3.595   3.270
 1408SOL     OW 5122   5.287   6.665   6.820
 1408SOL    HW1 5123   5.279   6.637   6.916
 1408SOL    HW2 5124   5.197   6.665   6.778
 1409SOL     OW 5125   0.236   0.983   5.068
 1409SOL    HW1 5126   0.239   1.073   5.026
 1409SOL    HW2 5127   0.236   0.913   4.997
 1410SOL     OW 5128   3.424   4.078   0.190
 1410SOL    HW1 5129   3.480   4.079   0.272
 1410SOL    HW2 5130   3.398   3.984   0.167
 1411SOL     OW 5131   3.848   6.339   6.087
 1411SOL    HW1 5132   3.833   6.437   6.101
 1411SOL    HW2 5133   3.932   6.311   6.133
 1412SOL     OW 5134   0.675   4.621   1.973
 1412SOL    HW1 5135   0.639   4.694   2.031
 1412SOL    HW2 5136   0.646   4.636   1.878
 1413SOL     OW 5137   1.941   1.678   4.342
 1413SOL    HW1 5138   1.892   1.722   4.417
 1413SOL    HW2 5139   1.898   1.591   4.319
 1414SOL     OW 5140   1.359   2.575   1.558
 1414SOL    HW1 5141   1.430   2.537   1.499
 1414SOL    HW2 5142   1.371   2.542   1.651
 1415SOL     OW 5143   3.119   1.760   4.207
 1415SOL    HW1 5144   3.087   1.837   4.150
 1415SOL    HW2 5145   3.156   1.796   4.293
 1416SOL     OW 5146   4.149   0.239   4.284
 1416SOL    HW1 5147   4.081   0.193   4.227
 1416SOL    HW2 5148   4.204   0.301   4.227
 1417SOL     OW 5149   3.312   3.078   6.215
 1417SOL    HW1 5150   3.372   3.140   6.164
 1417SOL    HW2 5151   3.216   3.104   6.198
 1418SOL     OW 5152   3.213   3.522   6.983
 1418SOL    HW1 5153   3.274   3.598   6.962
 1418SOL    HW2 5154   3.123   3.558   7.010
 1419SOL     OW 5155   1.701   5.654   4.239
 1419SOL    HW1 5156   1.784   5.600   4.250
 1419SOL    HW2 5157   1.723   5.737   4.188
 1420SOL     OW 5158   3.524   5.445   2.728
 1420SOL    HW1 5159   3.425   5.449   2.739
 1420SOL    HW2 5160   3.547   5.441   2.631
 1421SOL     OW 5161   1.708   4.541   4.190
 1421SOL    HW1 5162   1.721   4.615   4.124
 1421SOL    HW2 5163   1.787   4.535   4.251
 1422SOL     OW 5164   3.145   4.593   5.543
 1422SOL    HW1 5165   3.069   4.655   5.521
 1422SOL    HW2 5166   3.159   4.529   5.468
 1423SOL     OW 5167   3.729   1.726   5.198
 1423SOL    HW1 5168   3.774   1.736   5.109
 1423SOL    HW2 5169   3.691   1.814   5.226
 1424SOL     OW 5170   6.393   3.567   0.411
 1424SOL    HW1 5171   6.326   3.633   0.378
 1424SOL    HW2 5172   6.412   3.584   0.508
 1425SOL     OW 5173   2.466   5.745   4.892
 1425SOL    HW1 5174   2.511   5.657   4.901
 1425SOL    HW2 5175   2.460   5.789   4.982
 1426SOL     OW 5176   1.859   1.909   6.078
 1426SOL    HW1 5177   1.822   2.002   6.080
 1426SOL    HW2 5178   1.934   1.902   6.144
 1427SOL     OW 5179   0.293   0.555   3.902
 1427SOL    HW1 5180   0.281   0.651   3.877
 1427SOL    HW2 5181   0.378   0.544   3.952
 1428SOL     OW 5182   6.970   2.231   1.898
 1428SOL    HW1 5183   6.962   2.250   1.800
 1428SOL    HW2 5184   6.962   2.133   1.914
 1429SOL     OW 5185   5.757   1.842   6.972
 1429SOL    HW1 5186   5.723   1.912   6.908
 1429SOL    HW2 5187   5.685   1.816   0.010
 1430SOL     OW 5188   1.806   4.018   4.335
 1430SOL    HW1 5189   1.797   4.026   4.236
 1430SOL    HW2 5190   1.900   3.993   4.358
 1431SOL     OW 5191   2.477   2.441   6.588
 1431SOL    HW1 5192   2.420   2.523   6.582
 1431SOL    HW2 5193   2.419   2.360   6.588
 1432SOL     OW 5194   2.076   0.723   1.580
 1432SOL    HW1 5195   1.995   0.779   1.602
 1432SOL    HW2 5196   2.157   0.782   1.576
 1433SOL     OW 5197   3.561   6.333   4.074
 1433SOL    HW1 5198   3.485   6.380   4.118
 1433SOL    HW2 5199   3.645   6.386   4.086
 1434SOL     OW 5200   6.611   1.496   6.539
 1434SOL    HW1 5201   6.555   1.414   6.531
 1434SOL    HW2 5202   6.641   1.507   6.634
 1435SOL     OW 5203   7.003   0.829   4.266
 1435SOL    HW1 5204   0.034   0.872   4.195
 1435SOL    HW2 5205   6.969   0.899   4.328
 1436SOL     OW 5206   5.729   3.468   0.543
 1436SOL    HW1 5207   5.635   3.501   0.530
 1436SOL    HW2 5208   5.727   3.374   0.576
 1437SOL     OW 5209   3.257   0.386   5.472
 1437SOL    HW1 5210   3.250   0.435   5.559
 1437SOL    HW2 5211   3.294   0.448   5.403
 1438SOL     OW 5212   3.079   0.638   1.723
 1438SOL    HW1 5213   3.131   0.594   1.796
 1438SOL    HW2 5214   3.120   0.728   1.703
 1439SOL     OW 5215   0.549   5.284   1.183
 1439SOL    HW1 5216   0.603   5.229   1.245
 1439SOL    HW2 5217   0.522   5.370   1.228
 1440SOL     OW 5218   3.784   3.406   5.138
 1440SOL    HW1 5219   3.878   3.442   5.142
 1440SOL    HW2 5220   3.736   3.431   5.222
 1441SOL     OW 5221   6.193   3.435   3.943
 1441SOL    HW1 5222   6.238   3.463   4.028
 1441SOL    HW2 5223   6.214   3.340   3.924
 1442SOL     OW 5224   6.588   4.804   0.048
 1442SOL    HW1 5225   6.546   4.733   7.016
 1442SOL    HW2 5226   6.643   4.760   0.119
 1443SOL     OW 5227   1.286   2.372   4.362
 1443SOL    HW1 5228   1.212   2.336   4.305
 1443SOL    HW2 5229   1.313   2.462   4.327
 1444SOL     OW 5230   4.254   6.260   1.741
 1444SOL    HW1 5231   4.292   6.256   1.833
 1444SOL    HW2 5232   4.258   6.354   1.707
 1445SOL     OW 5233   0.742   2.890   2.785
 1445SOL    HW1 5234   0.665   2.873   2.724
 1445SOL    HW2 5235   0.777   2.803   2.819
 1446SOL     OW 5236   5.615   2.770   6.538
 1446SOL    HW1 5237   5.577   2.854   6.578
 1446SOL    HW2 5238   5.565   2.748   6.454
 1447SOL     OW 5239   6.508   6.974   4.460
 1447SOL    HW1 5240   6.599   6.961   4.499
 1447SOL    HW2 5241   6.466   6.884   4.443
 1448SOL     OW 5242   5.764   2.017   0.269
 1448SOL    HW1 5243   5.825   1.978   0.201
 1448SOL    HW2 5244   5.736   1.946   0.334
 1449SOL     OW 5245   6.021   6.986   6.666
 1449SOL    HW1 5246   6.004   0.059   6.684
 1449SOL    HW2 5247   6.054   6.942   6.749
 1450SOL     OW 5248   0.154   2.629   2.424
 1450SOL    HW1 5249   0.138   2.547   2.369
 1450SOL    HW2 5250   0.093   2.628   2.504
 1451SOL     OW 5251   3.472   0.712   2.225
 1451SOL    HW1 5252   3.473   0.803   2.266
 1451SOL    HW2 5253   3.400   0.657   2.267
 1452SOL     OW 5254   4.943   2.048   4.429
 1452SOL    HW1 5255   4.865   1.987   4.419
 1452SOL    HW2 5256   4.983   2.038   4.521
 1453SOL     OW 5257   6.456   3.933   5.146
 1453SOL    HW1 5258   6.401   3.997   5.093
 1453SOL    HW2 5259   6.536   3.980   5.184
 1454SOL     OW 5260   6.289   2.709   2.268
 1454SOL    HW1 5261   6.334   2.621   2.281
 1454SOL    HW2 5262   6.237   2.707   2.182
 1455SOL     OW 5263   1.785   0.516   1.764
 1455SOL    HW1 5264   1.759   0.435   1.710
 1455SOL    HW2 5265   1.725   0.592   1.740
 1456SOL     OW 5266   6.428   6.905   5.336
 1456SOL    HW1 5267   6.449   6.877   5.429
 1456SOL    HW2 5268   6.332   6.934   5.331
 1457SOL     OW 5269   1.371   0.277   1.522
 1457SOL    HW1 5270   1.321   0.192   1.509
 1457SOL    HW2 5271   1.375   0.299   1.619
 1458SOL     OW 5272   4.749   6.290   3.980
 1458SOL    HW1 5273   4.650   6.302   3.977
 1458SOL    HW2 5274   4.780   6.286   4.075
 1459SOL     OW 5275   3.284   4.604   6.370
 1459SOL    HW1 5276   3.304   4.628   6.465
 1459SOL    HW2 5277   3.198   4.552   6.366
 1460SOL     OW 5278   0.484   5.119   5.974
 1460SOL    HW1 5279   0.449   5.058   6.046
 1460SOL    HW2 5280   0.497   5.211   6.012
 1461SOL     OW 5281   0.416   4.873   3.169
 1461SOL    HW1 5282   0.500   4.923   3.192
 1461SOL    HW2 5283   0.340   4.909   3.223
 1462SOL     OW 5284   6.491   1.265   6.255
 1462SOL    HW1 5285   6.505   1.273   6.354
 1462SOL    HW2 5286   6.414   1.203   6.238
 1463SOL     OW 5287   6.997   5.858   6.554
 1463SOL    HW1 5288   0.018   5.906   6.479
 1463SOL    HW2 5289   6.952   5.776   6.519
 1464SOL     OW 5290   6.460   6.630   0.902
 1464SOL    HW1 5291   6.395   6.555   0.898
 1464SOL    HW2 5292   6.411   6.716   0.919
 1465SOL     OW 5293   1.441   1.823   2.544
 1465SOL    HW1 5294   1.511   1.820   2.615
 1465SOL    HW2 5295   1.371   1.754   2.562
 1466SOL     OW 5296   1.279   0.697   2.767
 1466SOL    HW1 5297   1.306   0.602   2.749
 1466SOL    HW2 5298   1.206   0.723   2.704
 1467SOL     OW 5299   2.449   0.914   1.869
 1467SOL    HW1 5300   2.541   0.893   1.903
 1467SOL    HW2 5301   2.417   0.998   1.912
 1468SOL     OW 5302   5.122   5.971   3.049
 1468SOL    HW1 5303   5.091   5.942   3.140
 1468SOL    HW2 5304   5.050   5.954   2.982
 1469SOL     OW 5305   1.095   0.633   2.531
 1469SOL    HW1 5306   1.167   0.564   2.538
 1469SOL    HW2 5307   1.008   0.589   2.509
 1470SOL     OW 5308   1.638   0.932   2.850
 1470SOL    HW1 5309   1.724   0.977   2.827
 1470SOL    HW2 5310   1.565   0.968   2.790
 1471SOL     OW 5311   0.635   0.808   0.661
 1471SOL    HW1 5312   0.571   0.835   0.734
 1471SOL    HW2 5313   0.622   0.869   0.583
 1472SOL     OW 5314   4.318   5.526   4.740
 1472SOL    HW1 5315   4.405   5.522   4.692
 1472SOL    HW2 5316   4.314   5.608   4.797
 1473SOL     OW 5317   5.730   6.033   4.038
 1473SOL    HW1 5318   5.639   6.073   4.048
 1473SOL    HW2 5319   5.784   6.051   4.121
 1474SOL     OW 5320   6.546   6.315   4.021
 1474SOL    HW1 5321   6.562   6.340   3.926
 1474SOL    HW2 5322   6.460   6.265   4.029
 1475SOL     OW 5323   6.801   0.237   1.275
 1475SOL    HW1 5324   6.750   0.309   1.322
 1475SOL    HW2 5325   6.849   0.276   1.197
 1476SOL     OW 5326   0.871   1.105   1.152
 1476SOL    HW1 5327   0.783   1.152   1.141
 1476SOL    HW2 5328   0.944   1.161   1.113
 1477SOL     OW 5329   2.600   0.338   6.793
 1477SOL    HW1 5330   2.597   0.374   6.699
 1477SOL    HW2 5331   2.606   0.239   6.791
 1478SOL     OW 5332   5.541   4.433   0.374
 1478SOL    HW1 5333   5.564   4.455   0.279
 1478SOL    HW2 5334   5.587   4.349   0.402
 1479SOL     OW 5335   1.656   3.607   7.016
 1479SOL    HW1 5336   1.745   3.652   7.018
 1479SOL    HW2 5337   1.586   3.670   0.025
 1480SOL     OW 5338   2.495   0.099   0.050
 1480SOL    HW1 5339   2.442   0.183   0.063
 1480SOL    HW2 5340   2.592   0.120   0.052
 1481SOL     OW 5341   6.690   2.020   4.858
 1481SOL    HW1 5342   6.673   1.947   4.924
 1481SOL    HW2 5343   6.659   1.991   4.767
 1482SOL     OW 5344   5.421   1.994   1.298
 1482SOL    HW1 5345   5.363   1.962   1.372
 1482SOL    HW2 5346   5.367   2.001   1.214
 1483SOL     OW 5347   6.831   2.563   6.288
 1483SOL    HW1 5348   6.899   2.554   6.215
 1483SOL    HW2 5349   6.780   2.648   6.276
 1484SOL     OW 5350   6.124   4.258   4.021
 1484SOL    HW1 5351   6.165   4.340   3.981
 1484SOL    HW2 5352   6.123   4.265   4.120
 1485SOL     OW 5353   4.356   1.955   2.779
 1485SOL    HW1 5354   4.336   1.955   2.682
 1485SOL    HW2 5355   4.437   2.011   2.797
 1486SOL     OW 5356   4.684   2.783   2.727
 1486SOL    HW1 5357   4.623   2.753   2.800
 1486SOL    HW2 5358   4.630   2.816   2.649
 1487SOL     OW 5359   6.291   3.038   6.867
 1487SOL    HW1 5360   6.240   3.119   6.896
 1487SOL    HW2 5361   6.287   2.968   6.938
 1488SOL     OW 5362   6.046   1.816   2.901
 1488SOL    HW1 5363   5.946   1.808   2.903
 1488SOL    HW2 5364   6.072   1.905   2.939
 1489SOL     OW 5365   4.330   5.403   4.079
 1489SOL    HW1 5366   4.340   5.382   4.176
 1489SOL    HW2 5367   4.245   5.453   4.064
 1490SOL     OW 5368   1.642   3.041   1.606
 1490SOL    HW1 5369   1.660   2.951   1.567
 1490SOL    HW2 5370   1.578   3.032   1.682
 1491SOL     OW 5371   6.139   3.592   3.733
 1491SOL    HW1 5372   6.177   3.530   3.802
 1491SOL    HW2 5373   6.213   3.641   3.688
 1492SOL     OW 5374   6.021   1.862   1.878
 1492SOL    HW1 5375   6.009   1.772   1.921
 1492SOL    HW2 5376   6.086   1.916   1.931
 1493SOL     OW 5377   4.990   0.266   4.329
 1493SOL    HW1 5378   5.029   0.192   4.383
 1493SOL    HW2 5379   5.040   0.351   4.346
 1494SOL     OW 5380   4.455   2.272   6.213
 1494SOL    HW1 5381   4.366   2.310   6.239
 1494SOL    HW2 5382   4.463   2.270   6.114
 1495SOL     OW 5383   0.746   2.853   4.125
 1495SOL    HW1 5384   0.665   2.794   4.119
 1495SOL    HW2 5385   0.828   2.799   4.110
 1496SOL     OW 5386   1.486   1.134   2.689
 1496SOL    HW1 5387   1.408   1.196   2.691
 1496SOL    HW2 5388   1.569   1.186   2.669
 1497SOL     OW 5389   0.657   3.619   2.842
 1497SOL    HW1 5390   0.601   3.565   2.779
 1497SOL    HW2 5391   0.619   3.711   2.851
 1498SOL     OW 5392   1.684   4.783   6.180
 1498SOL    HW1 5393   1.665   4.862   6.238
 1498SOL    HW2 5394   1.617   4.780   6.105
 1499SOL     OW 5395   1.023   3.461   5.636
 1499SOL    HW1 5396   1.073   3.508   5.564
 1499SOL    HW2 5397   0.925   3.480   5.627
 1500SOL     OW 5398   5.746   6.458   7.001
 1500SOL    HW1 5399   5.689   6.431   0.054
 1500SOL    HW2 5400   5.778   6.377   6.953
 1501SOL     OW 5401   4.390   1.725   6.841
 1501SOL    HW1 5402   4.488   1.738   6.829
 1501SOL    HW2 5403   4.359   1.773   6.923
 1502SOL     OW 5404   5.834   6.906   1.352
 1502SOL    HW1 5405   5.756   6.855   1.389
 1502SOL    HW2 5406   5.821   7.003   1.371
 1503SOL     OW 5407   2.749   1.493   1.701
 1503SOL    HW1 5408   2.684   1.540   1.761
 1503SOL    HW2 5409   2.841   1.526   1.721
 1504SOL     OW 5410   1.570   1.036   4.873
 1504SOL    HW1 5411   1.600   1.132   4.867
 1504SOL    HW2 5412   1.496   1.020   4.807
 1505SOL     OW 5413   5.646   1.071   6.534
 1505SOL    HW1 5414   5.646   1.171   6.535
 1505SOL    HW2 5415   5.558   1.038   6.569
 1506SOL     OW 5416   2.106   5.676   2.019
 1506SOL    HW1 5417   2.027   5.627   2.056
 1506SOL    HW2 5418   2.081   5.771   2.001
 1507SOL     OW 5419   1.083   2.043   5.766
 1507SOL    HW1 5420   1.103   2.021   5.670
 1507SOL    HW2 5421   1.139   2.122   5.794
 1508SOL     OW 5422   5.884   0.898   0.966
 1508SOL    HW1 5423   5.873   0.812   0.918
 1508SOL    HW2 5424   5.947   0.886   1.043
 1509SOL     OW 5425   3.904   2.464   6.295
 1509SOL    HW1 5426   3.831   2.474   6.363
 1509SOL    HW2 5427   3.878   2.513   6.212
 1510SOL     OW 5428   5.806   2.307   3.763
 1510SOL    HW1 5429   5.881   2.374   3.762
 1510SOL    HW2 5430   5.793   2.274   3.857
 1511SOL     OW 5431   2.707   2.670   0.746
 1511SOL    HW1 5432   2.657   2.754   0.726
 1511SOL    HW2 5433   2.646   2.606   0.793
 1512SOL     OW 5434   6.989   6.404   1.454
 1512SOL    HW1 5435   7.016   6.374   1.363
 1512SOL    HW2 5436   0.045   6.432   1.506
 1513SOL     OW 5437   4.385   0.407   3.815
 1513SOL    HW1 5438   4.394   0.449   3.905
 1513SOL    HW2 5439   4.420   0.313   3.818
 1514SOL     OW 5440   5.591   2.818   4.802
 1514SOL    HW1 5441   5.541   2.836   4.717
 1514SOL    HW2 5442   5.674   2.766   4.781
 1515SOL     OW 5443   6.506   3.423   5.602
 1515SOL    HW1 5444   6.412   3.388   5.600
 1515SOL    HW2 5445   6.568   3.355   5.565
 1516SOL     OW 5446   0.673   0.007   1.195
 1516SOL    HW1 5447   0.589   0.059   1.184
 1516SOL    HW2 5448   0.748   0.054   1.149
 1517SOL     OW 5449   4.592   6.016   3.387
 1517SOL    HW1 5450   4.525   5.950   3.353
 1517SOL    HW2 5451   4.544   6.096   3.425
 1518SOL     OW 5452   0.683   3.210   0.131
 1518SOL    HW1 5453   0.676   3.237   0.227
 1518SOL    HW2 5454   0.623   3.132   0.114
 1519SOL     OW 5455   6.997   4.368   1.766
 1519SOL    HW1 5456   0.009   4.438   1.827
 1519SOL    HW2 5457   0.014   4.377   1.676
 1520SOL     OW 5458   1.423   3.303   2.433
 1520SOL    HW1 5459   1.385   3.214   2.406
 1520SOL    HW2 5460   1.494   3.330   2.367
 1521SOL     OW 5461   2.645   3.548   6.921
 1521SOL    HW1 5462   2.562   3.578   6.968
 1521SOL    HW2 5463   2.714   3.522   6.989
 1522SOL     OW 5464   6.677   1.625   5.225
 1522SOL    HW1 5465   6.668   1.539   5.176
 1522SOL    HW2 5466   6.602   1.686   5.200
 1523SOL     OW 5467   5.114   3.992   6.934
 1523SOL    HW1 5468   5.187   3.942   6.887
 1523SOL    HW2 5469   5.144   4.085   6.954
 1524SOL     OW 5470   1.005   1.945   1.602
 1524SOL    HW1 5471   1.091   1.924   1.647
 1524SOL    HW2 5472   0.930   1.935   1.667
 1525SOL     OW 5473   5.723   2.249   6.384
 1525SOL    HW1 5474   5.724   2.149   6.376
 1525SOL    HW2 5475   5.817   2.281   6.400
 1526SOL     OW 5476   1.794   1.336   0.226
 1526SOL    HW1 5477   1.747   1.418   0.258
 1526SOL    HW2 5478   1.767   1.316   0.132
 1527SOL     OW 5479   3.804   0.649   5.454
 1527SOL    HW1 5480   3.753   0.572   5.416
 1527SOL    HW2 5481   3.808   0.641   5.554
 1528SOL     OW 5482   5.249   6.459   2.863
 1528SOL    HW1 5483   5.298   6.547   2.861
 1528SOL    HW2 5484   5.256   6.419   2.955
 1529SOL     OW 5485   3.736   1.111   0.426
 1529SOL    HW1 5486   3.801   1.035   0.429
 1529SOL    HW2 5487   3.643   1.077   0.431
 1530SOL     OW 5488   2.782   0.637   1.700
 1530SOL    HW1 5489   2.882   0.639   1.694
 1530SOL    HW2 5490   2.754   0.578   1.775
 1531SOL     OW 5491   5.586   1.434   4.739
 1531SOL    HW1 5492   5.647   1.356   4.722
 1531SOL    HW2 5493   5.605   1.471   4.830
 1532SOL     OW 5494   2.027   3.030   5.818
 1532SOL    HW1 5495   1.963   3.099   5.786
 1532SOL    HW2 5496   2.013   2.945   5.767
 1533SOL     OW 5497   0.248   3.176   6.349
 1533SOL    HW1 5498   0.305   3.183   6.430
 1533SOL    HW2 5499   0.259   3.258   6.293
 1534SOL     OW 5500   1.586   5.070   6.772
 1534SOL    HW1 5501   1.553   4.995   6.715
 1534SOL    HW2 5502   1.662   5.038   6.828
 1535SOL     OW 5503   5.245   6.185   4.174
 1535SOL    HW1 5504   5.262   6.273   4.218
 1535SOL    HW2 5505   5.170   6.194   4.108
 1536SOL     OW 5506   4.267   4.780   5.517
 1536SOL    HW1 5507   4.206   4.715   5.472
 1536SOL    HW2 5508   4.305   4.739   5.600
 1537SOL     OW 5509   4.319   5.622   2.606
 1537SOL    HW1 5510   4.373   5.639   2.524
 1537SOL    HW2 5511   4.250   5.552   2.587
 1538SOL     OW 5512   2.869   5.449   5.605
 1538SOL    HW1 5513   2.907   5.541   5.601
 1538SOL    HW2 5514   2.878   5.413   5.698
 1539SOL     OW 5515   4.075   4.365   1.286
 1539SOL    HW1 5516   4.046   4.269   1.289
 1539SOL    HW2 5517   4.106   4.388   1.194
 1540SOL     OW 5518   1.009   0.036   5.442
 1540SOL    HW1 5519   1.030   6.981   5.384
 1540SOL    HW2 5520   0.910   0.049   5.446
 1541SOL     OW 5521   3.283   3.075   1.631
 1541SOL    HW1 5522   3.246   3.119   1.713
 1541SOL    HW2 5523   3.216   3.010   1.594
 1542SOL     OW 5524   7.001   5.536   1.235
 1542SOL    HW1 5525   6.948   5.462   1.275
 1542SOL    HW2 5526   6.986   5.620   1.288
 1543SOL     OW 5527   3.050   3.329   4.240
 1543SOL    HW1 5528   3.047   3.232   4.219
 1543SOL    HW2 5529   3.067   3.342   4.338
 1544SOL     OW 5530   3.076   3.739   2.582
 1544SOL    HW1 5531   3.036   3.661   2.631
 1544SOL    HW2 5532   3.136   3.705   2.510
 1545SOL     OW 5533   5.286   0.929   4.746
 1545SOL    HW1 5534   5.280   0.939   4.647
 1545SOL    HW2 5535   5.200   0.893   4.782
 1546SOL     OW 5536   5.273   0.001   6.226
 1546SOL    HW1 5537   5.185   7.010   6.181
 1546SOL    HW2 5538   5.315   0.084   6.190
 1547SOL     OW 5539   2.374   4.438   3.086
 1547SOL    HW1 5540   2.452   4.475   3.137
 1547SOL    HW2 5541   2.289   4.469   3.129
 1548SOL     OW 5542   4.759   3.712   5.817
 1548SOL    HW1 5543   4.780   3.726   5.720
 1548SOL    HW2 5544   4.807   3.631   5.850
 1549SOL     OW 5545   5.523   1.058   1.952
 1549SOL    HW1 5546   5.491   1.038   2.044
 1549SOL    HW2 5547   5.536   1.156   1.942
 1550SOL     OW 5548   3.506   6.403   5.794
 1550SOL    HW1 5549   3.599   6.405   5.831
 1550SOL    HW2 5550   3.449   6.470   5.842
 1551SOL     OW 5551   1.871   3.298   0.948
 1551SOL    HW1 5552   1.871   3.383   0.894
 1551SOL    HW2 5553   1.940   3.304   1.020
 1552SOL     OW 5554   0.444   0.172   1.228
 1552SOL    HW1 5555   0.389   0.221   1.161
 1552SOL    HW2 5556   0.496   0.237   1.283
 1553SOL     OW 5557   6.561   1.970   6.197
 1553SOL    HW1 5558   6.620   1.932   6.126
 1553SOL    HW2 5559   6.529   1.897   6.257
 1554SOL     OW 5560   3.689   1.947   2.324
 1554SOL    HW1 5561   3.610   1.897   2.288
 1554SOL    HW2 5562   3.696   1.933   2.423
 1555SOL     OW 5563   4.447   2.586   5.808
 1555SOL    HW1 5564   4.540   2.553   5.825
 1555SOL    HW2 5565   4.381   2.527   5.854
 1556SOL     OW 5566   3.655   1.000   6.954
 1556SOL    HW1 5567   3.726   0.989   6.885
 1556SOL    HW2 5568   3.592   0.923   6.951
 1557SOL     OW 5569   2.989   1.636   0.513
 1557SOL    HW1 5570   3.085   1.647   0.485
 1557SOL    HW2 5571   2.968   1.700   0.587
 1558SOL     OW 5572   5.658   1.961   4.358
 1558SOL    HW1 5573   5.598   1.892   4.399
 1558SOL    HW2 5574   5.752   1.945   4.389
 1559SOL     OW 5575   0.705   2.721   0.987
 1559SOL    HW1 5576   0.696   2.628   0.951
 1559SOL    HW2 5577   0.776   2.722   1.058
 1560SOL     OW 5578   2.864   1.261   6.710
 1560SOL    HW1 5579   2.945   1.305   6.671
 1560SOL    HW2 5580   2.889   1.211   6.793
 1561SOL     OW 5581   5.335   5.736   3.298
 1561SOL    HW1 5582   5.420   5.684   3.291
 1561SOL    HW2 5583   5.257   5.674   3.292
 1562SOL     OW 5584   4.041   6.518   1.638
 1562SOL    HW1 5585   4.027   6.559   1.547
 1562SOL    HW2 5586   4.069   6.589   1.702
 1563SOL     OW 5587   2.288   1.823   5.627
 1563SOL    HW1 5588   2.372   1.796   5.675
 1563SOL    HW2 5589   2.281   1.923   5.626
 1564SOL     OW 5590   1.573   2.648   2.421
 1564SOL    HW1 5591   1.658   2.688   2.386
 1564SOL    HW2 5592   1.522   2.607   2.346
 1565SOL     OW 5593   3.875   5.187   4.418
 1565SOL    HW1 5594   3.836   5.134   4.343
 1565SOL    HW2 5595   3.955   5.139   4.454
 1566SOL     OW 5596   6.277   5.325   4.892
 1566SOL    HW1 5597   6.276   5.255   4.821
 1566SOL    HW2 5598   6.265   5.415   4.851
 1567SOL     OW 5599   6.556   5.580   0.363
 1567SOL    HW1 5600   6.509   5.522   0.429
 1567SOL    HW2 5601   6.492   5.650   0.329
 1568SOL     OW 5602   2.220   6.651   2.633
 1568SOL    HW1 5603   2.173   6.609   2.711
 1568SOL    HW2 5604   2.153   6.675   2.563
 1569SOL     OW 5605   3.239   6.769   3.420
 1569SOL    HW1 5606   3.311   6.712   3.459
 1569SOL    HW2 5607   3.179   6.714   3.363
 1570SOL     OW 5608   1.488   6.893   0.152
 1570SOL    HW1 5609   1.430   6.826   0.197
 1570SOL    HW2 5610   1.516   6.859   0.063
 1571SOL     OW 5611   6.729   2.028   3.118
 1571SOL    HW1 5612   6.694   1.935   3.104
 1571SOL    HW2 5613   6.821   2.023   3.156
 1572SOL     OW 5614   2.183   5.485   1.854
 1572SOL    HW1 5615   2.179   5.567   1.910
 1572SOL    HW2 5616   2.229   5.412   1.905
 1573SOL     OW 5617   5.950   5.292   2.136
 1573SOL    HW1 5618   6.047   5.273   2.150
 1573SOL    HW2 5619   5.920   5.246   2.052
 1574SOL     OW 5620   6.551   2.576   3.101
 1574SOL    HW1 5621   6.568   2.546   3.194
 1574SOL    HW2 5622   6.554   2.676   3.097
 1575SOL     OW 5623   2.981   1.178   1.779
 1575SOL    HW1 5624   2.967   1.270   1.817
 1575SOL    HW2 5625   2.934   1.111   1.836
 1576SOL     OW 5626   0.687   0.062   3.462
 1576SOL    HW1 5627   0.633   0.103   3.388
 1576SOL    HW2 5628   0.728   7.002   3.430
 1577SOL     OW 5629   2.000   0.619   5.530
 1577SOL    HW1 5630   2.082   0.622   5.587
 1577SOL    HW2 5631   1.938   0.694   5.556
 1578SOL     OW 5632   4.819   1.363   5.936
 1578SOL    HW1 5633   4.817   1.445   5.879
 1578SOL    HW2 5634   4.858   1.386   6.025
 1579SOL     OW 5635   7.009   1.674   2.096
 1579SOL    HW1 5636   0.036   1.752   2.062
 1579SOL    HW2 5637   6.978   1.692   2.190
 1580SOL     OW 5638   3.399   4.071   3.737
 1580SOL    HW1 5639   3.459   4.069   3.657
 1580SOL    HW2 5640   3.314   4.021   3.716
 1581SOL     OW 5641   6.675   4.338   5.793
 1581SOL    HW1 5642   6.757   4.283   5.776
 1581SOL    HW2 5643   6.654   4.338   5.890
 1582SOL     OW 5644   3.021   6.255   4.699
 1582SOL    HW1 5645   3.030   6.317   4.777
 1582SOL    HW2 5646   3.072   6.292   4.621
 1583SOL     OW 5647   0.508   5.783   3.824
 1583SOL    HW1 5648   0.415   5.802   3.793
 1583SOL    HW2 5649   0.568   5.859   3.798
 1584SOL     OW 5650   0.576   5.034   5.706
 1584SOL    HW1 5651   0.575   5.083   5.793
 1584SOL    HW2 5652   0.486   4.994   5.690
 1585SOL     OW 5653   4.319   2.341   2.444
 1585SOL    HW1 5654   4.279   2.318   2.355
 1585SOL    HW2 5655   4.250   2.331   2.515
 1586SOL     OW 5656   3.022   5.322   2.558
 1586SOL    HW1 5657   3.012   5.229   2.594
 1586SOL    HW2 5658   3.058   5.318   2.465
 1587SOL     OW 5659   2.570   5.513   4.936
 1587SOL    HW1 5660   2.652   5.510   4.994
 1587SOL    HW2 5661   2.523   5.424   4.940
 1588SOL     OW 5662   4.734   0.961   1.848
 1588SOL    HW1 5663   4.686   0.891   1.901
 1588SOL    HW2 5664   4.751   1.041   1.907
 1589SOL     OW 5665   0.108   3.478   2.299
 1589SOL    HW1 5666   0.053   3.409   2.252
 1589SOL    HW2 5667   0.202   3.446   2.308
 1590SOL     OW 5668   5.208   0.780   3.590
 1590SOL    HW1 5669   5.206   0.868   3.543
 1590SOL    HW2 5670   5.121   0.764   3.636
 1591SOL     OW 5671   6.758   6.232   1.168
 1591SOL    HW1 5672   6.736   6.251   1.264
 1591SOL    HW2 5673   6.765   6.318   1.118
 1592SOL     OW 5674   2.306   3.535   6.621
 1592SOL    HW1 5675   2.362   3.452   6.616
 1592SOL    HW2 5676   2.243   3.537   6.543
 1593SOL     OW 5677   0.556   6.811   5.404
 1593SOL    HW1 5678   0.513   6.886   5.453
 1593SOL    HW2 5679   0.650   6.799   5.436
 1594SOL     OW 5680   0.397   6.263   2.038
 1594SOL    HW1 5681   0.421   6.304   2.126
 1594SOL    HW2 5682   0.445   6.176   2.028
 1595SOL     OW 5683   0.945   5.087   1.040
 1595SOL    HW1 5684   0.976   5.024   0.969
 1595SOL    HW2 5685   0.871   5.144   1.005
 1596SOL     OW 5686   6.379   3.438   3.087
 1596SOL    HW1 5687   6.355   3.527   3.048
 1596SOL    HW2 5688   6.388   3.446   3.186
 1597SOL     OW 5689   1.543   6.003   0.995
 1597SOL    HW1 5690   1.454   5.964   0.971
 1597SOL    HW2 5691   1.584   6.046   0.914
 1598SOL     OW 5692   1.480   4.858   6.508
 1598SOL    HW1 5693   1.406   4.830   6.447
 1598SOL    HW2 5694   1.544   4.917   6.459
 1599SOL     OW 5695   5.466   5.029   5.382
 1599SOL    HW1 5696   5.366   5.037   5.389
 1599SOL    HW2 5697   5.499   4.963   5.449
 1600SOL     OW 5698   2.758   1.606   3.028
 1600SOL    HW1 5699   2.717   1.580   2.941
 1600SOL    HW2 5700   2.715   1.555   3.102
 1601SOL     OW 5701   6.923   0.260   4.224
 1601SOL    HW1 5702   6.920   0.321   4.145
 1601SOL    HW2 5703   6.829   0.235   4.250
 1602SOL     OW 5704   4.452   4.727   3.900
 1602SOL    HW1 5705   4.355   4.706   3.905
 1602SOL    HW2 5706   4.474   4.802   3.963
 1603SOL     OW 5707   2.895   5.089   3.228
 1603SOL    HW1 5708   2.904   5.085   3.128
 1603SOL    HW2 5709   2.982   5.062   3.270
 1604SOL     OW 5710   4.560   5.039   1.741
 1604SOL    HW1 5711   4.612   5.072   1.662
 1604SOL    HW2 5712   4.537   4.942   1.728
 1605SOL     OW 5713   6.858   5.562   1.853
 1605SOL    HW1 5714   6.758   5.561   1.847
 1605SOL    HW2 5715   6.894   5.472   1.831
 1606SOL     OW 5716   4.037   5.894   5.688
 1606SOL    HW1 5717   3.999   5.972   5.638
 1606SOL    HW2 5718   3.973   5.817   5.683
 1607SOL     OW 5719   3.989   6.980   0.389
 1607SOL    HW1 5720   3.979   0.043   0.342
 1607SOL    HW2 5721   3.898   6.941   0.406
 1608SOL     OW 5722   6.552   1.106   2.903
 1608SOL    HW1 5723   6.638   1.106   2.954
 1608SOL    HW2 5724   6.569   1.079   2.808
 1609SOL     OW 5725   3.482   6.963   0.337
 1609SOL    HW1 5726   3.469   7.001   0.428
 1609SOL    HW2 5727   3.534   0.002   0.280
 1610SOL     OW 5728   5.189   5.891   0.736
 1610SOL    HW1 5729   5.230   5.976   0.767
 1610SOL    HW2 5730   5.098   5.881   0.777
 1611SOL     OW 5731   2.815   3.220   0.305
 1611SOL    HW1 5732   2.761   3.272   0.371
 1611SOL    HW2 5733   2.817   3.124   0.333
 1612SOL     OW 5734   3.636   6.878   1.252
 1612SOL    HW1 5735   3.634   6.928   1.165
 1612SOL    HW2 5736   3.610   6.939   1.326
 1613SOL     OW 5737   1.590   5.791   2.211
 1613SOL    HW1 5738   1.563   5.739   2.292
 1613SOL    HW2 5739   1.552   5.884   2.217
 1614SOL     OW 5740   5.821   1.609   6.241
 1614SOL    HW1 5741   5.873   1.677   6.188
 1614SOL    HW2 5742   5.795   1.534   6.181
 1615SOL     OW 5743   5.804   5.785   0.223
 1615SOL    HW1 5744   5.875   5.740   0.278
 1615SOL    HW2 5745   5.847   5.852   0.162
 1616SOL     OW 5746   3.854   1.058   4.562
 1616SOL    HW1 5747   3.791   1.036   4.637
 1616SOL    HW2 5748   3.816   1.134   4.508
 1617SOL     OW 5749   5.269   6.324   3.163
 1617SOL    HW1 5750   5.319   6.402   3.201
 1617SOL    HW2 5751   5.326   6.243   3.165
 1618SOL     OW 5752   1.726   6.646   3.306
 1618SOL    HW1 5753   1.748   6.567   3.364
 1618SOL    HW2 5754   1.691   6.720   3.364
 1619SOL     OW 5755   0.217   4.713   0.784
 1619SOL    HW1 5756   0.309   4.722   0.747
 1619SOL    HW2 5757   0.152   4.703   0.709
 1620SOL     OW 5758   3.497   4.758   1.485
 1620SOL    HW1 5759   3.420   4.740   1.545
 1620SOL    HW2 5760   3.582   4.753   1.537
 1621SOL     OW 5761   6.209   0.508   0.978
 1621SOL    HW1 5762   6.274   0.540   0.908
 1621SOL    HW2 5763   6.240   0.540   1.068
 1622SOL     OW 5764   0.771   3.387   5.523
 1622SOL    HW1 5765   0.852   3.358   5.473
 1622SOL    HW2 5766   0.702   3.420   5.459
 1623SOL     OW 5767   0.535   2.744   4.714
 1623SOL    HW1 5768   0.601   2.684   4.760
 1623SOL    HW2 5769   0.446   2.698   4.709
 1624SOL     OW 5770   3.958   0.675   5.221
 1624SOL    HW1 5771   3.889   0.643   5.285
 1624SOL    HW2 5772   3.933   0.766   5.188
 1625SOL     OW 5773   1.462   4.855   0.060
 1625SOL    HW1 5774   1.420   4.874   6.996
 1625SOL    HW2 5775   1.540   4.794   0.048
 1626SOL     OW 5776   3.481   0.777   0.890
 1626SOL    HW1 5777   3.433   0.689   0.893
 1626SOL    HW2 5778   3.469   0.818   0.799
 1627SOL     OW 5779   5.462   3.097   3.767
 1627SOL    HW1 5780   5.453   3.069   3.862
 1627SOL    HW2 5781   5.450   3.017   3.708
 1628SOL     OW 5782   4.350   5.657   0.359
 1628SOL    HW1 5783   4.267   5.694   0.316
 1628SOL    HW2 5784   4.373   5.570   0.316
 1629SOL     OW 5785   2.342   0.989   3.586
 1629SOL    HW1 5786   2.258   0.976   3.639
 1629SOL    HW2 5787   2.412   0.925   3.619
 1630SOL     OW 5788   0.765   4.723   6.035
 1630SOL    HW1 5789   0.666   4.711   6.023
 1630SOL    HW2 5790   0.799   4.787   5.965
 1631SOL     OW 5791   0.716   2.952   0.402
 1631SOL    HW1 5792   0.648   2.944   0.329
 1631SOL    HW2 5793   0.749   3.046   0.406
 1632SOL     OW 5794   4.977   2.780   1.904
 1632SOL    HW1 5795   4.964   2.874   1.874
 1632SOL    HW2 5796   4.890   2.743   1.937
 1633SOL     OW 5797   4.880   3.800   4.606
 1633SOL    HW1 5798   4.930   3.760   4.529
 1633SOL    HW2 5799   4.902   3.751   4.690
 1634SOL     OW 5800   4.641   6.144   4.315
 1634SOL    HW1 5801   4.716   6.186   4.264
 1634SOL    HW2 5802   4.559   6.200   4.304
 1635SOL     OW 5803   0.614   5.004   0.147
 1635SOL    HW1 5804   0.629   5.038   0.240
 1635SOL    HW2 5805   0.577   4.911   0.150
 1636SOL     OW 5806   2.723   5.272   1.276
 1636SOL    HW1 5807   2.712   5.216   1.194
 1636SOL    HW2 5808   2.815   5.262   1.312
 1637SOL     OW 5809   0.104   0.448   3.501
 1637SOL    HW1 5810   0.010   0.413   3.512
 1637SOL    HW2 5811   0.169   0.374   3.519
 1638SOL     OW 5812   1.157   3.346   2.523
 1638SOL    HW1 5813   1.246   3.340   2.478
 1638SOL    HW2 5814   1.115   3.434   2.504
 1639SOL     OW 5815   5.462   5.056   1.594
 1639SOL    HW1 5816   5.390   5.098   1.650
 1639SOL    HW2 5817   5.529   5.125   1.568
 1640SOL     OW 5818   5.944   0.640   6.989
 1640SOL    HW1 5819   5.993   0.685   0.040
 1640SOL    HW2 5820   5.898   0.709   6.933
 1641SOL     OW 5821   5.767   1.973   3.468
 1641SOL    HW1 5822   5.810   1.886   3.443
 1641SOL    HW2 5823   5.775   1.987   3.567
 1642SOL     OW 5824   6.277   3.266   0.165
 1642SOL    HW1 5825   6.180   3.260   0.144
 1642SOL    HW2 5826   6.320   3.335   0.106
 1643SOL     OW 5827   2.950   4.755   3.729
 1643SOL    HW1 5828   2.884   4.705   3.672
 1643SOL    HW2 5829   2.904   4.831   3.774
 1644SOL     OW 5830   5.760   3.831   0.309
 1644SOL    HW1 5831   5.728   3.767   0.240
 1644SOL    HW2 5832   5.828   3.892   0.269
 1645SOL     OW 5833   2.554   5.765   6.099
 1645SOL    HW1 5834   2.545   5.667   6.081
 1645SOL    HW2 5835   2.649   5.786   6.121
 1646SOL     OW 5836   3.116   6.799   1.002
 1646SOL    HW1 5837   3.067   6.839   0.924
 1646SOL    HW2 5838   3.053   6.740   1.053
 1647SOL     OW 5839   6.145   2.336   4.105
 1647SOL    HW1 5840   6.168   2.365   4.012
 1647SOL    HW2 5841   6.101   2.246   4.102
 1648SOL     OW 5842   5.022   5.843   0.193
 1648SOL    HW1 5843   5.022   5.910   0.118
 1648SOL    HW2 5844   5.116   5.828   0.224
 1649SOL     OW 5845   3.508   1.863   3.929
 1649SOL    HW1 5846   3.581   1.817   3.880
 1649SOL    HW2 5847   3.479   1.805   4.006
 1650SOL     OW 5848   0.459   5.987   5.390
 1650SOL    HW1 5849   0.553   5.999   5.420
 1650SOL    HW2 5850   0.399   5.975   5.469
 1651SOL     OW 5851   0.434   2.284   2.145
 1651SOL    HW1 5852   0.428   2.383   2.155
 1651SOL    HW2 5853   0.342   2.245   2.149
 1652SOL     OW 5854   1.499   3.016   2.556
 1652SOL    HW1 5855   1.444   2.943   2.515
 1652SOL    HW2 5856   1.440   3.078   2.608
 1653SOL     OW 5857   0.925   6.644   0.416
 1653SOL    HW1 5858   0.940   6.556   0.460
 1653SOL    HW2 5859   0.904   6.631   0.319
 1654SOL     OW 5860   6.899   3.211   1.659
 1654SOL    HW1 5861   6.812   3.234   1.704
 1654SOL    HW2 5862   6.894   3.236   1.563
 1655SOL     OW 5863   0.329   2.259   3.964
 1655SOL    HW1 5864   0.391   2.251   4.042
 1655SOL    HW2 5865   0.272   2.177   3.958
 1656SOL     OW 5866   2.132   5.167   3.120
 1656SOL    HW1 5867   2.092   5.100   3.182
 1656SOL    HW2 5868   2.157   5.123   3.034
 1657SOL     OW 5869   5.789   0.990   4.052
 1657SOL    HW1 5870   5.762   1.053   3.979
 1657SOL    HW2 5871   5.726   0.913   4.055
 1658SOL     OW 5872   6.284   1.180   1.041
 1658SOL    HW1 5873   6.200   1.126   1.033
 1658SOL    HW2 5874   6.351   1.148   0.975
 1659SOL     OW 5875   2.978   0.627   0.205
 1659SOL    HW1 5876   3.045   0.605   0.134
 1659SOL    HW2 5877   3.005   0.711   0.252
 1660SOL     OW 5878   1.852   5.815   2.513
 1660SOL    HW1 5879   1.773   5.872   2.537
 1660SOL    HW2 5880   1.878   5.833   2.418
 1661SOL     OW 5881   1.999   6.626   1.696
 1661SOL    HW1 5882   2.076   6.681   1.662
 1661SOL    HW2 5883   1.940   6.601   1.619
 1662SOL     OW 5884   0.337   1.264   4.405
 1662SOL    HW1 5885   0.310   1.266   4.502
 1662SOL    HW2 5886   0.358   1.171   4.378
 1663SOL     OW 5887   4.558   5.357   3.407
 1663SOL    HW1 5888   4.464   5.359   3.442
 1663SOL    HW2 5889   4.576   5.441   3.355
 1664SOL     OW 5890   2.139   6.173   4.816
 1664SOL    HW1 5891   2.100   6.087   4.782
 1664SOL    HW2 5892   2.078   6.249   4.793
 1665SOL     OW 5893   6.322   3.385   2.628
 1665SOL    HW1 5894   6.295   3.290   2.616
 1665SOL    HW2 5895   6.256   3.445   2.583
 1666SOL     OW 5896   5.402   0.960   6.588
 1666SOL    HW1 5897   5.409   0.906   6.672
 1666SOL    HW2 5898   5.306   0.980   6.569
 1667SOL     OW 5899   0.105   6.092   1.184
 1667SOL    HW1 5900   0.193   6.045   1.182
 1667SOL    HW2 5901   0.120   6.191   1.185
 1668SOL     OW 5902   4.820   5.505   3.752
 1668SOL    HW1 5903   4.896   5.571   3.751
 1668SOL    HW2 5904   4.791   5.490   3.846
 1669SOL     OW 5905   0.092   4.265   5.973
 1669SOL    HW1 5906   0.095   4.362   5.994
 1669SOL    HW2 5907   0.180   4.235   5.936
 1670SOL     OW 5908   6.827   4.516   5.397
 1670SOL    HW1 5909   6.914   4.521   5.445
 1670SOL    HW2 5910   6.756   4.561   5.451
 1671SOL     OW 5911   5.435   1.843   3.588
 1671SOL    HW1 5912   5.473   1.757   3.622
 1671SOL    HW2 5913   5.371   1.825   3.513
 1672SOL     OW 5914   2.363   3.447   0.891
 1672SOL    HW1 5915   2.364   3.449   0.991
 1672SOL    HW2 5916   2.446   3.404   0.857
 1673SOL     OW 5917   1.394   1.848   4.810
 1673SOL    HW1 5918   1.443   1.934   4.797
 1673SOL    HW2 5919   1.380   1.803   4.722
 1674SOL     OW 5920   0.629   3.194   2.353
 1674SOL    HW1 5921   0.614   3.292   2.338
 1674SOL    HW2 5922   0.622   3.173   2.450
 1675SOL     OW 5923   4.769   0.007   6.792
 1675SOL    HW1 5924   4.735   6.938   6.799
 1675SOL    HW2 5925   4.782   0.046   6.883
 1676SOL     OW 5926   2.412   2.739   1.898
 1676SOL    HW1 5927   2.416   2.833   1.865
 1676SOL    HW2 5928   2.493   2.689   1.867
 1677SOL     OW 5929   3.741   3.692   3.871
 1677SOL    HW1 5930   3.795   3.777   3.874
 1677SOL    HW2 5931   3.647   3.714   3.846
 1678SOL     OW 5932   6.731   4.674   2.453
 1678SOL    HW1 5933   6.633   4.693   2.452
 1678SOL    HW2 5934   6.747   4.576   2.465
 1679SOL     OW 5935   2.486   1.546   4.566
 1679SOL    HW1 5936   2.450   1.488   4.639
 1679SOL    HW2 5937   2.531   1.625   4.605
 1680SOL     OW 5938   0.630   3.408   5.279
 1680SOL    HW1 5939   0.578   3.326   5.301
 1680SOL    HW2 5940   0.568   3.484   5.261
 1681SOL     OW 5941   0.473   5.309   6.853
 1681SOL    HW1 5942   0.537   5.377   6.889
 1681SOL    HW2 5943   0.506   5.217   6.876
 1682SOL     OW 5944   1.131   0.510   5.712
 1682SOL    HW1 5945   1.173   0.447   5.647
 1682SOL    HW2 5946   1.098   0.591   5.664
 1683SOL     OW 5947   5.839   5.448   2.750
 1683SOL    HW1 5948   5.789   5.533   2.731
 1683SOL    HW2 5949   5.788   5.371   2.712
 1684SOL     OW 5950   0.552   5.974   2.162
 1684SOL    HW1 5951   0.629   5.915   2.187
 1684SOL    HW2 5952   0.515   5.944   2.074
 1685SOL     OW 5953   1.393   1.140   5.464
 1685SOL    HW1 5954   1.434   1.222   5.424
 1685SOL    HW2 5955   1.309   1.164   5.513
 1686SOL     OW 5956   2.284   6.409   4.183
 1686SOL    HW1 5957   2.292   6.310   4.168
 1686SOL    HW2 5958   2.354   6.439   4.248
 1687SOL     OW 5959   1.488   2.701   1.872
 1687SOL    HW1 5960   1.559   2.688   1.941
 1687SOL    HW2 5961   1.451   2.612   1.846
 1688SOL     OW 5962   2.498   1.867   3.815
 1688SOL    HW1 5963   2.443   1.800   3.867
 1688SOL    HW2 5964   2.595   1.847   3.828
 1689SOL     OW 5965   6.440   0.449   2.890
 1689SOL    HW1 5966   6.531   0.408   2.892
 1689SOL    HW2 5967   6.431   0.516   2.964
 1690SOL     OW 5968   1.604   2.415   4.995
 1690SOL    HW1 5969   1.561   2.409   4.905
 1690SOL    HW2 5970   1.701   2.390   4.986
 1691SOL     OW 5971   5.374   3.007   4.053
 1691SOL    HW1 5972   5.327   2.920   4.040
 1691SOL    HW2 5973   5.421   3.007   4.141
 1692SOL     OW 5974   4.539   6.316   1.179
 1692SOL    HW1 5975   4.608   6.245   1.179
 1692SOL    HW2 5976   4.515   6.339   1.273
 1693SOL     OW 5977   6.715   2.519   2.886
 1693SOL    HW1 5978   6.622   2.539   2.920
 1693SOL    HW2 5979   6.744   2.430   2.919
 1694SOL     OW 5980   6.169   1.915   3.708
 1694SOL    HW1 5981   6.173   1.928   3.807
 1694SOL    HW2 5982   6.135   1.998   3.664
 1695SOL     OW 5983   3.879   0.990   6.398
 1695SOL    HW1 5984   3.848   1.085   6.396
 1695SOL    HW2 5985   3.816   0.936   6.454
 1696SOL     OW 5986   3.962   6.034   1.495
 1696SOL    HW1 5987   4.050   5.991   1.474
 1696SOL    HW2 5988   3.907   5.973   1.551
 1697SOL     OW 5989   6.807   1.597   0.291
 1697SOL    HW1 5990   6.854   1.539   0.225
 1697SOL    HW2 5991   6.873   1.660   0.333
 1698SOL     OW 5992   3.617   6.727   0.733
 1698SOL    HW1 5993   3.526   6.760   0.707
 1698SOL    HW2 5994   3.606   6.649   0.795
 1699SOL     OW 5995   2.431   1.313   6.674
 1699SOL    HW1 5996   2.455   1.369   6.595
 1699SOL    HW2 5997   2.450   1.364   6.758
 1700SOL     OW 5998   6.151   4.203   3.751
 1700SOL    HW1 5999   6.139   4.216   3.850
 1700SOL    HW2 6000   6.157   4.106   3.731
 1701SOL     OW 6001   5.527   5.388   6.397
 1701SOL    HW1 6002   5.535   5.450   6.318
 1701SOL    HW2 6003   5.551   5.295   6.370
 1702SOL     OW 6004   6.441   1.496   0.857
 1702SOL    HW1 6005   6.360   1.484   0.914
 1702SOL    HW2 6006   6.523   1.482   0.913
 1703SOL     OW 6007   3.508   2.032   0.386
 1703SOL    HW1 6008   3.414   2.067   0.382
 1703SOL    HW2 6009   3.570   2.100   0.345
 1704SOL     OW 6010   0.886   2.291   0.207
 1704SOL    HW1 6011   0.970   2.236   0.211
 1704SOL    HW2 6012   0.909   2.387   0.197
 1705SOL     OW 6013   3.190   2.128   1.928
 1705SOL    HW1 6014   3.104   2.088   1.959
 1705SOL    HW2 6015   3.172   2.190   1.852
 1706SOL     OW 6016   5.020   1.487   1.493
 1706SOL    HW1 6017   5.086   1.464   1.422
 1706SOL    HW2 6018   5.035   1.429   1.573
 1707SOL     OW 6019   4.105   1.828   2.797
 1707SOL    HW1 6020   4.191   1.873   2.822
 1707SOL    HW2 6021   4.031   1.895   2.793
 1708SOL     OW 6022   4.860   6.038   2.135
 1708SOL    HW1 6023   4.777   6.077   2.176
 1708SOL    HW2 6024   4.858   6.053   2.036
 1709SOL     OW 6025   3.034   6.662   2.984
 1709SOL    HW1 6026   2.980   6.738   3.021
 1709SOL    HW2 6027   3.131   6.678   3.001
 1710SOL     OW 6028   4.092   4.882   2.894
 1710SOL    HW1 6029   4.125   4.837   2.977
 1710SOL    HW2 6030   4.170   4.908   2.837
 1711SOL     OW 6031   1.726   5.038   4.405
 1711SOL    HW1 6032   1.765   5.089   4.328
 1711SOL    HW2 6033   1.790   4.966   4.433
 1712SOL     OW 6034   6.695   2.436   4.596
 1712SOL    HW1 6035   6.706   2.428   4.497
 1712SOL    HW2 6036   6.755   2.369   4.641
 1713SOL     OW 6037   4.605   2.581   2.167
 1713SOL    HW1 6038   4.624   2.665   2.115
 1713SOL    HW2 6039   4.543   2.603   2.243
 1714SOL     OW 6040   3.899   1.622   6.360
 1714SOL    HW1 6041   3.982   1.669   6.389
 1714SOL    HW2 6042   3.907   1.595   6.264
 1715SOL     OW 6043   2.303   6.196   3.521
 1715SOL    HW1 6044   2.321   6.100   3.499
 1715SOL    HW2 6045   2.355   6.222   3.602
 1716SOL     OW 6046   3.811   0.059   3.451
 1716SOL    HW1 6047   3.779   0.153   3.452
 1716SOL    HW2 6048   3.857   0.038   3.538
 1717SOL     OW 6049   3.508   5.774   4.751
 1717SOL    HW1 6050   3.480   5.690   4.705
 1717SOL    HW2 6051   3.564   5.828   4.689
 1718SOL     OW 6052   3.131   1.648   2.155
 1718SOL    HW1 6053   3.196   1.666   2.229
 1718SOL    HW2 6054   3.179   1.650   2.067
 1719SOL     OW 6055   1.885   3.063   0.822
 1719SOL    HW1 6056   1.882   3.145   0.879
 1719SOL    HW2 6057   1.917   2.986   0.877
 1720SOL     OW 6058   6.774   2.922   6.574
 1720SOL    HW1 6059   6.817   2.846   6.622
 1720SOL    HW2 6060   6.695   2.888   6.523
 1721SOL     OW 6061   1.927   6.728   1.162
 1721SOL    HW1 6062   2.017   6.767   1.141
 1721SOL    HW2 6063   1.871   6.729   1.079
 1722SOL     OW 6064   3.390   1.533   3.798
 1722SOL    HW1 6065   3.454   1.495   3.864
 1722SOL    HW2 6066   3.438   1.553   3.713
 1723SOL     OW 6067   5.695   2.347   6.691
 1723SOL    HW1 6068   5.705   2.331   6.593
 1723SOL    HW2 6069   5.738   2.435   6.715
 1724SOL     OW 6070   0.562   2.962   2.223
 1724SOL    HW1 6071   0.581   3.053   2.260
 1724SOL    HW2 6072   0.572   2.964   2.124
 1725SOL     OW 6073   1.703   5.104   6.096
 1725SOL    HW1 6074   1.616   5.152   6.094
 1725SOL    HW2 6075   1.736   5.090   6.002
 1726SOL     OW 6076   5.718   4.014   4.564
 1726SOL    HW1 6077   5.790   4.082   4.550
 1726SOL    HW2 6078   5.701   4.004   4.662
 1727SOL     OW 6079   3.991   3.181   3.908
 1727SOL    HW1 6080   3.997   3.081   3.900
 1727SOL    HW2 6081   4.039   3.223   3.832
 1728SOL     OW 6082   5.858   5.141   5.221
 1728SOL    HW1 6083   5.858   5.112   5.317
 1728SOL    HW2 6084   5.776   5.196   5.204
 1729SOL     OW 6085   2.005   3.643   2.924
 1729SOL    HW1 6086   2.047   3.717   2.871
 1729SOL    HW2 6087   2.008   3.558   2.870
 1730SOL     OW 6088   2.368   0.552   5.383
 1730SOL    HW1 6089   2.354   0.651   5.386
 1730SOL    HW2 6090   2.280   0.506   5.395
 1731SOL     OW 6091   0.391   4.299   3.747
 1731SOL    HW1 6092   0.403   4.267   3.653
 1731SOL    HW2 6093   0.435   4.236   3.810
 1732SOL     OW 6094   2.517   4.986   6.016
 1732SOL    HW1 6095   2.478   4.970   5.925
 1732SOL    HW2 6096   2.475   4.923   6.082
 1733SOL     OW 6097   1.578   3.994   1.289
 1733SOL    HW1 6098   1.663   3.969   1.334
 1733SOL    HW2 6099   1.597   4.047   1.207
 1734SOL     OW 6100   4.807   2.623   0.970
 1734SOL    HW1 6101   4.875   2.674   0.917
 1734SOL    HW2 6102   4.717   2.665   0.959
 1735SOL     OW 6103   4.517   5.604   6.419
 1735SOL    HW1 6104   4.526   5.696   6.456
 1735SOL    HW2 6105   4.420   5.581   6.410
 1736SOL     OW 6106   3.488   3.996   1.276
 1736SOL    HW1 6107   3.498   3.980   1.178
 1736SOL    HW2 6108   3.510   3.913   1.326
 1737SOL     OW 6109   4.674   0.230   4.651
 1737SOL    HW1 6110   4.672   0.330   4.659
 1737SOL    HW2 6111   4.716   0.191   4.733
 1738SOL     OW 6112   2.445   2.453   4.739
 1738SOL    HW1 6113   2.448   2.355   4.717
 1738SOL    HW2 6114   2.483   2.467   4.831
 1739SOL     OW 6115   6.729   1.743   4.748
 1739SOL    HW1 6116   6.647   1.763   4.695
 1739SOL    HW2 6117   6.809   1.745   4.689
 1740SOL     OW 6118   0.056   2.365   4.836
 1740SOL    HW1 6119   0.069   2.310   4.753
 1740SOL    HW2 6120   0.126   2.436   4.841
 1741SOL     OW 6121   2.711   0.633   4.519
 1741SOL    HW1 6122   2.730   0.584   4.605
 1741SOL    HW2 6123   2.629   0.595   4.477
 1742SOL     OW 6124   6.035   0.623   5.207
 1742SOL    HW1 6125   5.949   0.573   5.216
 1742SOL    HW2 6126   6.052   0.644   5.111
 1743SOL     OW 6127   0.551   1.687   2.357
 1743SOL    HW1 6128   0.526   1.646   2.270
 1743SOL    HW2 6129   0.539   1.786   2.352
 1744SOL     OW 6130   6.423   3.411   3.433
 1744SOL    HW1 6131   6.476   3.489   3.467
 1744SOL    HW2 6132   6.464   3.326   3.465
 1745SOL     OW 6133   5.540   6.067   2.751
 1745SOL    HW1 6134   5.477   6.141   2.728
 1745SOL    HW2 6135   5.488   5.991   2.791
 1746SOL     OW 6136   1.413   4.486   3.967
 1746SOL    HW1 6137   1.429   4.582   3.988
 1746SOL    HW2 6138   1.334   4.477   3.906
 1747SOL     OW 6139   4.396   1.435   2.877
 1747SOL    HW1 6140   4.331   1.397   2.812
 1747SOL    HW2 6141   4.428   1.362   2.939
 1748SOL     OW 6142   6.854   2.068   4.436
 1748SOL    HW1 6143   6.854   2.096   4.532
 1748SOL    HW2 6144   6.762   2.081   4.398
 1749SOL     OW 6145   2.305   6.861   5.826
 1749SOL    HW1 6146   2.370   6.935   5.846
 1749SOL    HW2 6147   2.331   6.816   5.741
 1750SOL     OW 6148   5.372   6.968   3.742
 1750SOL    HW1 6149   5.297   7.008   3.690
 1750SOL    HW2 6150   5.349   6.874   3.768
 1751SOL     OW 6151   4.732   1.872   4.442
 1751SOL    HW1 6152   4.761   1.793   4.388
 1751SOL    HW2 6153   4.706   1.842   4.534
 1752SOL     OW 6154   6.078   0.977   2.175
 1752SOL    HW1 6155   6.157   0.932   2.135
 1752SOL    HW2 6156   6.107   1.031   2.254
 1753SOL     OW 6157   6.848   0.507   1.644
 1753SOL    HW1 6158   6.763   0.472   1.684
 1753SOL    HW2 6159   6.876   0.590   1.693
 1754SOL     OW 6160   1.883   4.888   6.631
 1754SOL    HW1 6161   1.930   4.957   6.576
 1754SOL    HW2 6162   1.946   4.813   6.653
 1755SOL     OW 6163   0.011   5.316   0.138
 1755SOL    HW1 6164   0.073   5.317   0.059
 1755SOL    HW2 6165   7.019   5.410   0.168
 1756SOL     OW 6166   4.157   5.808   5.284
 1756SOL    HW1 6167   4.102   5.762   5.354
 1756SOL    HW2 6168   4.114   5.796   5.194
 1757SOL     OW 6169   3.369   5.400   4.989
 1757SOL    HW1 6170   3.364   5.421   5.087
 1757SOL    HW2 6171   3.456   5.434   4.952
 1758SOL     OW 6172   1.990   1.258   4.385
 1758SOL    HW1 6173   1.929   1.324   4.341
 1758SOL    HW2 6174   2.061   1.306   4.435
 1759SOL     OW 6175   2.562   6.187   5.480
 1759SOL    HW1 6176   2.592   6.194   5.575
 1759SOL    HW2 6177   2.572   6.276   5.435
 1760SOL     OW 6178   6.060   1.047   3.788
 1760SOL    HW1 6179   6.124   1.083   3.721
 1760SOL    HW2 6180   5.984   1.110   3.799
 1761SOL     OW 6181   0.642   1.220   1.854
 1761SOL    HW1 6182   0.575   1.147   1.841
 1761SOL    HW2 6183   0.643   1.279   1.773
 1762SOL     OW 6184   0.223   1.265   4.655
 1762SOL    HW1 6185   0.143   1.322   4.672
 1762SOL    HW2 6186   0.196   1.170   4.647
 1763SOL     OW 6187   0.721   4.693   3.975
 1763SOL    HW1 6188   0.797   4.726   3.918
 1763SOL    HW2 6189   0.685   4.770   4.028
 1764SOL     OW 6190   1.990   3.099   1.805
 1764SOL    HW1 6191   1.923   3.047   1.858
 1764SOL    HW2 6192   2.082   3.079   1.838
 1765SOL     OW 6193   3.595   0.824   1.712
 1765SOL    HW1 6194   3.533   0.843   1.636
 1765SOL    HW2 6195   3.546   0.779   1.786
 1766SOL     OW 6196   5.772   4.691   4.017
 1766SOL    HW1 6197   5.765   4.772   3.958
 1766SOL    HW2 6198   5.711   4.701   4.095
 1767SOL     OW 6199   0.767   4.252   3.618
 1767SOL    HW1 6200   0.830   4.316   3.662
 1767SOL    HW2 6201   0.675   4.265   3.656
 1768SOL     OW 6202   2.983   0.975   6.989
 1768SOL    HW1 6203   3.045   0.907   6.950
 1768SOL    HW2 6204   2.911   0.928   0.015
 1769SOL     OW 6205   5.587   1.344   6.534
 1769SOL    HW1 6206   5.630   1.339   6.444
 1769SOL    HW2 6207   5.539   1.431   6.543
 1770SOL     OW 6208   6.818   4.893   5.039
 1770SOL    HW1 6209   6.726   4.926   5.061
 1770SOL    HW2 6210   6.871   4.966   4.996
 1771SOL     OW 6211   1.739   5.118   0.428
 1771SOL    HW1 6212   1.819   5.137   0.371
 1771SOL    HW2 6213   1.662   5.091   0.370
 1772SOL     OW 6214   3.847   5.437   3.700
 1772SOL    HW1 6215   3.904   5.358   3.677
 1772SOL    HW2 6216   3.825   5.488   3.618
 1773SOL     OW 6217   2.277   2.286   5.945
 1773SOL    HW1 6218   2.229   2.333   5.871
 1773SOL    HW2 6219   2.240   2.194   5.957
 1774SOL     OW 6220   5.368   6.730   1.396
 1774SOL    HW1 6221   5.332   6.640   1.373
 1774SOL    HW2 6222   5.467   6.725   1.408
 1775SOL     OW 6223   1.814   5.605   6.064
 1775SOL    HW1 6224   1.912   5.626   6.066
 1775SOL    HW2 6225   1.793   5.551   5.982
 1776SOL     OW 6226   5.279   0.408   6.324
 1776SOL    HW1 6227   5.326   0.378   6.241
 1776SOL    HW2 6228   5.340   0.393   6.403
 1777SOL     OW 6229   2.912   6.769   6.734
 1777SOL    HW1 6230   3.002   6.738   6.703
 1777SOL    HW2 6231   2.844   6.750   6.663
 1778SOL     OW 6232   4.717   2.231   4.329
 1778SOL    HW1 6233   4.674   2.267   4.411
 1778SOL    HW2 6234   4.807   2.194   4.352
 1779SOL     OW 6235   5.165   1.001   5.558
 1779SOL    HW1 6236   5.085   1.042   5.516
 1779SOL    HW2 6237   5.168   0.903   5.536
 1780SOL     OW 6238   1.786   3.445   5.978
 1780SOL    HW1 6239   1.715   3.512   5.956
 1780SOL    HW2 6240   1.876   3.489   5.971
 1781SOL     OW 6241   5.421   6.452   4.915
 1781SOL    HW1 6242   5.484   6.410   4.850
 1781SOL    HW2 6243   5.378   6.532   4.873
 1782SOL     OW 6244   2.268   1.017   2.890
 1782SOL    HW1 6245   2.203   0.967   2.833
 1782SOL    HW2 6246   2.353   1.032   2.839
 1783SOL     OW 6247   3.219   3.755   6.488
 1783SOL    HW1 6248   3.270   3.676   6.452
 1783SOL    HW2 6249   3.283   3.819   6.529
 1784SOL     OW 6250   2.351   1.355   1.180
 1784SOL    HW1 6251   2.353   1.417   1.101
 1784SOL    HW2 6252   2.355   1.260   1.147
 1785SOL     OW 6253   6.075   6.656   4.102
 1785SOL    HW1 6254   6.136   6.603   4.043
 1785SOL    HW2 6255   5.983   6.656   4.063
 1786SOL     OW 6256   2.135   4.882   6.960
 1786SOL    HW1 6257   2.101   4.819   6.890
 1786SOL    HW2 6258   2.204   4.943   6.919
 1787SOL     OW 6259   2.635   1.880   6.146
 1787SOL    HW1 6260   2.552   1.875   6.091
 1787SOL    HW2 6261   2.616   1.930   6.230
 1788SOL     OW 6262   4.627   3.984   6.790
 1788SOL    HW1 6263   4.599   4.044   6.865
 1788SOL    HW2 6264   4.603   4.025   6.703
 1789SOL     OW 6265   5.827   3.168   1.583
 1789SOL    HW1 6266   5.796   3.141   1.492
 1789SOL    HW2 6267   5.770   3.244   1.616
 1790SOL     OW 6268   2.854   1.206   4.529
 1790SOL    HW1 6269   2.834   1.208   4.627
 1790SOL    HW2 6270   2.866   1.111   4.500
 1791SOL     OW 6271   6.757   1.463   3.395
 1791SOL    HW1 6272   6.719   1.455   3.303
 1791SOL    HW2 6273   6.841   1.517   3.392
 1792SOL     OW 6274   0.091   1.517   4.677
 1792SOL    HW1 6275   0.129   1.573   4.604
 1792SOL    HW2 6276   0.103   1.563   4.765
 1793SOL     OW 6277   6.587   1.959   4.356
 1793SOL    HW1 6278   6.590   2.018   4.275
 1793SOL    HW2 6279   6.531   1.879   4.337
 1794SOL     OW 6280   5.346   6.635   5.388
 1794SOL    HW1 6281   5.348   6.582   5.303
 1794SOL    HW2 6282   5.256   6.679   5.397
 1795SOL     OW 6283   6.807   5.149   1.998
 1795SOL    HW1 6284   6.734   5.081   2.003
 1795SOL    HW2 6285   6.818   5.192   2.087
 1796SOL     OW 6286   2.521   1.737   5.766
 1796SOL    HW1 6287   2.614   1.771   5.753
 1796SOL    HW2 6288   2.524   1.644   5.803
 1797SOL     OW 6289   1.130   6.753   5.726
 1797SOL    HW1 6290   1.085   6.678   5.775
 1797SOL    HW2 6291   1.179   6.717   5.647
 1798SOL     OW 6292   3.634   3.206   4.981
 1798SOL    HW1 6293   3.636   3.232   4.885
 1798SOL    HW2 6294   3.685   3.273   5.035
 1799SOL     OW 6295   5.048   2.826   6.506
 1799SOL    HW1 6296   5.115   2.895   6.532
 1799SOL    HW2 6297   4.960   2.845   6.551
 1800SOL     OW 6298   5.015   4.916   3.953
 1800SOL    HW1 6299   4.976   4.966   4.030
 1800SOL    HW2 6300   5.017   4.975   3.872
 1801SOL     OW 6301   0.794   1.645   2.505
 1801SOL    HW1 6302   0.710   1.647   2.450
 1801SOL    HW2 6303   0.873   1.662   2.445
 1802SOL     OW 6304   6.171   6.154   3.617
 1802SOL    HW1 6305   6.180   6.060   3.583
 1802SOL    HW2 6306   6.111   6.206   3.557
 1803SOL     OW 6307   0.168   6.899   2.016
 1803SOL    HW1 6308   0.200   6.919   2.109
 1803SOL    HW2 6309   0.246   6.898   1.954
 1804SOL     OW 6310   3.943   3.140   4.870
 1804SOL    HW1 6311   3.930   3.169   4.775
 1804SOL    HW2 6312   4.009   3.200   4.914
 1805SOL     OW 6313   0.275   5.335   5.960
 1805SOL    HW1 6314   0.319   5.324   6.050
 1805SOL    HW2 6315   0.345   5.351   5.891
 1806SOL     OW 6316   0.746   2.607   1.602
 1806SOL    HW1 6317   0.686   2.679   1.568
 1806SOL    HW2 6318   0.779   2.631   1.693
 1807SOL     OW 6319   6.270   2.607   6.337
 1807SOL    HW1 6320   6.273   2.622   6.238
 1807SOL    HW2 6321   6.358   2.570   6.367
 1808SOL     OW 6322   6.141   3.930   4.344
 1808SOL    HW1 6323   6.088   3.888   4.417
 1808SOL    HW2 6324   6.124   3.882   4.258
 1809SOL     OW 6325   2.997   2.162   5.491
 1809SOL    HW1 6326   2.925   2.105   5.528
 1809SOL    HW2 6327   2.977   2.183   5.395
 1810SOL     OW 6328   0.791   0.677   5.164
 1810SOL    HW1 6329   0.693   0.685   5.149
 1810SOL    HW2 6330   0.835   0.642   5.081
 1811SOL     OW 6331   5.508   4.670   2.136
 1811SOL    HW1 6332   5.414   4.634   2.139
 1811SOL    HW2 6333   5.561   4.617   2.069
 1812SOL     OW 6334   4.097   6.838   6.488
 1812SOL    HW1 6335   4.177   6.845   6.430
 1812SOL    HW2 6336   4.036   6.767   6.453
 1813SOL     OW 6337   5.324   5.023   2.340
 1813SOL    HW1 6338   5.245   5.063   2.387
 1813SOL    HW2 6339   5.392   4.994   2.408
 1814SOL     OW 6340   5.846   0.484   0.398
 1814SOL    HW1 6341   5.799   0.572   0.391
 1814SOL    HW2 6342   5.786   0.411   0.364
 1815SOL     OW 6343   6.454   0.076   2.814
 1815SOL    HW1 6344   6.366   0.111   2.846
 1815SOL    HW2 6345   6.471   0.108   2.721
 1816SOL     OW 6346   3.514   4.983   6.172
 1816SOL    HW1 6347   3.444   4.913   6.159
 1816SOL    HW2 6348   3.597   4.941   6.207
 1817SOL     OW 6349   3.216   0.803   3.135
 1817SOL    HW1 6350   3.143   0.802   3.203
 1817SOL    HW2 6351   3.187   0.857   3.056
 1818SOL     OW 6352   1.836   0.324   0.119
 1818SOL    HW1 6353   1.773   0.313   0.196
 1818SOL    HW2 6354   1.801   0.396   0.058
 1819SOL     OW 6355   1.648   5.280   2.140
 1819SOL    HW1 6356   1.551   5.256   2.132
 1819SOL    HW2 6357   1.704   5.199   2.127
 1820SOL     OW 6358   3.074   0.297   2.449
 1820SOL    HW1 6359   3.133   0.267   2.374
 1820SOL    HW2 6360   2.986   0.326   2.412
 1821SOL     OW 6361   2.929   1.060   2.051
 1821SOL    HW1 6362   2.913   1.043   2.148
 1821SOL    HW2 6363   2.877   1.140   2.022
 1822SOL     OW 6364   0.919   3.454   1.719
 1822SOL    HW1 6365   0.962   3.517   1.783
 1822SOL    HW2 6366   0.960   3.363   1.729
 1823SOL     OW 6367   2.808   5.989   3.137
 1823SOL    HW1 6368   2.731   5.936   3.101
 1823SOL    HW2 6369   2.847   6.045   3.063
 1824SOL     OW 6370   4.306   4.347   0.361
 1824SOL    HW1 6371   4.334   4.251   0.374
 1824SOL    HW2 6372   4.314   4.370   0.264
 1825SOL     OW 6373   0.533   3.262   4.612
 1825SOL    HW1 6374   0.623   3.259   4.567
 1825SOL    HW2 6375   0.534   3.202   4.692
 1826SOL     OW 6376   3.158   0.879   0.977
 1826SOL    HW1 6377   3.067   0.918   0.969
 1826SOL    HW2 6378   3.227   0.949   0.955
 1827SOL     OW 6379   5.507   5.339   1.039
 1827SOL    HW1 6380   5.434   5.405   1.059
 1827SOL    HW2 6381   5.508   5.268   1.109
 1828SOL     OW 6382   1.798   2.860   6.439
 1828SOL    HW1 6383   1.775   2.886   6.345
 1828SOL    HW2 6384   1.717   2.868   6.497
 1829SOL     OW 6385   3.609   6.919   3.502
 1829SOL    HW1 6386   3.702   6.956   3.499
 1829SOL    HW2 6387   3.598   6.855   3.427
 1830SOL     OW 6388   5.541   6.695   4.707
 1830SOL    HW1 6389   5.518   6.792   4.699
 1830SOL    HW2 6390   5.610   6.683   4.778
 1831SOL     OW 6391   5.072   6.220   2.910
 1831SOL    HW1 6392   5.104   6.186   2.822
 1831SOL    HW2 6393   5.111   6.165   2.984
 1832SOL     OW 6394   3.916   2.576   0.041
 1832SOL    HW1 6395   3.873   2.644   0.100
 1832SOL    HW2 6396   4.015   2.588   0.042
 1833SOL     OW 6397   5.268   0.339   1.352
 1833SOL    HW1 6398   5.170   0.338   1.371
 1833SOL    HW2 6399   5.284   0.298   1.262
 1834SOL     OW 6400   2.326   3.801   1.228
 1834SOL    HW1 6401   2.379   3.818   1.311
 1834SOL    HW2 6402   2.347   3.709   1.194
 1835SOL     OW 6403   0.984   4.610   1.843
 1835SOL    HW1 6404   0.885   4.613   1.829
 1835SOL    HW2 6405   1.023   4.536   1.788
 1836SOL     OW 6406   5.827   2.594   2.011
 1836SOL    HW1 6407   5.830   2.500   1.977
 1836SOL    HW2 6408   5.793   2.594   2.105
 1837SOL     OW 6409   1.585   6.889   5.963
 1837SOL    HW1 6410   1.598   6.979   5.922
 1837SOL    HW2 6411   1.639   6.821   5.913
 1838SOL     OW 6412   5.601   0.513   6.270
 1838SOL    HW1 6413   5.501   0.513   6.266
 1838SOL    HW2 6414   5.631   0.457   6.347
 1839SOL     OW 6415   6.019   0.878   6.054
 1839SOL    HW1 6416   6.011   0.976   6.074
 1839SOL    HW2 6417   5.939   0.848   6.002
 1840SOL     OW 6418   3.839   0.225   2.545
 1840SOL    HW1 6419   3.838   0.194   2.640
 1840SOL    HW2 6420   3.839   0.325   2.542
 1841SOL     OW 6421   2.247   0.271   2.792
 1841SOL    HW1 6422   2.292   0.185   2.815
 1841SOL    HW2 6423   2.184   0.256   2.716
 1842SOL     OW 6424   0.881   5.475   0.896
 1842SOL    HW1 6425   0.950   5.547   0.901
 1842SOL    HW2 6426   0.884   5.432   0.806
 1843SOL     OW 6427   5.477   0.423   4.168
 1843SOL    HW1 6428   5.435   0.416   4.259
 1843SOL    HW2 6429   5.413   0.468   4.106
 1844SOL     OW 6430   3.918   0.934   5.145
 1844SOL    HW1 6431   3.917   1.004   5.216
 1844SOL    HW2 6432   3.996   0.948   5.085
 1845SOL     OW 6433   3.107   6.888   4.005
 1845SOL    HW1 6434   3.090   6.981   4.037
 1845SOL    HW2 6435   3.177   6.845   4.063
 1846SOL     OW 6436   4.457   1.112   3.481
 1846SOL    HW1 6437   4.523   1.158   3.422
 1846SOL    HW2 6438   4.506   1.057   3.548
 1847SOL     OW 6439   1.267   6.883   5.490
 1847SOL    HW1 6440   1.327   6.891   5.570
 1847SOL    HW2 6441   1.177   6.920   5.513
 1848SOL     OW 6442   1.549   5.973   4.052
 1848SOL    HW1 6443   1.478   5.933   3.993
 1848SOL    HW2 6444   1.597   6.045   4.002
 1849SOL     OW 6445   4.401   2.427   1.186
 1849SOL    HW1 6446   4.427   2.373   1.105
 1849SOL    HW2 6447   4.429   2.378   1.269
 1850SOL     OW 6448   5.765   1.646   2.604
 1850SOL    HW1 6449   5.749   1.550   2.628
 1850SOL    HW2 6450   5.680   1.687   2.572
 1851SOL     OW 6451   1.141   3.631   7.018
 1851SOL    HW1 6452   1.077   3.663   0.064
 1851SOL    HW2 6453   1.089   3.588   6.944
 1852SOL     OW 6454   0.330   4.781   2.353
 1852SOL    HW1 6455   0.426   4.752   2.354
 1852SOL    HW2 6456   0.311   4.832   2.269
 1853SOL     OW 6457   6.938   2.633   3.114
 1853SOL    HW1 6458   6.957   2.724   3.077
 1853SOL    HW2 6459   6.899   2.576   3.043
 1854SOL     OW 6460   1.791   4.769   2.851
 1854SOL    HW1 6461   1.890   4.769   2.859
 1854SOL    HW2 6462   1.759   4.676   2.831
 1855SOL     OW 6463   5.072   3.055   5.352
 1855SOL    HW1 6464   5.091   3.060   5.450
 1855SOL    HW2 6465   5.158   3.061   5.300
 1856SOL     OW 6466   3.697   3.121   6.399
 1856SOL    HW1 6467   3.623   3.065   6.437
 1856SOL    HW2 6468   3.783   3.098   6.445
 1857SOL     OW 6469   4.438   1.439   0.322
 1857SOL    HW1 6470   4.509   1.385   0.366
 1857SOL    HW2 6471   4.350   1.391   0.331
 1858SOL     OW 6472   5.442   2.515   3.475
 1858SOL    HW1 6473   5.450   2.443   3.405
 1858SOL    HW2 6474   5.349   2.550   3.476
 1859SOL     OW 6475   4.730   1.801   3.467
 1859SOL    HW1 6476   4.751   1.710   3.503
 1859SOL    HW2 6477   4.680   1.792   3.381
 1860SOL     OW 6478   0.167   1.692   5.928
 1860SOL    HW1 6479   0.211   1.607   5.900
 1860SOL    HW2 6480   0.069   1.675   5.945
 1861SOL     OW 6481   4.796   1.080   3.117
 1861SOL    HW1 6482   4.771   1.075   3.020
 1861SOL    HW2 6483   4.748   1.156   3.160
 1862SOL     OW 6484   1.489   6.685   6.716
 1862SOL    HW1 6485   1.524   6.635   6.795
 1862SOL    HW2 6486   1.399   6.649   6.691
 1863SOL     OW 6487   6.847   2.941   1.687
 1863SOL    HW1 6488   6.799   2.939   1.775
 1863SOL    HW2 6489   6.874   3.035   1.666
 1864SOL     OW 6490   3.798   5.878   4.022
 1864SOL    HW1 6491   3.773   5.969   4.055
 1864SOL    HW2 6492   3.884   5.849   4.064
 1865SOL     OW 6493   3.433   0.891   1.165
 1865SOL    HW1 6494   3.531   0.872   1.158
 1865SOL    HW2 6495   3.383   0.834   1.100
 1866SOL     OW 6496   6.483   5.030   3.933
 1866SOL    HW1 6497   6.546   5.043   4.010
 1866SOL    HW2 6498   6.455   5.119   3.897
 1867SOL     OW 6499   2.222   3.424   1.464
 1867SOL    HW1 6500   2.143   3.472   1.426
 1867SOL    HW2 6501   2.204   3.404   1.561
 1868SOL     OW 6502   5.100   3.360   5.919
 1868SOL    HW1 6503   5.004   3.335   5.904
 1868SOL    HW2 6504   5.143   3.380   5.831
 1869SOL     OW 6505   6.233   3.404   4.395
 1869SOL    HW1 6506   6.223   3.359   4.307
 1869SOL    HW2 6507   6.277   3.342   4.460
 1870SOL     OW 6508   1.089   2.953   4.876
 1870SOL    HW1 6509   1.104   2.900   4.792
 1870SOL    HW2 6510   1.173   2.955   4.930
 1871SOL     OW 6511   6.143   6.718   0.262
 1871SOL    HW1 6512   6.206   6.791   0.238
 1871SOL    HW2 6513   6.128   6.658   0.183
 1872SOL     OW 6514   4.090   2.214   0.722
 1872SOL    HW1 6515   4.038   2.173   0.648
 1872SOL    HW2 6516   4.066   2.170   0.809
 1873SOL     OW 6517   6.306   0.745   5.400
 1873SOL    HW1 6518   6.354   0.719   5.317
 1873SOL    HW2 6519   6.367   0.798   5.459
 1874SOL     OW 6520   0.856   0.576   6.960
 1874SOL    HW1 6521   0.898   0.647   7.018
 1874SOL    HW2 6522   0.757   0.588   6.960
 1875SOL     OW 6523   6.266   6.703   0.529
 1875SOL    HW1 6524   6.224   6.696   0.438
 1875SOL    HW2 6525   6.305   6.615   0.555
 1876SOL     OW 6526   4.905   6.387   6.439
 1876SOL    HW1 6527   4.829   6.451   6.452
 1876SOL    HW2 6528   4.981   6.434   6.394
 1877SOL     OW 6529   0.742   1.549   3.356
 1877SOL    HW1 6530   0.776   1.499   3.436
 1877SOL    HW2 6531   0.736   1.646   3.378
 1878SOL     OW 6532   0.107   4.218   3.815
 1878SOL    HW1 6533   0.115   4.139   3.753
 1878SOL    HW2 6534   0.193   4.269   3.813
 1879SOL     OW 6535   2.585   5.596   3.602
 1879SOL    HW1 6536   2.490   5.578   3.576
 1879SOL    HW2 6537   2.639   5.513   3.590
 1880SOL     OW 6538   0.908   2.524   3.312
 1880SOL    HW1 6539   0.935   2.620   3.301
 1880SOL    HW2 6540   0.908   2.479   3.223
 1881SOL     OW 6541   1.079   1.660   3.286
 1881SOL    HW1 6542   1.051   1.640   3.380
 1881SOL    HW2 6543   1.032   1.743   3.254
 1882SOL     OW 6544   0.840   5.129   0.012
 1882SOL    HW1 6545   0.795   5.218   0.011
 1882SOL    HW2 6546   0.781   5.062   0.056
 1883SOL     OW 6547   0.658   3.553   3.693
 1883SOL    HW1 6548   0.605   3.637   3.702
 1883SOL    HW2 6549   0.625   3.485   3.758
 1884SOL     OW 6550   5.457   1.498   1.264
 1884SOL    HW1 6551   5.461   1.503   1.364
 1884SOL    HW2 6552   5.549   1.505   1.226
 1885SOL     OW 6553   0.097   2.161   0.506
 1885SOL    HW1 6554   0.149   2.247   0.511
 1885SOL    HW2 6555   0.028   2.159   0.579
 1886SOL     OW 6556   1.864   1.979   0.186
 1886SOL    HW1 6557   1.790   2.046   0.177
 1886SOL    HW2 6558   1.888   1.969   0.283
 1887SOL     OW 6559   0.744   4.177   5.713
 1887SOL    HW1 6560   0.826   4.119   5.719
 1887SOL    HW2 6561   0.668   4.123   5.678
 1888SOL     OW 6562   2.359   1.531   6.434
 1888SOL    HW1 6563   2.276   1.517   6.487
 1888SOL    HW2 6564   2.389   1.626   6.444
 1889SOL     OW 6565   4.490   3.556   6.505
 1889SOL    HW1 6566   4.475   3.473   6.450
 1889SOL    HW2 6567   4.409   3.615   6.498
 1890SOL     OW 6568   1.455   5.779   6.010
 1890SOL    HW1 6569   1.464   5.708   5.939
 1890SOL    HW2 6570   1.546   5.803   6.044
 1891SOL     OW 6571   5.190   3.160   4.165
 1891SOL    HW1 6572   5.234   3.080   4.125
 1891SOL    HW2 6573   5.204   3.161   4.264
 1892SOL     OW 6574   3.531   6.579   0.931
 1892SOL    HW1 6575   3.564   6.565   1.024
 1892SOL    HW2 6576   3.460   6.511   0.911
 1893SOL     OW 6577   3.701   2.099   5.004
 1893SOL    HW1 6578   3.683   2.121   5.100
 1893SOL    HW2 6579   3.618   2.116   4.950
 1894SOL     OW 6580   4.519   3.469   1.353
 1894SOL    HW1 6581   4.535   3.393   1.289
 1894SOL    HW2 6582   4.423   3.496   1.349
 1895SOL     OW 6583   5.997   0.663   2.802
 1895SOL    HW1 6584   5.948   0.584   2.766
 1895SOL    HW2 6585   6.094   0.657   2.775
 1896SOL     OW 6586   0.027   1.046   3.057
 1896SOL    HW1 6587   0.029   1.023   3.154
 1896SOL    HW2 6588   0.068   1.136   3.043
 1897SOL     OW 6589   6.936   5.347   3.062
 1897SOL    HW1 6590   6.948   5.441   3.033
 1897SOL    HW2 6591   6.879   5.298   2.995
 1898SOL     OW 6592   3.793   6.086   1.860
 1898SOL    HW1 6593   3.841   6.141   1.927
 1898SOL    HW2 6594   3.752   6.145   1.791
 1899SOL     OW 6595   1.229   2.829   2.708
 1899SOL    HW1 6596   1.264   2.788   2.625
 1899SOL    HW2 6597   1.302   2.836   2.776
 1900SOL     OW 6598   0.866   0.280   5.798
 1900SOL    HW1 6599   0.947   0.258   5.745
 1900SOL    HW2 6600   0.789   0.224   5.767
 1901SOL     OW 6601   2.237   1.386   1.433
 1901SOL    HW1 6602   2.165   1.318   1.422
 1901SOL    HW2 6603   2.292   1.390   1.349
 1902SOL     OW 6604   2.124   2.293   4.785
 1902SOL    HW1 6605   2.161   2.329   4.699
 1902SOL    HW2 6606   2.151   2.197   4.795
 1903SOL     OW 6607   6.861   3.867   3.965
 1903SOL    HW1 6608   6.906   3.935   4.023
 1903SOL    HW2 6609   6.875   3.891   3.869
 1904SOL     OW 6610   6.475   0.390   4.408
 1904SOL    HW1 6611   6.476   0.457   4.333
 1904SOL    HW2 6612   6.524   0.427   4.487
 1905SOL     OW 6613   0.512   2.018   3.921
 1905SOL    HW1 6614   0.511   2.041   4.018
 1905SOL    HW2 6615   0.586   1.953   3.903
 1906SOL     OW 6616   2.606   6.684   5.705
 1906SOL    HW1 6617   2.523   6.631   5.722
 1906SOL    HW2 6618   2.655   6.647   5.626
 1907SOL     OW 6619   3.060   6.474   3.202
 1907SOL    HW1 6620   3.131   6.405   3.184
 1907SOL    HW2 6621   3.052   6.534   3.122
 1908SOL     OW 6622   4.758   0.934   4.854
 1908SOL    HW1 6623   4.733   0.945   4.758
 1908SOL    HW2 6624   4.771   0.837   4.874
 1909SOL     OW 6625   1.534   4.067   3.016
 1909SOL    HW1 6626   1.602   4.016   3.069
 1909SOL    HW2 6627   1.456   4.089   3.074
 1910SOL     OW 6628   6.135   2.317   6.672
 1910SOL    HW1 6629   6.070   2.309   6.596
 1910SOL    HW2 6630   6.090   2.289   6.757
 1911SOL     OW 6631   5.807   1.938   5.848
 1911SOL    HW1 6632   5.771   2.024   5.811
 1911SOL    HW2 6633   5.741   1.864   5.832
 1912SOL     OW 6634   3.998   6.585   2.053
 1912SOL    HW1 6635   4.004   6.668   1.997
 1912SOL    HW2 6636   4.013   6.505   1.995
 1913SOL     OW 6637   1.736   6.313   5.616
 1913SOL    HW1 6638   1.809   6.301   5.549
 1913SOL    HW2 6639   1.707   6.223   5.649
 1914SOL     OW 6640   2.835   2.936   0.125
 1914SOL    HW1 6641   2.918   2.911   0.076
 1914SOL    HW2 6642   2.853   2.938   0.223
 1915SOL     OW 6643   3.551   1.536   5.573
 1915SOL    HW1 6644   3.618   1.599   5.613
 1915SOL    HW2 6645   3.593   1.446   5.562
 1916SOL     OW 6646   3.419   5.589   0.760
 1916SOL    HW1 6647   3.341   5.653   0.763
 1916SOL    HW2 6648   3.504   5.641   0.761
 1917SOL     OW 6649   3.912   3.177   4.585
 1917SOL    HW1 6650   3.911   3.137   4.493
 1917SOL    HW2 6651   3.966   3.261   4.583
 1918SOL     OW 6652   6.592   6.940   6.705
 1918SOL    HW1 6653   6.631   7.010   6.765
 1918SOL    HW2 6654   6.658   6.865   6.694
 1919SOL     OW 6655   1.416   6.759   2.380
 1919SOL    HW1 6656   1.506   6.716   2.375
 1919SOL    HW2 6657   1.408   6.829   2.309
 1920SOL     OW 6658   0.820   4.895   3.798
 1920SOL    HW1 6659   0.726   4.861   3.801
 1920SOL    HW2 6660   0.821   4.988   3.762
 1921SOL     OW 6661   1.273   4.165   0.351
 1921SOL    HW1 6662   1.207   4.164   0.425
 1921SOL    HW2 6663   1.235   4.117   0.272
 1922SOL     OW 6664   3.731   4.171   1.161
 1922SOL    HW1 6665   3.652   4.220   1.198
 1922SOL    HW2 6666   3.786   4.234   1.107
 1923SOL     OW 6667   3.094   0.584   6.959
 1923SOL    HW1 6668   3.103   0.682   6.940
 1923SOL    HW2 6669   3.134   0.532   6.884
 1924SOL     OW 6670   5.943   5.479   2.378
 1924SOL    HW1 6671   5.843   5.479   2.372
 1924SOL    HW2 6672   5.980   5.419   2.307
 1925SOL     OW 6673   3.037   3.709   2.076
 1925SOL    HW1 6674   3.036   3.632   2.140
 1925SOL    HW2 6675   3.089   3.684   1.994
 1926SOL     OW 6676   0.886   6.859   4.065
 1926SOL    HW1 6677   0.849   6.802   4.138
 1926SOL    HW2 6678   0.958   6.809   4.017
 1927SOL     OW 6679   3.489   5.269   6.174
 1927SOL    HW1 6680   3.536   5.183   6.193
 1927SOL    HW2 6681   3.405   5.250   6.123
 1928SOL     OW 6682   6.828   3.256   5.937
 1928SOL    HW1 6683   6.889   3.304   6.001
 1928SOL    HW2 6684   6.882   3.199   5.876
 1929SOL     OW 6685   0.862   6.037   1.219
 1929SOL    HW1 6686   0.921   6.102   1.267
 1929SOL    HW2 6687   0.860   6.059   1.121
 1930SOL     OW 6688   4.019   4.094   0.085
 1930SOL    HW1 6689   3.990   4.007   0.125
 1930SOL    HW2 6690   3.939   4.143   0.051
 1931SOL     OW 6691   0.314   3.437   3.797
 1931SOL    HW1 6692   0.219   3.467   3.807
 1931SOL    HW2 6693   0.330   3.407   3.702
 1932SOL     OW 6694   4.932   4.128   2.160
 1932SOL    HW1 6695   4.939   4.191   2.083
 1932SOL    HW2 6696   5.005   4.147   2.226
 1933SOL     OW 6697   3.302   4.492   0.154
 1933SOL    HW1 6698   3.309   4.409   0.099
 1933SOL    HW2 6699   3.328   4.571   0.098
 1934SOL     OW 6700   0.442   0.548   5.362
 1934SOL    HW1 6701   0.425   0.593   5.275
 1934SOL    HW2 6702   0.392   0.461   5.366
 1935SOL     OW 6703   3.383   0.414   4.877
 1935SOL    HW1 6704   3.312   0.378   4.816
 1935SOL    HW2 6705   3.380   0.514   4.875
 1936SOL     OW 6706   5.877   4.096   3.994
 1936SOL    HW1 6707   5.946   4.169   3.995
 1936SOL    HW2 6708   5.834   4.090   4.084
 1937SOL     OW 6709   4.551   6.613   1.120
 1937SOL    HW1 6710   4.559   6.515   1.134
 1937SOL    HW2 6711   4.459   6.635   1.087
 1938SOL     OW 6712   4.071   1.247   2.468
 1938SOL    HW1 6713   4.116   1.159   2.482
 1938SOL    HW2 6714   4.032   1.278   2.555
 1939SOL     OW 6715   0.249   6.506   4.756
 1939SOL    HW1 6716   0.263   6.412   4.785
 1939SOL    HW2 6717   0.188   6.507   4.676
 1940SOL     OW 6718   5.123   4.924   6.091
 1940SOL    HW1 6719   5.110   4.948   6.187
 1940SOL    HW2 6720   5.042   4.951   6.039
 1941SOL     OW 6721   0.155   3.846   3.284
 1941SOL    HW1 6722   0.138   3.754   3.321
 1941SOL    HW2 6723   0.252   3.855   3.261
 1942SOL     OW 6724   6.263   0.617   3.172
 1942SOL    HW1 6725   6.189   0.666   3.126
 1942SOL    HW2 6726   6.351   0.652   3.141
 1943SOL     OW 6727   2.820   6.112   2.884
 1943SOL    HW1 6728   2.883   6.048   2.839
 1943SOL    HW2 6729   2.728   6.100   2.846
 1944SOL     OW 6730   5.300   2.246   6.677
 1944SOL    HW1 6731   5.272   2.154   6.651
 1944SOL    HW2 6732   5.322   2.248   6.774
 1945SOL     OW 6733   4.245   5.707   2.297
 1945SOL    HW1 6734   4.182   5.630   2.304
 1945SOL    HW2 6735   4.339   5.673   2.299
 1946SOL     OW 6736   5.856   0.630   0.846
 1946SOL    HW1 6737   5.912   0.605   0.766
 1946SOL    HW2 6738   5.879   0.571   0.923
 1947SOL     OW 6739   4.898   6.977   3.955
 1947SOL    HW1 6740   4.928   6.889   3.917
 1947SOL    HW2 6741   4.848   6.960   4.040
 1948SOL     OW 6742   6.287   6.216   4.073
 1948SOL    HW1 6743   6.240   6.245   4.156
 1948SOL    HW2 6744   6.308   6.119   4.078
 1949SOL     OW 6745   4.184   4.296   5.899
 1949SOL    HW1 6746   4.113   4.227   5.909
 1949SOL    HW2 6747   4.273   4.255   5.918
 1950SOL     OW 6748   3.359   4.473   0.762
 1950SOL    HW1 6749   3.448   4.507   0.732
 1950SOL    HW2 6750   3.287   4.523   0.715
 1951SOL     OW 6751   6.409   3.860   0.943
 1951SOL    HW1 6752   6.387   3.892   1.036
 1951SOL    HW2 6753   6.486   3.797   0.947
 1952SOL     OW 6754   3.876   2.112   0.556
 1952SOL    HW1 6755   3.814   2.034   0.566
 1952SOL    HW2 6756   3.828   2.188   0.512
 1953SOL     OW 6757   6.271   2.975   0.154
 1953SOL    HW1 6758   6.185   2.950   0.198
 1953SOL    HW2 6759   6.268   3.071   0.126
 1954SOL     OW 6760   5.363   0.896   4.081
 1954SOL    HW1 6761   5.455   0.858   4.080
 1954SOL    HW2 6762   5.335   0.920   3.988
 1955SOL     OW 6763   1.357   1.410   2.480
 1955SOL    HW1 6764   1.315   1.500   2.467
 1955SOL    HW2 6765   1.324   1.370   2.565
 1956SOL     OW 6766   5.608   0.132   2.337
 1956SOL    HW1 6767   5.695   0.098   2.301
 1956SOL    HW2 6768   5.562   0.059   2.387
 1957SOL     OW 6769   6.390   5.732   5.187
 1957SOL    HW1 6770   6.385   5.638   5.222
 1957SOL    HW2 6771   6.313   5.785   5.224
 1958SOL     OW 6772   5.680   2.752   2.968
 1958SOL    HW1 6773   5.665   2.790   3.059
 1958SOL    HW2 6774   5.764   2.697   2.968
 1959SOL     OW 6775   0.164   1.428   6.337
 1959SOL    HW1 6776   0.120   1.514   6.364
 1959SOL    HW2 6777   0.260   1.446   6.316
 1960SOL     OW 6778   6.985   4.019   1.153
 1960SOL    HW1 6779   6.924   3.942   1.172
 1960SOL    HW2 6780   6.977   4.086   1.227
 1961SOL     OW 6781   6.130   4.721   4.208
 1961SOL    HW1 6782   6.111   4.624   4.224
 1961SOL    HW2 6783   6.074   4.776   4.269
 1962SOL     OW 6784   2.403   6.662   3.396
 1962SOL    HW1 6785   2.355   6.748   3.383
 1962SOL    HW2 6786   2.458   6.641   3.314
 1963SOL     OW 6787   0.689   1.318   1.300
 1963SOL    HW1 6788   0.685   1.312   1.201
 1963SOL    HW2 6789   0.737   1.402   1.327
 1964SOL     OW 6790   4.476   3.254   1.716
 1964SOL    HW1 6791   4.521   3.194   1.782
 1964SOL    HW2 6792   4.545   3.305   1.664
 1965SOL     OW 6793   0.939   3.527   3.636
 1965SOL    HW1 6794   0.932   3.617   3.679
 1965SOL    HW2 6795   0.853   3.478   3.649
 1966SOL     OW 6796   6.653   5.969   5.811
 1966SOL    HW1 6797   6.720   5.928   5.873
 1966SOL    HW2 6798   6.692   6.051   5.769
 1967SOL     OW 6799   4.726   2.341   4.838
 1967SOL    HW1 6800   4.644   2.393   4.816
 1967SOL    HW2 6801   4.789   2.344   4.759
 1968SOL     OW 6802   3.311   6.356   0.344
 1968SOL    HW1 6803   3.393   6.412   0.350
 1968SOL    HW2 6804   3.335   6.259   0.353
 1969SOL     OW 6805   0.883   1.979   1.873
 1969SOL    HW1 6806   0.842   2.023   1.952
 1969SOL    HW2 6807   0.969   1.934   1.899
 1970SOL     OW 6808   2.462   0.099   6.167
 1970SOL    HW1 6809   2.367   0.101   6.201
 1970SOL    HW2 6810   2.520   0.153   6.228
 1971SOL     OW 6811   6.812   0.275   6.089
 1971SOL    HW1 6812   6.880   0.297   6.159
 1971SOL    HW2 6813   6.722   0.306   6.120
 1972SOL     OW 6814   5.401   2.659   2.886
 1972SOL    HW1 6815   5.427   2.570   2.848
 1972SOL    HW2 6816   5.459   2.731   2.846
 1973SOL     OW 6817   2.526   3.420   0.510
 1973SOL    HW1 6818   2.600   3.478   0.477
 1973SOL    HW2 6819   2.442   3.474   0.519
 1974SOL     OW 6820   5.736   6.380   4.269
 1974SOL    HW1 6821   5.776   6.347   4.183
 1974SOL    HW2 6822   5.687   6.465   4.252
 1975SOL     OW 6823   2.558   1.471   3.155
 1975SOL    HW1 6824   2.490   1.424   3.097
 1975SOL    HW2 6825   2.512   1.543   3.208
 1976SOL     OW 6826   0.365   5.763   0.248
 1976SOL    HW1 6827   0.266   5.775   0.243
 1976SOL    HW2 6828   0.409   5.811   0.172
 1977SOL     OW 6829   1.311   2.935   3.637
 1977SOL    HW1 6830   1.357   3.023   3.643
 1977SOL    HW2 6831   1.345   2.875   3.710
 1978SOL     OW 6832   0.735   1.077   3.545
 1978SOL    HW1 6833   0.760   1.061   3.450
 1978SOL    HW2 6834   0.808   1.045   3.605
 1979SOL     OW 6835   6.286   4.211   5.418
 1979SOL    HW1 6836   6.336   4.190   5.502
 1979SOL    HW2 6837   6.350   4.210   5.341
 1980SOL     OW 6838   2.860   0.786   6.076
 1980SOL    HW1 6839   2.827   0.758   5.986
 1980SOL    HW2 6840   2.840   0.714   6.143
 1981SOL     OW 6841   6.458   2.449   2.620
 1981SOL    HW1 6842   6.414   2.535   2.643
 1981SOL    HW2 6843   6.444   2.428   2.524
 1982SOL     OW 6844   0.229   3.695   5.386
 1982SOL    HW1 6845   0.140   3.671   5.346
 1982SOL    HW2 6846   0.249   3.791   5.366
 1983SOL     OW 6847   0.695   1.184   3.053
 1983SOL    HW1 6848   0.650   1.183   2.964
 1983SOL    HW2 6849   0.651   1.251   3.113
 1984SOL     OW 6850   5.651   1.732   4.649
 1984SOL    HW1 6851   5.708   1.715   4.569
 1984SOL    HW2 6852   5.629   1.645   4.694
 1985SOL     OW 6853   0.836   6.941   2.617
 1985SOL    HW1 6854   0.824   6.905   2.710
 1985SOL    HW2 6855   0.752   6.987   2.588
 1986SOL     OW 6856   1.802   0.518   6.923
 1986SOL    HW1 6857   1.741   0.564   6.858
 1986SOL    HW2 6858   1.837   0.434   6.883
 1987SOL     OW 6859   1.109   2.961   0.955
 1987SOL    HW1 6860   1.149   2.896   0.890
 1987SOL    HW2 6861   1.177   2.984   1.025
 1988SOL     OW 6862   5.559   4.864   1.170
 1988SOL    HW1 6863   5.467   4.873   1.131
 1988SOL    HW2 6864   5.618   4.935   1.133
 1989SOL     OW 6865   2.313   6.680   4.613
 1989SOL    HW1 6866   2.408   6.706   4.631
 1989SOL    HW2 6867   2.278   6.626   4.689
 1990SOL     OW 6868   3.051   6.465   0.446
 1990SOL    HW1 6869   3.035   6.436   0.541
 1990SOL    HW2 6870   3.133   6.420   0.411
 1991SOL     OW 6871   4.248   4.908   6.216
 1991SOL    HW1 6872   4.295   4.903   6.304
 1991SOL    HW2 6873   4.264   4.998   6.174
 1992SOL     OW 6874   0.543   0.305   6.863
 1992SOL    HW1 6875   0.515   0.322   6.958
 1992SOL    HW2 6876   0.576   0.211   6.855
 1993SOL     OW 6877   3.646   3.405   4.598
 1993SOL    HW1 6878   3.672   3.479   4.536
 1993SOL    HW2 6879   3.711   3.403   4.675
 1994SOL     OW 6880   1.296   1.527   0.309
 1994SOL    HW1 6881   1.354   1.607   0.298
 1994SOL    HW2 6882   1.337   1.464   0.374
 1995SOL     OW 6883   5.947   2.150   2.367
 1995SOL    HW1 6884   5.925   2.166   2.271
 1995SOL    HW2 6885   5.958   2.051   2.382
 1996SOL     OW 6886   2.531   3.751   0.641
 1996SOL    HW1 6887   2.490   3.818   0.579
 1996SOL    HW2 6888   2.484   3.663   0.630
 1997SOL     OW 6889   4.426   0.636   5.005
 1997SOL    HW1 6890   4.402   0.542   5.031
 1997SOL    HW2 6891   4.515   0.636   4.960
 1998SOL     OW 6892   3.313   3.740   5.985
 1998SOL    HW1 6893   3.260   3.656   5.994
 1998SOL    HW2 6894   3.367   3.755   6.068
 1999SOL     OW 6895   3.669   6.363   1.396
 1999SOL    HW1 6896   3.589   6.347   1.453
 1999SOL    HW2 6897   3.752   6.337   1.446
 2000SOL     OW 6898   4.232   2.139   5.270
 2000SOL    HW1 6899   4.305   2.129   5.337
 2000SOL    HW2 6900   4.271   2.156   5.179
 2001SOL     OW 6901   3.447   1.428   1.828
 2001SOL    HW1 6902   3.480   1.441   1.921
 2001SOL    HW2 6903   3.422   1.332   1.815
 2002SOL     OW 6904   0.807   4.896   5.837
 2002SOL    HW1 6905   0.724   4.949   5.821
 2002SOL    HW2 6906   0.887   4.953   5.822
 2003SOL     OW 6907   5.946   6.584   3.523
 2003SOL    HW1 6908   5.912   6.644   3.595
 2003SOL    HW2 6909   5.991   6.638   3.453
 2004SOL     OW 6910   4.029   1.556   5.138
 2004SOL    HW1 6911   3.978   1.546   5.223
 2004SOL    HW2 6912   3.969   1.541   5.060
 2005SOL     OW 6913   1.167   4.261   6.989
 2005SOL    HW1 6914   1.235   4.334   6.977
 2005SOL    HW2 6915   1.138   4.257   0.060
 2006SOL     OW 6916   5.391   5.120   4.316
 2006SOL    HW1 6917   5.346   5.208   4.295
 2006SOL    HW2 6918   5.487   5.136   4.339
 2007SOL     OW 6919   4.353   4.986   1.009
 2007SOL    HW1 6920   4.407   5.069   1.021
 2007SOL    HW2 6921   4.258   5.004   1.032
 2008SOL     OW 6922   1.378   5.448   3.162
 2008SOL    HW1 6923   1.463   5.415   3.121
 2008SOL    HW2 6924   1.327   5.370   3.199
 2009SOL     OW 6925   6.151   0.002   1.560
 2009SOL    HW1 6926   6.123   6.945   1.508
 2009SOL    HW2 6927   6.160   0.080   1.498
 2010SOL     OW 6928   2.048   1.821   1.105
 2010SOL    HW1 6929   1.954   1.836   1.077
 2010SOL    HW2 6930   2.050   1.768   1.190
 2011SOL     OW 6931   6.522   1.231   5.027
 2011SOL    HW1 6932   6.460   1.290   4.977
 2011SOL    HW2 6933   6.601   1.284   5.060
 2012SOL     OW 6934   1.472   2.966   1.820
 2012SOL    HW1 6935   1.492   2.868   1.822
 2012SOL    HW2 6936   1.376   2.982   1.841
 2013SOL     OW 6937   6.288   0.945   3.279
 2013SOL    HW1 6938   6.343   0.902   3.351
 2013SOL    HW2 6939   6.199   0.901   3.275
 2014SOL     OW 6940   2.134   5.327   2.672
 2014SOL    HW1 6941   2.184   5.411   2.694
 2014SOL    HW2 6942   2.045   5.328   2.717
 2015SOL     OW 6943   2.309   1.690   0.558
 2015SOL    HW1 6944   2.225   1.636   0.553
 2015SOL    HW2 6945   2.324   1.736   0.470
 2016SOL     OW 6946   0.973   5.286   5.073
 2016SOL    HW1 6947   1.051   5.268   5.133
 2016SOL    HW2 6948   0.906   5.213   5.083
 2017SOL     OW 6949   2.425   6.930   4.359
 2017SOL    HW1 6950   2.350   6.979   4.315
 2017SOL    HW2 6951   2.429   6.836   4.323
 2018SOL     OW 6952   5.711   0.062   5.836
 2018SOL    HW1 6953   5.760   0.042   5.752
 2018SOL    HW2 6954   5.639   7.018   5.850
 2019SOL     OW 6955   5.006   2.534   2.338
 2019SOL    HW1 6956   5.053   2.604   2.285
 2019SOL    HW2 6957   4.986   2.455   2.280
 2020SOL     OW 6958   0.708   5.576   5.464
 2020SOL    HW1 6959   0.806   5.557   5.468
 2020SOL    HW2 6960   0.684   5.608   5.373
 2021SOL     OW 6961   2.205   5.401   3.243
 2021SOL    HW1 6962   2.301   5.424   3.231
 2021SOL    HW2 6963   2.185   5.313   3.199
 2022SOL     OW 6964   1.932   3.210   3.304
 2022SOL    HW1 6965   1.996   3.177   3.374
 2022SOL    HW2 6966   1.929   3.144   3.228
 2023SOL     OW 6967   6.433   0.833   6.437
 2023SOL    HW1 6968   6.384   0.769   6.378
 2023SOL    HW2 6969   6.380   0.850   6.520
 2024SOL     OW 6970   0.023   0.029   3.479
 2024SOL    HW1 6971   0.045   0.081   3.561
 2024SOL    HW2 6972   7.011   0.091   3.409
 2025SOL     OW 6973   2.575   2.439   2.269
 2025SOL    HW1 6974   2.642   2.512   2.261
 2025SOL    HW2 6975   2.598   2.366   2.205
 2026SOL     OW 6976   0.896   2.728   6.059
 2026SOL    HW1 6977   0.934   2.810   6.016
 2026SOL    HW2 6978   0.857   2.752   6.148
 2027SOL     OW 6979   0.797   1.326   0.409
 2027SOL    HW1 6980   0.743   1.271   0.472
 2027SOL    HW2 6981   0.831   1.268   0.334
 2028SOL     OW 6982   3.079   1.131   6.000
 2028SOL    HW1 6983   3.153   1.066   5.986
 2028SOL    HW2 6984   3.023   1.136   5.917
 2029SOL     OW 6985   6.440   0.603   0.811
 2029SOL    HW1 6986   6.448   0.660   0.893
 2029SOL    HW2 6987   6.531   0.575   0.781
 2030SOL     OW 6988   2.220   0.234   3.405
 2030SOL    HW1 6989   2.271   0.185   3.335
 2030SOL    HW2 6990   2.276   0.242   3.488
 2031SOL     OW 6991   5.954   6.230   2.117
 2031SOL    HW1 6992   5.918   6.161   2.181
 2031SOL    HW2 6993   5.952   6.320   2.161
 2032SOL     OW 6994   4.289   6.778   1.626
 2032SOL    HW1 6995   4.233   6.765   1.708
 2032SOL    HW2 6996   4.246   6.845   1.566
 2033SOL     OW 6997   3.746   4.191   6.952
 2033SOL    HW1 6998   3.698   4.243   7.023
 2033SOL    HW2 6999   3.683   4.170   6.877
 2034SOL     OW 7000   3.379   6.435   4.538
 2034SOL    HW1 7001   3.433   6.373   4.481
 2034SOL    HW2 7002   3.287   6.399   4.548
 2035SOL     OW 7003   6.994   0.334   1.959
 2035SOL    HW1 7004   7.016   0.431   1.969
 2035SOL    HW2 7005   7.003   0.307   1.863
 2036SOL     OW 7006   1.139   5.150   2.750
 2036SOL    HW1 7007   1.182   5.093   2.820
 2036SOL    HW2 7008   1.201   5.224   2.725
 2037SOL     OW 7009   0.668   2.850   5.941
 2037SOL    HW1 7010   0.731   2.923   5.913
 2037SOL    HW2 7011   0.717   2.763   5.939
 2038SOL     OW 7012   1.798   2.069   6.865
 2038SOL    HW1 7013   1.756   2.121   6.939
 2038SOL    HW2 7014   1.891   2.043   6.891
 2039SOL     OW 7015   0.531   5.480   3.080
 2039SOL    HW1 7016   0.484   5.401   3.119
 2039SOL    HW2 7017   0.630   5.471   3.097
 2040SOL     OW 7018   3.960   3.084   5.319
 2040SOL    HW1 7019   3.979   2.998   5.366
 2040SOL    HW2 7020   3.926   3.065   5.227
 2041SOL     OW 7021   6.880   5.884   5.949
 2041SOL    HW1 7022   6.928   5.854   6.031
 2041SOL    HW2 7023   6.929   5.960   5.907
 2042SOL     OW 7024   5.833   4.355   6.748
 2042SOL    HW1 7025   5.756   4.403   6.706
 2042SOL    HW2 7026   5.914   4.415   6.748
 2043SOL     OW 7027   6.403   4.293   2.797
 2043SOL    HW1 7028   6.389   4.337   2.709
 2043SOL    HW2 7029   6.314   4.271   2.837
 2044SOL     OW 7030   5.066   7.020   1.310
 2044SOL    HW1 7031   5.012   6.941   1.338
 2044SOL    HW2 7032   5.160   6.991   1.290
 2045SOL     OW 7033   3.163   4.850   3.862
 2045SOL    HW1 7034   3.125   4.942   3.863
 2045SOL    HW2 7035   3.116   4.795   3.793
 2046SOL     OW 7036   0.092   1.392   4.018
 2046SOL    HW1 7037   0.113   1.326   4.089
 2046SOL    HW2 7038   0.094   1.484   4.056
 2047SOL     OW 7039   5.341   2.243   0.335
 2047SOL    HW1 7040   5.431   2.268   0.299
 2047SOL    HW2 7041   5.289   2.326   0.354
 2048SOL     OW 7042   1.450   5.936   0.329
 2048SOL    HW1 7043   1.405   5.847   0.334
 2048SOL    HW2 7044   1.444   5.982   0.417
 2049SOL     OW 7045   4.949   1.953   6.217
 2049SOL    HW1 7046   4.906   2.027   6.268
 2049SOL    HW2 7047   5.039   1.932   6.256
 2050SOL     OW 7048   0.594   3.019   2.977
 2050SOL    HW1 7049   0.645   2.969   2.908
 2050SOL    HW2 7050   0.497   3.023   2.952
 2051SOL     OW 7051   1.235   5.993   0.946
 2051SOL    HW1 7052   1.258   5.935   1.024
 2051SOL    HW2 7053   1.193   6.078   0.978
 2052SOL     OW 7054   1.023   4.168   1.160
 2052SOL    HW1 7055   0.970   4.177   1.244
 2052SOL    HW2 7056   0.976   4.105   1.098
 2053SOL     OW 7057   5.637   6.929   5.023
 2053SOL    HW1 7058   5.561   6.965   5.076
 2053SOL    HW2 7059   5.655   6.835   5.050
 2054SOL     OW 7060   4.102   3.358   1.994
 2054SOL    HW1 7061   4.068   3.265   2.009
 2054SOL    HW2 7062   4.025   3.422   1.997
 2055SOL     OW 7063   6.116   3.307   3.415
 2055SOL    HW1 7064   6.184   3.234   3.407
 2055SOL    HW2 7065   6.091   3.319   3.511
 2056SOL     OW 7066   2.446   0.417   2.685
 2056SOL    HW1 7067   2.389   0.345   2.725
 2056SOL    HW2 7068   2.485   0.473   2.758
 2057SOL     OW 7069   5.366   3.338   3.831
 2057SOL    HW1 7070   5.383   3.248   3.792
 2057SOL    HW2 7071   5.434   3.358   3.902
 2058SOL     OW 7072   0.889   1.873   3.194
 2058SOL    HW1 7073   0.824   1.838   3.261
 2058SOL    HW2 7074   0.861   1.845   3.102
 2059SOL     OW 7075   2.598   6.030   5.948
 2059SOL    HW1 7076   2.573   5.974   6.027
 2059SOL    HW2 7077   2.690   6.067   5.962
 2060SOL     OW 7078   6.099   4.542   0.896
 2060SOL    HW1 7079   6.152   4.477   0.950
 2060SOL    HW2 7080   6.135   4.546   0.803
 2061SOL     OW 7081   0.467   1.800   3.239
 2061SOL    HW1 7082   0.500   1.713   3.203
 2061SOL    HW2 7083   0.527   1.830   3.313
 2062SOL     OW 7084   6.116   0.337   3.666
 2062SOL    HW1 7085   6.065   0.299   3.588
 2062SOL    HW2 7086   6.211   0.307   3.661
 2063SOL     OW 7087   1.943   0.005   6.480
 2063SOL    HW1 7088   1.885   0.066   6.535
 2063SOL    HW2 7089   1.889   6.990   6.406
 2064SOL     OW 7090   0.753   2.682   5.628
 2064SOL    HW1 7091   0.716   2.676   5.535
 2064SOL    HW2 7092   0.745   2.593   5.672
 2065SOL     OW 7093   6.707   2.706   4.238
 2065SOL    HW1 7094   6.740   2.795   4.205
 2065SOL    HW2 7095   6.763   2.634   4.197
 2066SOL     OW 7096   0.974   5.506   3.253
 2066SOL    HW1 7097   0.967   5.520   3.352
 2066SOL    HW2 7098   1.054   5.557   3.218
 2067SOL     OW 7099   6.666   5.578   0.992
 2067SOL    HW1 7100   6.737   5.560   1.059
 2067SOL    HW2 7101   6.636   5.492   0.950
 2068SOL     OW 7102   1.256   1.408   5.320
 2068SOL    HW1 7103   1.353   1.407   5.346
 2068SOL    HW2 7104   1.212   1.325   5.355
 2069SOL     OW 7105   0.575   3.371   3.026
 2069SOL    HW1 7106   0.671   3.388   3.045
 2069SOL    HW2 7107   0.525   3.358   3.112
 2070SOL     OW 7108   1.348   1.056   1.907
 2070SOL    HW1 7109   1.305   1.007   1.983
 2070SOL    HW2 7110   1.332   1.007   1.822
 2071SOL     OW 7111   5.660   5.956   5.395
 2071SOL    HW1 7112   5.632   5.936   5.489
 2071SOL    HW2 7113   5.674   5.870   5.346
 2072SOL     OW 7114   4.036   6.885   2.967
 2072SOL    HW1 7115   4.100   6.848   3.034
 2072SOL    HW2 7116   3.959   6.928   3.014
 2073SOL     OW 7117   4.009   6.919   4.191
 2073SOL    HW1 7118   4.100   6.924   4.149
 2073SOL    HW2 7119   4.019   6.913   4.290
 2074SOL     OW 7120   1.746   2.937   0.404
 2074SOL    HW1 7121   1.672   2.870   0.407
 2074SOL    HW2 7122   1.834   2.889   0.403
 2075SOL     OW 7123   5.302   3.161   1.492
 2075SOL    HW1 7124   5.320   3.099   1.568
 2075SOL    HW2 7125   5.371   3.233   1.492
 2076SOL     OW 7126   5.144   0.233   6.677
 2076SOL    HW1 7127   5.103   0.258   6.589
 2076SOL    HW2 7128   5.227   0.180   6.661
 2077SOL     OW 7129   5.697   2.645   2.705
 2077SOL    HW1 7130   5.678   2.664   2.801
 2077SOL    HW2 7131   5.736   2.726   2.662
 2078SOL     OW 7132   1.186   5.413   5.800
 2078SOL    HW1 7133   1.244   5.332   5.809
 2078SOL    HW2 7134   1.139   5.410   5.711
 2079SOL     OW 7135   5.091   2.234   3.841
 2079SOL    HW1 7136   5.030   2.155   3.852
 2079SOL    HW2 7137   5.113   2.271   3.932
 2080SOL     OW 7138   1.703   0.809   4.753
 2080SOL    HW1 7139   1.682   0.873   4.827
 2080SOL    HW2 7140   1.802   0.808   4.738
 2081SOL     OW 7141   1.422   5.174   3.891
 2081SOL    HW1 7142   1.459   5.243   3.829
 2081SOL    HW2 7143   1.395   5.093   3.839
 2082SOL     OW 7144   0.313   0.010   3.406
 2082SOL    HW1 7145   0.223   6.993   3.420
 2082SOL    HW2 7146   0.358   6.990   3.328
 2083SOL     OW 7147   6.065   4.802   6.564
 2083SOL    HW1 7148   6.088   4.847   6.651
 2083SOL    HW2 7149   6.149   4.784   6.513
 2084SOL     OW 7150   1.684   3.380   3.702
 2084SOL    HW1 7151   1.679   3.348   3.796
 2084SOL    HW2 7152   1.595   3.368   3.658
 2085SOL     OW 7153   4.253   0.449   6.998
 2085SOL    HW1 7154   4.161   0.413   7.012
 2085SOL    HW2 7155   4.303   0.448   0.059
 2086SOL     OW 7156   3.935   6.794   5.515
 2086SOL    HW1 7157   3.861   6.748   5.565
 2086SOL    HW2 7158   3.934   6.892   5.536
 2087SOL     OW 7159   4.782   0.163   1.441
 2087SOL    HW1 7160   4.870   0.209   1.430
 2087SOL    HW2 7161   4.708   0.228   1.420
 2088SOL     OW 7162   2.299   5.907   6.924
 2088SOL    HW1 7163   2.283   5.992   6.875
 2088SOL    HW2 7164   2.371   5.922   6.992
 2089SOL     OW 7165   5.429   2.288   6.223
 2089SOL    HW1 7166   5.364   2.234   6.275
 2089SOL    HW2 7167   5.460   2.365   6.278
 2090SOL     OW 7168   3.587   3.508   5.946
 2090SOL    HW1 7169   3.499   3.513   5.994
 2090SOL    HW2 7170   3.572   3.478   5.852
 2091SOL     OW 7171   6.985   5.423   0.589
 2091SOL    HW1 7172   6.972   5.330   0.625
 2091SOL    HW2 7173   0.045   5.461   0.625
 2092SOL     OW 7174   5.473   4.325   6.726
 2092SOL    HW1 7175   5.520   4.237   6.736
 2092SOL    HW2 7176   5.457   4.342   6.629
 2093SOL     OW 7177   2.606   2.198   1.044
 2093SOL    HW1 7178   2.702   2.204   1.017
 2093SOL    HW2 7179   2.568   2.290   1.052
 2094SOL     OW 7180   6.011   1.843   1.586
 2094SOL    HW1 7181   6.032   1.822   1.682
 2094SOL    HW2 7182   5.916   1.875   1.579
 2095SOL     OW 7183   5.339   6.896   4.903
 2095SOL    HW1 7184   5.396   6.901   4.985
 2095SOL    HW2 7185   5.316   6.801   4.884
 2096SOL     OW 7186   4.667   4.324   2.730
 2096SOL    HW1 7187   4.696   4.252   2.667
 2096SOL    HW2 7188   4.645   4.284   2.819
 2097SOL     OW 7189   2.657   2.845   6.575
 2097SOL    HW1 7190   2.730   2.779   6.556
 2097SOL    HW2 7191   2.635   2.844   6.672
 2098SOL     OW 7192   4.503   5.672   2.411
 2098SOL    HW1 7193   4.530   5.746   2.472
 2098SOL    HW2 7194   4.576   5.655   2.345
 2099SOL     OW 7195   2.555   3.094   6.162
 2099SOL    HW1 7196   2.529   3.108   6.066
 2099SOL    HW2 7197   2.626   3.023   6.168
 2100SOL     OW 7198   4.655   2.430   6.265
 2100SOL    HW1 7199   4.582   2.368   6.239
 2100SOL    HW2 7200   4.643   2.459   6.360
 2101SOL     OW 7201   1.026   6.516   2.491
 2101SOL    HW1 7202   1.091   6.554   2.425
 2101SOL    HW2 7203   1.025   6.574   2.573
 2102SOL     OW 7204   6.444   4.734   2.436
 2102SOL    HW1 7205   6.398   4.800   2.495
 2102SOL    HW2 7206   6.380   4.700   2.367
 2103SOL     OW 7207   3.987   4.620   5.511
 2103SOL    HW1 7208   4.044   4.546   5.547
 2103SOL    HW2 7209   3.894   4.586   5.497
 2104SOL     OW 7210   2.088   3.923   1.213
 2104SOL    HW1 7211   2.177   3.883   1.234
 2104SOL    HW2 7212   2.029   3.854   1.171
 2105SOL     OW 7213   5.173   5.672   5.538
 2105SOL    HW1 7214   5.104   5.631   5.598
 2105SOL    HW2 7215   5.253   5.699   5.592
 2106SOL     OW 7216   4.720   4.406   1.381
 2106SOL    HW1 7217   4.741   4.357   1.465
 2106SOL    HW2 7218   4.667   4.488   1.402
 2107SOL     OW 7219   4.922   2.484   5.397
 2107SOL    HW1 7220   4.988   2.551   5.430
 2107SOL    HW2 7221   4.969   2.397   5.378
 2108SOL     OW 7222   6.152   5.562   5.290
 2108SOL    HW1 7223   6.121   5.519   5.375
 2108SOL    HW2 7224   6.123   5.657   5.288
 2109SOL     OW 7225   4.403   6.127   2.571
 2109SOL    HW1 7226   4.348   6.120   2.488
 2109SOL    HW2 7227   4.389   6.046   2.627
 2110SOL     OW 7228   2.345   1.377   0.059
 2110SOL    HW1 7229   2.268   1.439   0.074
 2110SOL    HW2 7230   2.419   1.426   0.013
 2111SOL     OW 7231   1.456   2.354   6.838
 2111SOL    HW1 7232   1.366   2.397   6.852
 2111SOL    HW2 7233   1.443   2.259   6.812
 2112SOL     OW 7234   5.392   3.392   0.310
 2112SOL    HW1 7235   5.408   3.324   0.382
 2112SOL    HW2 7236   5.470   3.393   0.248
 2113SOL     OW 7237   2.050   2.194   5.408
 2113SOL    HW1 7238   1.960   2.151   5.422
 2113SOL    HW2 7239   2.070   2.198   5.310
 2114SOL     OW 7240   1.592   2.074   0.182
 2114SOL    HW1 7241   1.517   2.008   0.182
 2114SOL    HW2 7242   1.559   2.162   0.149
 2115SOL     OW 7243   2.028   3.375   2.417
 2115SOL    HW1 7244   2.104   3.322   2.380
 2115SOL    HW2 7245   1.961   3.393   2.345
 2116SOL     OW 7246   0.158   5.081   3.184
 2116SOL    HW1 7247   0.141   5.035   3.271
 2116SOL    HW2 7248   0.072   5.089   3.133
 2117SOL     OW 7249   6.958   5.076   1.577
 2117SOL    HW1 7250   6.977   4.978   1.571
 2117SOL    HW2 7251   0.016   5.124   1.607
 2118SOL     OW 7252   6.150   3.655   1.965
 2118SOL    HW1 7253   6.100   3.632   1.882
 2118SOL    HW2 7254   6.105   3.732   2.011
 2119SOL     OW 7255   1.353   6.227   1.114
 2119SOL    HW1 7256   1.311   6.191   1.197
 2119SOL    HW2 7257   1.441   6.183   1.099
 2120SOL     OW 7258   6.716   5.298   4.076
 2120SOL    HW1 7259   6.728   5.345   3.989
 2120SOL    HW2 7260   6.795   5.317   4.135
 2121SOL     OW 7261   1.574   4.104   5.833
 2121SOL    HW1 7262   1.601   4.200   5.837
 2121SOL    HW2 7263   1.651   4.047   5.864
 2122SOL     OW 7264   5.724   3.852   5.903
 2122SOL    HW1 7265   5.814   3.879   5.936
 2122SOL    HW2 7266   5.733   3.790   5.825
 2123SOL     OW 7267   6.725   6.163   2.241
 2123SOL    HW1 7268   6.812   6.145   2.194
 2123SOL    HW2 7269   6.687   6.078   2.276
 2124SOL     OW 7270   3.173   1.772   1.628
 2124SOL    HW1 7271   3.168   1.871   1.624
 2124SOL    HW2 7272   3.211   1.737   1.543
 2125SOL     OW 7273   1.990   0.778   2.104
 2125SOL    HW1 7274   2.005   0.757   2.008
 2125SOL    HW2 7275   1.929   0.710   2.145
 2126SOL     OW 7276   3.666   1.506   6.447
 2126SOL    HW1 7277   3.666   1.406   6.447
 2126SOL    HW2 7278   3.756   1.540   6.418
 2127SOL     OW 7279   0.327   3.693   4.779
 2127SOL    HW1 7280   0.228   3.685   4.772
 2127SOL    HW2 7281   0.369   3.676   4.690
 2128SOL     OW 7282   6.895   3.379   3.639
 2128SOL    HW1 7283   6.941   3.425   3.563
 2128SOL    HW2 7284   6.854   3.294   3.607
 2129SOL     OW 7285   4.228   3.354   5.458
 2129SOL    HW1 7286   4.204   3.449   5.479
 2129SOL    HW2 7287   4.281   3.315   5.533
 2130SOL     OW 7288   3.322   0.568   2.458
 2130SOL    HW1 7289   3.228   0.598   2.444
 2130SOL    HW2 7290   3.335   0.542   2.554
 2131SOL     OW 7291   5.504   1.021   0.820
 2131SOL    HW1 7292   5.420   1.066   0.790
 2131SOL    HW2 7293   5.501   0.924   0.795
 2132SOL     OW 7294   3.291   0.542   1.886
 2132SOL    HW1 7295   3.309   0.444   1.895
 2132SOL    HW2 7296   3.365   0.594   1.929
 2133SOL     OW 7297   3.339   2.973   0.603
 2133SOL    HW1 7298   3.332   2.880   0.637
 2133SOL    HW2 7299   3.258   2.995   0.548
 2134SOL     OW 7300   6.889   1.626   6.535
 2134SOL    HW1 7301   6.856   1.693   6.602
 2134SOL    HW2 7302   6.823   1.620   6.459
 2135SOL     OW 7303   1.298   3.443   4.774
 2135SOL    HW1 7304   1.342   3.519   4.820
 2135SOL    HW2 7305   1.291   3.462   4.676
 2136SOL     OW 7306   1.822   3.434   3.189
 2136SOL    HW1 7307   1.851   3.353   3.240
 2136SOL    HW2 7308   1.740   3.472   3.230
 2137SOL     OW 7309   2.926   5.215   4.991
 2137SOL    HW1 7310   2.995   5.282   4.963
 2137SOL    HW2 7311   2.868   5.193   4.912
 2138SOL     OW 7312   6.705   0.410   2.920
 2138SOL    HW1 7313   6.758   0.429   2.838
 2138SOL    HW2 7314   6.766   0.411   3.000
 2139SOL     OW 7315   3.564   0.549   3.565
 2139SOL    HW1 7316   3.524   0.576   3.653
 2139SOL    HW2 7317   3.640   0.609   3.543
 2140SOL     OW 7318   3.960   6.464   3.824
 2140SOL    HW1 7319   3.928   6.402   3.753
 2140SOL    HW2 7320   3.989   6.410   3.904
 2141SOL     OW 7321   6.629   3.691   2.510
 2141SOL    HW1 7322   6.719   3.720   2.478
 2141SOL    HW2 7323   6.638   3.609   2.567
 2142SOL     OW 7324   2.240   1.690   3.084
 2142SOL    HW1 7325   2.149   1.654   3.062
 2142SOL    HW2 7326   2.281   1.635   3.157
 2143SOL     OW 7327   3.190   4.652   1.170
 2143SOL    HW1 7328   3.193   4.555   1.146
 2143SOL    HW2 7329   3.282   4.682   1.196
 2144SOL     OW 7330   1.409   5.401   3.712
 2144SOL    HW1 7331   1.380   5.319   3.664
 2144SOL    HW2 7332   1.346   5.476   3.691
 2145SOL     OW 7333   4.447   6.046   3.897
 2145SOL    HW1 7334   4.468   6.122   3.835
 2145SOL    HW2 7335   4.518   5.976   3.887
 2146SOL     OW 7336   2.412   3.840   1.736
 2146SOL    HW1 7337   2.502   3.881   1.744
 2146SOL    HW2 7338   2.347   3.889   1.794
 2147SOL     OW 7339   6.452   1.323   5.769
 2147SOL    HW1 7340   6.483   1.412   5.736
 2147SOL    HW2 7341   6.362   1.302   5.729
 2148SOL     OW 7342   6.273   3.302   5.218
 2148SOL    HW1 7343   6.261   3.348   5.130
 2148SOL    HW2 7344   6.305   3.208   5.202
 2149SOL     OW 7345   3.222   1.518   1.220
 2149SOL    HW1 7346   3.239   1.439   1.160
 2149SOL    HW2 7347   3.303   1.535   1.275
 2150SOL     OW 7348   2.451   2.313   1.871
 2150SOL    HW1 7349   2.453   2.241   1.801
 2150SOL    HW2 7350   2.365   2.364   1.864
 2151SOL     OW 7351   1.084   0.170   5.654
 2151SOL    HW1 7352   1.181   0.192   5.656
 2151SOL    HW2 7353   1.069   0.091   5.594
 2152SOL     OW 7354   3.256   5.748   1.843
 2152SOL    HW1 7355   3.257   5.844   1.871
 2152SOL    HW2 7356   3.218   5.692   1.916
 2153SOL     OW 7357   3.873   1.271   2.698
 2153SOL    HW1 7358   3.776   1.288   2.718
 2153SOL    HW2 7359   3.914   1.221   2.775
 2154SOL     OW 7360   5.085   1.006   5.104
 2154SOL    HW1 7361   5.153   1.034   5.172
 2154SOL    HW2 7362   5.084   1.072   5.029
 2155SOL     OW 7363   3.020   5.996   0.291
 2155SOL    HW1 7364   2.986   5.907   0.260
 2155SOL    HW2 7365   2.968   6.069   0.248
 2156SOL     OW 7366   1.715   1.485   5.126
 2156SOL    HW1 7367   1.812   1.493   5.150
 2156SOL    HW2 7368   1.691   1.556   5.061
 2157SOL     OW 7369   5.762   0.556   3.177
 2157SOL    HW1 7370   5.756   0.654   3.192
 2157SOL    HW2 7371   5.826   0.516   3.242
 2158SOL     OW 7372   3.737   5.900   1.296
 2158SOL    HW1 7373   3.754   5.919   1.392
 2158SOL    HW2 7374   3.638   5.901   1.279
 2159SOL     OW 7375   1.089   6.240   5.361
 2159SOL    HW1 7376   1.132   6.237   5.271
 2159SOL    HW2 7377   1.146   6.291   5.425
 2160SOL     OW 7378   4.426   4.100   0.412
 2160SOL    HW1 7379   4.375   4.035   0.356
 2160SOL    HW2 7380   4.462   4.054   0.492
 2161SOL     OW 7381   5.478   4.951   2.610
 2161SOL    HW1 7382   5.489   4.889   2.688
 2161SOL    HW2 7383   5.416   5.025   2.635
 2162SOL     OW 7384   2.116   1.167   1.850
 2162SOL    HW1 7385   2.200   1.150   1.901
 2162SOL    HW2 7386   2.139   1.190   1.755
 2163SOL     OW 7387   1.386   4.674   6.003
 2163SOL    HW1 7388   1.456   4.634   5.942
 2163SOL    HW2 7389   1.300   4.624   5.992
 2164SOL     OW 7390   1.659   2.698   0.150
 2164SOL    HW1 7391   1.561   2.716   0.141
 2164SOL    HW2 7392   1.705   2.719   0.063
 2165SOL     OW 7393   0.154   2.007   2.593
 2165SOL    HW1 7394   0.147   2.060   2.678
 2165SOL    HW2 7395   0.131   1.912   2.611
 2166SOL     OW 7396   1.255   2.400   5.360
 2166SOL    HW1 7397   1.265   2.471   5.291
 2166SOL    HW2 7398   1.159   2.370   5.363
 2167SOL     OW 7399   1.743   2.100   3.242
 2167SOL    HW1 7400   1.712   2.031   3.308
 2167SOL    HW2 7401   1.701   2.188   3.263
 2168SOL     OW 7402   0.861   2.266   3.729
 2168SOL    HW1 7403   0.910   2.250   3.643
 2168SOL    HW2 7404   0.910   2.221   3.803
 2169SOL     OW 7405   5.350   1.213   6.766
 2169SOL    HW1 7406   5.431   1.179   6.719
 2169SOL    HW2 7407   5.378   1.267   6.846
 2170SOL     OW 7408   6.702   3.934   5.860
 2170SOL    HW1 7409   6.651   3.989   5.926
 2170SOL    HW2 7410   6.766   3.992   5.810
 2171SOL     OW 7411   0.186   5.373   1.394
 2171SOL    HW1 7412   0.185   5.385   1.295
 2171SOL    HW2 7413   0.107   5.419   1.434
 2172SOL     OW 7414   2.063   2.491   0.301
 2172SOL    HW1 7415   2.035   2.402   0.265
 2172SOL    HW2 7416   1.985   2.536   0.346
 2173SOL     OW 7417   3.588   0.950   5.417
 2173SOL    HW1 7418   3.546   0.895   5.490
 2173SOL    HW2 7419   3.522   1.018   5.386
 2174SOL     OW 7420   5.427   5.960   5.588
 2174SOL    HW1 7421   5.401   5.927   5.497
 2174SOL    HW2 7422   5.454   5.883   5.645
 2175SOL     OW 7423   2.154   3.006   4.367
 2175SOL    HW1 7424   2.161   2.968   4.275
 2175SOL    HW2 7425   2.060   3.000   4.398
 2176SOL     OW 7426   6.510   2.089   0.938
 2176SOL    HW1 7427   6.423   2.113   0.895
 2176SOL    HW2 7428   6.582   2.147   0.901
 2177SOL     OW 7429   6.686   2.095   3.399
 2177SOL    HW1 7430   6.586   2.095   3.402
 2177SOL    HW2 7431   6.717   2.097   3.304
 2178SOL     OW 7432   2.005   2.138   1.262
 2178SOL    HW1 7433   2.044   2.219   1.305
 2178SOL    HW2 7434   1.995   2.153   1.164
 2179SOL     OW 7435   1.957   5.291   4.573
 2179SOL    HW1 7436   1.914   5.362   4.517
 2179SOL    HW2 7437   1.891   5.217   4.590
 2180SOL     OW 7438   1.590   2.291   1.633
 2180SOL    HW1 7439   1.682   2.257   1.614
 2180SOL    HW2 7440   1.545   2.315   1.547
 2181SOL     OW 7441   4.838   4.872   4.394
 2181SOL    HW1 7442   4.750   4.915   4.374
 2181SOL    HW2 7443   4.825   4.774   4.405
 2182SOL     OW 7444   1.612   3.775   3.786
 2182SOL    HW1 7445   1.586   3.836   3.712
 2182SOL    HW2 7446   1.685   3.714   3.755
 2183SOL     OW 7447   2.700   4.190   5.794
 2183SOL    HW1 7448   2.751   4.148   5.719
 2183SOL    HW2 7449   2.646   4.266   5.758
 2184SOL     OW 7450   4.195   1.720   6.501
 2184SOL    HW1 7451   4.206   1.676   6.412
 2184SOL    HW2 7452   4.166   1.652   6.568
 2185SOL     OW 7453   0.281   1.188   1.147
 2185SOL    HW1 7454   0.301   1.153   1.238
 2185SOL    HW2 7455   0.242   1.115   1.090
 2186SOL     OW 7456   0.518   6.030   1.869
 2186SOL    HW1 7457   0.590   5.970   1.835
 2186SOL    HW2 7458   0.459   6.058   1.793
 2187SOL     OW 7459   6.693   6.825   2.780
 2187SOL    HW1 7460   6.681   6.880   2.862
 2187SOL    HW2 7461   6.751   6.746   2.800
 2188SOL     OW 7462   0.138   6.142   4.740
 2188SOL    HW1 7463   0.229   6.182   4.731
 2188SOL    HW2 7464   0.074   6.211   4.772
 2189SOL     OW 7465   1.559   6.540   0.530
 2189SOL    HW1 7466   1.572   6.443   0.509
 2189SOL    HW2 7467   1.621   6.595   0.474
 2190SOL     OW 7468   0.081   3.619   1.972
 2190SOL    HW1 7469   0.169   3.643   1.931
 2190SOL    HW2 7470   0.031   3.702   1.995
 2191SOL     OW 7471   3.082   2.145   6.772
 2191SOL    HW1 7472   3.144   2.073   6.804
 2191SOL    HW2 7473   3.056   2.127   6.678
 2192SOL     OW 7474   5.096   1.074   2.173
 2192SOL    HW1 7475   5.048   1.112   2.094
 2192SOL    HW2 7476   5.186   1.117   2.181
 2193SOL     OW 7477   5.535   5.478   6.666
 2193SOL    HW1 7478   5.531   5.470   6.566
 2193SOL    HW2 7479   5.507   5.391   6.707
 2194SOL     OW 7480   2.507   4.481   5.692
 2194SOL    HW1 7481   2.576   4.525   5.635
 2194SOL    HW2 7482   2.461   4.409   5.640
 2195SOL     OW 7483   0.189   0.506   4.997
 2195SOL    HW1 7484   0.165   0.601   4.977
 2195SOL    HW2 7485   0.288   0.499   5.012
 2196SOL     OW 7486   2.889   6.787   5.332
 2196SOL    HW1 7487   2.886   6.887   5.325
 2196SOL    HW2 7488   2.980   6.754   5.304
 2197SOL     OW 7489   3.344   3.810   0.379
 2197SOL    HW1 7490   3.428   3.854   0.410
 2197SOL    HW2 7491   3.344   3.714   0.406
 2198SOL     OW 7492   5.368   1.266   0.314
 2198SOL    HW1 7493   5.290   1.330   0.317
 2198SOL    HW2 7494   5.335   1.175   0.290
 2199SOL     OW 7495   4.737   1.049   3.424
 2199SOL    HW1 7496   4.812   0.994   3.386
 2199SOL    HW2 7497   4.694   1.102   3.351
 2200SOL     OW 7498   2.754   1.506   5.387
 2200SOL    HW1 7499   2.725   1.590   5.432
 2200SOL    HW2 7500   2.837   1.523   5.334
 2201SOL     OW 7501   6.666   2.907   3.017
 2201SOL    HW1 7502   6.717   2.873   2.937
 2201SOL    HW2 7503   6.629   2.997   2.997
 2202SOL     OW 7504   2.777   5.603   2.203
 2202SOL    HW1 7505   2.741   5.696   2.211
 2202SOL    HW2 7506   2.781   5.577   2.106
 2203SOL     OW 7507   1.713   2.169   1.175
 2203SOL    HW1 7508   1.792   2.117   1.208
 2203SOL    HW2 7509   1.743   2.261   1.149
 2204SOL     OW 7510   3.989   1.421   1.569
 2204SOL    HW1 7511   3.900   1.463   1.552
 2204SOL    HW2 7512   3.976   1.329   1.607
 2205SOL     OW 7513   0.257   0.036   6.027
 2205SOL    HW1 7514   0.185   0.014   5.962
 2205SOL    HW2 7515   0.219   0.038   6.120
 2206SOL     OW 7516   3.600   4.759   6.602
 2206SOL    HW1 7517   3.693   4.754   6.640
 2206SOL    HW2 7518   3.588   4.685   6.535
 2207SOL     OW 7519   2.932   4.762   6.357
 2207SOL    HW1 7520   2.944   4.667   6.387
 2207SOL    HW2 7521   2.941   4.767   6.258
 2208SOL     OW 7522   1.469   6.391   2.950
 2208SOL    HW1 7523   1.535   6.338   2.897
 2208SOL    HW2 7524   1.517   6.453   3.011
 2209SOL     OW 7525   1.421   6.299   5.375
 2209SOL    HW1 7526   1.437   6.295   5.474
 2209SOL    HW2 7527   1.471   6.377   5.337
 2210SOL     OW 7528   6.662   4.906   4.390
 2210SOL    HW1 7529   6.741   4.891   4.450
 2210SOL    HW2 7530   6.593   4.836   4.408
 2211SOL     OW 7531   5.916   0.418   1.050
 2211SOL    HW1 7532   5.983   0.393   0.980
 2211SOL    HW2 7533   5.895   0.338   1.106
 2212SOL     OW 7534   2.146   6.107   6.830
 2212SOL    HW1 7535   2.059   6.059   6.833
 2212SOL    HW2 7536   2.146   6.181   6.897
 2213SOL     OW 7537   3.420   2.366   5.648
 2213SOL    HW1 7538   3.452   2.334   5.737
 2213SOL    HW2 7539   3.331   2.410   5.658
 2214SOL     OW 7540   3.670   3.050   5.192
 2214SOL    HW1 7541   3.747   2.997   5.155
 2214SOL    HW2 7542   3.632   3.108   5.121
 2215SOL     OW 7543   6.121   0.998   0.428
 2215SOL    HW1 7544   6.037   1.051   0.443
 2215SOL    HW2 7545   6.185   1.052   0.374
 2216SOL     OW 7546   1.688   0.716   6.114
 2216SOL    HW1 7547   1.783   0.724   6.084
 2216SOL    HW2 7548   1.640   0.650   6.056
 2217SOL     OW 7549   4.142   6.963   1.483
 2217SOL    HW1 7550   4.055   7.007   1.460
 2217SOL    HW2 7551   4.190   7.018   1.551
 2218SOL     OW 7552   0.069   5.886   0.161
 2218SOL    HW1 7553   0.079   5.943   0.079
 2218SOL    HW2 7554   7.004   5.841   0.160
 2219SOL     OW 7555   5.351   1.917   1.745
 2219SOL    HW1 7556   5.338   2.003   1.794
 2219SOL    HW2 7557   5.448   1.893   1.745
 2220SOL     OW 7558   1.812   0.395   4.986
 2220SOL    HW1 7559   1.764   0.414   4.901
 2220SOL    HW2 7560   1.837   0.481   5.031
 2221SOL     OW 7561   6.170   1.022   5.451
 2221SOL    HW1 7562   6.093   1.003   5.389
 2221SOL    HW2 7563   6.236   0.947   5.444
 2222SOL     OW 7564   5.039   1.013   0.398
 2222SOL    HW1 7565   5.013   1.060   0.483
 2222SOL    HW2 7566   4.958   1.001   0.341
 2223SOL     OW 7567   5.788   1.055   5.174
 2223SOL    HW1 7568   5.844   1.017   5.248
 2223SOL    HW2 7569   5.749   1.143   5.204
 2224SOL     OW 7570   0.551   3.521   0.519
 2224SOL    HW1 7571   0.457   3.495   0.543
 2224SOL    HW2 7572   0.564   3.515   0.421
 2225SOL     OW 7573   6.612   6.407   3.278
 2225SOL    HW1 7574   6.531   6.425   3.222
 2225SOL    HW2 7575   6.682   6.363   3.222
 2226SOL     OW 7576   3.994   5.067   0.863
 2226SOL    HW1 7577   4.046   5.031   0.786
 2226SOL    HW2 7578   3.906   5.019   0.869
 2227SOL     OW 7579   5.396   3.623   6.789
 2227SOL    HW1 7580   5.370   3.550   6.725
 2227SOL    HW2 7581   5.381   3.592   6.883
 2228SOL     OW 7582   3.124   4.678   0.723
 2228SOL    HW1 7583   3.071   4.640   0.648
 2228SOL    HW2 7584   3.185   4.749   0.689
 2229SOL     OW 7585   4.493   2.549   4.854
 2229SOL    HW1 7586   4.461   2.566   4.947
 2229SOL    HW2 7587   4.531   2.634   4.816
 2230SOL     OW 7588   5.810   6.197   0.244
 2230SOL    HW1 7589   5.857   6.109   0.239
 2230SOL    HW2 7590   5.717   6.188   0.208
 2231SOL     OW 7591   0.319   0.726   1.813
 2231SOL    HW1 7592   0.352   0.698   1.903
 2231SOL    HW2 7593   0.234   0.778   1.822
 2232SOL     OW 7594   0.652   2.822   4.992
 2232SOL    HW1 7595   0.693   2.908   5.024
 2232SOL    HW2 7596   0.713   2.746   5.017
 2233SOL     OW 7597   2.154   3.797   0.154
 2233SOL    HW1 7598   2.151   3.704   0.117
 2233SOL    HW2 7599   2.093   3.856   0.100
 2234SOL     OW 7600   4.168   1.761   1.784
 2234SOL    HW1 7601   4.261   1.796   1.798
 2234SOL    HW2 7602   4.108   1.797   1.855
 2235SOL     OW 7603   2.937   0.112   1.140
 2235SOL    HW1 7604   2.902   0.192   1.092
 2235SOL    HW2 7605   2.906   0.029   1.094
 2236SOL     OW 7606   1.914   4.669   6.103
 2236SOL    HW1 7607   1.908   4.579   6.059
 2236SOL    HW2 7608   1.824   4.697   6.135
 2237SOL     OW 7609   6.043   4.926   4.018
 2237SOL    HW1 7610   5.945   4.922   3.998
 2237SOL    HW2 7611   6.069   4.848   4.075
 2238SOL     OW 7612   5.134   4.832   1.705
 2238SOL    HW1 7613   5.130   4.912   1.645
 2238SOL    HW2 7614   5.062   4.767   1.681
 2239SOL     OW 7615   4.145   4.996   3.579
 2239SOL    HW1 7616   4.129   4.899   3.563
 2239SOL    HW2 7617   4.209   5.008   3.655
 2240SOL     OW 7618   5.008   5.694   3.613
 2240SOL    HW1 7619   5.014   5.648   3.524
 2240SOL    HW2 7620   5.031   5.791   3.603
 2241SOL     OW 7621   0.450   6.093   3.266
 2241SOL    HW1 7622   0.530   6.032   3.258
 2241SOL    HW2 7623   0.454   6.140   3.354
 2242SOL     OW 7624   5.365   2.350   2.695
 2242SOL    HW1 7625   5.432   2.409   2.650
 2242SOL    HW2 7626   5.280   2.350   2.642
 2243SOL     OW 7627   1.464   6.698   6.232
 2243SOL    HW1 7628   1.441   6.770   6.297
 2243SOL    HW2 7629   1.561   6.703   6.209
 2244SOL     OW 7630   1.644   0.015   1.734
 2244SOL    HW1 7631   1.609   6.984   1.810
 2244SOL    HW2 7632   1.701   6.982   1.675
 2245SOL     OW 7633   0.394   2.042   1.199
 2245SOL    HW1 7634   0.461   2.081   1.136
 2245SOL    HW2 7635   0.363   2.112   1.262
 2246SOL     OW 7636   0.824   2.184   5.077
 2246SOL    HW1 7637   0.774   2.162   5.161
 2246SOL    HW2 7638   0.760   2.223   5.011
 2247SOL     OW 7639   3.396   3.230   4.166
 2247SOL    HW1 7640   3.459   3.267   4.234
 2247SOL    HW2 7641   3.337   3.161   4.208
 2248SOL     OW 7642   4.970   3.900   5.382
 2248SOL    HW1 7643   5.043   3.893   5.315
 2248SOL    HW2 7644   4.894   3.952   5.343
 2249SOL     OW 7645   6.430   6.198   2.992
 2249SOL    HW1 7646   6.378   6.174   3.074
 2249SOL    HW2 7647   6.383   6.163   2.911
 2250SOL     OW 7648   4.635   3.671   6.101
 2250SOL    HW1 7649   4.634   3.763   6.140
 2250SOL    HW2 7650   4.719   3.658   6.049
 2251SOL     OW 7651   5.244   0.810   6.789
 2251SOL    HW1 7652   5.341   0.796   6.807
 2251SOL    HW2 7653   5.202   0.854   6.868
 2252SOL     OW 7654   4.786   3.006   2.574
 2252SOL    HW1 7655   4.809   2.937   2.643
 2252SOL    HW2 7656   4.713   2.971   2.515
 2253SOL     OW 7657   1.086   3.559   6.563
 2253SOL    HW1 7658   1.029   3.563   6.645
 2253SOL    HW2 7659   1.073   3.643   6.510
 2254SOL     OW 7660   3.778   2.972   5.589
 2254SOL    HW1 7661   3.873   2.957   5.559
 2254SOL    HW2 7662   3.729   3.025   5.520
 2255SOL     OW 7663   4.347   2.798   6.561
 2255SOL    HW1 7664   4.402   2.715   6.567
 2255SOL    HW2 7665   4.344   2.842   6.650
 2256SOL     OW 7666   5.231   5.715   1.273
 2256SOL    HW1 7667   5.238   5.784   1.200
 2256SOL    HW2 7668   5.206   5.759   1.359
 2257SOL     OW 7669   6.863   2.252   4.073
 2257SOL    HW1 7670   6.928   2.267   3.999
 2257SOL    HW2 7671   6.895   2.176   4.130
 2258SOL     OW 7672   0.753   5.296   5.755
 2258SOL    HW1 7673   0.759   5.303   5.655
 2258SOL    HW2 7674   0.824   5.233   5.788
 2259SOL     OW 7675   5.544   3.642   6.565
 2259SOL    HW1 7676   5.498   3.628   6.653
 2259SOL    HW2 7677   5.617   3.708   6.576
 2260SOL     OW 7678   6.361   4.258   2.202
 2260SOL    HW1 7679   6.421   4.336   2.186
 2260SOL    HW2 7680   6.316   4.232   2.117
 2261SOL     OW 7681   6.728   6.130   6.993
 2261SOL    HW1 7682   6.753   6.195   6.921
 2261SOL    HW2 7683   6.778   6.153   0.052
 2262SOL     OW 7684   5.946   1.299   2.777
 2262SOL    HW1 7685   5.861   1.323   2.729
 2262SOL    HW2 7686   5.971   1.374   2.838
 2263SOL     OW 7687   3.650   5.649   6.790
 2263SOL    HW1 7688   3.638   5.552   6.811
 2263SOL    HW2 7689   3.679   5.659   6.694
 2264SOL     OW 7690   2.509   4.385   0.311
 2264SOL    HW1 7691   2.565   4.334   0.246
 2264SOL    HW2 7692   2.541   4.480   0.316
 2265SOL     OW 7693   0.620   1.184   4.699
 2265SOL    HW1 7694   0.637   1.148   4.607
 2265SOL    HW2 7695   0.707   1.187   4.750
 2266SOL     OW 7696   5.121   2.038   0.224
 2266SOL    HW1 7697   5.197   2.100   0.245
 2266SOL    HW2 7698   5.054   2.043   0.298
 2267SOL     OW 7699   5.350   2.712   4.942
 2267SOL    HW1 7700   5.437   2.740   4.901
 2267SOL    HW2 7701   5.319   2.628   4.899
 2268SOL     OW 7702   6.338   3.432   6.988
 2268SOL    HW1 7703   6.292   3.393   6.909
 2268SOL    HW2 7704   6.387   3.515   6.960
 2269SOL     OW 7705   5.801   5.519   5.037
 2269SOL    HW1 7706   5.870   5.577   5.079
 2269SOL    HW2 7707   5.778   5.554   4.946
 2270SOL     OW 7708   2.943   2.610   5.886
 2270SOL    HW1 7709   2.870   2.675   5.866
 2270SOL    HW2 7710   2.947   2.542   5.813
 2271SOL     OW 7711   5.863   3.841   0.895
 2271SOL    HW1 7712   5.848   3.786   0.978
 2271SOL    HW2 7713   5.961   3.849   0.878
 2272SOL     OW 7714   6.240   2.325   5.817
 2272SOL    HW1 7715   6.316   2.354   5.875
 2272SOL    HW2 7716   6.172   2.277   5.872
 2273SOL     OW 7717   1.703   0.631   2.009
 2273SOL    HW1 7718   1.748   0.604   1.924
 2273SOL    HW2 7719   1.668   0.724   2.000
 2274SOL     OW 7720   6.962   2.476   6.629
 2274SOL    HW1 7721   6.935   2.570   6.612
 2274SOL    HW2 7722   6.881   2.418   6.634
 2275SOL     OW 7723   5.853   0.677   4.340
 2275SOL    HW1 7724   5.837   0.579   4.351
 2275SOL    HW2 7725   5.858   0.720   4.430
 2276SOL     OW 7726   2.758   5.155   0.661
 2276SOL    HW1 7727   2.766   5.078   0.597
 2276SOL    HW2 7728   2.661   5.168   0.685
 2277SOL     OW 7729   4.111   3.691   4.794
 2277SOL    HW1 7730   4.138   3.603   4.756
 2277SOL    HW2 7731   4.138   3.697   4.890
 2278SOL     OW 7732   6.660   5.034   4.149
 2278SOL    HW1 7733   6.710   5.119   4.165
 2278SOL    HW2 7734   6.643   4.989   4.236
 2279SOL     OW 7735   5.196   6.158   4.641
 2279SOL    HW1 7736   5.244   6.119   4.720
 2279SOL    HW2 7737   5.187   6.257   4.653
 2280SOL     OW 7738   6.748   6.916   4.221
 2280SOL    HW1 7739   6.728   6.822   4.194
 2280SOL    HW2 7740   6.741   6.925   4.320
 2281SOL     OW 7741   3.430   1.816   2.228
 2281SOL    HW1 7742   3.472   1.766   2.153
 2281SOL    HW2 7743   3.398   1.905   2.195
 2282SOL     OW 7744   5.014   0.443   4.677
 2282SOL    HW1 7745   5.071   0.362   4.691
 2282SOL    HW2 7746   5.043   0.490   4.594
 2283SOL     OW 7747   0.490   4.639   1.773
 2283SOL    HW1 7748   0.450   4.547   1.769
 2283SOL    HW2 7749   0.427   4.701   1.820
 2284SOL     OW 7750   1.365   2.328   6.381
 2284SOL    HW1 7751   1.399   2.242   6.344
 2284SOL    HW2 7752   1.366   2.398   6.309
 2285SOL     OW 7753   2.610   2.132   0.580
 2285SOL    HW1 7754   2.661   2.169   0.657
 2285SOL    HW2 7755   2.591   2.205   0.514
 2286SOL     OW 7756   6.928   0.584   4.343
 2286SOL    HW1 7757   6.914   0.528   4.261
 2286SOL    HW2 7758   6.953   0.677   4.316
 2287SOL     OW 7759   1.528   1.286   3.009
 2287SOL    HW1 7760   1.494   1.365   3.059
 2287SOL    HW2 7761   1.463   1.210   3.019
 2288SOL     OW 7762   6.311   5.433   4.603
 2288SOL    HW1 7763   6.261   5.346   4.596
 2288SOL    HW2 7764   6.409   5.415   4.601
 2289SOL     OW 7765   0.460   4.959   1.766
 2289SOL    HW1 7766   0.458   4.998   1.674
 2289SOL    HW2 7767   0.545   4.987   1.812
 2290SOL     OW 7768   1.286   4.616   1.652
 2290SOL    HW1 7769   1.340   4.611   1.568
 2290SOL    HW2 7770   1.275   4.712   1.678
 2291SOL     OW 7771   2.667   2.436   6.792
 2291SOL    HW1 7772   2.722   2.353   6.798
 2291SOL    HW2 7773   2.607   2.430   6.712
 2292SOL     OW 7774   5.850   2.118   4.940
 2292SOL    HW1 7775   5.896   2.132   5.027
 2292SOL    HW2 7776   5.913   2.138   4.865
 2293SOL     OW 7777   5.339   6.977   1.294
 2293SOL    HW1 7778   5.349   6.879   1.304
 2293SOL    HW2 7779   5.376   7.023   1.374
 2294SOL     OW 7780   3.110   1.162   6.372
 2294SOL    HW1 7781   3.036   1.199   6.317
 2294SOL    HW2 7782   3.112   1.062   6.363
 2295SOL     OW 7783   0.493   2.017   2.968
 2295SOL    HW1 7784   0.501   2.003   3.067
 2295SOL    HW2 7785   0.477   2.113   2.949
 2296SOL     OW 7786   3.867   5.589   1.627
 2296SOL    HW1 7787   3.841   5.506   1.579
 2296SOL    HW2 7788   3.967   5.596   1.632
 2297SOL     OW 7789   4.788   4.806   5.744
 2297SOL    HW1 7790   4.851   4.785   5.669
 2297SOL    HW2 7791   4.829   4.875   5.803
 2298SOL     OW 7792   4.105   3.436   1.503
 2298SOL    HW1 7793   4.074   3.343   1.488
 2298SOL    HW2 7794   4.143   3.445   1.595
 2299SOL     OW 7795   4.528   5.003   5.216
 2299SOL    HW1 7796   4.601   5.070   5.207
 2299SOL    HW2 7797   4.474   5.001   5.131
 2300SOL     OW 7798   2.439   6.128   1.998
 2300SOL    HW1 7799   2.520   6.186   1.997
 2300SOL    HW2 7800   2.433   6.081   2.087
 2301SOL     OW 7801   3.286   2.987   2.783
 2301SOL    HW1 7802   3.228   3.017   2.859
 2301SOL    HW2 7803   3.352   2.920   2.817
 2302SOL     OW 7804   3.751   6.917   0.908
 2302SOL    HW1 7805   3.694   6.877   0.836
 2302SOL    HW2 7806   3.734   7.016   0.912
 2303SOL     OW 7807   2.517   3.354   6.463
 2303SOL    HW1 7808   2.558   3.377   6.552
 2303SOL    HW2 7809   2.578   3.385   6.390
 2304SOL     OW 7810   4.771   7.002   3.528
 2304SOL    HW1 7811   4.749   0.042   3.455
 2304SOL    HW2 7812   4.688   6.977   3.578
 2305SOL     OW 7813   2.391   6.933   2.312
 2305SOL    HW1 7814   2.305   6.885   2.291
 2305SOL    HW2 7815   2.371   0.005   2.331
 2306SOL     OW 7816   2.715   5.076   1.892
 2306SOL    HW1 7817   2.689   5.025   1.809
 2306SOL    HW2 7818   2.664   5.041   1.970
 2307SOL     OW 7819   6.652   3.854   3.214
 2307SOL    HW1 7820   6.682   3.935   3.164
 2307SOL    HW2 7821   6.617   3.881   3.303
 2308SOL     OW 7822   1.506   5.387   1.533
 2308SOL    HW1 7823   1.456   5.302   1.518
 2308SOL    HW2 7824   1.558   5.381   1.618
 2309SOL     OW 7825   1.869   0.823   6.379
 2309SOL    HW1 7826   1.783   0.858   6.417
 2309SOL    HW2 7827   1.905   0.888   6.313
 2310SOL     OW 7828   5.071   6.409   0.595
 2310SOL    HW1 7829   4.994   6.457   0.552
 2310SOL    HW2 7830   5.125   6.365   0.524
 2311SOL     OW 7831   1.816   6.408   1.226
 2311SOL    HW1 7832   1.740   6.394   1.163
 2311SOL    HW2 7833   1.867   6.490   1.200
 2312SOL     OW 7834   4.128   6.399   2.670
 2312SOL    HW1 7835   4.138   6.299   2.667
 2312SOL    HW2 7836   4.218   6.441   2.655
 2313SOL     OW 7837   6.131   6.150   1.219
 2313SOL    HW1 7838   6.219   6.145   1.264
 2313SOL    HW2 7839   6.131   6.091   1.138
 2314SOL     OW 7840   6.067   6.925   4.208
 2314SOL    HW1 7841   6.084   6.833   4.173
 2314SOL    HW2 7842   5.972   6.952   4.190
 2315SOL     OW 7843   4.871   3.319   6.434
 2315SOL    HW1 7844   4.851   3.327   6.532
 2315SOL    HW2 7845   4.829   3.235   6.398
 2316SOL     OW 7846   3.554   1.309   4.258
 2316SOL    HW1 7847   3.609   1.375   4.309
 2316SOL    HW2 7848   3.585   1.216   4.278
 2317SOL     OW 7849   0.525   6.508   3.403
 2317SOL    HW1 7850   0.473   6.515   3.319
 2317SOL    HW2 7851   0.527   6.598   3.449
 2318SOL     OW 7852   1.700   3.047   4.419
 2318SOL    HW1 7853   1.697   3.146   4.408
 2318SOL    HW2 7854   1.787   3.022   4.462
 2319SOL     OW 7855   2.390   4.681   4.052
 2319SOL    HW1 7856   2.440   4.723   3.976
 2319SOL    HW2 7857   2.294   4.670   4.027
 2320SOL     OW 7858   1.148   2.116   4.730
 2320SOL    HW1 7859   1.231   2.146   4.682
 2320SOL    HW2 7860   1.149   2.153   4.823
 2321SOL     OW 7861   2.339   0.327   0.066
 2321SOL    HW1 7862   2.316   0.330   0.164
 2321SOL    HW2 7863   2.283   0.394   0.017
 2322SOL     OW 7864   2.632   1.377   4.015
 2322SOL    HW1 7865   2.644   1.365   4.114
 2322SOL    HW2 7866   2.645   1.289   3.969
 2323SOL     OW 7867   2.972   5.159   1.875
 2323SOL    HW1 7868   2.978   5.170   1.776
 2323SOL    HW2 7869   2.880   5.128   1.899
 2324SOL     OW 7870   6.442   6.860   1.528
 2324SOL    HW1 7871   6.510   6.934   1.527
 2324SOL    HW2 7872   6.393   6.861   1.615
 2325SOL     OW 7873   1.327   5.308   1.859
 2325SOL    HW1 7874   1.425   5.294   1.843
 2325SOL    HW2 7875   1.275   5.266   1.784
 2326SOL     OW 7876   2.838   5.710   5.793
 2326SOL    HW1 7877   2.843   5.804   5.827
 2326SOL    HW2 7878   2.931   5.673   5.784
 2327SOL     OW 7879   7.008   2.394   3.886
 2327SOL    HW1 7880   0.072   2.378   3.930
 2327SOL    HW2 7881   7.020   2.396   3.787
 2328SOL     OW 7882   3.244   2.111   2.623
 2328SOL    HW1 7883   3.202   2.201   2.627
 2328SOL    HW2 7884   3.202   2.057   2.550
 2329SOL     OW 7885   1.205   3.650   5.217
 2329SOL    HW1 7886   1.146   3.622   5.293
 2329SOL    HW2 7887   1.243   3.740   5.236
 2330SOL     OW 7888   0.897   4.082   1.451
 2330SOL    HW1 7889   0.945   3.997   1.432
 2330SOL    HW2 7890   0.807   4.079   1.407
 2331SOL     OW 7891   5.885   4.451   1.225
 2331SOL    HW1 7892   5.820   4.407   1.163
 2331SOL    HW2 7893   5.899   4.546   1.197
 2332SOL     OW 7894   4.828   1.947   5.061
 2332SOL    HW1 7895   4.860   2.041   5.046
 2332SOL    HW2 7896   4.741   1.933   5.014
 2333SOL     OW 7897   0.538   5.102   2.916
 2333SOL    HW1 7898   0.571   5.081   3.008
 2333SOL    HW2 7899   0.439   5.112   2.917
 2334SOL     OW 7900   2.443   6.859   0.112
 2334SOL    HW1 7901   2.454   6.956   0.091
 2334SOL    HW2 7902   2.532   6.814   0.107
 2335SOL     OW 7903   6.058   1.076   2.897
 2335SOL    HW1 7904   6.037   1.159   2.846
 2335SOL    HW2 7905   6.102   1.100   2.984
 2336SOL     OW 7906   4.360   2.225   5.029
 2336SOL    HW1 7907   4.296   2.301   5.013
 2336SOL    HW2 7908   4.451   2.262   5.051
 2337SOL     OW 7909   4.484   0.784   3.079
 2337SOL    HW1 7910   4.547   0.706   3.077
 2337SOL    HW2 7911   4.435   0.785   3.167
 2338SOL     OW 7912   1.453   2.023   6.000
 2338SOL    HW1 7913   1.489   1.930   6.008
 2338SOL    HW2 7914   1.466   2.055   5.906
 2339SOL     OW 7915   3.964   3.913   4.796
 2339SOL    HW1 7916   3.998   3.970   4.722
 2339SOL    HW2 7917   4.007   3.822   4.791
 2340SOL     OW 7918   5.538   4.492   6.948
 2340SOL    HW1 7919   5.530   4.422   6.878
 2340SOL    HW2 7920   5.596   4.459   7.022
 2341SOL     OW 7921   5.203   4.290   1.115
 2341SOL    HW1 7922   5.142   4.299   1.194
 2341SOL    HW2 7923   5.291   4.254   1.146
 2342SOL     OW 7924   0.471   6.585   5.098
 2342SOL    HW1 7925   0.428   6.509   5.147
 2342SOL    HW2 7926   0.401   6.647   5.064
 2343SOL     OW 7927   2.248   6.261   2.690
 2343SOL    HW1 7928   2.267   6.341   2.747
 2343SOL    HW2 7929   2.223   6.184   2.749
 2344SOL     OW 7930   1.586   0.914   1.200
 2344SOL    HW1 7931   1.612   1.006   1.170
 2344SOL    HW2 7932   1.518   0.876   1.138
 2345SOL     OW 7933   3.561   5.761   5.638
 2345SOL    HW1 7934   3.607   5.691   5.691
 2345SOL    HW2 7935   3.549   5.730   5.544
 2346SOL     OW 7936   4.932   2.629   4.875
 2346SOL    HW1 7937   4.919   2.598   4.969
 2346SOL    HW2 7938   4.844   2.658   4.836
 2347SOL     OW 7939   2.563   3.580   1.721
 2347SOL    HW1 7940   2.540   3.671   1.688
 2347SOL    HW2 7941   2.480   3.532   1.749
 2348SOL     OW 7942   3.403   6.357   3.286
 2348SOL    HW1 7943   3.496   6.368   3.249
 2348SOL    HW2 7944   3.394   6.413   3.368
 2349SOL     OW 7945   0.484   4.704   6.017
 2349SOL    HW1 7946   0.415   4.763   6.059
 2349SOL    HW2 7947   0.444   4.653   5.942
 2350SOL     OW 7948   5.137   6.761   6.303
 2350SOL    HW1 7949   5.091   6.781   6.389
 2350SOL    HW2 7950   5.136   6.842   6.245
 2351SOL     OW 7951   3.332   5.149   2.701
 2351SOL    HW1 7952   3.410   5.138   2.763
 2351SOL    HW2 7953   3.336   5.078   2.630
 2352SOL     OW 7954   1.225   4.130   2.169
 2352SOL    HW1 7955   1.164   4.052   2.159
 2352SOL    HW2 7956   1.204   4.199   2.100
 2353SOL     OW 7957   3.024   4.763   5.252
 2353SOL    HW1 7958   3.008   4.669   5.222
 2353SOL    HW2 7959   3.047   4.820   5.174
 2354SOL     OW 7960   2.890   1.846   6.080
 2354SOL    HW1 7961   2.909   1.750   6.060
 2354SOL    HW2 7962   2.793   1.856   6.105
 2355SOL     OW 7963   1.163   5.482   6.737
 2355SOL    HW1 7964   1.227   5.469   6.661
 2355SOL    HW2 7965   1.117   5.395   6.756
 2356SOL     OW 7966   2.383   3.943   0.498
 2356SOL    HW1 7967   2.420   4.010   0.434
 2356SOL    HW2 7968   2.292   3.915   0.467
 2357SOL     OW 7969   4.388   5.444   3.669
 2357SOL    HW1 7970   4.319   5.406   3.608
 2357SOL    HW2 7971   4.402   5.381   3.746
 2358SOL     OW 7972   2.755   5.184   5.475
 2358SOL    HW1 7973   2.777   5.173   5.378
 2358SOL    HW2 7974   2.810   5.257   5.514
 2359SOL     OW 7975   6.894   0.760   5.955
 2359SOL    HW1 7976   6.939   0.677   5.922
 2359SOL    HW2 7977   6.957   0.810   6.014
 2360SOL     OW 7978   5.302   6.263   5.616
 2360SOL    HW1 7979   5.328   6.190   5.679
 2360SOL    HW2 7980   5.208   6.292   5.635
 2361SOL     OW 7981   2.715   0.785   5.406
 2361SOL    HW1 7982   2.798   0.810   5.455
 2361SOL    HW2 7983   2.639   0.775   5.471
 2362SOL     OW 7984   2.712   0.702   5.145
 2362SOL    HW1 7985   2.811   0.705   5.134
 2362SOL    HW2 7986   2.687   0.745   5.232
 2363SOL     OW 7987   3.901   2.698   5.641
 2363SOL    HW1 7988   3.873   2.684   5.546
 2363SOL    HW2 7989   3.821   2.719   5.697
 2364SOL     OW 7990   0.531   2.580   3.099
 2364SOL    HW1 7991   0.545   2.491   3.055
 2364SOL    HW2 7992   0.438   2.611   3.082
 2365SOL     OW 7993   6.214   2.092   5.607
 2365SOL    HW1 7994   6.275   2.118   5.682
 2365SOL    HW2 7995   6.196   2.172   5.550
 2366SOL     OW 7996   1.630   4.389   5.893
 2366SOL    HW1 7997   1.716   4.419   5.934
 2366SOL    HW2 7998   1.604   4.452   5.820
 2367SOL     OW 7999   3.855   3.846   6.991
 2367SOL    HW1 8000   3.790   3.864   6.917
 2367SOL    HW2 8001   3.823   3.889   0.051
 2368SOL     OW 8002   5.142   0.196   3.418
 2368SOL    HW1 8003   5.220   0.235   3.468
 2368SOL    HW2 8004   5.078   0.268   3.395
 2369SOL     OW 8005   1.846   2.716   5.227
 2369SOL    HW1 8006   1.931   2.711   5.281
 2369SOL    HW2 8007   1.824   2.812   5.208
 2370SOL     OW 8008   4.869   3.879   6.853
 2370SOL    HW1 8009   4.931   3.954   6.875
 2370SOL    HW2 8010   4.781   3.916   6.822
 2371SOL     OW 8011   0.952   6.161   1.464
 2371SOL    HW1 8012   0.909   6.071   1.463
 2371SOL    HW2 8013   0.986   6.181   1.556
 2372SOL     OW 8014   0.525   2.075   1.482
 2372SOL    HW1 8015   0.435   2.071   1.526
 2372SOL    HW2 8016   0.595   2.044   1.546
 2373SOL     OW 8017   6.849   6.986   0.080
 2373SOL    HW1 8018   6.774   6.976   0.144
 2373SOL    HW2 8019   6.930   7.020   0.129
 2374SOL     OW 8020   6.135   0.763   4.201
 2374SOL    HW1 8021   6.206   0.701   4.166
 2374SOL    HW2 8022   6.065   0.709   4.248
 2375SOL     OW 8023   1.918   6.359   4.750
 2375SOL    HW1 8024   1.874   6.304   4.821
 2375SOL    HW2 8025   1.885   6.454   4.758
 2376SOL     OW 8026   5.529   2.075   4.135
 2376SOL    HW1 8027   5.579   2.034   4.211
 2376SOL    HW2 8028   5.456   2.013   4.105
 2377SOL     OW 8029   3.636   4.152   2.830
 2377SOL    HW1 8030   3.718   4.138   2.885
 2377SOL    HW2 8031   3.565   4.087   2.857
 2378SOL     OW 8032   5.003   2.298   6.827
 2378SOL    HW1 8033   5.045   2.341   6.747
 2378SOL    HW2 8034   4.922   2.350   6.853
 2379SOL     OW 8035   6.855   1.777   6.773
 2379SOL    HW1 8036   6.856   1.831   6.857
 2379SOL    HW2 8037   6.902   1.690   6.789
 2380SOL     OW 8038   7.012   6.598   5.693
 2380SOL    HW1 8039   6.932   6.657   5.703
 2380SOL    HW2 8040   6.999   6.537   5.615
 2381SOL     OW 8041   2.287   4.104   4.169
 2381SOL    HW1 8042   2.286   4.187   4.113
 2381SOL    HW2 8043   2.228   4.035   4.127
 2382SOL     OW 8044   2.429   5.281   3.474
 2382SOL    HW1 8045   2.348   5.225   3.487
 2382SOL    HW2 8046   2.409   5.376   3.500
 2383SOL     OW 8047   5.347   6.320   0.134
 2383SOL    HW1 8048   5.279   6.360   0.196
 2383SOL    HW2 8049   5.302   6.293   0.049
 2384SOL     OW 8050   6.762   6.806   2.061
 2384SOL    HW1 8051   6.753   6.709   2.081
 2384SOL    HW2 8052   6.845   6.822   2.008
 2385SOL     OW 8053   6.107   6.824   1.366
 2385SOL    HW1 8054   6.022   6.829   1.315
 2385SOL    HW2 8055   6.117   6.732   1.406
 2386SOL     OW 8056   5.316   4.460   4.434
 2386SOL    HW1 8057   5.385   4.403   4.479
 2386SOL    HW2 8058   5.273   4.409   4.360
 2387SOL     OW 8059   0.287   2.065   3.330
 2387SOL    HW1 8060   0.337   2.130   3.273
 2387SOL    HW2 8061   0.340   1.981   3.338
 2388SOL     OW 8062   1.199   1.828   3.744
 2388SOL    HW1 8063   1.247   1.846   3.658
 2388SOL    HW2 8064   1.206   1.908   3.804
 2389SOL     OW 8065   5.634   3.531   3.509
 2389SOL    HW1 8066   5.687   3.453   3.544
 2389SOL    HW2 8067   5.540   3.502   3.492
 2390SOL     OW 8068   3.124   3.714   4.229
 2390SOL    HW1 8069   3.040   3.663   4.211
 2390SOL    HW2 8070   3.181   3.662   4.292
 2391SOL     OW 8071   4.436   4.023   5.603
 2391SOL    HW1 8072   4.460   3.957   5.674
 2391SOL    HW2 8073   4.520   4.063   5.566
 2392SOL     OW 8074   3.440   6.535   5.016
 2392SOL    HW1 8075   3.431   6.588   4.932
 2392SOL    HW2 8076   3.532   6.548   5.054
 2393SOL     OW 8077   4.417   4.709   0.283
 2393SOL    HW1 8078   4.341   4.766   0.251
 2393SOL    HW2 8079   4.451   4.653   0.208
 2394SOL     OW 8080   1.407   3.210   4.487
 2394SOL    HW1 8081   1.478   3.259   4.436
 2394SOL    HW2 8082   1.353   3.275   4.540
 2395SOL     OW 8083   6.108   2.382   0.171
 2395SOL    HW1 8084   6.112   2.285   0.194
 2395SOL    HW2 8085   6.199   2.422   0.180
 2396SOL     OW 8086   4.113   5.643   0.730
 2396SOL    HW1 8087   4.031   5.643   0.672
 2396SOL    HW2 8088   4.103   5.714   0.800
 2397SOL     OW 8089   0.408   3.570   0.062
 2397SOL    HW1 8090   0.327   3.561   0.120
 2397SOL    HW2 8091   0.391   3.641   7.017
 2398SOL     OW 8092   3.414   4.324   6.151
 2398SOL    HW1 8093   3.411   4.402   6.089
 2398SOL    HW2 8094   3.333   4.267   6.137
 2399SOL     OW 8095   5.294   1.539   2.664
 2399SOL    HW1 8096   5.345   1.453   2.674
 2399SOL    HW2 8097   5.281   1.558   2.566
 2400SOL     OW 8098   4.473   4.977   0.060
 2400SOL    HW1 8099   4.380   4.947   0.084
 2400SOL    HW2 8100   4.477   5.076   0.061
 2401SOL     OW 8101   4.087   0.637   6.576
 2401SOL    HW1 8102   4.112   0.565   6.641
 2401SOL    HW2 8103   4.044   0.596   6.496
 2402SOL     OW 8104   0.825   1.947   4.538
 2402SOL    HW1 8105   0.760   1.878   4.505
 2402SOL    HW2 8106   0.883   1.907   4.609
 2403SOL     OW 8107   2.854   2.503   0.354
 2403SOL    HW1 8108   2.937   2.540   0.312
 2403SOL    HW2 8109   2.854   2.404   0.346
 2404SOL     OW 8110   6.108   0.953   1.720
 2404SOL    HW1 8111   6.053   1.028   1.685
 2404SOL    HW2 8112   6.203   0.983   1.731
 2405SOL     OW 8113   3.418   3.474   3.622
 2405SOL    HW1 8114   3.458   3.463   3.713
 2405SOL    HW2 8115   3.323   3.441   3.624
 2406SOL     OW 8116   1.547   6.694   3.748
 2406SOL    HW1 8117   1.458   6.716   3.707
 2406SOL    HW2 8118   1.544   6.712   3.846
 2407SOL     OW 8119   5.559   2.470   2.569
 2407SOL    HW1 8120   5.611   2.384   2.564
 2407SOL    HW2 8121   5.612   2.538   2.620
 2408SOL     OW 8122   3.066   4.826   2.799
 2408SOL    HW1 8123   3.068   4.827   2.699
 2408SOL    HW2 8124   3.153   4.788   2.833
 2409SOL     OW 8125   1.767   2.809   1.531
 2409SOL    HW1 8126   1.789   2.783   1.625
 2409SOL    HW2 8127   1.842   2.784   1.470
 2410SOL     OW 8128   5.090   2.242   6.167
 2410SOL    HW1 8129   5.122   2.163   6.116
 2410SOL    HW2 8130   5.010   2.281   6.122
 2411SOL     OW 8131   4.810   5.275   5.537
 2411SOL    HW1 8132   4.737   5.233   5.590
 2411SOL    HW2 8133   4.781   5.287   5.443
 2412SOL     OW 8134   3.103   4.655   6.971
 2412SOL    HW1 8135   3.090   4.558   6.988
 2412SOL    HW2 8136   3.201   4.676   6.972
 2413SOL     OW 8137   6.375   2.409   0.228
 2413SOL    HW1 8138   6.460   2.461   0.230
 2413SOL    HW2 8139   6.365   2.358   0.314
 2414SOL     OW 8140   5.357   4.307   1.990
 2414SOL    HW1 8141   5.323   4.400   1.980
 2414SOL    HW2 8142   5.363   4.264   1.900
 2415SOL     OW 8143   0.952   6.608   1.034
 2415SOL    HW1 8144   1.044   6.582   1.004
 2415SOL    HW2 8145   0.909   6.531   1.081
 2416SOL     OW 8146   3.279   1.979   5.281
 2416SOL    HW1 8147   3.205   1.977   5.214
 2416SOL    HW2 8148   3.294   2.072   5.312
 2417SOL     OW 8149   4.246   2.881   6.338
 2417SOL    HW1 8150   4.243   2.981   6.344
 2417SOL    HW2 8151   4.283   2.844   6.423
 2418SOL     OW 8152   2.980   3.724   3.712
 2418SOL    HW1 8153   2.887   3.745   3.682
 2418SOL    HW2 8154   2.978   3.685   3.804
 2419SOL     OW 8155   0.662   6.490   3.747
 2419SOL    HW1 8156   0.572   6.521   3.715
 2419SOL    HW2 8157   0.727   6.493   3.672
 2420SOL     OW 8158   3.594   1.355   2.051
 2420SOL    HW1 8159   3.663   1.388   2.116
 2420SOL    HW2 8160   3.636   1.291   1.986
 2421SOL     OW 8161   2.688   1.090   5.363
 2421SOL    HW1 8162   2.768   1.101   5.304
 2421SOL    HW2 8163   2.673   0.993   5.381
 2422SOL     OW 8164   5.930   0.626   2.030
 2422SOL    HW1 8165   5.909   0.614   1.933
 2422SOL    HW2 8166   5.865   0.576   2.086
 2423SOL     OW 8167   1.512   6.027   3.658
 2423SOL    HW1 8168   1.447   6.076   3.716
 2423SOL    HW2 8169   1.593   6.003   3.710
 2424SOL     OW 8170   5.880   6.193   6.206
 2424SOL    HW1 8171   5.908   6.148   6.121
 2424SOL    HW2 8172   5.952   6.256   6.235
 2425SOL     OW 8173   6.164   0.163   4.252
 2425SOL    HW1 8174   6.226   0.165   4.331
 2425SOL    HW2 8175   6.144   0.068   4.229
 2426SOL     OW 8176   0.855   4.573   3.587
 2426SOL    HW1 8177   0.920   4.648   3.602
 2426SOL    HW2 8178   0.767   4.611   3.561
 2427SOL     OW 8179   5.924   5.081   6.780
 2427SOL    HW1 8180   5.884   5.059   6.691
 2427SOL    HW2 8181   5.865   5.145   6.829
 2428SOL     OW 8182   0.043   0.207   3.707
 2428SOL    HW1 8183   0.128   0.239   3.748
 2428SOL    HW2 8184   6.991   0.228   3.768
 2429SOL     OW 8185   6.558   5.960   4.675
 2429SOL    HW1 8186   6.653   5.992   4.668
 2429SOL    HW2 8187   6.545   5.916   4.764
 2430SOL     OW 8188   6.594   2.353   1.418
 2430SOL    HW1 8189   6.672   2.384   1.472
 2430SOL    HW2 8190   6.588   2.406   1.333
 2431SOL     OW 8191   3.332   0.265   1.916
 2431SOL    HW1 8192   3.392   0.215   1.979
 2431SOL    HW2 8193   3.258   0.206   1.886
 2432SOL     OW 8194   3.472   6.509   2.986
 2432SOL    HW1 8195   3.508   6.458   2.907
 2432SOL    HW2 8196   3.523   6.483   3.068
 2433SOL     OW 8197   3.409   6.332   0.937
 2433SOL    HW1 8198   3.319   6.313   0.976
 2433SOL    HW2 8199   3.477   6.337   1.011
 2434SOL     OW 8200   4.331   1.657   3.557
 2434SOL    HW1 8201   4.355   1.665   3.460
 2434SOL    HW2 8202   4.386   1.585   3.600
 2435SOL     OW 8203   4.780   5.704   5.695
 2435SOL    HW1 8204   4.832   5.740   5.772
 2435SOL    HW2 8205   4.739   5.779   5.644
 2436SOL     OW 8206   1.553   6.641   1.208
 2436SOL    HW1 8207   1.578   6.558   1.157
 2436SOL    HW2 8208   1.454   6.649   1.213
 2437SOL     OW 8209   3.890   6.066   1.013
 2437SOL    HW1 8210   3.855   6.065   1.106
 2437SOL    HW2 8211   3.835   6.128   0.957
 2438SOL     OW 8212   3.632   1.456   5.934
 2438SOL    HW1 8213   3.643   1.538   5.877
 2438SOL    HW2 8214   3.705   1.454   6.002
 2439SOL     OW 8215   1.583   4.499   0.125
 2439SOL    HW1 8216   1.575   4.407   0.164
 2439SOL    HW2 8217   1.561   4.567   0.195
 2440SOL     OW 8218   3.467   6.292   4.873
 2440SOL    HW1 8219   3.472   6.279   4.972
 2440SOL    HW2 8220   3.400   6.363   4.851
 2441SOL     OW 8221   6.608   0.453   0.179
 2441SOL    HW1 8222   6.607   0.367   0.228
 2441SOL    HW2 8223   6.577   0.438   0.085
 2442SOL     OW 8224   6.770   6.081   4.018
 2442SOL    HW1 8225   6.744   6.168   3.975
 2442SOL    HW2 8226   6.712   6.065   4.097
 2443SOL     OW 8227   3.469   6.751   6.253
 2443SOL    HW1 8228   3.566   6.772   6.262
 2443SOL    HW2 8229   3.433   6.721   6.341
 2444SOL     OW 8230   3.723   4.613   6.135
 2444SOL    HW1 8231   3.705   4.640   6.040
 2444SOL    HW2 8232   3.817   4.582   6.144
 2445SOL     OW 8233   6.937   0.727   2.300
 2445SOL    HW1 8234   6.916   0.629   2.296
 2445SOL    HW2 8235   6.944   0.763   2.208
 2446SOL     OW 8236   0.401   3.312   4.182
 2446SOL    HW1 8237   0.464   3.361   4.121
 2446SOL    HW2 8238   0.331   3.267   4.128
 2447SOL     OW 8239   2.395   1.100   1.098
 2447SOL    HW1 8240   2.325   1.030   1.116
 2447SOL    HW2 8241   2.413   1.104   1.000
 2448SOL     OW 8242   1.232   0.457   5.029
 2448SOL    HW1 8243   1.134   0.443   5.016
 2448SOL    HW2 8244   1.280   0.372   5.010
 2449SOL     OW 8245   0.302   4.111   2.334
 2449SOL    HW1 8246   0.210   4.071   2.331
 2449SOL    HW2 8247   0.370   4.038   2.335
 2450SOL     OW 8248   2.972   4.812   4.082
 2450SOL    HW1 8249   2.895   4.749   4.083
 2450SOL    HW2 8250   3.023   4.801   3.997
 2451SOL     OW 8251   0.521   0.575   4.037
 2451SOL    HW1 8252   0.580   0.500   4.008
 2451SOL    HW2 8253   0.572   0.661   4.034
 2452SOL     OW 8254   2.418   2.259   3.187
 2452SOL    HW1 8255   2.428   2.311   3.102
 2452SOL    HW2 8256   2.500   2.272   3.243
 2453SOL     OW 8257   0.072   3.588   1.060
 2453SOL    HW1 8258   0.049   3.685   1.051
 2453SOL    HW2 8259   0.102   3.553   0.971
 2454SOL     OW 8260   3.334   1.261   0.255
 2454SOL    HW1 8261   3.284   1.302   0.179
 2454SOL    HW2 8262   3.432   1.260   0.233
 2455SOL     OW 8263   5.079   0.207   0.664
 2455SOL    HW1 8264   5.016   0.132   0.680
 2455SOL    HW2 8265   5.066   0.278   0.733
 2456SOL     OW 8266   5.522   0.794   6.767
 2456SOL    HW1 8267   5.565   0.841   6.844
 2456SOL    HW2 8268   5.592   0.744   6.716
 2457SOL     OW 8269   6.077   6.236   0.005
 2457SOL    HW1 8270   6.142   6.191   0.066
 2457SOL    HW2 8271   6.006   6.172   7.002
 2458SOL     OW 8272   2.506   5.674   4.338
 2458SOL    HW1 8273   2.409   5.687   4.317
 2458SOL    HW2 8274   2.517   5.666   4.437
 2459SOL     OW 8275   2.758   6.166   0.465
 2459SOL    HW1 8276   2.734   6.223   0.543
 2459SOL    HW2 8277   2.857   6.149   0.465
 2460SOL     OW 8278   2.114   1.601   1.628
 2460SOL    HW1 8279   2.196   1.637   1.583
 2460SOL    HW2 8280   2.141   1.532   1.695
 2461SOL     OW 8281   3.993   0.136   3.153
 2461SOL    HW1 8282   4.036   0.155   3.065
 2461SOL    HW2 8283   3.893   0.142   3.143
 2462SOL     OW 8284   2.678   5.071   0.273
 2462SOL    HW1 8285   2.734   5.138   0.226
 2462SOL    HW2 8286   2.634   5.011   0.206
 2463SOL     OW 8287   6.454   2.520   3.833
 2463SOL    HW1 8288   6.377   2.456   3.831
 2463SOL    HW2 8289   6.537   2.474   3.803
 2464SOL     OW 8290   1.825   4.548   1.682
 2464SOL    HW1 8291   1.774   4.470   1.717
 2464SOL    HW2 8292   1.848   4.610   1.757
 2465SOL     OW 8293   0.357   6.705   1.539
 2465SOL    HW1 8294   0.454   6.683   1.556
 2465SOL    HW2 8295   0.341   6.711   1.441
 2466SOL     OW 8296   3.727   1.648   1.802
 2466SOL    HW1 8297   3.799   1.650   1.733
 2466SOL    HW2 8298   3.725   1.558   1.845
 2467SOL     OW 8299   5.395   1.967   4.889
 2467SOL    HW1 8300   5.359   2.005   4.973
 2467SOL    HW2 8301   5.494   1.954   4.898
 2468SOL     OW 8302   5.674   6.286   2.325
 2468SOL    HW1 8303   5.703   6.277   2.420
 2468SOL    HW2 8304   5.699   6.377   2.291
 2469SOL     OW 8305   3.735   4.532   5.446
 2469SOL    HW1 8306   3.641   4.500   5.451
 2469SOL    HW2 8307   3.737   4.630   5.429
 2470SOL     OW 8308   3.664   4.483   5.847
 2470SOL    HW1 8309   3.751   4.435   5.854
 2470SOL    HW2 8310   3.597   4.426   5.799
 2471SOL     OW 8311   2.446   6.648   1.134
 2471SOL    HW1 8312   2.520   6.648   1.067
 2471SOL    HW2 8313   2.432   6.555   1.169
 2472SOL     OW 8314   4.212   1.749   3.777
 2472SOL    HW1 8315   4.265   1.721   3.697
 2472SOL    HW2 8316   4.271   1.748   3.858
 2473SOL     OW 8317   1.907   4.072   5.087
 2473SOL    HW1 8318   1.909   3.976   5.059
 2473SOL    HW2 8319   2.000   4.101   5.110
 2474SOL     OW 8320   0.688   5.516   0.513
 2474SOL    HW1 8321   0.625   5.473   0.448
 2474SOL    HW2 8322   0.741   5.445   0.559
 2475SOL     OW 8323   4.876   1.486   0.946
 2475SOL    HW1 8324   4.860   1.529   0.858
 2475SOL    HW2 8325   4.788   1.470   0.992
 2476SOL     OW 8326   0.906   2.966   3.793
 2476SOL    HW1 8327   0.825   2.921   3.831
 2476SOL    HW2 8328   0.884   3.003   3.704
 2477SOL     OW 8329   5.836   0.610   2.536
 2477SOL    HW1 8330   5.893   0.669   2.480
 2477SOL    HW2 8331   5.844   0.515   2.504
 2478SOL     OW 8332   5.575   0.390   2.402
 2478SOL    HW1 8333   5.523   0.399   2.487
 2478SOL    HW2 8334   5.587   0.294   2.379
 2479SOL     OW 8335   1.568   3.668   1.390
 2479SOL    HW1 8336   1.638   3.735   1.413
 2479SOL    HW2 8337   1.495   3.671   1.459
 2480SOL     OW 8338   5.952   4.287   0.968
 2480SOL    HW1 8339   5.878   4.266   0.904
 2480SOL    HW2 8340   5.946   4.383   0.996
 2481SOL     OW 8341   2.516   6.558   0.291
 2481SOL    HW1 8342   2.494   6.551   0.388
 2481SOL    HW2 8343   2.526   6.654   0.266
 2482SOL     OW 8344   4.894   2.824   5.344
 2482SOL    HW1 8345   4.950   2.907   5.352
 2482SOL    HW2 8346   4.952   2.744   5.357
 2483SOL     OW 8347   2.248   0.947   6.481
 2483SOL    HW1 8348   2.167   0.954   6.541
 2483SOL    HW2 8349   2.257   0.854   6.447
 2484SOL     OW 8350   2.174   0.500   0.474
 2484SOL    HW1 8351   2.116   0.504   0.556
 2484SOL    HW2 8352   2.166   0.586   0.424
 2485SOL     OW 8353   4.713   4.481   2.102
 2485SOL    HW1 8354   4.664   4.402   2.065
 2485SOL    HW2 8355   4.651   4.535   2.160
 2486SOL     OW 8356   3.313   5.509   3.090
 2486SOL    HW1 8357   3.312   5.596   3.040
 2486SOL    HW2 8358   3.308   5.434   3.024
 2487SOL     OW 8359   3.696   5.305   6.492
 2487SOL    HW1 8360   3.744   5.219   6.479
 2487SOL    HW2 8361   3.701   5.359   6.408
 2488SOL     OW 8362   2.281   4.143   2.481
 2488SOL    HW1 8363   2.300   4.159   2.578
 2488SOL    HW2 8364   2.220   4.065   2.471
 2489SOL     OW 8365   2.081   5.713   3.518
 2489SOL    HW1 8366   2.056   5.805   3.550
 2489SOL    HW2 8367   2.084   5.712   3.418
 2490SOL     OW 8368   6.520   5.737   1.157
 2490SOL    HW1 8369   6.545   5.834   1.147
 2490SOL    HW2 8370   6.567   5.683   1.088
 2491SOL     OW 8371   2.578   6.419   1.852
 2491SOL    HW1 8372   2.512   6.462   1.790
 2491SOL    HW2 8373   2.627   6.490   1.902
 2492SOL     OW 8374   4.541   3.300   6.862
 2492SOL    HW1 8375   4.475   3.370   6.836
 2492SOL    HW2 8376   4.628   3.342   6.887
 2493SOL     OW 8377   5.604   0.103   2.841
 2493SOL    HW1 8378   5.645   0.021   2.881
 2493SOL    HW2 8379   5.656   0.130   2.760
 2494SOL     OW 8380   5.688   3.414   2.594
 2494SOL    HW1 8381   5.614   3.462   2.547
 2494SOL    HW2 8382   5.754   3.380   2.527
 2495SOL     OW 8383   5.008   6.937   4.776
 2495SOL    HW1 8384   5.060   7.016   4.809
 2495SOL    HW2 8385   4.994   6.945   4.678
 2496SOL     OW 8386   0.847   4.639   6.528
 2496SOL    HW1 8387   0.805   4.678   6.446
 2496SOL    HW2 8388   0.847   4.539   6.521
 2497SOL     OW 8389   0.103   1.343   0.563
 2497SOL    HW1 8390   0.097   1.263   0.623
 2497SOL    HW2 8391   0.053   1.419   0.603
 2498SOL     OW 8392   3.077   2.188   3.384
 2498SOL    HW1 8393   2.990   2.222   3.422
 2498SOL    HW2 8394   3.150   2.203   3.451
 2499SOL     OW 8395   5.347   1.546   4.655
 2499SOL    HW1 8396   5.428   1.496   4.686
 2499SOL    HW2 8397   5.307   1.596   4.732
 2500SOL     OW 8398   4.154   3.189   5.912
 2500SOL    HW1 8399   4.147   3.101   5.866
 2500SOL    HW2 8400   4.185   3.175   6.006
 2501SOL     OW 8401   6.908   5.889   6.817
 2501SOL    HW1 8402   6.960   5.860   6.736
 2501SOL    HW2 8403   6.866   5.978   6.800
 2502SOL     OW 8404   2.593   6.190   3.215
 2502SOL    HW1 8405   2.665   6.257   3.198
 2502SOL    HW2 8406   2.604   6.113   3.152
 2503SOL     OW 8407   3.597   5.890   5.873
 2503SOL    HW1 8408   3.590   5.842   5.786
 2503SOL    HW2 8409   3.667   5.961   5.867
 2504SOL     OW 8410   3.304   5.713   5.251
 2504SOL    HW1 8411   3.259   5.759   5.174
 2504SOL    HW2 8412   3.252   5.729   5.335
 2505SOL     OW 8413   1.570   6.443   4.181
 2505SOL    HW1 8414   1.546   6.520   4.240
 2505SOL    HW2 8415   1.669   6.429   4.183
 2506SOL     OW 8416   6.475   2.961   6.181
 2506SOL    HW1 8417   6.376   2.977   6.186
 2506SOL    HW2 8418   6.523   3.044   6.208
 2507SOL     OW 8419   0.032   4.101   0.357
 2507SOL    HW1 8420   7.020   4.161   0.429
 2507SOL    HW2 8421   0.132   4.109   0.356
 2508SOL     OW 8422   2.760   1.536   2.382
 2508SOL    HW1 8423   2.765   1.633   2.359
 2508SOL    HW2 8424   2.845   1.509   2.428
 2509SOL     OW 8425   5.462   3.116   2.957
 2509SOL    HW1 8426   5.424   3.048   2.894
 2509SOL    HW2 8427   5.387   3.160   3.007
 2510SOL     OW 8428   3.281   4.293   0.956
 2510SOL    HW1 8429   3.266   4.207   0.906
 2510SOL    HW2 8430   3.303   4.366   0.891
 2511SOL     OW 8431   2.249   2.258   4.514
 2511SOL    HW1 8432   2.233   2.356   4.508
 2511SOL    HW2 8433   2.344   2.238   4.489
 2512SOL     OW 8434   5.378   5.340   5.728
 2512SOL    HW1 8435   5.391   5.386   5.640
 2512SOL    HW2 8436   5.430   5.254   5.729
 2513SOL     OW 8437   1.359   2.894   5.859
 2513SOL    HW1 8438   1.324   2.894   5.765
 2513SOL    HW2 8439   1.433   2.960   5.867
 2514SOL     OW 8440   0.105   3.468   4.126
 2514SOL    HW1 8441   0.158   3.542   4.167
 2514SOL    HW2 8442   0.023   3.507   4.082
 2515SOL     OW 8443   1.285   6.527   0.724
 2515SOL    HW1 8444   1.187   6.540   0.743
 2515SOL    HW2 8445   1.322   6.608   0.679
 2516SOL     OW 8446   6.086   6.226   2.918
 2516SOL    HW1 8447   6.165   6.221   2.856
 2516SOL    HW2 8448   6.070   6.321   2.944
 2517SOL     OW 8449   1.748   5.486   5.497
 2517SOL    HW1 8450   1.841   5.478   5.533
 2517SOL    HW2 8451   1.683   5.465   5.570
 2518SOL     OW 8452   2.295   3.163   0.549
 2518SOL    HW1 8453   2.202   3.136   0.525
 2518SOL    HW2 8454   2.296   3.261   0.573
 2519SOL     OW 8455   4.964   5.612   4.229
 2519SOL    HW1 8456   4.873   5.587   4.197
 2519SOL    HW2 8457   4.956   5.657   4.319
 2520SOL     OW 8458   1.417   3.352   0.776
 2520SOL    HW1 8459   1.421   3.255   0.800
 2520SOL    HW2 8460   1.326   3.374   0.743
 2521SOL     OW 8461   1.190   6.352   5.631
 2521SOL    HW1 8462   1.250   6.308   5.698
 2521SOL    HW2 8463   1.095   6.350   5.664
 2522SOL     OW 8464   0.979   2.936   5.929
 2522SOL    HW1 8465   0.936   3.022   5.903
 2522SOL    HW2 8466   1.078   2.949   5.936
 2523SOL     OW 8467   0.548   3.247   1.009
 2523SOL    HW1 8468   0.564   3.149   0.997
 2523SOL    HW2 8469   0.470   3.262   1.069
 2524SOL     OW 8470   0.478   6.062   4.058
 2524SOL    HW1 8471   0.380   6.066   4.036
 2524SOL    HW2 8472   0.509   5.967   4.057
 2525SOL     OW 8473   1.085   2.260   4.994
 2525SOL    HW1 8474   0.999   2.235   5.040
 2525SOL    HW2 8475   1.094   2.360   4.993
 2526SOL     OW 8476   1.022   3.913   5.642
 2526SOL    HW1 8477   1.063   3.995   5.600
 2526SOL    HW2 8478   1.092   3.866   5.696
 2527SOL     OW 8479   4.750   0.128   4.910
 2527SOL    HW1 8480   4.839   0.092   4.939
 2527SOL    HW2 8481   4.725   0.205   4.968
 2528SOL     OW 8482   6.287   4.385   1.048
 2528SOL    HW1 8483   6.324   4.438   1.125
 2528SOL    HW2 8484   6.239   4.305   1.084
 2529SOL     OW 8485   5.910   5.035   6.476
 2529SOL    HW1 8486   5.856   4.984   6.409
 2529SOL    HW2 8487   5.990   4.982   6.501
 2530SOL     OW 8488   1.413   5.764   4.894
 2530SOL    HW1 8489   1.497   5.709   4.890
 2530SOL    HW2 8490   1.407   5.820   4.811
 2531SOL     OW 8491   5.552   5.669   4.476
 2531SOL    HW1 8492   5.494   5.737   4.431
 2531SOL    HW2 8493   5.633   5.652   4.420
 2532SOL     OW 8494   0.664   6.015   0.521
 2532SOL    HW1 8495   0.661   5.918   0.500
 2532SOL    HW2 8496   0.634   6.030   0.616
 2533SOL     OW 8497   5.026   6.725   3.839
 2533SOL    HW1 8498   5.096   6.693   3.904
 2533SOL    HW2 8499   5.071   6.759   3.756
 2534SOL     OW 8500   2.049   0.045   3.554
 2534SOL    HW1 8501   2.107   0.080   3.480
 2534SOL    HW2 8502   2.005   0.122   3.601
 2535SOL     OW 8503   2.581   2.110   6.970
 2535SOL    HW1 8504   2.575   2.183   0.013
 2535SOL    HW2 8505   2.600   2.149   6.880
 2536SOL     OW 8506   0.551   1.703   3.549
 2536SOL    HW1 8507   0.467   1.736   3.592
 2536SOL    HW2 8508   0.567   1.608   3.575
 2537SOL     OW 8509   5.138   6.060   0.432
 2537SOL    HW1 8510   5.187   6.108   0.505
 2537SOL    HW2 8511   5.169   5.965   0.427
 2538SOL     OW 8512   1.684   4.559   4.865
 2538SOL    HW1 8513   1.626   4.640   4.877
 2538SOL    HW2 8514   1.651   4.506   4.786
 2539SOL     OW 8515   4.163   0.274   5.632
 2539SOL    HW1 8516   4.252   0.246   5.598
 2539SOL    HW2 8517   4.141   0.365   5.597
 2540SOL     OW 8518   4.807   0.835   0.946
 2540SOL    HW1 8519   4.801   0.903   0.874
 2540SOL    HW2 8520   4.773   0.747   0.912
 2541SOL     OW 8521   1.995   0.242   5.815
 2541SOL    HW1 8522   1.955   0.190   5.739
 2541SOL    HW2 8523   1.937   0.320   5.836
 2542SOL     OW 8524   3.836   1.842   4.965
 2542SOL    HW1 8525   3.912   1.880   5.018
 2542SOL    HW2 8526   3.768   1.913   4.948
 2543SOL     OW 8527   2.051   0.854   2.726
 2543SOL    HW1 8528   1.975   0.907   2.688
 2543SOL    HW2 8529   2.072   0.778   2.665
 2544SOL     OW 8530   0.223   4.786   2.592
 2544SOL    HW1 8531   0.124   4.774   2.578
 2544SOL    HW2 8532   0.268   4.789   2.503
 2545SOL     OW 8533   1.545   0.858   1.470
 2545SOL    HW1 8534   1.567   0.879   1.374
 2545SOL    HW2 8535   1.467   0.914   1.498
 2546SOL     OW 8536   6.079   3.284   1.663
 2546SOL    HW1 8537   6.125   3.281   1.752
 2546SOL    HW2 8538   5.995   3.231   1.666
 2547SOL     OW 8539   5.260   5.437   6.589
 2547SOL    HW1 8540   5.260   5.535   6.608
 2547SOL    HW2 8541   5.339   5.413   6.533
 2548SOL     OW 8542   2.299   0.984   5.197
 2548SOL    HW1 8543   2.233   0.946   5.133
 2548SOL    HW2 8544   2.377   1.022   5.147
 2549SOL     OW 8545   2.195   2.135   1.873
 2549SOL    HW1 8546   2.273   2.080   1.904
 2549SOL    HW2 8547   2.129   2.076   1.827
 2550SOL     OW 8548   5.894   1.000   6.627
 2550SOL    HW1 8549   5.890   0.916   6.573
 2550SOL    HW2 8550   5.809   1.051   6.615
 2551SOL     OW 8551   3.376   5.425   7.023
 2551SOL    HW1 8552   3.330   5.420   6.934
 2551SOL    HW2 8553   3.325   5.486   0.059
 2552SOL     OW 8554   1.869   5.491   6.327
 2552SOL    HW1 8555   1.848   5.525   6.236
 2552SOL    HW2 8556   1.813   5.410   6.346
 2553SOL     OW 8557   3.052   3.373   6.486
 2553SOL    HW1 8558   2.988   3.321   6.428
 2553SOL    HW2 8559   3.016   3.465   6.500
 2554SOL     OW 8560   1.358   5.460   6.552
 2554SOL    HW1 8561   1.424   5.503   6.614
 2554SOL    HW2 8562   1.395   5.374   6.518
 2555SOL     OW 8563   6.316   6.126   6.718
 2555SOL    HW1 8564   6.327   6.061   6.794
 2555SOL    HW2 8565   6.225   6.165   6.721
 2556SOL     OW 8566   4.155   6.086   0.956
 2556SOL    HW1 8567   4.169   6.154   0.884
 2556SOL    HW2 8568   4.060   6.090   0.988
 2557SOL     OW 8569   2.413   1.444   6.196
 2557SOL    HW1 8570   2.391   1.500   6.276
 2557SOL    HW2 8571   2.386   1.349   6.213
 2558SOL     OW 8572   4.157   3.779   5.063
 2558SOL    HW1 8573   4.083   3.845   5.077
 2558SOL    HW2 8574   4.230   3.796   5.129
 2559SOL     OW 8575   6.117   3.159   3.950
 2559SOL    HW1 8576   6.191   3.156   3.883
 2559SOL    HW2 8577   6.030   3.170   3.903
 2560SOL     OW 8578   4.861   3.690   3.914
 2560SOL    HW1 8579   4.775   3.721   3.873
 2560SOL    HW2 8580   4.928   3.673   3.842
 2561SOL     OW 8581   3.223   0.619   3.613
 2561SOL    HW1 8582   3.255   0.525   3.599
 2561SOL    HW2 8583   3.171   0.649   3.532
 2562SOL     OW 8584   2.553   5.137   2.838
 2562SOL    HW1 8585   2.587   5.222   2.878
 2562SOL    HW2 8586   2.594   5.059   2.885
 2563SOL     OW 8587   4.230   1.386   6.570
 2563SOL    HW1 8588   4.246   1.430   6.481
 2563SOL    HW2 8589   4.132   1.377   6.586
 2564SOL     OW 8590   1.354   6.274   6.568
 2564SOL    HW1 8591   1.382   6.259   6.473
 2564SOL    HW2 8592   1.414   6.223   6.629
 2565SOL     OW 8593   0.328   0.727   0.997
 2565SOL    HW1 8594   0.387   0.730   1.077
 2565SOL    HW2 8595   0.379   0.690   0.919
 2566SOL     OW 8596   1.402   6.767   0.597
 2566SOL    HW1 8597   1.453   6.850   0.576
 2566SOL    HW2 8598   1.461   6.687   0.587
 2567SOL     OW 8599   1.204   1.312   1.883
 2567SOL    HW1 8600   1.118   1.269   1.912
 2567SOL    HW2 8601   1.281   1.266   1.929
 2568SOL     OW 8602   2.986   0.469   0.439
 2568SOL    HW1 8603   3.075   0.482   0.483
 2568SOL    HW2 8604   2.979   0.529   0.360
 2569SOL     OW 8605   1.882   1.466   2.256
 2569SOL    HW1 8606   1.954   1.413   2.302
 2569SOL    HW2 8607   1.856   1.420   2.171
 2570SOL     OW 8608   5.393   6.664   6.359
 2570SOL    HW1 8609   5.473   6.720   6.337
 2570SOL    HW2 8610   5.311   6.705   6.321
 2571SOL     OW 8611   3.146   3.360   4.494
 2571SOL    HW1 8612   3.072   3.361   4.561
 2571SOL    HW2 8613   3.233   3.346   4.541
 2572SOL     OW 8614   1.634   6.415   1.038
 2572SOL    HW1 8615   1.675   6.443   0.951
 2572SOL    HW2 8616   1.553   6.359   1.021
 2573SOL     OW 8617   6.333   1.102   1.976
 2573SOL    HW1 8618   6.362   1.106   1.881
 2573SOL    HW2 8619   6.357   1.012   2.014
 2574SOL     OW 8620   6.463   3.291   0.378
 2574SOL    HW1 8621   6.456   3.388   0.400
 2574SOL    HW2 8622   6.388   3.266   0.316
 2575SOL     OW 8623   4.832   4.196   1.549
 2575SOL    HW1 8624   4.897   4.142   1.497
 2575SOL    HW2 8625   4.740   4.160   1.535
 2576SOL     OW 8626   4.102   6.708   3.831
 2576SOL    HW1 8627   4.057   6.621   3.850
 2576SOL    HW2 8628   4.041   6.783   3.857
 2577SOL     OW 8629   4.700   0.625   3.036
 2577SOL    HW1 8630   4.794   0.627   3.071
 2577SOL    HW2 8631   4.677   0.532   3.008
 2578SOL     OW 8632   4.232   3.018   5.685
 2578SOL    HW1 8633   4.318   3.039   5.640
 2578SOL    HW2 8634   4.170   2.974   5.620
 2579SOL     OW 8635   1.332   1.681   4.598
 2579SOL    HW1 8636   1.408   1.628   4.561
 2579SOL    HW2 8637   1.248   1.626   4.597
 2580SOL     OW 8638   1.589   2.949   6.600
 2580SOL    HW1 8639   1.602   2.992   6.689
 2580SOL    HW2 8640   1.552   3.015   6.535
 2581SOL     OW 8641   5.927   4.857   1.870
 2581SOL    HW1 8642   5.988   4.833   1.946
 2581SOL    HW2 8643   5.905   4.775   1.818
 2582SOL     OW 8644   1.574   4.612   2.584
 2582SOL    HW1 8645   1.582   4.711   2.582
 2582SOL    HW2 8646   1.480   4.586   2.562
 2583SOL     OW 8647   1.426   1.156   1.420
 2583SOL    HW1 8648   1.366   1.124   1.348
 2583SOL    HW2 8649   1.375   1.165   1.506
 2584SOL     OW 8650   3.893   5.705   6.875
 2584SOL    HW1 8651   3.800   5.700   6.838
 2584SOL    HW2 8652   3.927   5.612   6.891
 2585SOL     OW 8653   3.517   0.657   0.165
 2585SOL    HW1 8654   3.537   0.703   0.078
 2585SOL    HW2 8655   3.445   0.589   0.151
 2586SOL     OW 8656   4.584   2.140   4.106
 2586SOL    HW1 8657   4.649   2.160   4.179
 2586SOL    HW2 8658   4.491   2.149   4.141
 2587SOL     OW 8659   6.497   1.405   4.442
 2587SOL    HW1 8660   6.529   1.335   4.378
 2587SOL    HW2 8661   6.565   1.419   4.514
 2588SOL     OW 8662   4.645   0.186   0.479
 2588SOL    HW1 8663   4.578   0.207   0.551
 2588SOL    HW2 8664   4.670   0.089   0.485
 2589SOL     OW 8665   0.285   6.347   5.948
 2589SOL    HW1 8666   0.292   6.441   5.983
 2589SOL    HW2 8667   0.343   6.287   6.002
 2590SOL     OW 8668   3.607   6.558   2.467
 2590SOL    HW1 8669   3.534   6.582   2.402
 2590SOL    HW2 8670   3.579   6.479   2.521
 2591SOL     OW 8671   6.063   6.017   2.698
 2591SOL    HW1 8672   6.067   6.060   2.788
 2591SOL    HW2 8673   6.103   5.925   2.703
 2592SOL     OW 8674   2.618   0.291   1.026
 2592SOL    HW1 8675   2.532   0.305   0.977
 2592SOL    HW2 8676   2.613   0.333   1.116
 2593SOL     OW 8677   3.247   6.659   1.970
 2593SOL    HW1 8678   3.248   6.680   2.067
 2593SOL    HW2 8679   3.243   6.744   1.917
 2594SOL     OW 8680   0.065   6.195   6.142
 2594SOL    HW1 8681   0.121   6.224   6.064
 2594SOL    HW2 8682   6.996   6.177   6.111
 2595SOL     OW 8683   6.239   1.615   5.693
 2595SOL    HW1 8684   6.213   1.688   5.756
 2595SOL    HW2 8685   6.174   1.539   5.701
 2596SOL     OW 8686   3.950   2.295   1.781
 2596SOL    HW1 8687   4.013   2.222   1.806
 2596SOL    HW2 8688   3.867   2.289   1.838
 2597SOL     OW 8689   2.125   4.193   0.607
 2597SOL    HW1 8690   2.182   4.244   0.542
 2597SOL    HW2 8691   2.059   4.255   0.649
 2598SOL     OW 8692   5.992   1.497   4.540
 2598SOL    HW1 8693   5.939   1.414   4.525
 2598SOL    HW2 8694   6.074   1.496   4.482
 2599SOL     OW 8695   3.057   0.146   0.682
 2599SOL    HW1 8696   3.141   0.139   0.735
 2599SOL    HW2 8697   3.072   0.110   0.590
 2600SOL     OW 8698   4.946   3.628   4.803
 2600SOL    HW1 8699   4.948   3.544   4.749
 2600SOL    HW2 8700   4.889   3.614   4.884
 2601SOL     OW 8701   3.268   1.683   6.822
 2601SOL    HW1 8702   3.303   1.698   6.729
 2601SOL    HW2 8703   3.304   1.754   6.882
 2602SOL     OW 8704   6.706   5.093   3.745
 2602SOL    HW1 8705   6.770   5.053   3.811
 2602SOL    HW2 8706   6.613   5.064   3.768
 2603SOL     OW 8707   2.079   2.477   1.577
 2603SOL    HW1 8708   2.122   2.466   1.667
 2603SOL    HW2 8709   1.980   2.462   1.586
 2604SOL     OW 8710   5.093   1.332   2.923
 2604SOL    HW1 8711   5.169   1.280   2.963
 2604SOL    HW2 8712   5.101   1.330   2.823
 2605SOL     OW 8713   3.288   4.984   3.638
 2605SOL    HW1 8714   3.355   5.047   3.598
 2605SOL    HW2 8715   3.229   5.035   3.701
 2606SOL     OW 8716   7.002   4.796   0.388
 2606SOL    HW1 8717   0.057   4.827   0.337
 2606SOL    HW2 8718   0.000   4.714   0.440
 2607SOL     OW 8719   0.686   1.684   5.951
 2607SOL    HW1 8720   0.663   1.763   6.007
 2607SOL    HW2 8721   0.639   1.603   5.986
 2608SOL     OW 8722   3.786   5.554   2.476
 2608SOL    HW1 8723   3.699   5.507   2.463
 2608SOL    HW2 8724   3.805   5.562   2.574
 2609SOL     OW 8725   0.336   2.430   1.588
 2609SOL    HW1 8726   0.248   2.382   1.585
 2609SOL    HW2 8727   0.322   2.526   1.567
 2610SOL     OW 8728   6.888   4.907   4.580
 2610SOL    HW1 8729   6.887   4.997   4.623
 2610SOL    HW2 8730   6.958   4.905   4.509
 2611SOL     OW 8731   5.627   0.009   1.195
 2611SOL    HW1 8732   5.631   6.972   1.116
 2611SOL    HW2 8733   5.533   0.016   1.229
 2612SOL     OW 8734   0.215   6.720   5.712
 2612SOL    HW1 8735   0.131   6.666   5.702
 2612SOL    HW2 8736   0.260   6.727   5.623
 2613SOL     OW 8737   2.903   6.711   1.127
 2613SOL    HW1 8738   2.922   6.622   1.167
 2613SOL    HW2 8739   2.840   6.762   1.187
 2614SOL     OW 8740   6.967   0.430   6.276
 2614SOL    HW1 8741   0.004   0.428   6.355
 2614SOL    HW2 8742   6.942   0.525   6.256
 2615SOL     OW 8743   6.080   4.142   2.644
 2615SOL    HW1 8744   6.152   4.183   2.587
 2615SOL    HW2 8745   5.995   4.135   2.591
 2616SOL     OW 8746   4.116   3.322   3.717
 2616SOL    HW1 8747   4.055   3.384   3.668
 2616SOL    HW2 8748   4.142   3.363   3.804
 2617SOL     OW 8749   3.925   6.576   1.069
 2617SOL    HW1 8750   3.921   6.664   1.116
 2617SOL    HW2 8751   3.905   6.588   0.972
 2618SOL     OW 8752   0.480   6.751   4.023
 2618SOL    HW1 8753   0.520   6.679   4.079
 2618SOL    HW2 8754   0.474   6.836   4.075
 2619SOL     OW 8755   2.930   1.312   3.330
 2619SOL    HW1 8756   2.985   1.232   3.305
 2619SOL    HW2 8757   2.833   1.286   3.336
 2620SOL     OW 8758   0.976   6.281   3.170
 2620SOL    HW1 8759   0.931   6.283   3.259
 2620SOL    HW2 8760   0.907   6.288   3.097
 2621SOL     OW 8761   2.107   5.818   2.949
 2621SOL    HW1 8762   2.157   5.864   2.876
 2621SOL    HW2 8763   2.019   5.863   2.962
 2622SOL     OW 8764   2.795   1.913   7.021
 2622SOL    HW1 8765   2.805   1.829   6.969
 2622SOL    HW2 8766   2.703   1.950   7.009
 2623SOL     OW 8767   3.435   2.117   4.564
 2623SOL    HW1 8768   3.404   2.076   4.479
 2623SOL    HW2 8769   3.379   2.197   4.585
 2624SOL     OW 8770   6.426   3.416   4.683
 2624SOL    HW1 8771   6.387   3.493   4.632
 2624SOL    HW2 8772   6.395   3.330   4.643
 2625SOL     OW 8773   2.386   2.756   6.091
 2625SOL    HW1 8774   2.328   2.835   6.073
 2625SOL    HW2 8775   2.450   2.777   6.165
 2626SOL     OW 8776   0.960   0.314   5.069
 2626SOL    HW1 8777   0.950   0.298   5.167
 2626SOL    HW2 8778   0.976   0.227   5.022
 2627SOL     OW 8779   0.463   0.512   4.932
 2627SOL    HW1 8780   0.466   0.467   4.843
 2627SOL    HW2 8781   0.485   0.446   5.004
 2628SOL     OW 8782   2.544   5.228   6.684
 2628SOL    HW1 8783   2.623   5.192   6.634
 2628SOL    HW2 8784   2.570   5.245   6.779
 2629SOL     OW 8785   3.259   4.224   1.747
 2629SOL    HW1 8786   3.253   4.171   1.663
 2629SOL    HW2 8787   3.253   4.163   1.826
 2630SOL     OW 8788   3.042   1.542   3.504
 2630SOL    HW1 8789   3.001   1.472   3.445
 2630SOL    HW2 8790   3.140   1.546   3.488
 2631SOL     OW 8791   4.636   0.533   3.960
 2631SOL    HW1 8792   4.665   0.448   4.004
 2631SOL    HW2 8793   4.699   0.606   3.986
 2632SOL     OW 8794   2.664   2.035   6.605
 2632SOL    HW1 8795   2.726   2.109   6.634
 2632SOL    HW2 8796   2.714   1.948   6.605
 2633SOL     OW 8797   6.382   1.828   5.563
 2633SOL    HW1 8798   6.329   1.912   5.554
 2633SOL    HW2 8799   6.334   1.765   5.623
 2634SOL     OW 8800   2.032   4.241   2.652
 2634SOL    HW1 8801   2.015   4.182   2.573
 2634SOL    HW2 8802   1.964   4.222   2.722
 2635SOL     OW 8803   5.495   6.287   4.706
 2635SOL    HW1 8804   5.428   6.351   4.669
 2635SOL    HW2 8805   5.562   6.264   4.635
 2636SOL     OW 8806   4.191   0.766   5.392
 2636SOL    HW1 8807   4.256   0.778   5.318
 2636SOL    HW2 8808   4.098   0.763   5.355
 2637SOL     OW 8809   6.326   1.488   3.597
 2637SOL    HW1 8810   6.317   1.441   3.685
 2637SOL    HW2 8811   6.256   1.560   3.590
 2638SOL     OW 8812   0.169   0.009   3.040
 2638SOL    HW1 8813   0.184   0.019   2.941
 2638SOL    HW2 8814   0.096   6.967   3.055
 2639SOL     OW 8815   1.340   0.175   1.940
 2639SOL    HW1 8816   1.336   0.085   1.897
 2639SOL    HW2 8817   1.313   0.245   1.874
 2640SOL     OW 8818   7.010   5.901   4.637
 2640SOL    HW1 8819   0.059   5.963   4.666
 2640SOL    HW2 8820   6.945   5.889   4.712
 2641SOL     OW 8821   4.888   3.219   2.176
 2641SOL    HW1 8822   4.859   3.144   2.116
 2641SOL    HW2 8823   4.987   3.227   2.173
 2642SOL     OW 8824   4.638   6.926   4.424
 2642SOL    HW1 8825   4.669   7.019   4.441
 2642SOL    HW2 8826   4.538   6.924   4.421
 2643SOL     OW 8827   1.309   4.567   2.555
 2643SOL    HW1 8828   1.273   4.575   2.462
 2643SOL    HW2 8829   1.254   4.623   2.617
 2644SOL     OW 8830   6.669   5.330   5.826
 2644SOL    HW1 8831   6.682   5.413   5.773
 2644SOL    HW2 8832   6.742   5.265   5.805
 2645SOL     OW 8833   4.513   5.616   3.937
 2645SOL    HW1 8834   4.446   5.683   3.970
 2645SOL    HW2 8835   4.468   5.554   3.871
 2646SOL     OW 8836   5.726   6.993   6.462
 2646SOL    HW1 8837   5.659   0.043   6.458
 2646SOL    HW2 8838   5.817   0.007   6.479
 2647SOL     OW 8839   6.222   0.410   1.883
 2647SOL    HW1 8840   6.153   0.341   1.863
 2647SOL    HW2 8841   6.230   0.472   1.805
 2648SOL     OW 8842   0.303   0.419   3.198
 2648SOL    HW1 8843   0.363   0.437   3.276
 2648SOL    HW2 8844   0.284   0.505   3.151
 2649SOL     OW 8845   5.540   3.147   6.281
 2649SOL    HW1 8846   5.493   3.110   6.200
 2649SOL    HW2 8847   5.626   3.098   6.294
 2650SOL     OW 8848   0.768   3.749   4.325
 2650SOL    HW1 8849   0.704   3.673   4.337
 2650SOL    HW2 8850   0.766   3.780   4.230
 2651SOL     OW 8851   0.183   2.195   6.953
 2651SOL    HW1 8852   0.278   2.203   6.982
 2651SOL    HW2 8853   0.125   2.177   0.009
 2652SOL     OW 8854   3.476   3.711   3.823
 2652SOL    HW1 8855   3.396   3.666   3.862
 2652SOL    HW2 8856   3.451   3.755   3.736
 2653SOL     OW 8857   5.106   0.046   5.513
 2653SOL    HW1 8858   5.152   0.133   5.493
 2653SOL    HW2 8859   5.085   0.040   5.610
 2654SOL     OW 8860   4.996   4.794   1.206
 2654SOL    HW1 8861   4.898   4.810   1.221
 2654SOL    HW2 8862   5.035   4.751   1.288
 2655SOL     OW 8863   5.269   4.921   4.464
 2655SOL    HW1 8864   5.298   4.830   4.435
 2655SOL    HW2 8865   5.290   4.988   4.393
 2656SOL     OW 8866   3.846   5.007   4.208
 2656SOL    HW1 8867   3.795   4.973   4.130
 2656SOL    HW2 8868   3.929   5.053   4.177
 2657SOL     OW 8869   2.564   4.421   6.575
 2657SOL    HW1 8870   2.621   4.493   6.615
 2657SOL    HW2 8871   2.619   4.364   6.515
 2658SOL     OW 8872   5.294   4.141   0.689
 2658SOL    HW1 8873   5.226   4.113   0.622
 2658SOL    HW2 8874   5.266   4.111   0.780
 2659SOL     OW 8875   6.231   2.923   4.891
 2659SOL    HW1 8876   6.216   3.018   4.920
 2659SOL    HW2 8877   6.221   2.916   4.792
 2660SOL     OW 8878   0.536   1.520   1.159
 2660SOL    HW1 8879   0.584   1.588   1.105
 2660SOL    HW2 8880   0.578   1.513   1.250
 2661SOL     OW 8881   2.393   6.360   0.969
 2661SOL    HW1 8882   2.370   6.295   1.042
 2661SOL    HW2 8883   2.309   6.399   0.931
 2662SOL     OW 8884   4.131   0.576   5.566
 2662SOL    HW1 8885   4.033   0.577   5.586
 2662SOL    HW2 8886   4.149   0.628   5.482
 2663SOL     OW 8887   2.695   3.917   1.135
 2663SOL    HW1 8888   2.720   3.830   1.179
 2663SOL    HW2 8889   2.617   3.902   1.074
 2664SOL     OW 8890   3.763   3.744   4.695
 2664SOL    HW1 8891   3.676   3.785   4.723
 2664SOL    HW2 8892   3.835   3.813   4.701
 2665SOL     OW 8893   2.672   2.563   5.219
 2665SOL    HW1 8894   2.600   2.556   5.287
 2665SOL    HW2 8895   2.752   2.608   5.259
 2666SOL     OW 8896   4.779   3.922   1.721
 2666SOL    HW1 8897   4.859   3.969   1.683
 2666SOL    HW2 8898   4.789   3.914   1.820
 2667SOL     OW 8899   1.344   5.966   4.235
 2667SOL    HW1 8900   1.413   5.978   4.164
 2667SOL    HW2 8901   1.388   5.959   4.324
 2668SOL     OW 8902   5.940   3.459   3.596
 2668SOL    HW1 8903   6.019   3.510   3.628
 2668SOL    HW2 8904   5.872   3.454   3.670
 2669SOL     OW 8905   3.161   5.017   5.147
 2669SOL    HW1 8906   3.101   4.987   5.074
 2669SOL    HW2 8907   3.230   5.079   5.111
 2670SOL     OW 8908   5.573   1.955   6.341
 2670SOL    HW1 8909   5.595   1.997   6.253
 2670SOL    HW2 8910   5.502   2.010   6.387
 2671SOL     OW 8911   3.650   5.343   6.785
 2671SOL    HW1 8912   3.694   5.323   6.697
 2671SOL    HW2 8913   3.564   5.292   6.791
 2672SOL     OW 8914   6.860   5.098   0.183
 2672SOL    HW1 8915   6.838   5.081   0.279
 2672SOL    HW2 8916   6.891   5.193   0.173
 2673SOL     OW 8917   6.461   1.851   3.694
 2673SOL    HW1 8918   6.369   1.869   3.660
 2673SOL    HW2 8919   6.495   1.765   3.655
 2674SOL     OW 8920   1.685   4.107   3.517
 2674SOL    HW1 8921   1.730   4.025   3.483
 2674SOL    HW2 8922   1.748   4.158   3.576
 2675SOL     OW 8923   6.571   5.084   4.569
 2675SOL    HW1 8924   6.509   5.026   4.622
 2675SOL    HW2 8925   6.602   5.034   4.488
 2676SOL     OW 8926   4.723   1.370   1.732
 2676SOL    HW1 8927   4.675   1.343   1.649
 2676SOL    HW2 8928   4.658   1.409   1.798
 2677SOL     OW 8929   3.068   4.380   6.962
 2677SOL    HW1 8930   3.140   4.311   6.962
 2677SOL    HW2 8931   3.044   4.405   6.868
 2678SOL     OW 8932   6.625   4.460   1.260
 2678SOL    HW1 8933   6.620   4.498   1.353
 2678SOL    HW2 8934   6.615   4.361   1.263
 2679SOL     OW 8935   3.674   5.716   0.781
 2679SOL    HW1 8936   3.719   5.628   0.770
 2679SOL    HW2 8937   3.733   5.778   0.834
 2680SOL     OW 8938   0.768   1.728   0.728
 2680SOL    HW1 8939   0.720   1.734   0.641
 2680SOL    HW2 8940   0.826   1.809   0.740
 2681SOL     OW 8941   1.482   2.199   4.276
 2681SOL    HW1 8942   1.549   2.206   4.350
 2681SOL    HW2 8943   1.403   2.256   4.298
 2682SOL     OW 8944   5.464   3.896   2.885
 2682SOL    HW1 8945   5.554   3.885   2.926
 2682SOL    HW2 8946   5.410   3.960   2.940
 2683SOL     OW 8947   2.129   3.831   0.421
 2683SOL    HW1 8948   2.121   3.827   0.322
 2683SOL    HW2 8949   2.041   3.856   0.461
 2684SOL     OW 8950   4.680   5.990   1.292
 2684SOL    HW1 8951   4.599   6.040   1.324
 2684SOL    HW2 8952   4.759   6.016   1.348
 2685SOL     OW 8953   6.271   6.033   0.093
 2685SOL    HW1 8954   6.354   6.083   0.117
 2685SOL    HW2 8955   6.274   6.006   7.021
 2686SOL     OW 8956   1.518   1.726   5.383
 2686SOL    HW1 8957   1.437   1.691   5.430
 2686SOL    HW2 8958   1.547   1.660   5.314
 2687SOL     OW 8959   4.469   4.472   2.553
 2687SOL    HW1 8960   4.513   4.461   2.464
 2687SOL    HW2 8961   4.511   4.409   2.618
 2688SOL     OW 8962   4.748   5.452   6.970
 2688SOL    HW1 8963   4.760   5.551   6.981
 2688SOL    HW2 8964   4.838   5.409   6.959
 2689SOL     OW 8965   2.002   2.922   3.616
 2689SOL    HW1 8966   1.956   2.894   3.532
 2689SOL    HW2 8967   1.959   3.005   3.652
 2690SOL     OW 8968   3.279   3.631   3.999
 2690SOL    HW1 8969   3.211   3.698   4.031
 2690SOL    HW2 8970   3.343   3.613   4.073
 2691SOL     OW 8971   1.060   5.544   2.486
 2691SOL    HW1 8972   0.997   5.616   2.514
 2691SOL    HW2 8973   1.148   5.585   2.462
 2692SOL     OW 8974   4.079   4.749   3.564
 2692SOL    HW1 8975   4.158   4.695   3.534
 2692SOL    HW2 8976   4.071   4.744   3.664
 2693SOL     OW 8977   1.562   4.234   2.720
 2693SOL    HW1 8978   1.507   4.154   2.741
 2693SOL    HW2 8979   1.659   4.212   2.731
 2694SOL     OW 8980   4.278   6.637   2.983
 2694SOL    HW1 8981   4.374   6.651   2.956
 2694SOL    HW2 8982   4.258   6.693   3.063
 2695SOL     OW 8983   5.132   0.919   2.856
 2695SOL    HW1 8984   5.178   0.943   2.942
 2695SOL    HW2 8985   5.118   0.820   2.853
 2696SOL     OW 8986   4.018   3.554   5.156
 2696SOL    HW1 8987   4.042   3.642   5.115
 2696SOL    HW2 8988   4.019   3.563   5.256
 2697SOL     OW 8989   3.273   1.202   3.078
 2697SOL    HW1 8990   3.310   1.219   3.169
 2697SOL    HW2 8991   3.191   1.257   3.065
 2698SOL     OW 8992   2.041   5.818   0.462
 2698SOL    HW1 8993   2.038   5.868   0.376
 2698SOL    HW2 8994   2.088   5.731   0.449
 2699SOL     OW 8995   3.155   6.597   0.202
 2699SOL    HW1 8996   3.238   6.545   0.183
 2699SOL    HW2 8997   3.116   6.567   0.290
 2700SOL     OW 8998   1.906   4.141   1.010
 2700SOL    HW1 8999   1.917   4.043   1.025
 2700SOL    HW2 9000   1.884   4.157   0.914
 2701SOL     OW 9001   3.294   0.649   6.658
 2701SOL    HW1 9002   3.256   0.560   6.683
 2701SOL    HW2 9003   3.309   0.651   6.559
 2702SOL     OW 9004   1.060   2.986   3.498
 2702SOL    HW1 9005   1.046   2.904   3.441
 2702SOL    HW2 9006   1.144   2.976   3.550
 2703SOL     OW 9007   2.092   0.708   2.458
 2703SOL    HW1 9008   2.134   0.643   2.395
 2703SOL    HW2 9009   2.089   0.798   2.415
 2704SOL     OW 9010   0.109   6.325   0.926
 2704SOL    HW1 9011   0.029   6.267   0.937
 2704SOL    HW2 9012   0.180   6.275   0.876
 2705SOL     OW 9013   1.555   5.325   4.151
 2705SOL    HW1 9014   1.557   5.240   4.098
 2705SOL    HW2 9015   1.542   5.402   4.089
 2706SOL     OW 9016   0.117   0.826   1.207
 2706SOL    HW1 9017   0.201   0.879   1.216
 2706SOL    HW2 9018   0.048   0.861   1.272
 2707SOL     OW 9019   2.074   0.918   5.077
 2707SOL    HW1 9020   2.112   0.871   4.997
 2707SOL    HW2 9021   1.986   0.958   5.053
 2708SOL     OW 9022   0.964   1.934   0.756
 2708SOL    HW1 9023   0.961   2.009   0.690
 2708SOL    HW2 9024   0.987   1.971   0.847
 2709SOL     OW 9025   5.545   6.370   0.508
 2709SOL    HW1 9026   5.468   6.315   0.477
 2709SOL    HW2 9027   5.540   6.384   0.607
 2710SOL     OW 9028   0.617   3.144   3.237
 2710SOL    HW1 9029   0.614   3.126   3.139
 2710SOL    HW2 9030   0.712   3.143   3.269
 2711SOL     OW 9031   2.596   1.212   3.628
 2711SOL    HW1 9032   2.567   1.134   3.683
 2711SOL    HW2 9033   2.586   1.296   3.680
 2712SOL     OW 9034   3.397   4.842   0.681
 2712SOL    HW1 9035   3.415   4.784   0.760
 2712SOL    HW2 9036   3.462   4.919   0.681
 2713SOL     OW 9037   2.177   2.006   4.820
 2713SOL    HW1 9038   2.184   2.005   4.720
 2713SOL    HW2 9039   2.108   1.939   4.849
 2714SOL     OW 9040   4.771   2.340   0.163
 2714SOL    HW1 9041   4.848   2.288   0.126
 2714SOL    HW2 9042   4.767   2.327   0.262
 2715SOL     OW 9043   5.285   1.004   0.281
 2715SOL    HW1 9044   5.339   0.964   0.356
 2715SOL    HW2 9045   5.191   1.019   0.312
 2716SOL     OW 9046   5.281   4.863   3.007
 2716SOL    HW1 9047   5.305   4.960   3.010
 2716SOL    HW2 9048   5.329   4.819   2.931
 2717SOL     OW 9049   2.558   4.874   2.039
 2717SOL    HW1 9050   2.631   4.813   2.069
 2717SOL    HW2 9051   2.524   4.844   1.950
 2718SOL     OW 9052   1.489   3.543   5.826
 2718SOL    HW1 9053   1.494   3.573   5.921
 2718SOL    HW2 9054   1.564   3.583   5.774
 2719SOL     OW 9055   6.375   5.876   1.378
 2719SOL    HW1 9056   6.463   5.833   1.358
 2719SOL    HW2 9057   6.303   5.806   1.376
 2720SOL     OW 9058   1.867   6.266   2.525
 2720SOL    HW1 9059   1.923   6.234   2.602
 2720SOL    HW2 9060   1.910   6.348   2.485
 2721SOL     OW 9061   3.143   0.567   4.185
 2721SOL    HW1 9062   3.052   0.556   4.224
 2721SOL    HW2 9063   3.188   0.647   4.225
 2722SOL     OW 9064   6.899   5.811   1.748
 2722SOL    HW1 9065   6.870   5.716   1.751
 2722SOL    HW2 9066   6.991   5.820   1.788
 2723SOL     OW 9067   0.933   6.355   5.771
 2723SOL    HW1 9068   0.860   6.306   5.818
 2723SOL    HW2 9069   0.893   6.421   5.707
 2724SOL     OW 9070   2.364   0.138   6.556
 2724SOL    HW1 9071   2.344   0.047   6.520
 2724SOL    HW2 9072   2.329   0.146   6.649
 2725SOL     OW 9073   6.372   4.812   4.182
 2725SOL    HW1 9074   6.424   4.773   4.106
 2725SOL    HW2 9075   6.284   4.766   4.189
 2726SOL     OW 9076   0.155   3.649   1.307
 2726SOL    HW1 9077   0.240   3.599   1.328
 2726SOL    HW2 9078   0.140   3.648   1.209
 2727SOL     OW 9079   0.494   4.932   3.729
 2727SOL    HW1 9080   0.416   4.917   3.790
 2727SOL    HW2 9081   0.482   4.877   3.646
 2728SOL     OW 9082   3.955   6.907   5.936
 2728SOL    HW1 9083   4.019   6.896   5.860
 2728SOL    HW2 9084   3.865   6.873   5.910
 2729SOL     OW 9085   6.181   5.327   1.238
 2729SOL    HW1 9086   6.210   5.416   1.203
 2729SOL    HW2 9087   6.231   5.255   1.190
 2730SOL     OW 9088   1.883   5.481   2.077
 2730SOL    HW1 9089   1.881   5.485   2.177
 2730SOL    HW2 9090   1.863   5.388   2.047
 2731SOL     OW 9091   3.935   3.570   2.024
 2731SOL    HW1 9092   3.889   3.557   2.111
 2731SOL    HW2 9093   3.904   3.656   1.983
 2732SOL     OW 9094   5.206   3.163   2.305
 2732SOL    HW1 9095   5.197   3.229   2.230
 2732SOL    HW2 9096   5.253   3.206   2.382
 2733SOL     OW 9097   0.207   6.657   4.997
 2733SOL    HW1 9098   0.182   6.564   4.968
 2733SOL    HW2 9099   0.128   6.717   4.986
 2734SOL     OW 9100   2.398   5.906   1.839
 2734SOL    HW1 9101   2.378   5.932   1.745
 2734SOL    HW2 9102   2.412   5.988   1.895
 2735SOL     OW 9103   1.028   3.206   2.718
 2735SOL    HW1 9104   1.019   3.117   2.674
 2735SOL    HW2 9105   1.095   3.261   2.668
 2736SOL     OW 9106   4.174   0.055   4.653
 2736SOL    HW1 9107   4.255   0.094   4.609
 2736SOL    HW2 9108   4.196   6.990   4.690
 2737SOL     OW 9109   3.763   3.889   5.658
 2737SOL    HW1 9110   3.762   3.988   5.676
 2737SOL    HW2 9111   3.723   3.841   5.736
 2738SOL     OW 9112   5.738   4.917   4.215
 2738SOL    HW1 9113   5.735   4.832   4.267
 2738SOL    HW2 9114   5.665   4.917   4.147
 2739SOL     OW 9115   6.686   5.334   0.602
 2739SOL    HW1 9116   6.661   5.269   0.530
 2739SOL    HW2 9117   6.786   5.346   0.602
 2740SOL     OW 9118   6.187   3.551   2.339
 2740SOL    HW1 9119   6.220   3.551   2.244
 2740SOL    HW2 9120   6.137   3.466   2.356
 2741SOL     OW 9121   6.506   0.966   5.440
 2741SOL    HW1 9122   6.556   0.898   5.386
 2741SOL    HW2 9123   6.463   1.033   5.379
 2742SOL     OW 9124   1.908   4.630   6.905
 2742SOL    HW1 9125   1.944   4.542   6.934
 2742SOL    HW2 9126   1.960   4.662   6.825
 2743SOL     OW 9127   6.427   5.371   2.579
 2743SOL    HW1 9128   6.440   5.415   2.491
 2743SOL    HW2 9129   6.427   5.440   2.651
 2744SOL     OW 9130   4.651   1.835   0.168
 2744SOL    HW1 9131   4.580   1.882   0.222
 2744SOL    HW2 9132   4.647   1.867   0.073
 2745SOL     OW 9133   0.920   6.863   6.779
 2745SOL    HW1 9134   0.852   6.882   6.709
 2745SOL    HW2 9135   0.942   6.947   6.828
 2746SOL     OW 9136   2.354   2.175   3.444
 2746SOL    HW1 9137   2.384   2.092   3.490
 2746SOL    HW2 9138   2.398   2.181   3.354
 2747SOL     OW 9139   5.459   3.454   5.974
 2747SOL    HW1 9140   5.398   3.387   6.018
 2747SOL    HW2 9141   5.410   3.500   5.900
 2748SOL     OW 9142   4.249   1.863   0.777
 2748SOL    HW1 9143   4.209   1.853   0.868
 2748SOL    HW2 9144   4.260   1.773   0.735
 2749SOL     OW 9145   6.173   4.725   3.723
 2749SOL    HW1 9146   6.248   4.747   3.661
 2749SOL    HW2 9147   6.103   4.796   3.718
 2750SOL     OW 9148   0.665   4.869   1.344
 2750SOL    HW1 9149   0.721   4.807   1.400
 2750SOL    HW2 9150   0.584   4.897   1.396
 2751SOL     OW 9151   0.582   6.543   0.631
 2751SOL    HW1 9152   0.518   6.487   0.578
 2751SOL    HW2 9153   0.660   6.566   0.574
 2752SOL     OW 9154   4.719   4.758   4.898
 2752SOL    HW1 9155   4.666   4.674   4.887
 2752SOL    HW2 9156   4.777   4.772   4.818
 2753SOL     OW 9157   1.014   6.564   5.926
 2753SOL    HW1 9158   1.109   6.577   5.955
 2753SOL    HW2 9159   1.010   6.489   5.860
 2754SOL     OW 9160   6.550   0.768   4.026
 2754SOL    HW1 9161   6.495   0.772   3.942
 2754SOL    HW2 9162   6.625   0.834   4.020
 2755SOL     OW 9163   2.545   6.739   3.681
 2755SOL    HW1 9164   2.554   6.705   3.588
 2755SOL    HW2 9165   2.457   6.784   3.693
 2756SOL     OW 9166   5.936   4.285   5.474
 2756SOL    HW1 9167   5.983   4.278   5.562
 2756SOL    HW2 9168   5.837   4.277   5.489
 2757SOL     OW 9169   2.158   1.641   6.017
 2757SOL    HW1 9170   2.183   1.547   6.036
 2757SOL    HW2 9171   2.154   1.693   6.102
 2758SOL     OW 9172   5.011   6.375   3.487
 2758SOL    HW1 9173   5.004   6.472   3.507
 2758SOL    HW2 9174   4.979   6.358   3.393
 2759SOL     OW 9175   4.528   5.970   5.259
 2759SOL    HW1 9176   4.599   6.040   5.250
 2759SOL    HW2 9177   4.438   6.011   5.240
 2760SOL     OW 9178   6.757   5.468   2.538
 2760SOL    HW1 9179   6.730   5.425   2.452
 2760SOL    HW2 9180   6.802   5.399   2.597
 2761SOL     OW 9181   2.033   4.158   4.573
 2761SOL    HW1 9182   2.077   4.178   4.661
 2761SOL    HW2 9183   2.074   4.076   4.533
 2762SOL     OW 9184   1.880   1.667   6.704
 2762SOL    HW1 9185   1.846   1.761   6.713
 2762SOL    HW2 9186   1.939   1.645   6.781
 2763SOL     OW 9187   4.884   2.206   5.013
 2763SOL    HW1 9188   4.853   2.245   5.100
 2763SOL    HW2 9189   4.825   2.238   4.939
 2764SOL     OW 9190   0.641   6.607   2.107
 2764SOL    HW1 9191   0.614   6.675   2.174
 2764SOL    HW2 9192   0.652   6.651   2.017
 2765SOL     OW 9193   6.780   0.181   0.720
 2765SOL    HW1 9194   6.832   0.116   0.775
 2765SOL    HW2 9195   6.718   0.234   0.779
 2766SOL     OW 9196   4.135   2.490   6.476
 2766SOL    HW1 9197   4.070   2.455   6.409
 2766SOL    HW2 9198   4.108   2.583   6.502
 2767SOL     OW 9199   6.593   5.328   6.472
 2767SOL    HW1 9200   6.510   5.328   6.527
 2767SOL    HW2 9201   6.635   5.237   6.474
 2768SOL     OW 9202   4.338   0.654   1.162
 2768SOL    HW1 9203   4.246   0.632   1.194
 2768SOL    HW2 9204   4.386   0.569   1.139
 2769SOL     OW 9205   2.691   4.278   6.394
 2769SOL    HW1 9206   2.681   4.179   6.387
 2769SOL    HW2 9207   2.707   4.317   6.303
 2770SOL     OW 9208   4.694   5.320   5.288
 2770SOL    HW1 9209   4.691   5.420   5.298
 2770SOL    HW2 9210   4.765   5.295   5.222
 2771SOL     OW 9211   5.584   0.871   4.717
 2771SOL    HW1 9212   5.518   0.935   4.677
 2771SOL    HW2 9213   5.620   0.909   4.802
 2772SOL     OW 9214   3.299   1.182   1.406
 2772SOL    HW1 9215   3.217   1.134   1.376
 2772SOL    HW2 9216   3.373   1.167   1.340
 2773SOL     OW 9217   6.715   2.748   3.932
 2773SOL    HW1 9218   6.720   2.650   3.951
 2773SOL    HW2 9219   6.764   2.798   4.003
 2774SOL     OW 9220   5.047   3.124   2.688
 2774SOL    HW1 9221   5.095   3.043   2.653
 2774SOL    HW2 9222   4.987   3.160   2.616
 2775SOL     OW 9223   6.464   3.280   4.111
 2775SOL    HW1 9224   6.481   3.378   4.116
 2775SOL    HW2 9225   6.381   3.257   4.161
 2776SOL     OW 9226   4.950   4.215   5.581
 2776SOL    HW1 9227   4.890   4.284   5.621
 2776SOL    HW2 9228   4.925   4.125   5.616
 2777SOL     OW 9229   2.387   2.037   1.130
 2777SOL    HW1 9230   2.468   2.095   1.119
 2777SOL    HW2 9231   2.382   2.005   1.225
 2778SOL     OW 9232   0.944   6.132   6.534
 2778SOL    HW1 9233   0.926   6.062   6.465
 2778SOL    HW2 9234   1.041   6.130   6.559
 2779SOL     OW 9235   5.494   6.676   1.914
 2779SOL    HW1 9236   5.552   6.597   1.897
 2779SOL    HW2 9237   5.497   6.738   1.836
 2780SOL     OW 9238   6.840   0.377   5.824
 2780SOL    HW1 9239   6.828   0.346   5.919
 2780SOL    HW2 9240   6.809   0.305   5.762
 2781SOL     OW 9241   6.226   0.403   3.327
 2781SOL    HW1 9242   6.268   0.329   3.274
 2781SOL    HW2 9243   6.246   0.491   3.283
 2782SOL     OW 9244   4.374   1.468   4.773
 2782SOL    HW1 9245   4.293   1.523   4.754
 2782SOL    HW2 9246   4.386   1.459   4.872
 2783SOL     OW 9247   6.864   4.138   2.005
 2783SOL    HW1 9248   6.870   4.223   2.056
 2783SOL    HW2 9249   6.892   4.154   1.910
 2784SOL     OW 9250   3.254   1.367   2.433
 2784SOL    HW1 9251   3.316   1.435   2.473
 2784SOL    HW2 9252   3.296   1.327   2.352
 2785SOL     OW 9253   5.099   2.375   0.469
 2785SOL    HW1 9254   5.114   2.458   0.417
 2785SOL    HW2 9255   5.015   2.330   0.438
 2786SOL     OW 9256   6.470   6.663   1.793
 2786SOL    HW1 9257   6.531   6.620   1.859
 2786SOL    HW2 9258   6.514   6.743   1.753
 2787SOL     OW 9259   6.000   6.677   5.754
 2787SOL    HW1 9260   5.910   6.711   5.780
 2787SOL    HW2 9261   6.018   6.701   5.659
 2788SOL     OW 9262   2.358   6.544   6.019
 2788SOL    HW1 9263   2.335   6.642   6.016
 2788SOL    HW2 9264   2.378   6.512   5.926
 2789SOL     OW 9265   1.894   1.710   3.694
 2789SOL    HW1 9266   1.931   1.794   3.655
 2789SOL    HW2 9267   1.808   1.687   3.649
 2790SOL     OW 9268   3.870   5.380   1.167
 2790SOL    HW1 9269   3.800   5.449   1.150
 2790SOL    HW2 9270   3.951   5.424   1.206
 2791SOL     OW 9271   0.912   4.094   1.996
 2791SOL    HW1 9272   0.822   4.056   1.975
 2791SOL    HW2 9273   0.966   4.026   2.046
 2792SOL     OW 9274   3.085   0.859   4.534
 2792SOL    HW1 9275   3.149   0.910   4.477
 2792SOL    HW2 9276   2.991   0.879   4.504
 2793SOL     OW 9277   5.187   3.601   1.977
 2793SOL    HW1 9278   5.260   3.547   1.935
 2793SOL    HW2 9279   5.099   3.570   1.941
 2794SOL     OW 9280   6.682   2.178   5.826
 2794SOL    HW1 9281   6.754   2.116   5.855
 2794SOL    HW2 9282   6.699   2.209   5.732
 2795SOL     OW 9283   0.675   4.057   1.290
 2795SOL    HW1 9284   0.660   3.960   1.271
 2795SOL    HW2 9285   0.589   4.107   1.279
 2796SOL     OW 9286   0.059   6.041   3.529
 2796SOL    HW1 9287   7.018   6.102   3.483
 2796SOL    HW2 9288   0.140   6.092   3.555
 2797SOL     OW 9289   5.449   5.053   5.760
 2797SOL    HW1 9290   5.370   5.032   5.818
 2797SOL    HW2 9291   5.474   4.971   5.708
 2798SOL     OW 9292   6.123   5.752   2.723
 2798SOL    HW1 9293   6.041   5.719   2.771
 2798SOL    HW2 9294   6.143   5.691   2.646
 2799SOL     OW 9295   5.737   5.824   6.185
 2799SOL    HW1 9296   5.687   5.876   6.116
 2799SOL    HW2 9297   5.834   5.824   6.164
 2800SOL     OW 9298   5.683   6.366   5.476
 2800SOL    HW1 9299   5.616   6.343   5.406
 2800SOL    HW2 9300   5.637   6.405   5.555
 2801SOL     OW 9301   0.519   5.386   6.094
 2801SOL    HW1 9302   0.584   5.448   6.138
 2801SOL    HW2 9303   0.519   5.402   5.996
 2802SOL     OW 9304   6.333   6.489   5.249
 2802SOL    HW1 9305   6.312   6.558   5.318
 2802SOL    HW2 9306   6.255   6.427   5.240
 2803SOL     OW 9307   3.860   5.127   5.999
 2803SOL    HW1 9308   3.935   5.066   5.972
 2803SOL    HW2 9309   3.778   5.104   5.947
 2804SOL     OW 9310   0.534   3.726   4.959
 2804SOL    HW1 9311   0.482   3.707   4.876
 2804SOL    HW2 9312   0.596   3.802   4.942
 2805SOL     OW 9313   5.595   3.472   3.101
 2805SOL    HW1 9314   5.676   3.495   3.154
 2805SOL    HW2 9315   5.615   3.478   3.004
 2806SOL     OW 9316   2.120   3.761   5.859
 2806SOL    HW1 9317   2.100   3.763   5.761
 2806SOL    HW2 9318   2.206   3.810   5.877
 2807SOL     OW 9319   4.228   0.481   3.000
 2807SOL    HW1 9320   4.139   0.438   2.987
 2807SOL    HW2 9321   4.301   0.415   2.983
 2808SOL     OW 9322   6.627   5.334   0.881
 2808SOL    HW1 9323   6.629   5.328   0.781
 2808SOL    HW2 9324   6.630   5.241   0.920
 2809SOL     OW 9325   5.125   2.382   1.836
 2809SOL    HW1 9326   5.187   2.443   1.887
 2809SOL    HW2 9327   5.140   2.393   1.738
 2810SOL     OW 9328   2.253   5.584   2.761
 2810SOL    HW1 9329   2.253   5.608   2.858
 2810SOL    HW2 9330   2.184   5.638   2.713
 2811SOL     OW 9331   0.809   1.739   2.974
 2811SOL    HW1 9332   0.846   1.654   3.009
 2811SOL    HW2 9333   0.827   1.746   2.876
 2812SOL     OW 9334   6.120   3.832   0.877
 2812SOL    HW1 9335   6.174   3.876   0.948
 2812SOL    HW2 9336   6.151   3.738   0.865
 2813SOL     OW 9337   0.829   1.690   6.827
 2813SOL    HW1 9338   0.791   1.750   6.757
 2813SOL    HW2 9339   0.824   1.736   6.916
 2814SOL     OW 9340   3.404   4.160   5.540
 2814SOL    HW1 9341   3.345   4.106   5.600
 2814SOL    HW2 9342   3.423   4.107   5.457
 2815SOL     OW 9343   6.321   5.070   6.424
 2815SOL    HW1 9344   6.276   5.148   6.467
 2815SOL    HW2 9345   6.342   5.092   6.329
 2816SOL     OW 9346   6.437   6.171   4.554
 2816SOL    HW1 9347   6.501   6.188   4.479
 2816SOL    HW2 9348   6.477   6.108   4.619
 2817SOL     OW 9349   3.199   0.772   2.800
 2817SOL    HW1 9350   3.275   0.715   2.832
 2817SOL    HW2 9351   3.205   0.863   2.842
 2818SOL     OW 9352   0.096   1.161   2.426
 2818SOL    HW1 9353   0.178   1.218   2.420
 2818SOL    HW2 9354   0.111   1.088   2.493
 2819SOL     OW 9355   1.459   0.504   1.923
 2819SOL    HW1 9356   1.555   0.533   1.920
 2819SOL    HW2 9357   1.418   0.533   2.010
 2820SOL     OW 9358   1.349   1.979   2.346
 2820SOL    HW1 9359   1.393   1.915   2.409
 2820SOL    HW2 9360   1.342   2.069   2.391
 2821SOL     OW 9361   2.973   5.072   6.160
 2821SOL    HW1 9362   3.025   4.988   6.175
 2821SOL    HW2 9363   2.936   5.072   6.067
 2822SOL     OW 9364   4.496   2.189   0.403
 2822SOL    HW1 9365   4.524   2.093   0.400
 2822SOL    HW2 9366   4.412   2.198   0.457
 2823SOL     OW 9367   6.215   0.480   6.920
 2823SOL    HW1 9368   6.170   0.428   6.993
 2823SOL    HW2 9369   6.225   0.422   6.840
 2824SOL     OW 9370   2.188   2.128   5.166
 2824SOL    HW1 9371   2.252   2.197   5.132
 2824SOL    HW2 9372   2.219   2.038   5.138
 2825SOL     OW 9373   5.510   6.810   5.535
 2825SOL    HW1 9374   5.443   6.749   5.493
 2825SOL    HW2 9375   5.479   6.904   5.529
 2826SOL     OW 9376   3.548   3.004   6.615
 2826SOL    HW1 9377   3.473   2.968   6.670
 2826SOL    HW2 9378   3.615   3.049   6.675
 2827SOL     OW 9379   0.161   0.896   6.425
 2827SOL    HW1 9380   0.182   0.823   6.490
 2827SOL    HW2 9381   0.063   0.918   6.430
 2828SOL     OW 9382   2.213   3.378   0.704
 2828SOL    HW1 9383   2.138   3.428   0.660
 2828SOL    HW2 9384   2.249   3.432   0.779
 2829SOL     OW 9385   3.028   3.133   3.634
 2829SOL    HW1 9386   3.006   3.230   3.621
 2829SOL    HW2 9387   3.084   3.102   3.558
 2830SOL     OW 9388   3.434   4.284   5.257
 2830SOL    HW1 9389   3.376   4.244   5.185
 2830SOL    HW2 9390   3.529   4.285   5.226
 2831SOL     OW 9391   1.333   3.149   2.769
 2831SOL    HW1 9392   1.286   3.237   2.776
 2831SOL    HW2 9393   1.298   3.086   2.838
 2832SOL     OW 9394   0.973   2.789   1.597
 2832SOL    HW1 9395   1.067   2.822   1.582
 2832SOL    HW2 9396   0.959   2.706   1.543
 2833SOL     OW 9397   2.618   1.664   1.882
 2833SOL    HW1 9398   2.702   1.694   1.928
 2833SOL    HW2 9399   2.550   1.638   1.951
 2834SOL     OW 9400   4.154   6.145   4.221
 2834SOL    HW1 9401   4.131   6.191   4.135
 2834SOL    HW2 9402   4.071   6.105   4.261
 2835SOL     OW 9403   0.751   7.013   0.646
 2835SOL    HW1 9404   0.820   7.023   0.574
 2835SOL    HW2 9405   0.714   0.079   0.668
 2836SOL     OW 9406   1.384   6.474   1.528
 2836SOL    HW1 9407   1.361   6.505   1.436
 2836SOL    HW2 9408   1.483   6.462   1.534
 2837SOL     OW 9409   5.364   4.479   2.520
 2837SOL    HW1 9410   5.404   4.466   2.430
 2837SOL    HW2 9411   5.437   4.497   2.586
 2838SOL     OW 9412   4.730   3.802   0.681
 2838SOL    HW1 9413   4.822   3.836   0.663
 2838SOL    HW2 9414   4.713   3.802   0.780
 2839SOL     OW 9415   0.408   2.983   2.727
 2839SOL    HW1 9416   0.473   2.982   2.651
 2839SOL    HW2 9417   0.336   3.050   2.709
 2840SOL     OW 9418   1.437   6.280   2.476
 2840SOL    HW1 9419   1.403   6.299   2.568
 2840SOL    HW2 9420   1.369   6.226   2.426
 2841SOL     OW 9421   6.524   2.473   6.406
 2841SOL    HW1 9422   6.592   2.530   6.452
 2841SOL    HW2 9423   6.566   2.430   6.326
 2842SOL     OW 9424   0.747   5.561   4.790
 2842SOL    HW1 9425   0.801   5.635   4.830
 2842SOL    HW2 9426   0.764   5.477   4.841
 2843SOL     OW 9427   2.452   1.633   2.115
 2843SOL    HW1 9428   2.498   1.682   2.189
 2843SOL    HW2 9429   2.375   1.688   2.081
 2844SOL     OW 9430   6.016   5.307   0.869
 2844SOL    HW1 9431   6.054   5.399   0.883
 2844SOL    HW2 9432   5.974   5.275   0.954
 2845SOL     OW 9433   5.483   3.304   2.737
 2845SOL    HW1 9434   5.574   3.323   2.701
 2845SOL    HW2 9435   5.486   3.224   2.797
 2846SOL     OW 9436   3.913   0.405   0.613
 2846SOL    HW1 9437   3.818   0.431   0.631
 2846SOL    HW2 9438   3.917   0.309   0.586
 2847SOL     OW 9439   5.104   3.946   3.112
 2847SOL    HW1 9440   5.023   3.986   3.155
 2847SOL    HW2 9441   5.076   3.880   3.042
 2848SOL     OW 9442   2.289   2.790   5.732
 2848SOL    HW1 9443   2.220   2.793   5.804
 2848SOL    HW2 9444   2.377   2.820   5.770
 2849SOL     OW 9445   3.414   0.891   1.501
 2849SOL    HW1 9446   3.373   0.836   1.428
 2849SOL    HW2 9447   3.428   0.984   1.468
 2850SOL     OW 9448   2.024   7.011   3.256
 2850SOL    HW1 9449   1.953   0.003   3.324
 2850SOL    HW2 9450   2.053   0.074   3.216
 2851SOL     OW 9451   4.833   3.290   6.689
 2851SOL    HW1 9452   4.800   3.354   6.759
 2851SOL    HW2 9453   4.787   3.203   6.699
 2852SOL     OW 9454   5.904   4.134   6.925
 2852SOL    HW1 9455   5.839   4.124   7.000
 2852SOL    HW2 9456   5.886   4.220   6.876
 2853SOL     OW 9457   0.904   2.851   0.107
 2853SOL    HW1 9458   0.967   2.840   0.031
 2853SOL    HW2 9459   0.892   2.948   0.128
 2854SOL     OW 9460   3.685   0.472   5.957
 2854SOL    HW1 9461   3.638   0.449   5.872
 2854SOL    HW2 9462   3.698   0.571   5.961
 2855SOL     OW 9463   1.689   2.492   5.263
 2855SOL    HW1 9464   1.737   2.580   5.252
 2855SOL    HW2 9465   1.625   2.479   5.187
 2856SOL     OW 9466   1.075   2.840   4.231
 2856SOL    HW1 9467   1.144   2.875   4.294
 2856SOL    HW2 9468   1.110   2.842   4.137
 2857SOL     OW 9469   0.374   2.774   1.345
 2857SOL    HW1 9470   0.315   2.755   1.423
 2857SOL    HW2 9471   0.405   2.688   1.305
 2858SOL     OW 9472   5.498   5.724   2.031
 2858SOL    HW1 9473   5.484   5.639   1.981
 2858SOL    HW2 9474   5.512   5.704   2.128
 2859SOL     OW 9475   5.977   6.600   6.984
 2859SOL    HW1 9476   6.058   6.542   6.994
 2859SOL    HW2 9477   5.895   6.545   6.995
 2860SOL     OW 9478   2.279   0.172   2.418
 2860SOL    HW1 9479   2.334   0.236   2.366
 2860SOL    HW2 9480   2.229   0.221   2.489
 2861SOL     OW 9481   3.588   5.643   5.395
 2861SOL    HW1 9482   3.521   5.688   5.337
 2861SOL    HW2 9483   3.643   5.579   5.341
 2862SOL     OW 9484   4.287   2.309   1.956
 2862SOL    HW1 9485   4.383   2.334   1.943
 2862SOL    HW2 9486   4.229   2.369   1.899
 2863SOL     OW 9487   4.920   1.636   6.438
 2863SOL    HW1 9488   4.876   1.666   6.354
 2863SOL    HW2 9489   4.857   1.580   6.491
 2864SOL     OW 9490   4.758   2.205   0.845
 2864SOL    HW1 9491   4.747   2.197   0.944
 2864SOL    HW2 9492   4.763   2.114   0.804
 2865SOL     OW 9493   4.272   6.667   3.605
 2865SOL    HW1 9494   4.228   6.691   3.691
 2865SOL    HW2 9495   4.317   6.747   3.566
 2866SOL     OW 9496   5.649   3.804   0.625
 2866SOL    HW1 9497   5.645   3.820   0.526
 2866SOL    HW2 9498   5.734   3.758   0.647
 2867SOL     OW 9499   5.843   6.102   2.900
 2867SOL    HW1 9500   5.776   6.177   2.906
 2867SOL    HW2 9501   5.926   6.129   2.948
 2868SOL     OW 9502   1.132   1.167   5.340
 2868SOL    HW1 9503   1.130   1.074   5.376
 2868SOL    HW2 9504   1.041   1.207   5.344
 2869SOL     OW 9505   6.482   0.855   3.503
 2869SOL    HW1 9506   6.478   0.933   3.566
 2869SOL    HW2 9507   6.576   0.842   3.473
 2870SOL     OW 9508   0.690   1.745   6.426
 2870SOL    HW1 9509   0.713   1.666   6.483
 2870SOL    HW2 9510   0.610   1.792   6.463
 2871SOL     OW 9511   6.091   0.437   0.248
 2871SOL    HW1 9512   6.007   0.449   0.300
 2871SOL    HW2 9513   6.147   0.520   0.255
 2872SOL     OW 9514   2.657   1.795   0.957
 2872SOL    HW1 9515   2.612   1.855   0.890
 2872SOL    HW2 9516   2.745   1.835   0.983
 2873SOL     OW 9517   6.789   6.828   2.520
 2873SOL    HW1 9518   6.724   6.765   2.477
 2873SOL    HW2 9519   6.757   6.848   2.613
 2874SOL     OW 9520   3.917   6.473   2.811
 2874SOL    HW1 9521   3.985   6.433   2.750
 2874SOL    HW2 9522   3.947   6.464   2.906
 2875SOL     OW 9523   4.562   6.638   2.397
 2875SOL    HW1 9524   4.490   6.572   2.375
 2875SOL    HW2 9525   4.612   6.608   2.478
 2876SOL     OW 9526   1.533   0.314   2.539
 2876SOL    HW1 9527   1.526   0.247   2.465
 2876SOL    HW2 9528   1.625   0.312   2.577
 2877SOL     OW 9529   2.160   0.758   5.964
 2877SOL    HW1 9530   2.249   0.787   5.997
 2877SOL    HW2 9531   2.099   0.836   5.958
 2878SOL     OW 9532   3.081   3.445   5.459
 2878SOL    HW1 9533   3.042   3.354   5.469
 2878SOL    HW2 9534   3.008   3.510   5.435
 2879SOL     OW 9535   5.515   5.511   5.552
 2879SOL    HW1 9536   5.490   5.550   5.464
 2879SOL    HW2 9537   5.580   5.436   5.538
 2880SOL     OW 9538   6.979   1.522   3.562
 2880SOL    HW1 9539   6.970   1.437   3.614
 2880SOL    HW2 9540   0.052   1.543   3.549
 2881SOL     OW 9541   3.418   5.835   6.520
 2881SOL    HW1 9542   3.357   5.821   6.442
 2881SOL    HW2 9543   3.385   5.913   6.574
 2882SOL     OW 9544   6.549   5.477   1.255
 2882SOL    HW1 9545   6.622   5.480   1.324
 2882SOL    HW2 9546   6.537   5.568   1.215
 2883SOL     OW 9547   5.806   6.985   3.527
 2883SOL    HW1 9548   5.736   6.939   3.582
 2883SOL    HW2 9549   5.763   7.024   3.446
 2884SOL     OW 9550   7.005   6.045   2.461
 2884SOL    HW1 9551   6.948   6.092   2.529
 2884SOL    HW2 9552   0.037   6.113   2.413
 2885SOL     OW 9553   1.491   2.417   4.717
 2885SOL    HW1 9554   1.541   2.469   4.648
 2885SOL    HW2 9555   1.447   2.339   4.674
 2886SOL     OW 9556   1.950   3.851   6.074
 2886SOL    HW1 9557   1.980   3.797   5.996
 2886SOL    HW2 9558   2.026   3.910   6.104
 2887SOL     OW 9559   0.375   6.268   4.829
 2887SOL    HW1 9560   0.373   6.233   4.922
 2887SOL    HW2 9561   0.470   6.283   4.801
 2888SOL     OW 9562   0.401   4.579   6.993
 2888SOL    HW1 9563   0.443   4.490   7.011
 2888SOL    HW2 9564   0.378   4.586   6.896
 2889SOL     OW 9565   3.079   6.459   2.809
 2889SOL    HW1 9566   3.077   6.523   2.886
 2889SOL    HW2 9567   3.010   6.486   2.741
 2890SOL     OW 9568   1.615   5.840   0.708
 2890SOL    HW1 9569   1.636   5.816   0.613
 2890SOL    HW2 9570   1.682   5.906   0.742
 2891SOL     OW 9571   0.998   3.478   3.348
 2891SOL    HW1 9572   1.035   3.386   3.331
 2891SOL    HW2 9573   0.971   3.485   3.444
 2892SOL     OW 9574   5.780   2.858   1.657
 2892SOL    HW1 9575   5.699   2.815   1.618
 2892SOL    HW2 9576   5.792   2.948   1.616
 2893SOL     OW 9577   1.190   5.199   4.031
 2893SOL    HW1 9578   1.275   5.207   3.979
 2893SOL    HW2 9579   1.112   5.195   3.968
 2894SOL     OW 9580   1.402   3.731   1.576
 2894SOL    HW1 9581   1.313   3.695   1.604
 2894SOL    HW2 9582   1.431   3.801   1.641
 2895SOL     OW 9583   4.406   0.595   6.293
 2895SOL    HW1 9584   4.475   0.523   6.297
 2895SOL    HW2 9585   4.371   0.614   6.385
 2896SOL     OW 9586   3.807   0.281   5.135
 2896SOL    HW1 9587   3.867   0.342   5.084
 2896SOL    HW2 9588   3.861   0.224   5.197
 2897SOL     OW 9589   3.686   4.928   2.554
 2897SOL    HW1 9590   3.737   5.002   2.511
 2897SOL    HW2 9591   3.722   4.840   2.521
 2898SOL     OW 9592   4.623   4.373   4.182
 2898SOL    HW1 9593   4.566   4.449   4.214
 2898SOL    HW2 9594   4.710   4.410   4.147
 2899SOL     OW 9595   6.718   1.995   0.477
 2899SOL    HW1 9596   6.778   1.916   0.471
 2899SOL    HW2 9597   6.745   2.063   0.409
 2900SOL     OW 9598   3.968   4.615   6.504
 2900SOL    HW1 9599   4.046   4.558   6.532
 2900SOL    HW2 9600   3.940   4.590   6.412
 2901SOL     OW 9601   1.780   4.974   3.411
 2901SOL    HW1 9602   1.719   5.004   3.485
 2901SOL    HW2 9603   1.728   4.921   3.344
 2902SOL     OW 9604   6.621   5.193   3.420
 2902SOL    HW1 9605   6.553   5.193   3.347
 2902SOL    HW2 9606   6.596   5.126   3.489
 2903SOL     OW 9607   4.041   6.579   0.403
 2903SOL    HW1 9608   4.068   6.574   0.499
 2903SOL    HW2 9609   3.942   6.592   0.397
 2904SOL     OW 9610   3.100   5.237   5.346
 2904SOL    HW1 9611   3.105   5.149   5.299
 2904SOL    HW2 9612   3.118   5.224   5.443
 2905SOL     OW 9613   1.259   3.888   4.028
 2905SOL    HW1 9614   1.325   3.831   3.980
 2905SOL    HW2 9615   1.172   3.839   4.037
 2906SOL     OW 9616   5.393   6.272   2.723
 2906SOL    HW1 9617   5.434   6.328   2.651
 2906SOL    HW2 9618   5.317   6.322   2.765
 2907SOL     OW 9619   0.666   1.539   3.887
 2907SOL    HW1 9620   0.649   1.508   3.794
 2907SOL    HW2 9621   0.748   1.495   3.922
 2908SOL     OW 9622   5.382   6.727   3.443
 2908SOL    HW1 9623   5.408   6.821   3.420
 2908SOL    HW2 9624   5.301   6.728   3.503
 2909SOL     OW 9625   2.007   5.760   3.969
 2909SOL    HW1 9626   2.020   5.859   3.974
 2909SOL    HW2 9627   1.909   5.739   3.976
 2910SOL     OW 9628   6.445   0.394   3.726
 2910SOL    HW1 9629   6.477   0.410   3.819
 2910SOL    HW2 9630   6.420   0.481   3.683
 2911SOL     OW 9631   1.730   5.119   4.001
 2911SOL    HW1 9632   1.728   5.023   3.976
 2911SOL    HW2 9633   1.702   5.175   3.922
 2912SOL     OW 9634   6.324   6.679   6.903
 2912SOL    HW1 9635   6.280   6.614   6.966
 2912SOL    HW2 9636   6.410   6.710   6.942
 2913SOL     OW 9637   3.220   5.115   1.972
 2913SOL    HW1 9638   3.211   5.089   2.068
 2913SOL    HW2 9639   3.130   5.134   1.934
 2914SOL     OW 9640   5.926   6.028   0.859
 2914SOL    HW1 9641   5.892   6.114   0.898
 2914SOL    HW2 9642   5.872   6.005   0.778
 2915SOL     OW 9643   2.930   1.830   3.567
 2915SOL    HW1 9644   2.980   1.745   3.550
 2915SOL    HW2 9645   2.942   1.892   3.489
 2916SOL     OW 9646   1.094   5.252   0.590
 2916SOL    HW1 9647   1.156   5.254   0.669
 2916SOL    HW2 9648   1.144   5.219   0.509
 2917SOL     OW 9649   3.184   0.329   4.617
 2917SOL    HW1 9650   3.164   0.426   4.607
 2917SOL    HW2 9651   3.241   0.298   4.541
 2918SOL     OW 9652   6.182   3.976   5.493
 2918SOL    HW1 9653   6.215   4.069   5.475
 2918SOL    HW2 9654   6.169   3.964   5.592
 2919SOL     OW 9655   6.679   0.093   3.210
 2919SOL    HW1 9656   6.626   0.177   3.211
 2919SOL    HW2 9657   6.725   0.081   3.298
 2920SOL     OW 9658   3.554   0.321   1.498
 2920SOL    HW1 9659   3.489   0.389   1.533
 2920SOL    HW2 9660   3.538   0.307   1.400
 2921SOL     OW 9661   0.179   6.923   5.446
 2921SOL    HW1 9662   0.221   6.984   5.514
 2921SOL    HW2 9663   0.080   6.921   5.459
 2922SOL     OW 9664   4.424   6.056   1.368
 2922SOL    HW1 9665   4.337   6.028   1.328
 2922SOL    HW2 9666   4.409   6.131   1.432
 2923SOL     OW 9667   0.031   5.393   4.081
 2923SOL    HW1 9668   0.010   5.340   4.164
 2923SOL    HW2 9669   6.979   5.453   4.060
 2924SOL     OW 9670   6.990   2.118   4.956
 2924SOL    HW1 9671   0.051   2.081   4.992
 2924SOL    HW2 9672   7.007   2.208   4.916
 2925SOL     OW 9673   5.857   2.235   0.728
 2925SOL    HW1 9674   5.787   2.281   0.673
 2925SOL    HW2 9675   5.935   2.214   0.670
 2926SOL     OW 9676   5.418   1.772   6.176
 2926SOL    HW1 9677   5.429   1.739   6.082
 2926SOL    HW2 9678   5.499   1.825   6.201
 2927SOL     OW 9679   1.871   3.854   0.987
 2927SOL    HW1 9680   1.915   3.771   1.021
 2927SOL    HW2 9681   1.785   3.831   0.941
 2928SOL     OW 9682   6.694   0.992   6.980
 2928SOL    HW1 9683   6.595   0.999   6.991
 2928SOL    HW2 9684   6.717   0.989   6.883
 2929SOL     OW 9685   1.742   2.817   5.933
 2929SOL    HW1 9686   1.674   2.888   5.953
 2929SOL    HW2 9687   1.736   2.792   5.836
 2930SOL     OW 9688   5.292   6.446   5.165
 2930SOL    HW1 9689   5.289   6.402   5.075
 2930SOL    HW2 9690   5.344   6.389   5.228
 2931SOL     OW 9691   5.070   5.000   6.963
 2931SOL    HW1 9692   5.084   5.091   6.922
 2931SOL    HW2 9693   4.978   4.967   6.941
 2932SOL     OW 9694   0.660   5.806   1.835
 2932SOL    HW1 9695   0.711   5.747   1.897
 2932SOL    HW2 9696   0.577   5.760   1.805
 2933SOL     OW 9697   1.523   6.613   2.043
 2933SOL    HW1 9698   1.572   6.564   2.115
 2933SOL    HW2 9699   1.452   6.554   2.005
 2934SOL     OW 9700   5.702   2.494   0.252
 2934SOL    HW1 9701   5.623   2.556   0.247
 2934SOL    HW2 9702   5.670   2.400   0.264
 2935SOL     OW 9703   6.513   2.367   5.954
 2935SOL    HW1 9704   6.563   2.298   5.903
 2935SOL    HW2 9705   6.574   2.442   5.978
 2936SOL     OW 9706   4.196   6.411   0.605
 2936SOL    HW1 9707   4.206   6.365   0.517
 2936SOL    HW2 9708   4.101   6.405   0.637
 2937SOL     OW 9709   5.489   5.162   1.253
 2937SOL    HW1 9710   5.541   5.183   1.336
 2937SOL    HW2 9711   5.391   5.163   1.273
 2938SOL     OW 9712   6.195   4.563   0.578
 2938SOL    HW1 9713   6.244   4.520   0.655
 2938SOL    HW2 9714   6.259   4.578   0.503
 2939SOL     OW 9715   1.884   0.823   1.343
 2939SOL    HW1 9716   1.865   0.883   1.266
 2939SOL    HW2 9717   1.975   0.782   1.332
 2940SOL     OW 9718   5.961   5.270   5.706
 2940SOL    HW1 9719   6.034   5.209   5.740
 2940SOL    HW2 9720   5.896   5.287   5.780
 2941SOL     OW 9721   2.090   2.102   3.774
 2941SOL    HW1 9722   2.027   2.138   3.843
 2941SOL    HW2 9723   2.144   2.028   3.813
 2942SOL     OW 9724   3.896   1.784   0.891
 2942SOL    HW1 9725   3.859   1.731   0.967
 2942SOL    HW2 9726   3.984   1.745   0.864
 2943SOL     OW 9727   5.507   4.464   3.750
 2943SOL    HW1 9728   5.475   4.372   3.727
 2943SOL    HW2 9729   5.598   4.458   3.792
 2944SOL     OW 9730   2.391   6.011   3.900
 2944SOL    HW1 9731   2.344   5.939   3.849
 2944SOL    HW2 9732   2.470   6.043   3.847
 2945SOL     OW 9733   4.569   2.644   1.786
 2945SOL    HW1 9734   4.483   2.693   1.800
 2945SOL    HW2 9735   4.586   2.636   1.688
 2946SOL     OW 9736   2.150   4.786   6.142
 2946SOL    HW1 9737   2.235   4.734   6.140
 2946SOL    HW2 9738   2.072   4.722   6.146
 2947SOL     OW 9739   0.866   5.732   1.321
 2947SOL    HW1 9740   0.839   5.771   1.409
 2947SOL    HW2 9741   0.842   5.795   1.247
 2948SOL     OW 9742   7.018   4.530   4.724
 2948SOL    HW1 9743   0.023   4.520   4.818
 2948SOL    HW2 9744   6.968   4.448   4.696
 2949SOL     OW 9745   0.597   5.342   0.294
 2949SOL    HW1 9746   0.597   5.257   0.347
 2949SOL    HW2 9747   0.520   5.342   0.230
 2950SOL     OW 9748   5.890   6.027   4.304
 2950SOL    HW1 9749   5.936   5.946   4.268
 2950SOL    HW2 9750   5.843   6.004   4.389
 2951SOL     OW 9751   5.550   2.058   2.107
 2951SOL    HW1 9752   5.489   1.997   2.159
 2951SOL    HW2 9753   5.603   2.004   2.041
 2952SOL     OW 9754   7.014   6.236   5.600
 2952SOL    HW1 9755   0.016   6.310   5.540
 2952SOL    HW2 9756   0.043   6.154   5.578
 2953SOL     OW 9757   6.468   4.432   3.350
 2953SOL    HW1 9758   6.416   4.354   3.315
 2953SOL    HW2 9759   6.466   4.432   3.450
 2954SOL     OW 9760   0.116   4.513   0.965
 2954SOL    HW1 9761   0.148   4.420   0.945
 2954SOL    HW2 9762   0.170   4.578   0.912
 2955SOL     OW 9763   0.459   4.153   0.875
 2955SOL    HW1 9764   0.500   4.083   0.816
 2955SOL    HW2 9765   0.441   4.115   0.965
 2956SOL     OW 9766   6.440   5.532   3.425
 2956SOL    HW1 9767   6.526   5.536   3.374
 2956SOL    HW2 9768   6.373   5.592   3.381
 2957SOL     OW 9769   4.970   4.696   1.527
 2957SOL    HW1 9770   5.060   4.705   1.484
 2957SOL    HW2 9771   4.950   4.599   1.541
 2958SOL     OW 9772   1.914   4.341   3.047
 2958SOL    HW1 9773   1.986   4.276   3.071
 2958SOL    HW2 9774   1.949   4.408   2.982
 2959SOL     OW 9775   5.506   3.144   2.139
 2959SOL    HW1 9776   5.564   3.085   2.195
 2959SOL    HW2 9777   5.492   3.231   2.185
 2960SOL     OW 9778   3.400   0.071   6.735
 2960SOL    HW1 9779   3.468   0.048   6.804
 2960SOL    HW2 9780   3.324   0.119   6.778
 2961SOL     OW 9781   6.075   4.863   3.149
 2961SOL    HW1 9782   6.167   4.897   3.129
 2961SOL    HW2 9783   6.016   4.878   3.069
 2962SOL     OW 9784   4.710   6.336   3.572
 2962SOL    HW1 9785   4.726   6.432   3.593
 2962SOL    HW2 9786   4.695   6.325   3.474
 2963SOL     OW 9787   0.959   1.021   0.058
 2963SOL    HW1 9788   0.974   1.107   0.106
 2963SOL    HW2 9789   0.868   0.986   0.080
 2964SOL     OW 9790   0.302   1.455   5.868
 2964SOL    HW1 9791   0.388   1.460   5.919
 2964SOL    HW2 9792   0.316   1.402   5.784
 2965SOL     OW 9793   0.551   1.137   5.036
 2965SOL    HW1 9794   0.519   1.080   4.961
 2965SOL    HW2 9795   0.624   1.090   5.086
 2966SOL     OW 9796   5.092   5.273   3.066
 2966SOL    HW1 9797   5.004   5.321   3.076
 2966SOL    HW2 9798   5.097   5.200   3.134
 2967SOL     OW 9799   6.214   0.554   5.815
 2967SOL    HW1 9800   6.182   0.638   5.772
 2967SOL    HW2 9801   6.273   0.577   5.893
 2968SOL     OW 9802   0.695   2.359   0.570
 2968SOL    HW1 9803   0.773   2.365   0.632
 2968SOL    HW2 9804   0.693   2.439   0.511
 2969SOL     OW 9805   4.611   2.706   3.875
 2969SOL    HW1 9806   4.527   2.663   3.905
 2969SOL    HW2 9807   4.661   2.741   3.955
 2970SOL     OW 9808   2.574   3.313   5.370
 2970SOL    HW1 9809   2.528   3.224   5.376
 2970SOL    HW2 9810   2.521   3.381   5.422
 2971SOL     OW 9811   5.009   3.850   0.674
 2971SOL    HW1 9812   5.048   3.929   0.628
 2971SOL    HW2 9813   5.046   3.766   0.634
 2972SOL     OW 9814   6.369   5.384   6.640
 2972SOL    HW1 9815   6.391   5.422   6.730
 2972SOL    HW2 9816   6.275   5.350   6.640
 2973SOL     OW 9817   4.950   6.682   1.990
 2973SOL    HW1 9818   4.906   6.679   1.900
 2973SOL    HW2 9819   5.048   6.667   1.979
 2974SOL     OW 9820   7.022   4.559   3.837
 2974SOL    HW1 9821   0.012   4.464   3.861
 2974SOL    HW2 9822   0.006   4.570   3.738
 2975SOL     OW 9823   4.689   4.247   3.746
 2975SOL    HW1 9824   4.629   4.305   3.801
 2975SOL    HW2 9825   4.750   4.195   3.807
 2976SOL     OW 9826   5.132   1.765   2.384
 2976SOL    HW1 9827   5.151   1.799   2.292
 2976SOL    HW2 9828   5.099   1.671   2.379
 2977SOL     OW 9829   0.730   0.710   2.663
 2977SOL    HW1 9830   0.760   0.659   2.583
 2977SOL    HW2 9831   0.770   0.802   2.662
 2978SOL     OW 9832   4.071   4.742   0.357
 2978SOL    HW1 9833   3.971   4.735   0.363
 2978SOL    HW2 9834   4.108   4.770   0.446
 2979SOL     OW 9835   3.192   1.507   4.168
 2979SOL    HW1 9836   3.202   1.466   4.259
 2979SOL    HW2 9837   3.143   1.594   4.175
 2980SOL     OW 9838   1.797   5.786   5.731
 2980SOL    HW1 9839   1.852   5.702   5.736
 2980SOL    HW2 9840   1.840   5.849   5.667
 2981SOL     OW 9841   1.876   0.969   0.196
 2981SOL    HW1 9842   1.932   1.039   0.241
 2981SOL    HW2 9843   1.884   0.978   0.097
 2982SOL     OW 9844   2.741   6.185   1.532
 2982SOL    HW1 9845   2.682   6.192   1.451
 2982SOL    HW2 9846   2.717   6.102   1.583
 2983SOL     OW 9847   6.790   2.418   2.163
 2983SOL    HW1 9848   6.776   2.493   2.228
 2983SOL    HW2 9849   6.767   2.450   2.071
 2984SOL     OW 9850   5.759   5.259   6.923
 2984SOL    HW1 9851   5.755   5.354   6.954
 2984SOL    HW2 9852   5.668   5.229   6.896
 2985SOL     OW 9853   1.891   1.450   4.695
 2985SOL    HW1 9854   1.969   1.512   4.684
 2985SOL    HW2 9855   1.829   1.487   4.764
 2986SOL     OW 9856   3.671   4.053   2.565
 2986SOL    HW1 9857   3.610   3.974   2.557
 2986SOL    HW2 9858   3.652   4.100   2.651
 2987SOL     OW 9859   1.430   1.299   4.452
 2987SOL    HW1 9860   1.352   1.244   4.423
 2987SOL    HW2 9861   1.490   1.245   4.511
 2988SOL     OW 9862   1.698   6.851   2.382
 2988SOL    HW1 9863   1.712   6.753   2.364
 2988SOL    HW2 9864   1.690   6.900   2.295
 2989SOL     OW 9865   5.153   4.700   5.660
 2989SOL    HW1 9866   5.183   4.698   5.564
 2989SOL    HW2 9867   5.150   4.794   5.692
 2990SOL     OW 9868   4.341   2.091   4.217
 2990SOL    HW1 9869   4.276   2.017   4.202
 2990SOL    HW2 9870   4.372   2.091   4.312
 2991SOL     OW 9871   6.534   2.852   5.948
 2991SOL    HW1 9872   6.502   2.885   6.037
 2991SOL    HW2 9873   6.618   2.900   5.923
 2992SOL     OW 9874   1.316   4.992   4.145
 2992SOL    HW1 9875   1.383   5.024   4.212
 2992SOL    HW2 9876   1.251   5.065   4.125
 2993SOL     OW 9877   0.935   5.079   1.326
 2993SOL    HW1 9878   0.847   5.073   1.373
 2993SOL    HW2 9879   0.922   5.067   1.228
 2994SOL     OW 9880   4.276   6.313   0.372
 2994SOL    HW1 9881   4.203   6.347   0.312
 2994SOL    HW2 9882   4.327   6.241   0.325
 2995SOL     OW 9883   3.710   0.869   6.599
 2995SOL    HW1 9884   3.624   0.918   6.583
 2995SOL    HW2 9885   3.690   0.780   6.640
 2996SOL     OW 9886   0.513   1.313   5.476
 2996SOL    HW1 9887   0.590   1.352   5.527
 2996SOL    HW2 9888   0.487   1.225   5.517
 2997SOL     OW 9889   4.835   0.387   3.126
 2997SOL    HW1 9890   4.740   0.359   3.119
 2997SOL    HW2 9891   4.894   0.314   3.090
 2998SOL     OW 9892   4.669   6.965   3.165
 2998SOL    HW1 9893   4.634   0.034   3.169
 2998SOL    HW2 9894   4.645   6.924   3.077
 2999SOL     OW 9895   2.391   5.036   5.209
 2999SOL    HW1 9896   2.441   4.959   5.169
 2999SOL    HW2 9897   2.443   5.120   5.197
 3000SOL     OW 9898   3.256   4.024   6.131
 3000SOL    HW1 9899   3.177   3.962   6.124
 3000SOL    HW2 9900   3.338   3.971   6.151
 3001SOL     OW 9901   6.281   1.338   6.815
 3001SOL    HW1 9902   6.376   1.308   6.825
 3001SOL    HW2 9903   6.226   1.262   6.781
 3002SOL     OW 9904   3.535   2.662   0.576
 3002SOL    HW1 9905   3.602   2.589   0.561
 3002SOL    HW2 9906   3.472   2.635   0.649
 3003SOL     OW 9907   0.960   6.588   0.753
 3003SOL    HW1 9908   0.952   6.667   0.693
 3003SOL    HW2 9909   0.916   6.608   0.841
 3004SOL     OW 9910   1.248   4.334   2.709
 3004SOL    HW1 9911   1.323   4.282   2.669
 3004SOL    HW2 9912   1.216   4.403   2.644
 3005SOL     OW 9913   1.799   2.611   0.360
 3005SOL    HW1 9914   1.754   2.543   0.418
 3005SOL    HW2 9915   1.744   2.627   0.278
 3006SOL     OW 9916   5.561   1.944   5.239
 3006SOL    HW1 9917   5.652   1.934   5.278
 3006SOL    HW2 9918   5.565   2.001   5.158
 3007SOL     OW 9919   4.989   4.867   0.865
 3007SOL    HW1 9920   4.896   4.834   0.882
 3007SOL    HW2 9921   5.027   4.906   0.949
 3008SOL     OW 9922   2.800   2.315   6.496
 3008SOL    HW1 9923   2.881   2.360   6.456
 3008SOL    HW2 9924   2.726   2.316   6.429
 3009SOL     OW 9925   6.947   2.898   2.569
 3009SOL    HW1 9926   6.961   2.994   2.549
 3009SOL    HW2 9927   6.859   2.868   2.533
 3010SOL     OW 9928   2.776   5.567   4.002
 3010SOL    HW1 9929   2.710   5.641   3.988
 3010SOL    HW2 9930   2.824   5.581   4.088
 3011SOL     OW 9931   5.939   1.008   1.921
 3011SOL    HW1 9932   5.999   0.977   1.848
 3011SOL    HW2 9933   5.979   0.986   2.010
 3012SOL     OW 9934   2.324   2.903   0.004
 3012SOL    HW1 9935   2.325   2.975   6.959
 3012SOL    HW2 9936   2.415   2.893   0.044
 3013SOL     OW 9937   5.493   5.229   3.594
 3013SOL    HW1 9938   5.588   5.198   3.600
 3013SOL    HW2 9939   5.490   5.328   3.608
 3014SOL     OW 9940   4.733   2.242   5.785
 3014SOL    HW1 9941   4.719   2.289   5.698
 3014SOL    HW2 9942   4.790   2.161   5.771
 3015SOL     OW 9943   1.704   1.589   0.302
 3015SOL    HW1 9944   1.607   1.598   0.326
 3015SOL    HW2 9945   1.760   1.636   0.370
 3016SOL     OW 9946   3.317   6.657   4.378
 3016SOL    HW1 9947   3.336   6.595   4.454
 3016SOL    HW2 9948   3.249   6.725   4.406
 3017SOL     OW 9949   6.151   5.533   2.548
 3017SOL    HW1 9950   6.068   5.516   2.494
 3017SOL    HW2 9951   6.190   5.446   2.577
 3018SOL     OW 9952   3.167   0.224   6.552
 3018SOL    HW1 9953   3.231   0.152   6.525
 3018SOL    HW2 9954   3.074   0.187   6.553
 3019SOL     OW 9955   0.322   0.301   6.644
 3019SOL    HW1 9956   0.244   0.269   6.697
 3019SOL    HW2 9957   0.405   0.297   6.700
 3020SOL     OW 9958   3.853   3.182   1.047
 3020SOL    HW1 9959   3.908   3.213   0.970
 3020SOL    HW2 9960   3.912   3.162   1.125
 3021SOL     OW 9961   2.735   0.504   4.754
 3021SOL    HW1 9962   2.791   0.429   4.789
 3021SOL    HW2 9963   2.682   0.544   4.829
 3022SOL     OW 9964   4.432   4.988   4.516
 3022SOL    HW1 9965   4.459   4.925   4.589
 3022SOL    HW2 9966   4.445   5.082   4.547
 3023SOL     OW 9967   4.019   6.486   3.070
 3023SOL    HW1 9968   4.106   6.534   3.080
 3023SOL    HW2 9969   4.002   6.429   3.150
 3024SOL     OW 9970   5.923   6.216   4.627
 3024SOL    HW1 9971   5.838   6.189   4.581
 3024SOL    HW2 9972   6.001   6.171   4.583
 3025SOL     OW 9973   4.365   6.009   1.650
 3025SOL    HW1 9974   4.342   6.106   1.664
 3025SOL    HW2 9975   4.379   5.993   1.552
 3026SOL     OW 9976   6.944   1.350   6.257
 3026SOL    HW1 9977   6.908   1.319   6.169
 3026SOL    HW2 9978   0.018   1.369   6.247
 3027SOL     OW 9979   3.716   1.855   2.606
 3027SOL    HW1 9980   3.636   1.806   2.640
 3027SOL    HW2 9981   3.799   1.810   2.638
 3028SOL     OW 9982   1.289   3.923   5.709
 3028SOL    HW1 9983   1.327   3.947   5.798
 3028SOL    HW2 9984   1.328   3.981   5.638
 3029SOL     OW 9985   1.144   3.248   4.337
 3029SOL    HW1 9986   1.132   3.164   4.389
 3029SOL    HW2 9987   1.199   3.229   4.256
 3030SOL     OW 9988   1.374   3.818   0.971
 3030SOL    HW1 9989   1.279   3.795   0.953
 3030SOL    HW2 9990   1.426   3.811   0.886
 3031SOL     OW 9991   0.424   4.885   1.023
 3031SOL    HW1 9992   0.414   4.931   0.935
 3031SOL    HW2 9993   0.521   4.875   1.045
 3032SOL     OW 9994   2.357   6.772   1.350
 3032SOL    HW1 9995   2.353   6.872   1.341
 3032SOL    HW2 9996   2.399   6.733   1.268
 3033SOL     OW 9997   5.957   0.818   2.370
 3033SOL    HW1 9998   5.986   0.882   2.298
 3033SOL    HW2 9999   6.034   0.801   2.432
 3034SOL     OW10000   0.827   6.814   3.439
 3034SOL    HW110001   0.923   6.842   3.435
 3034SOL    HW210002   0.789   6.811   3.346
 3035SOL     OW10003   0.688   3.055   6.172
 3035SOL    HW110004   0.705   3.037   6.076
 3035SOL    HW210005   0.757   3.118   6.207
 3036SOL     OW10006   1.352   1.770   5.838
 3036SOL    HW110007   1.306   1.848   5.881
 3036SOL    HW210008   1.425   1.803   5.778
 3037SOL     OW10009   6.382   4.803   5.752
 3037SOL    HW110010   6.402   4.709   5.724
 3037SOL    HW210011   6.405   4.814   5.849
 3038SOL     OW10012   5.106   4.971   5.738
 3038SOL    HW110013   5.071   5.007   5.651
 3038SOL    HW210014   5.072   5.029   5.813
 3039SOL     OW10015   0.606   2.972   0.640
 3039SOL    HW110016   0.683   2.972   0.704
 3039SOL    HW210017   0.641   2.972   0.546
 3040SOL     OW10018   3.324   5.054   5.612
 3040SOL    HW110019   3.314   5.026   5.516
 3040SOL    HW210020   3.242   5.102   5.642
 3041SOL     OW10021   1.838   4.664   5.504
 3041SOL    HW110022   1.930   4.676   5.541
 3041SOL    HW210023   1.838   4.587   5.440
 3042SOL     OW10024   6.084   6.487   3.106
 3042SOL    HW110025   6.037   6.445   3.183
 3042SOL    HW210026   6.104   6.583   3.127
 3043SOL     OW10027   2.935   4.150   1.781
 3043SOL    HW110028   2.932   4.240   1.826
 3043SOL    HW210029   2.921   4.079   1.850
 3044SOL     OW10030   3.364   5.989   5.611
 3044SOL    HW110031   3.318   5.930   5.545
 3044SOL    HW210032   3.462   5.971   5.609
 3045SOL     OW10033   4.990   6.691   2.898
 3045SOL    HW110034   5.076   6.724   2.860
 3045SOL    HW210035   4.979   6.594   2.877
 3046SOL     OW10036   3.564   0.290   6.950
 3046SOL    HW110037   3.584   0.353   6.874
 3046SOL    HW210038   3.603   0.201   6.930
 3047SOL     OW10039   6.114   0.510   1.432
 3047SOL    HW110040   6.024   0.542   1.405
 3047SOL    HW210041   6.133   0.539   1.526
 3048SOL     OW10042   4.518   2.444   0.661
 3048SOL    HW110043   4.477   2.356   0.684
 3048SOL    HW210044   4.615   2.443   0.686
 3049SOL     OW10045   1.725   0.113   3.118
 3049SOL    HW110046   1.738   0.187   3.184
 3049SOL    HW210047   1.757   0.143   3.028
 3050SOL     OW10048   3.383   1.946   1.865
 3050SOL    HW110049   3.346   1.856   1.889
 3050SOL    HW210050   3.314   2.016   1.882
 3051SOL     OW10051   1.956   6.639   6.820
 3051SOL    HW110052   1.979   6.601   6.730
 3051SOL    HW210053   2.034   6.628   6.881
 3052SOL     OW10054   5.410   5.738   2.318
 3052SOL    HW110055   5.409   5.680   2.399
 3052SOL    HW210056   5.330   5.719   2.262
 3053SOL     OW10057   6.935   3.291   1.289
 3053SOL    HW110058   0.008   3.272   1.305
 3053SOL    HW210059   6.904   3.359   1.355
 3054SOL     OW10060   6.245   2.251   1.807
 3054SOL    HW110061   6.312   2.311   1.762
 3054SOL    HW210062   6.164   2.241   1.749
 3055SOL     OW10063   5.085   0.421   5.185
 3055SOL    HW110064   5.135   0.463   5.109
 3055SOL    HW210065   5.106   0.323   5.188
 3056SOL     OW10066   6.723   1.094   5.623
 3056SOL    HW110067   6.794   1.047   5.675
 3056SOL    HW210068   6.659   1.028   5.586
 3057SOL     OW10069   4.401   5.149   4.278
 3057SOL    HW110070   4.383   5.242   4.309
 3057SOL    HW210071   4.408   5.089   4.358
 3058SOL     OW10072   6.639   4.430   0.748
 3058SOL    HW110073   6.726   4.443   0.794
 3058SOL    HW210074   6.649   4.446   0.650
 3059SOL     OW10075   2.897   1.161   3.782
 3059SOL    HW110076   2.909   1.260   3.786
 3059SOL    HW210077   2.802   1.140   3.757
 3060SOL     OW10078   2.073   5.271   0.524
 3060SOL    HW110079   2.155   5.232   0.481
 3060SOL    HW210080   2.100   5.325   0.603
 3061SOL     OW10081   6.110   5.447   5.549
 3061SOL    HW110082   6.205   5.448   5.579
 3061SOL    HW210083   6.059   5.378   5.600
 3062SOL     OW10084   1.959   6.551   0.855
 3062SOL    HW110085   1.871   6.556   0.809
 3062SOL    HW210086   1.964   6.621   0.926
 3063SOL     OW10087   2.098   4.599   1.258
 3063SOL    HW110088   2.182   4.603   1.205
 3063SOL    HW210089   2.044   4.520   1.230
 3064SOL     OW10090   5.191   3.168   0.277
 3064SOL    HW110091   5.213   3.077   0.311
 3064SOL    HW210092   5.274   3.225   0.280
 3065SOL     OW10093   1.122   2.244   6.477
 3065SOL    HW110094   1.216   2.255   6.445
 3065SOL    HW210095   1.060   2.286   6.410
 3066SOL     OW10096   5.332   4.977   0.604
 3066SOL    HW110097   5.246   5.001   0.649
 3066SOL    HW210098   5.334   4.879   0.586
 3067SOL     OW10099   3.249   0.987   6.620
 3067SOL    HW110100   3.209   0.943   6.539
 3067SOL    HW210101   3.347   1.001   6.606
 3068SOL     OW10102   7.004   5.950   1.402
 3068SOL    HW110103   7.020   6.018   1.331
 3068SOL    HW210104   6.919   5.971   1.449
 3069SOL     OW10105   6.642   6.589   2.412
 3069SOL    HW110106   6.545   6.569   2.426
 3069SOL    HW210107   6.694   6.555   2.490
 3070SOL     OW10108   2.715   0.726   6.744
 3070SOL    HW110109   2.724   0.781   6.660
 3070SOL    HW210110   2.622   0.691   6.751
 3071SOL     OW10111   6.840   6.267   3.692
 3071SOL    HW110112   6.853   6.224   3.602
 3071SOL    HW210113   6.924   6.314   3.718
 3072SOL     OW10114   1.956   5.564   5.774
 3072SOL    HW110115   2.001   5.560   5.863
 3072SOL    HW210116   1.998   5.495   5.714
 3073SOL     OW10117   6.840   3.720   3.075
 3073SOL    HW110118   6.914   3.784   3.057
 3073SOL    HW210119   6.773   3.763   3.135
 3074SOL     OW10120   0.038   3.876   0.936
 3074SOL    HW110121   7.016   3.948   0.988
 3074SOL    HW210122   7.014   3.861   0.850
 3075SOL     OW10123   2.514   5.589   3.129
 3075SOL    HW110124   2.424   5.618   3.096
 3075SOL    HW210125   2.517   5.489   3.134
 3076SOL     OW10126   6.698   1.940   3.767
 3076SOL    HW110127   6.767   1.870   3.746
 3076SOL    HW210128   6.609   1.911   3.733
 3077SOL     OW10129   5.637   4.478   1.991
 3077SOL    HW110130   5.661   4.381   1.992
 3077SOL    HW210131   5.604   4.502   1.899
 3078SOL     OW10132   6.773   3.358   2.478
 3078SOL    HW110133   6.825   3.423   2.534
 3078SOL    HW210134   6.692   3.403   2.442
 3079SOL     OW10135   2.972   2.105   2.909
 3079SOL    HW110136   2.962   2.138   2.815
 3079SOL    HW210137   2.899   2.039   2.928
 3080SOL     OW10138   5.976   4.977   2.251
 3080SOL    HW110139   5.879   5.003   2.251
 3080SOL    HW210140   6.031   5.052   2.288
 3081SOL     OW10141   1.038   4.371   5.833
 3081SOL    HW110142   1.097   4.394   5.755
 3081SOL    HW210143   1.052   4.275   5.857
 3082SOL     OW10144   1.732   5.893   3.779
 3082SOL    HW110145   1.755   5.797   3.799
 3082SOL    HW210146   1.792   5.926   3.705
 3083SOL     OW10147   2.770   6.630   3.724
 3083SOL    HW110148   2.680   6.671   3.734
 3083SOL    HW210149   2.815   6.667   3.642
 3084SOL     OW10150   6.351   4.673   3.268
 3084SOL    HW110151   6.423   4.609   3.291
 3084SOL    HW210152   6.273   4.624   3.231
 3085SOL     OW10153   6.340   4.596   0.347
 3085SOL    HW110154   6.362   4.532   0.273
 3085SOL    HW210155   6.298   4.678   0.309
 3086SOL     OW10156   5.348   1.583   0.048
 3086SOL    HW110157   5.363   1.571   6.975
 3086SOL    HW210158   5.310   1.499   0.087
 3087SOL     OW10159   2.252   6.858   3.316
 3087SOL    HW110160   2.243   6.791   3.243
 3087SOL    HW210161   2.174   6.921   3.314
 3088SOL     OW10162   1.654   3.126   5.061
 3088SOL    HW110163   1.621   3.181   4.984
 3088SOL    HW210164   1.602   3.150   5.144
 3089SOL     OW10165   4.207   2.184   4.541
 3089SOL    HW110166   4.284   2.126   4.515
 3089SOL    HW210167   4.183   2.167   4.637
 3090SOL     OW10168   2.712   1.117   1.691
 3090SOL    HW110169   2.791   1.176   1.705
 3090SOL    HW210170   2.706   1.050   1.765
 3091SOL     OW10171   1.338   1.093   0.462
 3091SOL    HW110172   1.246   1.123   0.438
 3091SOL    HW210173   1.369   1.026   0.394
 3092SOL     OW10174   5.523   7.020   0.739
 3092SOL    HW110175   5.439   7.003   0.790
 3092SOL    HW210176   5.502   0.011   0.643
 3093SOL     OW10177   5.452   5.712   6.362
 3093SOL    HW110178   5.512   5.757   6.428
 3093SOL    HW210179   5.507   5.661   6.296
 3094SOL     OW10180   2.574   0.088   4.203
 3094SOL    HW110181   2.622   0.001   4.194
 3094SOL    HW210182   2.510   0.083   4.280
 3095SOL     OW10183   2.377   4.092   5.393
 3095SOL    HW110184   2.472   4.120   5.381
 3095SOL    HW210185   2.342   4.055   5.307
 3096SOL     OW10186   0.593   5.120   5.418
 3096SOL    HW110187   0.507   5.099   5.371
 3096SOL    HW210188   0.579   5.117   5.517
 3097SOL     OW10189   5.795   3.611   6.888
 3097SOL    HW110190   5.851   3.694   6.895
 3097SOL    HW210191   5.710   3.632   6.840
 3098SOL     OW10192   1.835   3.389   1.437
 3098SOL    HW110193   1.862   3.320   1.504
 3098SOL    HW210194   1.738   3.376   1.413
 3099SOL     OW10195   1.115   6.142   4.009
 3099SOL    HW110196   1.156   6.065   4.058
 3099SOL    HW210197   1.087   6.212   4.075
 3100SOL     OW10198   6.584   6.337   3.737
 3100SOL    HW110199   6.680   6.316   3.719
 3100SOL    HW210200   6.546   6.388   3.659
 3101SOL     OW10201   5.326   5.621   5.949
 3101SOL    HW110202   5.298   5.526   5.936
 3101SOL    HW210203   5.290   5.655   6.035
 3102SOL     OW10204   6.485   0.164   1.176
 3102SOL    HW110205   6.522   0.167   1.082
 3102SOL    HW210206   6.440   0.076   1.191
 3103SOL     OW10207   4.101   1.249   1.325
 3103SOL    HW110208   4.147   1.246   1.414
 3103SOL    HW210209   4.104   1.159   1.282
 3104SOL     OW10210   4.175   0.608   6.121
 3104SOL    HW110211   4.273   0.598   6.134
 3104SOL    HW210212   4.127   0.573   6.202
 3105SOL     OW10213   5.226   3.811   1.527
 3105SOL    HW110214   5.271   3.722   1.518
 3105SOL    HW210215   5.134   3.806   1.490
 3106SOL     OW10216   4.946   6.735   5.241
 3106SOL    HW110217   4.859   6.783   5.248
 3106SOL    HW210218   4.956   6.695   5.150
 3107SOL     OW10219   3.600   1.044   4.724
 3107SOL    HW110220   3.605   0.998   4.813
 3107SOL    HW210221   3.636   1.137   4.733
 3108SOL     OW10222   1.964   5.598   4.524
 3108SOL    HW110223   1.893   5.638   4.582
 3108SOL    HW210224   1.920   5.545   4.451
 3109SOL     OW10225   6.076   0.151   3.924
 3109SOL    HW110226   6.087   0.184   3.830
 3109SOL    HW210227   6.004   0.082   3.927
 3110SOL     OW10228   1.193   4.109   2.914
 3110SOL    HW110229   1.251   4.116   2.995
 3110SOL    HW210230   1.172   4.200   2.880
 3111SOL     OW10231   0.044   5.065   3.472
 3111SOL    HW110232   0.009   5.143   3.419
 3111SOL    HW210233   6.998   4.995   3.478
 3112SOL     OW10234   3.498   3.241   0.671
 3112SOL    HW110235   3.457   3.150   0.674
 3112SOL    HW210236   3.595   3.233   0.648
 3113SOL     OW10237   3.520   5.870   2.825
 3113SOL    HW110238   3.530   5.862   2.726
 3113SOL    HW210239   3.502   5.965   2.850
 3114SOL     OW10240   3.648   2.083   0.806
 3114SOL    HW110241   3.631   2.025   0.727
 3114SOL    HW210242   3.677   2.174   0.776
 3115SOL     OW10243   3.996   4.792   6.181
 3115SOL    HW110244   3.990   4.694   6.197
 3115SOL    HW210245   4.089   4.823   6.200
 3116SOL     OW10246   6.598   2.224   0.102
 3116SOL    HW110247   6.537   2.266   0.168
 3116SOL    HW210248   6.586   2.124   0.104
 3117SOL     OW10249   4.395   3.565   5.660
 3117SOL    HW110250   4.442   3.557   5.572
 3117SOL    HW210251   4.377   3.473   5.696
 3118SOL     OW10252   0.609   5.435   2.210
 3118SOL    HW110253   0.553   5.390   2.279
 3118SOL    HW210254   0.694   5.466   2.251
 3119SOL     OW10255   2.256   2.146   0.135
 3119SOL    HW110256   2.224   2.210   0.065
 3119SOL    HW210257   2.287   2.197   0.215
 3120SOL     OW10258   2.521   0.332   5.460
 3120SOL    HW110259   2.592   0.389   5.418
 3120SOL    HW210260   2.432   0.357   5.422
 3121SOL     OW10261   6.062   1.596   4.794
 3121SOL    HW110262   6.024   1.546   4.873
 3121SOL    HW210263   6.024   1.559   4.710
 3122SOL     OW10264   5.041   5.225   5.276
 3122SOL    HW110265   5.005   5.297   5.217
 3122SOL    HW210266   5.117   5.179   5.230
 3123SOL     OW10267   1.862   1.544   2.545
 3123SOL    HW110268   1.856   1.532   2.446
 3123SOL    HW210269   1.878   1.641   2.566
 3124SOL     OW10270   4.732   0.181   4.385
 3124SOL    HW110271   4.711   0.194   4.482
 3124SOL    HW210272   4.825   0.211   4.367
 3125SOL     OW10273   1.477   3.192   5.279
 3125SOL    HW110274   1.498   3.208   5.375
 3125SOL    HW210275   1.396   3.243   5.253
 3126SOL     OW10276   5.247   4.414   5.243
 3126SOL    HW110277   5.200   4.332   5.277
 3126SOL    HW210278   5.189   4.459   5.176
 3127SOL     OW10279   2.153   2.012   6.543
 3127SOL    HW110280   2.226   2.072   6.576
 3127SOL    HW210281   2.066   2.061   6.545
 3128SOL     OW10282   3.500   1.225   6.992
 3128SOL    HW110283   3.548   1.143   7.024
 3128SOL    HW210284   3.411   1.199   6.955
 3129SOL     OW10285   6.118   3.893   0.585
 3129SOL    HW110286   6.148   3.895   0.681
 3129SOL    HW210287   6.117   3.799   0.552
 3130SOL     OW10288   2.075   4.511   1.966
 3130SOL    HW110289   2.005   4.581   1.970
 3130SOL    HW210290   2.157   4.548   1.922
 3131SOL     OW10291   1.043   3.890   2.143
 3131SOL    HW110292   1.123   3.830   2.140
 3131SOL    HW210293   0.981   3.861   2.215
 3132SOL     OW10294   4.996   5.233   6.484
 3132SOL    HW110295   4.913   5.239   6.540
 3132SOL    HW210296   5.075   5.261   6.537
 3133SOL     OW10297   3.338   0.881   3.402
 3133SOL    HW110298   3.245   0.849   3.420
 3133SOL    HW210299   3.349   0.897   3.304
 3134SOL     OW10300   4.400   4.964   0.705
 3134SOL    HW110301   4.418   4.980   0.802
 3134SOL    HW210302   4.487   4.958   0.656
 3135SOL     OW10303   4.420   0.575   5.586
 3135SOL    HW110304   4.471   0.510   5.528
 3135SOL    HW210305   4.325   0.544   5.594
 3136SOL     OW10306   5.493   6.788   2.626
 3136SOL    HW110307   5.428   6.789   2.702
 3136SOL    HW210308   5.468   6.858   2.559
 3137SOL     OW10309   6.883   6.578   3.486
 3137SOL    HW110310   6.862   6.481   3.469
 3137SOL    HW210311   6.825   6.612   3.559
 3138SOL     OW10312   6.102   5.853   3.808
 3138SOL    HW110313   6.201   5.868   3.804
 3138SOL    HW210314   6.066   5.848   3.715
 3139SOL     OW10315   3.563   5.070   0.664
 3139SOL    HW110316   3.544   5.134   0.589
 3139SOL    HW210317   3.589   5.121   0.746
 3140SOL     OW10318   6.290   6.350   6.035
 3140SOL    HW110319   6.246   6.439   6.051
 3140SOL    HW210320   6.372   6.363   5.979
 3141SOL     OW10321   0.797   0.248   6.575
 3141SOL    HW110322   0.741   0.295   6.506
 3141SOL    HW210323   0.889   0.235   6.538
 3142SOL     OW10324   2.925   0.144   2.629
 3142SOL    HW110325   2.839   0.134   2.580
 3142SOL    HW210326   2.987   0.204   2.578
 3143SOL     OW10327   6.199   1.573   6.946
 3143SOL    HW110328   6.219   1.486   6.901
 3143SOL    HW210329   6.101   1.592   6.940
 3144SOL     OW10330   4.634   3.747   0.956
 3144SOL    HW110331   4.616   3.651   0.933
 3144SOL    HW210332   4.583   3.771   1.039
 3145SOL     OW10333   1.955   6.451   2.342
 3145SOL    HW110334   1.910   6.450   2.254
 3145SOL    HW210335   1.965   6.546   2.373
 3146SOL     OW10336   0.753   1.404   4.245
 3146SOL    HW110337   0.791   1.414   4.337
 3146SOL    HW210338   0.705   1.488   4.220
 3147SOL     OW10339   3.384   5.181   0.108
 3147SOL    HW110340   3.302   5.145   0.063
 3147SOL    HW210341   3.398   5.276   0.080
 3148SOL     OW10342   0.051   6.900   4.050
 3148SOL    HW110343   6.985   6.936   4.026
 3148SOL    HW210344   0.059   6.805   4.021
 3149SOL     OW10345   3.110   0.878   6.408
 3149SOL    HW110346   3.102   0.797   6.351
 3149SOL    HW210347   3.023   0.894   6.455
 3150SOL     OW10348   7.002   5.950   5.122
 3150SOL    HW110349   0.069   5.916   5.100
 3150SOL    HW210350   6.942   5.873   5.141
 3151SOL     OW10351   0.501   1.378   5.208
 3151SOL    HW110352   0.521   1.287   5.174
 3151SOL    HW210353   0.504   1.377   5.308
 3152SOL     OW10354   0.969   4.881   0.467
 3152SOL    HW110355   0.963   4.980   0.455
 3152SOL    HW210356   0.912   4.837   0.398
 3153SOL     OW10357   6.131   5.495   0.550
 3153SOL    HW110358   6.083   5.425   0.604
 3153SOL    HW210359   6.230   5.477   0.553
 3154SOL     OW10360   7.014   2.071   0.114
 3154SOL    HW110361   6.942   2.114   0.170
 3154SOL    HW210362   6.973   2.018   0.041
 3155SOL     OW10363   6.634   5.161   0.395
 3155SOL    HW110364   6.536   5.147   0.377
 3155SOL    HW210365   6.671   5.081   0.441
 3156SOL     OW10366   2.763   3.437   1.854
 3156SOL    HW110367   2.687   3.500   1.837
 3156SOL    HW210368   2.842   3.466   1.800
 3157SOL     OW10369   1.974   1.800   5.858
 3157SOL    HW110370   2.029   1.729   5.903
 3157SOL    HW210371   1.938   1.863   5.927
 3158SOL     OW10372   2.618   1.068   3.907
 3158SOL    HW110373   2.531   1.069   3.957
 3158SOL    HW210374   2.689   1.027   3.965
 3159SOL     OW10375   5.489   0.231   6.159
 3159SOL    HW110376   5.559   0.237   6.088
 3159SOL    HW210377   5.534   0.220   6.248
 3160SOL     OW10378   1.400   5.752   5.661
 3160SOL    HW110379   1.322   5.813   5.676
 3160SOL    HW210380   1.448   5.781   5.578
 3161SOL     OW10381   2.550   2.454   3.024
 3161SOL    HW110382   2.453   2.460   3.002
 3161SOL    HW210383   2.595   2.389   2.963
 3162SOL     OW10384   1.518   6.152   1.961
 3162SOL    HW110385   1.556   6.229   1.910
 3162SOL    HW210386   1.513   6.175   2.058
 3163SOL     OW10387   4.587   3.883   6.294
 3163SOL    HW110388   4.520   3.885   6.369
 3163SOL    HW210389   4.573   3.964   6.236
 3164SOL     OW10390   3.866   5.675   1.120
 3164SOL    HW110391   3.802   5.610   1.082
 3164SOL    HW210392   3.816   5.752   1.160
 3165SOL     OW10393   1.653   6.450   1.582
 3165SOL    HW110394   1.651   6.368   1.524
 3165SOL    HW210395   1.740   6.497   1.570
 3166SOL     OW10396   4.151   1.933   3.401
 3166SOL    HW110397   4.168   1.930   3.500
 3166SOL    HW210398   4.111   2.022   3.376
 3167SOL     OW10399   5.649   4.321   1.049
 3167SOL    HW110400   5.653   4.275   0.960
 3167SOL    HW210401   5.602   4.409   1.039
 3168SOL     OW10402   5.336   2.521   0.089
 3168SOL    HW110403   5.371   2.536   7.021
 3168SOL    HW210404   5.248   2.474   0.085
 3169SOL     OW10405   2.309   4.277   3.891
 3169SOL    HW110406   2.349   4.334   3.963
 3169SOL    HW210407   2.299   4.331   3.808
 3170SOL     OW10408   4.270   5.821   1.863
 3170SOL    HW110409   4.316   5.870   1.788
 3170SOL    HW210410   4.173   5.848   1.865
 3171SOL     OW10411   6.780   1.467   2.209
 3171SOL    HW110412   6.723   1.471   2.126
 3171SOL    HW210413   6.816   1.558   2.229
 3172SOL     OW10414   6.683   5.437   6.741
 3172SOL    HW110415   6.659   5.435   6.644
 3172SOL    HW210416   6.704   5.531   6.768
 3173SOL     OW10417   3.492   2.772   7.015
 3173SOL    HW110418   3.569   2.831   6.989
 3173SOL    HW210419   3.419   2.827   0.031
 3174SOL     OW10420   3.234   2.904   0.062
 3174SOL    HW110421   3.229   3.004   0.065
 3174SOL    HW210422   3.145   2.868   0.032
 3175SOL     OW10423   5.971   1.153   1.591
 3175SOL    HW110424   6.043   1.219   1.568
 3175SOL    HW210425   5.912   1.140   1.511
 3176SOL     OW10426   0.871   4.008   5.382
 3176SOL    HW110427   0.918   4.008   5.470
 3176SOL    HW210428   0.851   4.102   5.354
 3177SOL     OW10429   5.109   4.312   3.971
 3177SOL    HW110430   5.110   4.405   3.936
 3177SOL    HW210431   5.146   4.249   3.902
 3178SOL     OW10432   6.483   2.424   1.120
 3178SOL    HW110433   6.417   2.374   1.064
 3178SOL    HW210434   6.439   2.506   1.158
 3179SOL     OW10435   0.912   2.126   2.102
 3179SOL    HW110436   0.984   2.189   2.072
 3179SOL    HW210437   0.824   2.173   2.104
 3180SOL     OW10438   5.326   0.218   0.524
 3180SOL    HW110439   5.363   0.298   0.572
 3180SOL    HW210440   5.242   0.188   0.569
 3181SOL     OW10441   6.083   1.854   3.291
 3181SOL    HW110442   6.173   1.843   3.332
 3181SOL    HW210443   6.093   1.876   3.194
 3182SOL     OW10444   2.564   0.474   7.001
 3182SOL    HW110445   2.511   0.418   0.041
 3182SOL    HW210446   2.579   0.422   6.917
 3183SOL     OW10447   4.786   4.265   1.889
 3183SOL    HW110448   4.708   4.280   1.949
 3183SOL    HW210449   4.756   4.216   1.807
 3184SOL     OW10450   1.008   2.757   2.839
 3184SOL    HW110451   1.100   2.769   2.803
 3184SOL    HW210452   0.993   2.821   2.915
 3185SOL     OW10453   4.754   5.762   6.810
 3185SOL    HW110454   4.787   5.804   6.725
 3185SOL    HW210455   4.654   5.767   6.812
 3186SOL     OW10456   3.249   1.735   0.780
 3186SOL    HW110457   3.239   1.744   0.879
 3186SOL    HW210458   3.276   1.641   0.758
 3187SOL     OW10459   4.970   5.299   1.053
 3187SOL    HW110460   5.005   5.385   1.088
 3187SOL    HW210461   4.952   5.308   0.955
 3188SOL     OW10462   1.245   6.863   4.246
 3188SOL    HW110463   1.166   6.827   4.296
 3188SOL    HW210464   1.323   6.802   4.257
 3189SOL     OW10465   1.080   1.976   1.178
 3189SOL    HW110466   1.129   1.903   1.132
 3189SOL    HW210467   1.029   2.030   1.111
 3190SOL     OW10468   0.384   5.396   0.781
 3190SOL    HW110469   0.456   5.454   0.819
 3190SOL    HW210470   0.316   5.376   0.852
 3191SOL     OW10471   5.008   5.467   1.428
 3191SOL    HW110472   4.952   5.522   1.490
 3191SOL    HW210473   5.022   5.517   1.342
 3192SOL     OW10474   0.428   3.551   1.269
 3192SOL    HW110475   0.513   3.502   1.289
 3192SOL    HW210476   0.376   3.500   1.201
 3193SOL     OW10477   4.141   1.055   6.438
 3193SOL    HW110478   4.134   1.154   6.455
 3193SOL    HW210479   4.053   1.012   6.457
 3194SOL     OW10480   1.727   1.758   6.378
 3194SOL    HW110481   1.638   1.802   6.387
 3194SOL    HW210482   1.799   1.823   6.402
 3195SOL     OW10483   1.875   0.703   3.156
 3195SOL    HW110484   1.932   0.629   3.190
 3195SOL    HW210485   1.817   0.737   3.230
 3196SOL     OW10486   0.720   0.922   0.096
 3196SOL    HW110487   0.622   0.934   0.077
 3196SOL    HW210488   0.734   0.835   0.142
 3197SOL     OW10489   2.986   6.585   4.349
 3197SOL    HW110490   3.046   6.650   4.395
 3197SOL    HW210491   2.910   6.633   4.306
 3198SOL     OW10492   6.300   2.736   3.798
 3198SOL    HW110493   6.332   2.802   3.867
 3198SOL    HW210494   6.349   2.650   3.810
 3199SOL     OW10495   5.420   3.984   2.605
 3199SOL    HW110496   5.425   3.885   2.593
 3199SOL    HW210497   5.476   4.011   2.683
 3200SOL     OW10498   5.512   2.907   2.707
 3200SOL    HW110499   5.465   2.940   2.625
 3200SOL    HW210500   5.609   2.893   2.685
 3201SOL     OW10501   6.509   4.745   3.922
 3201SOL    HW110502   6.606   4.735   3.944
 3201SOL    HW210503   6.485   4.842   3.924
 3202SOL     OW10504   1.687   5.172   1.160
 3202SOL    HW110505   1.779   5.180   1.121
 3202SOL    HW210506   1.693   5.136   1.253
 3203SOL     OW10507   5.610   2.243   0.236
 3203SOL    HW110508   5.621   2.242   0.137
 3203SOL    HW210509   5.672   2.176   0.277
 3204SOL     OW10510   4.538   6.642   2.938
 3204SOL    HW110511   4.609   6.711   2.928
 3204SOL    HW210512   4.580   6.552   2.943
 3205SOL     OW10513   5.708   2.476   5.709
 3205SOL    HW110514   5.699   2.531   5.792
 3205SOL    HW210515   5.687   2.532   5.629
 3206SOL     OW10516   2.087   4.777   0.791
 3206SOL    HW110517   2.087   4.682   0.761
 3206SOL    HW210518   2.066   4.837   0.713
 3207SOL     OW10519   1.203   0.903   6.457
 3207SOL    HW110520   1.254   0.847   6.392
 3207SOL    HW210521   1.199   0.857   6.546
 3208SOL     OW10522   4.502   6.468   6.107
 3208SOL    HW110523   4.410   6.504   6.124
 3208SOL    HW210524   4.566   6.544   6.098
 3209SOL     OW10525   3.467   4.870   3.821
 3209SOL    HW110526   3.474   4.774   3.848
 3209SOL    HW210527   3.400   4.879   3.748
 3210SOL     OW10528   1.404   4.296   0.668
 3210SOL    HW110529   1.410   4.253   0.758
 3210SOL    HW210530   1.460   4.244   0.603
 3211SOL     OW10531   1.492   3.753   0.741
 3211SOL    HW110532   1.425   3.702   0.687
 3211SOL    HW210533   1.564   3.787   0.681
 3212SOL     OW10534   3.068   6.836   1.618
 3212SOL    HW110535   3.019   6.751   1.599
 3212SOL    HW210536   3.134   6.821   1.691
 3213SOL     OW10537   1.800   0.226   0.528
 3213SOL    HW110538   1.778   0.168   0.606
 3213SOL    HW210539   1.829   0.169   0.451
 3214SOL     OW10540   4.375   5.641   0.639
 3214SOL    HW110541   4.380   5.630   0.539
 3214SOL    HW210542   4.279   5.645   0.667
 3215SOL     OW10543   0.513   3.789   0.962
 3215SOL    HW110544   0.533   3.848   0.884
 3215SOL    HW210545   0.468   3.705   0.929
 3216SOL     OW10546   5.915   5.572   0.400
 3216SOL    HW110547   6.004   5.562   0.445
 3216SOL    HW210548   5.843   5.542   0.463
 3217SOL     OW10549   0.222   5.273   2.133
 3217SOL    HW110550   0.307   5.268   2.080
 3217SOL    HW210551   0.172   5.356   2.109
 3218SOL     OW10552   4.750   2.694   3.655
 3218SOL    HW110553   4.786   2.601   3.664
 3218SOL    HW210554   4.681   2.710   3.725
 3219SOL     OW10555   0.735   1.828   3.411
 3219SOL    HW110556   0.681   1.787   3.485
 3219SOL    HW210557   0.732   1.928   3.419
 3220SOL     OW10558   0.136   5.126   5.883
 3220SOL    HW110559   0.178   5.036   5.883
 3220SOL    HW210560   0.207   5.196   5.898
 3221SOL     OW10561   3.795   0.381   1.861
 3221SOL    HW110562   3.717   0.319   1.863
 3221SOL    HW210563   3.800   0.431   1.947
 3222SOL     OW10564   3.157   0.997   2.957
 3222SOL    HW110565   3.214   1.072   2.990
 3222SOL    HW210566   3.063   1.029   2.945
 3223SOL     OW10567   2.197   0.054   6.257
 3223SOL    HW110568   2.169   0.029   6.164
 3223SOL    HW210569   2.138   0.008   6.323
 3224SOL     OW10570   5.026   3.371   5.432
 3224SOL    HW110571   4.936   3.360   5.389
 3224SOL    HW210572   5.090   3.306   5.392
 3225SOL     OW10573   5.319   2.654   5.233
 3225SOL    HW110574   5.316   2.668   5.134
 3225SOL    HW210575   5.382   2.721   5.274
 3226SOL     OW10576   2.380   1.065   2.595
 3226SOL    HW110577   2.351   1.147   2.546
 3226SOL    HW210578   2.441   1.090   2.670
 3227SOL     OW10579   3.149   3.160   6.644
 3227SOL    HW110580   3.159   3.201   6.734
 3227SOL    HW210581   3.127   3.231   6.577
 3228SOL     OW10582   6.990   3.719   1.484
 3228SOL    HW110583   7.021   3.806   1.523
 3228SOL    HW210584   0.041   3.675   1.436
 3229SOL     OW10585   3.800   0.183   4.877
 3229SOL    HW110586   3.898   0.188   4.858
 3229SOL    HW210587   3.784   0.205   4.974
 3230SOL     OW10588   2.150   4.449   5.454
 3230SOL    HW110589   2.216   4.436   5.380
 3230SOL    HW210590   2.162   4.376   5.521
 3231SOL     OW10591   2.823   0.284   1.852
 3231SOL    HW110592   2.752   0.259   1.787
 3231SOL    HW210593   2.806   0.377   1.886
 3232SOL     OW10594   5.024   6.583   4.441
 3232SOL    HW110595   5.095   6.634   4.490
 3232SOL    HW210596   4.979   6.519   4.503
 3233SOL     OW10597   0.114   2.622   1.171
 3233SOL    HW110598   0.162   2.540   1.140
 3233SOL    HW210599   0.092   2.679   1.092
 3234SOL     OW10600   0.687   2.320   6.942
 3234SOL    HW110601   0.596   2.361   6.937
 3234SOL    HW210602   0.686   2.244   7.007
 3235SOL     OW10603   6.383   0.598   2.224
 3235SOL    HW110604   6.315   0.660   2.184
 3235SOL    HW210605   6.370   0.594   2.323
 3236SOL     OW10606   1.572   3.760   0.377
 3236SOL    HW110607   1.563   3.802   0.287
 3236SOL    HW210608   1.562   3.661   0.369
 3237SOL     OW10609   5.655   1.173   3.573
 3237SOL    HW110610   5.585   1.194   3.641
 3237SOL    HW210611   5.673   1.254   3.517
 3238SOL     OW10612   0.195   5.262   0.336
 3238SOL    HW110613   0.115   5.279   0.280
 3238SOL    HW210614   0.277   5.259   0.278
 3239SOL     OW10615   6.469   1.417   2.264
 3239SOL    HW110616   6.512   1.337   2.223
 3239SOL    HW210617   6.476   1.495   2.201
 3240SOL     OW10618   7.020   6.471   5.955
 3240SOL    HW110619   7.010   6.503   5.861
 3240SOL    HW210620   0.074   6.516   5.997
 3241SOL     OW10621   4.652   0.630   4.855
 3241SOL    HW110622   4.650   0.578   4.769
 3241SOL    HW210623   4.741   0.618   4.899
 3242SOL     OW10624   4.452   4.172   6.954
 3242SOL    HW110625   4.495   4.201   0.015
 3242SOL    HW210626   4.472   4.238   6.882
 3243SOL     OW10627   4.643   4.758   0.037
 3243SOL    HW110628   4.603   4.848   0.053
 3243SOL    HW210629   4.599   4.715   6.983
 3244SOL     OW10630   5.102   5.572   0.419
 3244SOL    HW110631   5.157   5.505   0.370
 3244SOL    HW210632   5.008   5.539   0.428
 3245SOL     OW10633   5.660   3.413   4.411
 3245SOL    HW110634   5.587   3.365   4.460
 3245SOL    HW210635   5.709   3.473   4.474
 3246SOL     OW10636   6.040   0.319   3.007
 3246SOL    HW110637   5.946   0.344   2.984
 3246SOL    HW210638   6.069   0.371   3.087
 3247SOL     OW10639   6.187   4.596   2.385
 3247SOL    HW110640   6.101   4.548   2.364
 3247SOL    HW210641   6.170   4.666   2.454
 3248SOL     OW10642   5.314   3.540   1.609
 3248SOL    HW110643   5.339   3.558   1.704
 3248SOL    HW210644   5.381   3.478   1.568
 3249SOL     OW10645   3.813   4.088   3.911
 3249SOL    HW110646   3.723   4.124   3.935
 3249SOL    HW210647   3.865   4.070   3.995
 3250SOL     OW10648   5.766   0.260   2.670
 3250SOL    HW110649   5.751   0.330   2.739
 3250SOL    HW210650   5.781   0.304   2.581
 3251SOL     OW10651   3.259   0.739   3.977
 3251SOL    HW110652   3.285   0.666   4.039
 3251SOL    HW210653   3.269   0.827   4.023
 3252SOL     OW10654   2.549   0.856   2.528
 3252SOL    HW110655   2.472   0.920   2.531
 3252SOL    HW210656   2.517   0.766   2.498
 3253SOL     OW10657   4.551   4.229   1.642
 3253SOL    HW110658   4.507   4.233   1.732
 3253SOL    HW210659   4.528   4.143   1.597
 3254SOL     OW10660   5.300   6.054   5.956
 3254SOL    HW110661   5.359   6.132   5.938
 3254SOL    HW210662   5.314   6.023   6.050
 3255SOL     OW10663   4.932   6.715   0.418
 3255SOL    HW110664   4.991   6.795   0.403
 3255SOL    HW210665   4.940   6.653   0.340
 3256SOL     OW10666   3.792   1.308   0.877
 3256SOL    HW110667   3.708   1.254   0.877
 3256SOL    HW210668   3.853   1.273   0.948
 3257SOL     OW10669   1.329   1.868   2.091
 3257SOL    HW110670   1.343   1.940   2.160
 3257SOL    HW210671   1.323   1.780   2.137
 3258SOL     OW10672   4.592   6.270   2.695
 3258SOL    HW110673   4.673   6.218   2.721
 3258SOL    HW210674   4.521   6.208   2.660
 3259SOL     OW10675   5.284   4.744   5.404
 3259SOL    HW110676   5.198   4.759   5.355
 3259SOL    HW210677   5.359   4.736   5.338
 3260SOL     OW10678   1.322   2.224   0.812
 3260SOL    HW110679   1.392   2.155   0.797
 3260SOL    HW210680   1.344   2.276   0.895
 3261SOL     OW10681   5.353   0.598   1.564
 3261SOL    HW110682   5.321   0.616   1.471
 3261SOL    HW210683   5.286   0.542   1.612
 3262SOL     OW10684   3.116   1.945   2.449
 3262SOL    HW110685   3.041   1.911   2.506
 3262SOL    HW210686   3.160   1.869   2.401
 3263SOL     OW10687   2.161   1.118   3.096
 3263SOL    HW110688   2.210   1.074   3.021
 3263SOL    HW210689   2.205   1.095   3.183
 3264SOL     OW10690   1.048   4.781   0.911
 3264SOL    HW110691   1.083   4.784   1.004
 3264SOL    HW210692   1.100   4.843   0.853
 3265SOL     OW10693   5.023   0.736   6.312
 3265SOL    HW110694   5.101   0.689   6.271
 3265SOL    HW210695   4.987   0.803   6.247
 3266SOL     OW10696   1.860   4.401   0.122
 3266SOL    HW110697   1.761   4.411   0.135
 3266SOL    HW210698   1.900   4.358   0.202
 3267SOL     OW10699   3.171   6.277   1.385
 3267SOL    HW110700   3.259   6.238   1.414
 3267SOL    HW210701   3.186   6.370   1.352
 3268SOL     OW10702   1.740   3.879   1.484
 3268SOL    HW110703   1.737   3.904   1.581
 3268SOL    HW210704   1.832   3.849   1.460
 3269SOL     OW10705   5.070   5.580   2.557
 3269SOL    HW110706   5.133   5.658   2.553
 3269SOL    HW210707   4.976   5.611   2.548
 3270SOL     OW10708   1.398   4.232   6.341
 3270SOL    HW110709   1.414   4.280   6.254
 3270SOL    HW210710   1.319   4.172   6.330
 3271SOL     OW10711   5.734   3.489   2.086
 3271SOL    HW110712   5.713   3.559   2.154
 3271SOL    HW210713   5.717   3.525   1.995
 3272SOL     OW10714   3.093   4.461   6.058
 3272SOL    HW110715   3.119   4.507   5.973
 3272SOL    HW210716   3.022   4.394   6.039
 3273SOL     OW10717   6.365   5.796   0.347
 3273SOL    HW110718   6.443   5.838   0.301
 3273SOL    HW210719   6.304   5.868   0.381
 3274SOL     OW10720   5.762   1.140   0.788
 3274SOL    HW110721   5.672   1.100   0.768
 3274SOL    HW210722   5.833   1.071   0.774
 3275SOL     OW10723   5.707   1.501   7.012
 3275SOL    HW110724   5.697   1.543   0.078
 3275SOL    HW210725   5.797   1.525   6.975
 3276SOL     OW10726   3.049   5.644   6.681
 3276SOL    HW110727   3.050   5.725   6.623
 3276SOL    HW210728   3.035   5.563   6.625
 3277SOL     OW10729   3.992   6.671   7.013
 3277SOL    HW110730   4.031   6.699   0.076
 3277SOL    HW210731   4.066   6.655   6.948
 3278SOL     OW10732   0.728   0.800   5.792
 3278SOL    HW110733   0.701   0.789   5.888
 3278SOL    HW210734   0.647   0.791   5.734
 3279SOL     OW10735   4.959   0.377   0.466
 3279SOL    HW110736   5.019   0.309   0.509
 3279SOL    HW210737   4.948   0.455   0.528
 3280SOL     OW10738   4.512   4.607   4.237
 3280SOL    HW110739   4.547   4.690   4.194
 3280SOL    HW210740   4.480   4.627   4.329
 3281SOL     OW10741   1.379   5.177   2.111
 3281SOL    HW110742   1.342   5.213   2.025
 3281SOL    HW210743   1.305   5.166   2.177
 3282SOL     OW10744   6.867   5.078   5.500
 3282SOL    HW110745   6.941   5.121   5.449
 3282SOL    HW210746   6.879   5.098   5.598
 3283SOL     OW10747   3.838   0.355   1.020
 3283SOL    HW110748   3.792   0.426   0.967
 3283SOL    HW210749   3.823   0.266   0.976
 3284SOL     OW10750   0.583   5.059   6.867
 3284SOL    HW110751   0.560   4.985   6.803
 3284SOL    HW210752   0.590   5.022   6.960
 3285SOL     OW10753   4.358   2.341   3.554
 3285SOL    HW110754   4.376   2.250   3.592
 3285SOL    HW210755   4.410   2.409   3.606
 3286SOL     OW10756   3.356   3.183   2.596
 3286SOL    HW110757   3.330   3.100   2.645
 3286SOL    HW210758   3.406   3.159   2.513
 3287SOL     OW10759   0.893   0.709   0.515
 3287SOL    HW110760   0.891   0.674   0.609
 3287SOL    HW210761   0.929   0.803   0.516
 3288SOL     OW10762   1.184   5.859   6.689
 3288SOL    HW110763   1.160   5.956   6.681
 3288SOL    HW210764   1.106   5.802   6.663
 3289SOL     OW10765   2.653   0.453   5.033
 3289SOL    HW110766   2.673   0.548   5.056
 3289SOL    HW210767   2.565   0.427   5.072
 3290SOL     OW10768   0.333   5.967   1.130
 3290SOL    HW110769   0.315   5.902   1.056
 3290SOL    HW210770   0.406   6.029   1.101
 3291SOL     OW10771   1.958   0.116   6.995
 3291SOL    HW110772   1.977   0.020   7.017
 3291SOL    HW210773   1.910   0.159   0.046
 3292SOL     OW10774   0.070   0.709   0.855
 3292SOL    HW110775   0.085   0.705   0.757
 3292SOL    HW210776   0.152   0.679   0.903
 3293SOL     OW10777   0.361   4.071   1.463
 3293SOL    HW110778   0.298   4.064   1.386
 3293SOL    HW210779   0.331   4.009   1.535
 3294SOL     OW10780   6.119   1.601   6.083
 3294SOL    HW110781   6.039   1.629   6.030
 3294SOL    HW210782   6.162   1.681   6.124
 3295SOL     OW10783   1.412   2.440   2.311
 3295SOL    HW110784   1.356   2.423   2.230
 3295SOL    HW210785   1.353   2.459   2.389
 3296SOL     OW10786   1.201   0.030   2.843
 3296SOL    HW110787   1.210   0.112   2.900
 3296SOL    HW210788   1.174   6.977   2.900
 3297SOL     OW10789   3.337   1.268   5.624
 3297SOL    HW110790   3.309   1.353   5.669
 3297SOL    HW210791   3.266   1.240   5.559
 3298SOL     OW10792   6.039   1.896   5.519
 3298SOL    HW110793   6.101   1.969   5.546
 3298SOL    HW210794   6.000   1.853   5.601
 3299SOL     OW10795   3.658   5.680   3.011
 3299SOL    HW110796   3.627   5.731   2.930
 3299SOL    HW210797   3.590   5.688   3.084
 3300SOL     OW10798   0.228   1.110   5.340
 3300SOL    HW110799   0.167   1.080   5.267
 3300SOL    HW210800   0.175   1.147   5.416
 3301SOL     OW10801   1.894   3.139   3.721
 3301SOL    HW110802   1.984   3.175   3.746
 3301SOL    HW210803   1.838   3.213   3.685
 3302SOL     OW10804   0.493   4.828   5.388
 3302SOL    HW110805   0.428   4.880   5.444
 3302SOL    HW210806   0.584   4.836   5.428
 3303SOL     OW10807   3.657   3.951   1.012
 3303SOL    HW110808   3.682   4.009   1.089
 3303SOL    HW210809   3.739   3.919   0.965
 3304SOL     OW10810   1.174   5.400   4.205
 3304SOL    HW110811   1.094   5.377   4.260
 3304SOL    HW210812   1.187   5.331   4.134
 3305SOL     OW10813   2.029   1.279   2.401
 3305SOL    HW110814   1.953   1.232   2.357
 3305SOL    HW210815   2.004   1.303   2.495
 3306SOL     OW10816   2.261   5.535   4.606
 3306SOL    HW110817   2.166   5.567   4.601
 3306SOL    HW210818   2.262   5.436   4.614
 3307SOL     OW10819   7.020   5.528   6.786
 3307SOL    HW110820   0.020   5.590   6.860
 3307SOL    HW210821   6.952   5.461   6.818
 3308SOL     OW10822   3.153   6.370   1.057
 3308SOL    HW110823   3.132   6.437   0.986
 3308SOL    HW210824   3.157   6.415   1.146
 3309SOL     OW10825   7.005   5.764   3.548
 3309SOL    HW110826   6.956   5.742   3.633
 3309SOL    HW210827   7.014   5.864   3.541
 3310SOL     OW10828   0.195   3.654   5.761
 3310SOL    HW110829   0.242   3.706   5.690
 3310SOL    HW210830   0.097   3.670   5.754
 3311SOL     OW10831   3.466   3.690   1.306
 3311SOL    HW110832   3.500   3.670   1.215
 3311SOL    HW210833   3.430   3.606   1.347
 3312SOL     OW10834   4.211   4.504   6.103
 3312SOL    HW110835   4.228   4.440   6.028
 3312SOL    HW210836   4.279   4.577   6.101
 3313SOL     OW10837   1.050   6.684   3.892
 3313SOL    HW110838   0.986   6.716   3.821
 3313SOL    HW210839   1.111   6.616   3.853
 3314SOL     OW10840   2.528   1.138   2.807
 3314SOL    HW110841   2.507   1.236   2.804
 3314SOL    HW210842   2.568   1.115   2.896
 3315SOL     OW10843   6.483   4.506   4.226
 3315SOL    HW110844   6.567   4.554   4.201
 3315SOL    HW210845   6.426   4.495   4.144
 3316SOL     OW10846   4.873   1.180   5.729
 3316SOL    HW110847   4.879   1.250   5.800
 3316SOL    HW210848   4.786   1.131   5.738
 3317SOL     OW10849   4.424   2.913   1.636
 3317SOL    HW110850   4.445   2.949   1.545
 3317SOL    HW210851   4.487   2.953   1.703
 3318SOL     OW10852   2.214   1.464   0.835
 3318SOL    HW110853   2.275   1.415   0.772
 3318SOL    HW210854   2.269   1.520   0.897
 3319SOL     OW10855   6.316   1.571   3.932
 3319SOL    HW110856   6.373   1.627   3.871
 3319SOL    HW210857   6.367   1.552   4.017
 3320SOL     OW10858   6.447   0.696   5.181
 3320SOL    HW110859   6.544   0.688   5.202
 3320SOL    HW210860   6.413   0.608   5.148
 3321SOL     OW10861   4.880   1.774   0.283
 3321SOL    HW110862   4.954   1.776   0.216
 3321SOL    HW210863   4.795   1.807   0.241
 3322SOL     OW10864   6.618   2.681   1.326
 3322SOL    HW110865   6.567   2.738   1.261
 3322SOL    HW210866   6.679   2.620   1.275
 3323SOL     OW10867   3.166   3.041   0.358
 3323SOL    HW110868   3.194   3.032   0.262
 3323SOL    HW210869   3.162   3.138   0.382
 3324SOL     OW10870   4.086   5.048   6.735
 3324SOL    HW110871   4.183   5.027   6.745
 3324SOL    HW210872   4.048   4.997   6.658
 3325SOL     OW10873   0.442   3.147   6.541
 3325SOL    HW110874   0.513   3.198   6.492
 3325SOL    HW210875   0.394   3.208   6.603
 3326SOL     OW10876   5.397   1.809   2.069
 3326SOL    HW110877   5.411   1.746   1.993
 3326SOL    HW210878   5.299   1.818   2.088
 3327SOL     OW10879   3.376   5.461   1.502
 3327SOL    HW110880   3.340   5.503   1.419
 3327SOL    HW210881   3.454   5.403   1.479
 3328SOL     OW10882   4.356   2.224   0.737
 3328SOL    HW110883   4.374   2.129   0.712
 3328SOL    HW210884   4.258   2.238   0.747
 3329SOL     OW10885   5.193   0.042   4.507
 3329SOL    HW110886   5.178   0.096   4.590
 3329SOL    HW210887   5.283   0.063   4.470
 3330SOL     OW10888   6.607   4.930   2.104
 3330SOL    HW110889   6.682   4.870   2.134
 3330SOL    HW210890   6.548   4.881   2.040
 3331SOL     OW10891   2.595   3.013   1.434
 3331SOL    HW110892   2.522   3.080   1.450
 3331SOL    HW210893   2.683   3.052   1.460
 3332SOL     OW10894   5.645   5.639   6.858
 3332SOL    HW110895   5.623   5.585   6.777
 3332SOL    HW210896   5.669   5.578   6.934
 3333SOL     OW10897   4.358   4.390   6.299
 3333SOL    HW110898   4.441   4.398   6.244
 3333SOL    HW210899   4.279   4.415   6.244
 3334SOL     OW10900   2.680   3.909   1.685
 3334SOL    HW110901   2.757   3.851   1.709
 3334SOL    HW210902   2.712   4.003   1.671
 3335SOL     OW10903   4.727   6.916   5.514
 3335SOL    HW110904   4.704   6.867   5.431
 3335SOL    HW210905   4.653   6.908   5.580
 3336SOL     OW10906   2.405   5.900   4.671
 3336SOL    HW110907   2.320   5.860   4.636
 3336SOL    HW210908   2.430   5.855   4.757
 3337SOL     OW10909   3.088   3.840   2.934
 3337SOL    HW110910   3.083   3.917   2.871
 3337SOL    HW210911   3.080   3.754   2.882
 3338SOL     OW10912   5.753   2.450   1.417
 3338SOL    HW110913   5.835   2.463   1.471
 3338SOL    HW210914   5.766   2.374   1.354
 3339SOL     OW10915   6.191   0.380   6.620
 3339SOL    HW110916   6.261   0.383   6.548
 3339SOL    HW210917   6.186   0.288   6.658
 3340SOL     OW10918   3.513   0.987   2.571
 3340SOL    HW110919   3.462   0.992   2.485
 3340SOL    HW210920   3.461   1.031   2.644
 3341SOL     OW10921   1.214   5.195   3.215
 3341SOL    HW110922   1.135   5.221   3.271
 3341SOL    HW210923   1.210   5.096   3.197
 3342SOL     OW10924   2.258   0.091   4.238
 3342SOL    HW110925   2.286   0.114   4.145
 3342SOL    HW210926   2.241   0.175   4.289
 3343SOL     OW10927   5.439   2.903   0.914
 3343SOL    HW110928   5.525   2.869   0.952
 3343SOL    HW210929   5.394   2.961   0.981
 3344SOL     OW10930   5.751   3.131   4.067
 3344SOL    HW110931   5.795   3.121   3.978
 3344SOL    HW210932   5.753   3.043   4.115
 3345SOL     OW10933   1.599   3.628   6.080
 3345SOL    HW110934   1.533   3.589   6.145
 3345SOL    HW210935   1.611   3.725   6.100
 3346SOL     OW10936   1.439   0.625   0.724
 3346SOL    HW110937   1.532   0.615   0.690
 3346SOL    HW210938   1.407   0.537   0.759
 3347SOL     OW10939   0.758   3.852   4.604
 3347SOL    HW110940   0.779   3.845   4.701
 3347SOL    HW210941   0.715   3.767   4.573
 3348SOL     OW10942   3.529   3.414   3.873
 3348SOL    HW110943   3.571   3.325   3.891
 3348SOL    HW210944   3.504   3.457   3.960
 3349SOL     OW10945   0.950   5.834   2.861
 3349SOL    HW110946   1.022   5.764   2.856
 3349SOL    HW210947   0.898   5.822   2.946
 3350SOL     OW10948   1.222   2.275   5.744
 3350SOL    HW110949   1.274   2.233   5.669
 3350SOL    HW210950   1.255   2.368   5.758
 3351SOL     OW10951   4.975   1.026   2.421
 3351SOL    HW110952   5.021   1.059   2.338
 3351SOL    HW210953   4.882   1.063   2.424
 3352SOL     OW10954   6.784   2.399   0.467
 3352SOL    HW110955   6.696   2.379   0.511
 3352SOL    HW210956   6.851   2.424   0.537
 3353SOL     OW10957   1.526   5.545   2.063
 3353SOL    HW110958   1.555   5.634   2.099
 3353SOL    HW210959   1.605   5.484   2.060
 3354SOL     OW10960   4.720   2.428   5.550
 3354SOL    HW110961   4.794   2.459   5.490
 3354SOL    HW210962   4.713   2.488   5.629
 3355SOL     OW10963   2.027   1.373   6.969
 3355SOL    HW110964   2.022   1.347   0.041
 3355SOL    HW210965   2.045   1.471   6.961
 3356SOL     OW10966   1.689   4.786   5.891
 3356SOL    HW110967   1.697   4.885   5.877
 3356SOL    HW210968   1.780   4.745   5.897
 3357SOL     OW10969   2.772   4.707   1.706
 3357SOL    HW110970   2.816   4.689   1.618
 3357SOL    HW210971   2.786   4.629   1.767
 3358SOL     OW10972   5.204   1.025   1.057
 3358SOL    HW110973   5.179   1.001   1.151
 3358SOL    HW210974   5.298   1.061   1.055
 3359SOL     OW10975   6.788   0.379   3.916
 3359SOL    HW110976   6.871   0.404   3.966
 3359SOL    HW210977   6.708   0.394   3.974
 3360SOL     OW10978   0.353   0.997   6.813
 3360SOL    HW110979   0.265   1.038   6.837
 3360SOL    HW210980   0.395   1.050   6.739
 3361SOL     OW10981   0.931   4.413   3.840
 3361SOL    HW110982   0.998   4.455   3.901
 3361SOL    HW210983   0.918   4.470   3.760
 3362SOL     OW10984   3.736   1.583   3.096
 3362SOL    HW110985   3.716   1.680   3.107
 3362SOL    HW210986   3.659   1.529   3.129
 3363SOL     OW10987   6.080   6.882   1.048
 3363SOL    HW110988   6.164   6.830   1.034
 3363SOL    HW210989   6.008   6.821   1.083
 3364SOL     OW10990   1.586   4.311   4.113
 3364SOL    HW110991   1.625   4.396   4.150
 3364SOL    HW210992   1.505   4.333   4.059
 3365SOL     OW10993   0.263   2.209   5.434
 3365SOL    HW110994   0.339   2.235   5.375
 3365SOL    HW210995   0.176   2.232   5.390
 3366SOL     OW10996   5.815   6.818   5.495
 3366SOL    HW110997   5.914   6.805   5.499
 3366SOL    HW210998   5.770   6.759   5.562
 3367SOL     OW10999   3.655   2.878   1.441
 3367SOL    HW111000   3.647   2.934   1.523
 3367SOL    HW211001   3.726   2.809   1.453
 3368SOL     OW11002   0.353   4.880   5.645
 3368SOL    HW111003   0.308   4.907   5.730
 3368SOL    HW211004   0.417   4.806   5.663
 3369SOL     OW11005   3.756   2.600   6.064
 3369SOL    HW111006   3.712   2.682   6.102
 3369SOL    HW211007   3.819   2.627   5.991
 3370SOL     OW11008   6.868   6.214   6.769
 3370SOL    HW111009   6.833   6.206   6.676
 3370SOL    HW211010   6.938   6.286   6.772
 3371SOL     OW11011   1.822   2.987   1.996
 3371SOL    HW111012   1.735   3.025   2.028
 3371SOL    HW211013   1.874   2.954   2.074
 3372SOL     OW11014   0.651   1.696   1.016
 3372SOL    HW111015   0.739   1.708   1.062
 3372SOL    HW211016   0.666   1.685   0.917
 3373SOL     OW11017   6.966   1.670   2.945
 3373SOL    HW111018   7.003   1.754   2.984
 3373SOL    HW211019   6.926   1.689   2.855
 3374SOL     OW11020   1.146   6.063   4.630
 3374SOL    HW111021   1.092   6.136   4.673
 3374SOL    HW211022   1.156   6.083   4.533
 3375SOL     OW11023   6.124   6.035   6.418
 3375SOL    HW111024   6.040   6.001   6.460
 3375SOL    HW211025   6.203   5.999   6.466
 3376SOL     OW11026   3.883   3.008   3.298
 3376SOL    HW111027   3.944   3.013   3.377
 3376SOL    HW211028   3.903   3.085   3.236
 3377SOL     OW11029   0.338   6.354   5.180
 3377SOL    HW111030   0.256   6.382   5.131
 3377SOL    HW211031   0.318   6.344   5.277
 3378SOL     OW11032   6.906   0.954   0.600
 3378SOL    HW111033   6.841   0.904   0.657
 3378SOL    HW211034   6.993   0.961   0.648
 3379SOL     OW11035   6.648   6.648   6.286
 3379SOL    HW111036   6.569   6.677   6.339
 3379SOL    HW211037   6.681   6.560   6.320
 3380SOL     OW11038   6.077   6.714   5.484
 3380SOL    HW111039   6.086   6.781   5.411
 3380SOL    HW211040   6.161   6.661   5.493
 3381SOL     OW11041   1.297   2.719   1.311
 3381SOL    HW111042   1.288   2.674   1.400
 3381SOL    HW211043   1.380   2.686   1.266
 3382SOL     OW11044   0.368   1.744   0.994
 3382SOL    HW111045   0.467   1.756   1.002
 3382SOL    HW211046   0.347   1.646   0.987
 3383SOL     OW11047   4.649   5.822   2.070
 3383SOL    HW111048   4.747   5.845   2.072
 3383SOL    HW211049   4.619   5.816   1.975
 3384SOL     OW11050   2.544   3.193   5.895
 3384SOL    HW111051   2.535   3.156   5.803
 3384SOL    HW211052   2.602   3.274   5.894
 3385SOL     OW11053   6.866   2.506   4.144
 3385SOL    HW111054   6.960   2.541   4.143
 3385SOL    HW211055   6.866   2.411   4.115
 3386SOL     OW11056   6.139   4.004   6.866
 3386SOL    HW111057   6.130   3.948   6.783
 3386SOL    HW211058   6.063   4.070   6.869
 3387SOL     OW11059   2.931   0.818   3.831
 3387SOL    HW111060   2.884   0.810   3.743
 3387SOL    HW211061   3.030   0.816   3.816
 3388SOL     OW11062   5.063   3.421   1.694
 3388SOL    HW111063   5.028   3.398   1.603
 3388SOL    HW211064   5.160   3.444   1.687
 3389SOL     OW11065   5.701   4.676   5.695
 3389SOL    HW111066   5.739   4.763   5.724
 3389SOL    HW211067   5.641   4.640   5.766
 3390SOL     OW11068   4.995   5.152   5.909
 3390SOL    HW111069   4.984   5.165   6.007
 3390SOL    HW211070   5.027   5.237   5.868
 3391SOL     OW11071   5.174   2.808   4.699
 3391SOL    HW111072   5.191   2.906   4.706
 3391SOL    HW211073   5.081   2.788   4.731
 3392SOL     OW11074   2.871   6.818   3.917
 3392SOL    HW111075   2.970   6.836   3.919
 3392SOL    HW211076   2.853   6.744   3.852
 3393SOL     OW11077   0.460   6.394   0.264
 3393SOL    HW111078   0.404   6.362   0.188
 3393SOL    HW211079   0.460   6.494   0.265
 3394SOL     OW11080   5.974   3.343   2.092
 3394SOL    HW111081   5.944   3.257   2.051
 3394SOL    HW211082   5.922   3.418   2.051
 3395SOL     OW11083   5.339   3.188   3.402
 3395SOL    HW111084   5.325   3.176   3.304
 3395SOL    HW211085   5.397   3.114   3.437
 3396SOL     OW11086   4.587   1.802   3.787
 3396SOL    HW111087   4.614   1.710   3.757
 3396SOL    HW211088   4.554   1.854   3.708
 3397SOL     OW11089   2.010   0.659   5.230
 3397SOL    HW111090   1.977   0.662   5.324
 3397SOL    HW211091   2.067   0.739   5.212
 3398SOL     OW11092   0.726   6.757   4.874
 3398SOL    HW111093   0.666   6.690   4.831
 3398SOL    HW211094   0.775   6.713   4.950
 3399SOL     OW11095   5.414   4.394   4.095
 3399SOL    HW111096   5.380   4.474   4.046
 3399SOL    HW211097   5.336   4.340   4.128
 3400SOL     OW11098   4.935   2.681   5.724
 3400SOL    HW111099   4.990   2.664   5.806
 3400SOL    HW211100   4.986   2.740   5.662
 3401SOL     OW11101   0.024   3.222   1.041
 3401SOL    HW111102   7.002   3.285   1.103
 3401SOL    HW211103   0.047   3.138   1.090
 3402SOL     OW11104   4.040   6.026   6.421
 3402SOL    HW111105   3.977   5.964   6.467
 3402SOL    HW211106   4.114   6.051   6.483
 3403SOL     OW11107   3.670   5.920   4.596
 3403SOL    HW111108   3.670   5.891   4.500
 3403SOL    HW211109   3.631   6.012   4.603
 3404SOL     OW11110   5.023   1.723   0.063
 3404SOL    HW111111   5.055   1.636   0.100
 3404SOL    HW211112   4.978   1.708   7.000
 3405SOL     OW11113   0.119   3.888   4.553
 3405SOL    HW111114   0.163   3.913   4.640
 3405SOL    HW211115   0.025   3.861   4.570
 3406SOL     OW11116   0.463   3.969   1.888
 3406SOL    HW111117   0.518   3.902   1.939
 3406SOL    HW211118   0.509   3.991   1.802
 3407SOL     OW11119   1.218   5.105   6.453
 3407SOL    HW111120   1.175   5.024   6.493
 3407SOL    HW211121   1.214   5.099   6.353
 3408SOL     OW11122   4.614   3.788   5.318
 3408SOL    HW111123   4.627   3.703   5.267
 3408SOL    HW211124   4.601   3.767   5.415
 3409SOL     OW11125   3.317   6.291   6.567
 3409SOL    HW111126   3.218   6.297   6.584
 3409SOL    HW211127   3.348   6.199   6.592
 3410SOL     OW11128   0.300   5.986   0.456
 3410SOL    HW111129   0.375   5.967   0.392
 3410SOL    HW211130   0.304   6.082   0.484
 3411SOL     OW11131   0.626   3.359   1.906
 3411SOL    HW111132   0.705   3.302   1.884
 3411SOL    HW211133   0.552   3.302   1.940
 3412SOL     OW11134   4.210   2.793   6.813
 3412SOL    HW111135   4.220   2.766   6.909
 3412SOL    HW211136   4.201   2.892   6.807
 3413SOL     OW11137   5.807   1.381   0.905
 3413SOL    HW111138   5.793   1.299   0.849
 3413SOL    HW211139   5.795   1.463   0.849
 3414SOL     OW11140   2.389   0.190   5.698
 3414SOL    HW111141   2.322   0.127   5.659
 3414SOL    HW211142   2.428   0.246   5.626
 3415SOL     OW11143   1.905   3.793   5.106
 3415SOL    HW111144   1.926   3.705   5.063
 3415SOL    HW211145   1.849   3.778   5.187
 3416SOL     OW11146   0.242   5.855   0.701
 3416SOL    HW111147   0.233   5.872   0.603
 3416SOL    HW211148   0.161   5.889   0.748
 3417SOL     OW11149   0.483   5.733   2.901
 3417SOL    HW111150   0.522   5.645   2.875
 3417SOL    HW211151   0.408   5.719   2.966
 3418SOL     OW11152   3.504   0.907   4.496
 3418SOL    HW111153   3.485   0.811   4.518
 3418SOL    HW211154   3.553   0.949   4.573
 3419SOL     OW11155   3.543   5.367   4.772
 3419SOL    HW111156   3.519   5.291   4.710
 3419SOL    HW211157   3.618   5.419   4.732
 3420SOL     OW11158   4.974   2.805   4.343
 3420SOL    HW111159   4.950   2.733   4.278
 3420SOL    HW211160   4.941   2.893   4.308
 3421SOL     OW11161   5.167   1.386   5.329
 3421SOL    HW111162   5.127   1.312   5.385
 3421SOL    HW211163   5.219   1.448   5.387
 3422SOL     OW11164   1.914   0.348   1.051
 3422SOL    HW111165   1.839   0.375   1.112
 3422SOL    HW211166   1.987   0.306   1.104
 3423SOL     OW11167   0.992   4.507   6.886
 3423SOL    HW111168   1.046   4.479   6.807
 3423SOL    HW211169   1.053   4.539   6.959
 3424SOL     OW11170   2.949   6.577   1.595
 3424SOL    HW111171   3.022   6.511   1.606
 3424SOL    HW211172   2.901   6.589   1.682
 3425SOL     OW11173   5.190   4.926   2.623
 3425SOL    HW111174   5.112   4.878   2.662
 3425SOL    HW211175   5.252   4.859   2.581
 3426SOL     OW11176   4.024   2.640   0.446
 3426SOL    HW111177   4.070   2.728   0.442
 3426SOL    HW211178   3.927   2.651   0.425
 3427SOL     OW11179   6.202   0.191   6.864
 3427SOL    HW111180   6.258   0.114   6.894
 3427SOL    HW211181   6.128   0.207   6.930
 3428SOL     OW11182   3.055   5.142   0.670
 3428SOL    HW111183   2.970   5.154   0.619
 3428SOL    HW211184   3.127   5.113   0.607
 3429SOL     OW11185   0.259   2.352   0.552
 3429SOL    HW111186   0.292   2.445   0.568
 3429SOL    HW211187   0.330   2.287   0.576
 3430SOL     OW11188   0.750   6.571   5.072
 3430SOL    HW111189   0.771   6.498   5.136
 3430SOL    HW211190   0.657   6.605   5.089
 3431SOL     OW11191   0.611   6.929   1.478
 3431SOL    HW111192   0.616   6.829   1.477
 3431SOL    HW211193   0.593   6.962   1.385
 3432SOL     OW11194   1.769   2.322   0.017
 3432SOL    HW111195   1.779   2.375   6.957
 3432SOL    HW211196   1.674   2.328   0.049
 3433SOL     OW11197   1.134   0.438   6.394
 3433SOL    HW111198   1.103   0.345   6.410
 3433SOL    HW211199   1.126   0.491   6.479
 3434SOL     OW11200   4.863   1.815   1.113
 3434SOL    HW111201   4.774   1.770   1.106
 3434SOL    HW211202   4.919   1.770   1.183
 3435SOL     OW11203   0.812   1.587   0.464
 3435SOL    HW111204   0.821   1.489   0.447
 3435SOL    HW211205   0.730   1.621   0.418
 3436SOL     OW11206   3.941   5.784   6.503
 3436SOL    HW111207   4.010   5.765   6.433
 3436SOL    HW211208   3.985   5.796   6.592
 3437SOL     OW11209   1.833   1.129   5.759
 3437SOL    HW111210   1.747   1.174   5.784
 3437SOL    HW211211   1.891   1.193   5.709
 3438SOL     OW11212   1.083   2.799   6.918
 3438SOL    HW111213   1.145   2.724   6.940
 3438SOL    HW211214   1.049   2.788   6.824
 3439SOL     OW11215   2.069   6.513   4.995
 3439SOL    HW111216   2.145   6.506   4.930
 3439SOL    HW211217   2.086   6.589   5.057
 3440SOL     OW11218   3.604   3.482   1.682
 3440SOL    HW111219   3.651   3.463   1.768
 3440SOL    HW211220   3.640   3.423   1.610
 3441SOL     OW11221   5.054   6.935   4.285
 3441SOL    HW111222   4.956   6.921   4.303
 3441SOL    HW211223   5.102   6.947   4.372
 3442SOL     OW11224   3.032   5.416   1.975
 3442SOL    HW111225   3.089   5.425   1.893
 3442SOL    HW211226   2.978   5.332   1.969
 3443SOL     OW11227   5.084   5.824   1.517
 3443SOL    HW111228   5.008   5.759   1.520
 3443SOL    HW211229   5.048   5.917   1.509
 3444SOL     OW11230   5.316   5.382   0.160
 3444SOL    HW111231   5.321   5.348   0.066
 3444SOL    HW211232   5.221   5.408   0.180
 3445SOL     OW11233   6.610   5.637   4.251
 3445SOL    HW111234   6.558   5.705   4.303
 3445SOL    HW211235   6.572   5.546   4.266
 3446SOL     OW11236   6.222   0.255   2.601
 3446SOL    HW111237   6.201   0.340   2.551
 3446SOL    HW211238   6.181   0.260   2.692
 3447SOL     OW11239   5.354   5.683   0.802
 3447SOL    HW111240   5.301   5.761   0.768
 3447SOL    HW211241   5.381   5.625   0.725
 3448SOL     OW11242   3.214   0.005   1.129
 3448SOL    HW111243   3.200   6.942   1.083
 3448SOL    HW211244   3.126   0.051   1.141
 3449SOL     OW11245   6.221   6.495   3.931
 3449SOL    HW111246   6.253   6.400   3.940
 3449SOL    HW211247   6.202   6.514   3.835
 3450SOL     OW11248   6.742   2.336   6.625
 3450SOL    HW111249   6.685   2.329   6.543
 3450SOL    HW211250   6.770   2.244   6.654
 3451SOL     OW11251   2.087   6.061   1.738
 3451SOL    HW111252   2.159   6.025   1.679
 3451SOL    HW211253   2.015   6.102   1.682
 3452SOL     OW11254   5.705   0.675   6.074
 3452SOL    HW111255   5.785   0.617   6.055
 3452SOL    HW211256   5.648   0.632   6.144
 3453SOL     OW11257   6.243   5.899   5.896
 3453SOL    HW111258   6.247   5.944   5.807
 3453SOL    HW211259   6.252   5.968   5.969
 3454SOL     OW11260   0.930   2.318   5.848
 3454SOL    HW111261   0.904   2.227   5.880
 3454SOL    HW211262   1.027   2.319   5.826
 3455SOL     OW11263   2.558   1.814   4.346
 3455SOL    HW111264   2.566   1.794   4.444
 3455SOL    HW211265   2.527   1.908   4.335
 3456SOL     OW11266   6.082   5.497   2.877
 3456SOL    HW111267   5.997   5.454   2.847
 3456SOL    HW211268   6.151   5.488   2.805
 3457SOL     OW11269   2.807   5.376   3.245
 3457SOL    HW111270   2.849   5.454   3.198
 3457SOL    HW211271   2.822   5.293   3.191
 3458SOL     OW11272   4.496   0.604   1.437
 3458SOL    HW111273   4.399   0.615   1.460
 3458SOL    HW211274   4.548   0.681   1.474
 3459SOL     OW11275   5.937   3.679   2.930
 3459SOL    HW111276   5.996   3.677   3.010
 3459SOL    HW211277   5.893   3.590   2.918
 3460SOL     OW11278   2.675   2.844   6.842
 3460SOL    HW111279   2.773   2.843   6.863
 3460SOL    HW211280   2.629   2.770   6.891
 3461SOL     OW11281   4.473   6.334   5.106
 3461SOL    HW111282   4.382   6.293   5.110
 3461SOL    HW211283   4.506   6.353   5.198
 3462SOL     OW11284   0.606   3.455   2.333
 3462SOL    HW111285   0.647   3.529   2.387
 3462SOL    HW211286   0.581   3.491   2.243
 3463SOL     OW11287   0.840   3.892   3.037
 3463SOL    HW111288   0.855   3.824   3.108
 3463SOL    HW211289   0.849   3.984   3.076
 3464SOL     OW11290   6.344   3.698   6.585
 3464SOL    HW111291   6.327   3.660   6.494
 3464SOL    HW211292   6.434   3.741   6.586
 3465SOL     OW11293   1.848   2.420   2.302
 3465SOL    HW111294   1.765   2.370   2.325
 3465SOL    HW211295   1.893   2.375   2.225
 3466SOL     OW11296   0.309   4.662   0.214
 3466SOL    HW111297   0.385   4.645   0.277
 3466SOL    HW211298   0.336   4.637   0.121
 3467SOL     OW11299   1.928   2.541   0.987
 3467SOL    HW111300   1.961   2.568   0.896
 3467SOL    HW211301   1.943   2.443   1.000
 3468SOL     OW11302   5.727   6.675   2.758
 3468SOL    HW111303   5.736   6.582   2.722
 3468SOL    HW211304   5.656   6.724   2.707
 3469SOL     OW11305   4.542   0.129   3.556
 3469SOL    HW111306   4.509   0.215   3.518
 3469SOL    HW211307   4.466   0.064   3.562
 3470SOL     OW11308   6.439   3.187   1.616
 3470SOL    HW111309   6.359   3.245   1.597
 3470SOL    HW211310   6.410   3.109   1.672
 3471SOL     OW11311   4.330   5.378   4.392
 3471SOL    HW111312   4.411   5.404   4.444
 3471SOL    HW211313   4.248   5.418   4.434
 3472SOL     OW11314   2.685   0.978   3.349
 3472SOL    HW111315   2.609   0.914   3.335
 3472SOL    HW211316   2.653   1.072   3.333
 3473SOL     OW11317   0.065   2.355   1.556
 3473SOL    HW111318   0.054   2.431   1.493
 3473SOL    HW211319   0.004   2.280   1.528
 3474SOL     OW11320   0.969   4.858   2.044
 3474SOL    HW111321   1.030   4.830   1.969
 3474SOL    HW211322   1.023   4.897   2.118
 3475SOL     OW11323   1.462   4.540   4.405
 3475SOL    HW111324   1.544   4.550   4.350
 3475SOL    HW211325   1.423   4.631   4.424
 3476SOL     OW11326   2.342   1.343   3.055
 3476SOL    HW111327   2.310   1.252   3.080
 3476SOL    HW211328   2.263   1.405   3.045
 3477SOL     OW11329   1.607   5.690   1.157
 3477SOL    HW111330   1.630   5.594   1.170
 3477SOL    HW211331   1.575   5.729   1.243
 3478SOL     OW11332   2.556   5.452   5.274
 3478SOL    HW111333   2.633   5.484   5.219
 3478SOL    HW211334   2.567   5.482   5.369
 3479SOL     OW11335   1.045   0.187   3.253
 3479SOL    HW111336   1.118   0.250   3.229
 3479SOL    HW211337   0.972   0.192   3.184
 3480SOL     OW11338   0.518   6.591   4.776
 3480SOL    HW111339   0.559   6.500   4.783
 3480SOL    HW211340   0.423   6.587   4.805
 3481SOL     OW11341   4.577   0.297   0.237
 3481SOL    HW111342   4.521   0.379   0.232
 3481SOL    HW211343   4.620   0.292   0.328
 3482SOL     OW11344   6.190   1.479   1.773
 3482SOL    HW111345   6.197   1.440   1.865
 3482SOL    HW211346   6.102   1.525   1.763
 3483SOL     OW11347   4.771   2.207   1.966
 3483SOL    HW111348   4.851   2.222   2.025
 3483SOL    HW211349   4.691   2.190   2.023
 3484SOL     OW11350   1.205   3.066   6.856
 3484SOL    HW111351   1.265   3.018   6.791
 3484SOL    HW211352   1.156   2.998   6.911
 3485SOL     OW11353   2.155   1.397   4.524
 3485SOL    HW111354   2.196   1.409   4.614
 3485SOL    HW211355   2.197   1.461   4.459
 3486SOL     OW11356   2.870   0.081   3.928
 3486SOL    HW111357   2.891   7.008   3.922
 3486SOL    HW211358   2.947   0.129   3.970
 3487SOL     OW11359   6.153   2.492   5.457
 3487SOL    HW111360   6.070   2.506   5.510
 3487SOL    HW211361   6.184   2.397   5.466
 3488SOL     OW11362   6.142   1.111   4.382
 3488SOL    HW111363   6.229   1.077   4.346
 3488SOL    HW211364   6.068   1.079   4.324
 3489SOL     OW11365   4.112   0.086   1.214
 3489SOL    HW111366   4.118   0.163   1.152
 3489SOL    HW211367   4.042   0.103   1.283
 3490SOL     OW11368   4.484   4.493   0.488
 3490SOL    HW111369   4.418   4.428   0.450
 3490SOL    HW211370   4.472   4.582   0.445
 3491SOL     OW11371   4.519   2.287   5.387
 3491SOL    HW111372   4.436   2.336   5.361
 3491SOL    HW211373   4.558   2.327   5.470
 3492SOL     OW11374   6.901   4.885   1.295
 3492SOL    HW111375   6.940   4.793   1.291
 3492SOL    HW211376   6.971   4.951   1.269
 3493SOL     OW11377   5.507   4.099   5.608
 3493SOL    HW111378   5.469   4.157   5.680
 3493SOL    HW211379   5.439   4.086   5.536
 3494SOL     OW11380   3.444   0.251   1.200
 3494SOL    HW111381   3.359   0.243   1.253
 3494SOL    HW211382   3.457   0.346   1.173
 3495SOL     OW11383   5.718   4.929   2.039
 3495SOL    HW111384   5.638   4.871   2.027
 3495SOL    HW211385   5.792   4.897   1.980
 3496SOL     OW11386   6.133   4.192   1.191
 3496SOL    HW111387   6.053   4.234   1.148
 3496SOL    HW211388   6.107   4.157   1.281
 3497SOL     OW11389   3.075   1.179   4.002
 3497SOL    HW111390   3.132   1.259   3.981
 3497SOL    HW211391   3.021   1.155   3.921
 3498SOL     OW11392   2.977   2.145   0.935
 3498SOL    HW111393   2.994   2.221   0.997
 3498SOL    HW211394   2.925   2.177   0.856
 3499SOL     OW11395   4.884   3.482   4.108
 3499SOL    HW111396   4.936   3.410   4.062
 3499SOL    HW211397   4.870   3.559   4.046
 3500SOL     OW11398   1.711   3.744   5.283
 3500SOL    HW111399   1.681   3.789   5.367
 3500SOL    HW211400   1.658   3.661   5.269
 3501SOL     OW11401   1.727   5.694   4.656
 3501SOL    HW111402   1.752   5.790   4.669
 3501SOL    HW211403   1.685   5.658   4.739
 3502SOL     OW11404   6.515   2.852   2.721
 3502SOL    HW111405   6.605   2.817   2.747
 3502SOL    HW211406   6.480   2.911   2.794
 3503SOL     OW11407   5.873   6.487   4.660
 3503SOL    HW111408   5.912   6.395   4.655
 3503SOL    HW211409   5.774   6.482   4.647
 3504SOL     OW11410   2.295   2.186   1.421
 3504SOL    HW111411   2.231   2.231   1.359
 3504SOL    HW211412   2.259   2.096   1.447
 3505SOL     OW11413   5.766   4.596   4.896
 3505SOL    HW111414   5.806   4.684   4.924
 3505SOL    HW211415   5.690   4.573   4.957
 3506SOL     OW11416   5.126   5.388   5.799
 3506SOL    HW111417   5.076   5.436   5.727
 3506SOL    HW211418   5.221   5.374   5.771
 3507SOL     OW11419   1.496   0.789   0.944
 3507SOL    HW111420   1.544   0.859   0.892
 3507SOL    HW211421   1.494   0.704   0.891
 3508SOL     OW11422   2.948   2.406   5.689
 3508SOL    HW111423   2.996   2.351   5.620
 3508SOL    HW211424   2.850   2.386   5.685
 3509SOL     OW11425   5.613   0.290   5.931
 3509SOL    HW111426   5.619   0.376   5.879
 3509SOL    HW211427   5.633   0.213   5.870
 3510SOL     OW11428   1.435   2.429   1.786
 3510SOL    HW111429   1.515   2.398   1.734
 3510SOL    HW211430   1.421   2.369   1.865
 3511SOL     OW11431   3.529   5.218   0.458
 3511SOL    HW111432   3.506   5.314   0.445
 3511SOL    HW211433   3.614   5.197   0.409
 3512SOL     OW11434   0.522   4.524   0.925
 3512SOL    HW111435   0.613   4.509   0.964
 3512SOL    HW211436   0.456   4.538   0.998
 3513SOL     OW11437   6.336   2.779   0.729
 3513SOL    HW111438   6.271   2.769   0.804
 3513SOL    HW211439   6.413   2.835   0.758
 3514SOL     OW11440   0.621   1.631   2.074
 3514SOL    HW111441   0.681   1.613   1.996
 3514SOL    HW211442   0.527   1.645   2.042
 3515SOL     OW11443   5.355   5.911   2.921
 3515SOL    HW111444   5.281   5.928   2.986
 3515SOL    HW211445   5.411   5.834   2.955
 3516SOL     OW11446   4.755   0.297   0.721
 3516SOL    HW111447   4.750   0.250   0.633
 3516SOL    HW211448   4.816   0.375   0.714
 3517SOL     OW11449   1.497   2.251   0.575
 3517SOL    HW111450   1.449   2.249   0.662
 3517SOL    HW211451   1.576   2.189   0.579
 3518SOL     OW11452   6.144   2.858   4.394
 3518SOL    HW111453   6.143   2.905   4.305
 3518SOL    HW211454   6.226   2.801   4.401
 3519SOL     OW11455   1.775   0.887   6.725
 3519SOL    HW111456   1.693   0.945   6.729
 3519SOL    HW211457   1.747   0.791   6.727
 3520SOL     OW11458   3.086   4.781   6.118
 3520SOL    HW111459   3.181   4.771   6.146
 3520SOL    HW211460   3.058   4.701   6.065
 3521SOL     OW11461   4.929   2.104   0.014
 3521SOL    HW111462   4.973   2.148   6.960
 3521SOL    HW211463   4.998   2.079   0.082
 3522SOL     OW11464   0.296   4.454   2.027
 3522SOL    HW111465   0.315   4.413   1.938
 3522SOL    HW211466   0.209   4.503   2.023
 3523SOL     OW11467   2.142   5.330   6.154
 3523SOL    HW111468   2.074   5.264   6.122
 3523SOL    HW211469   2.204   5.285   6.219
 3524SOL     OW11470   4.215   1.478   1.792
 3524SOL    HW111471   4.162   1.563   1.789
 3524SOL    HW211472   4.199   1.426   1.709
 3525SOL     OW11473   1.306   4.459   2.936
 3525SOL    HW111474   1.268   4.418   2.853
 3525SOL    HW211475   1.386   4.407   2.966
 3526SOL     OW11476   2.436   6.463   4.410
 3526SOL    HW111477   2.516   6.425   4.457
 3526SOL    HW211478   2.354   6.444   4.463
 3527SOL     OW11479   5.993   2.586   6.258
 3527SOL    HW111480   6.001   2.605   6.160
 3527SOL    HW211481   6.078   2.545   6.292
 3528SOL     OW11482   0.805   5.471   4.523
 3528SOL    HW111483   0.808   5.371   4.531
 3528SOL    HW211484   0.761   5.510   4.603
 3529SOL     OW11485   4.001   0.161   0.159
 3529SOL    HW111486   4.100   0.152   0.170
 3529SOL    HW211487   3.980   0.193   0.067
 3530SOL     OW11488   0.187   5.197   2.617
 3530SOL    HW111489   0.257   5.190   2.546
 3530SOL    HW211490   0.226   5.177   2.706
 3531SOL     OW11491   5.350   2.661   0.710
 3531SOL    HW111492   5.383   2.755   0.702
 3531SOL    HW211493   5.320   2.628   0.620
 3532SOL     OW11494   2.983   0.880   1.499
 3532SOL    HW111495   3.062   0.894   1.559
 3532SOL    HW211496   2.991   0.792   1.453
 3533SOL     OW11497   1.800   1.943   2.281
 3533SOL    HW111498   1.731   1.870   2.290
 3533SOL    HW211499   1.889   1.907   2.307
 3534SOL     OW11500   5.631   0.554   5.814
 3534SOL    HW111501   5.714   0.553   5.758
 3534SOL    HW211502   5.650   0.602   5.900
 3535SOL     OW11503   1.731   5.811   0.455
 3535SOL    HW111504   1.788   5.761   0.391
 3535SOL    HW211505   1.666   5.868   0.405
 3536SOL     OW11506   2.659   2.289   3.368
 3536SOL    HW111507   2.735   2.288   3.303
 3536SOL    HW211508   2.695   2.289   3.461
 3537SOL     OW11509   3.110   5.542   1.022
 3537SOL    HW111510   3.060   5.605   0.963
 3537SOL    HW211511   3.125   5.456   0.974
 3538SOL     OW11512   1.311   0.311   6.224
 3538SOL    HW111513   1.261   0.383   6.272
 3538SOL    HW211514   1.247   0.245   6.185
 3539SOL     OW11515   5.678   3.283   5.931
 3539SOL    HW111516   5.590   3.328   5.949
 3539SOL    HW211517   5.727   3.333   5.859
 3540SOL     OW11518   2.167   2.414   6.389
 3540SOL    HW111519   2.075   2.452   6.376
 3540SOL    HW211520   2.225   2.481   6.434
 3541SOL     OW11521   1.740   2.415   6.524
 3541SOL    HW111522   1.806   2.490   6.521
 3541SOL    HW211523   1.778   2.340   6.577
 3542SOL     OW11524   1.371   4.918   2.226
 3542SOL    HW111525   1.392   5.001   2.175
 3542SOL    HW211526   1.437   4.846   2.201
 3543SOL     OW11527   0.627   2.463   4.878
 3543SOL    HW111528   0.694   2.506   4.818
 3543SOL    HW211529   0.561   2.413   4.822
 3544SOL     OW11530   2.997   3.940   6.166
 3544SOL    HW111531   2.949   3.931   6.079
 3544SOL    HW211532   2.946   4.002   6.226
 3545SOL     OW11533   4.234   5.379   0.262
 3545SOL    HW111534   4.159   5.441   0.241
 3545SOL    HW211535   4.220   5.293   0.212
 3546SOL     OW11536   0.529   3.709   3.970
 3546SOL    HW111537   0.526   3.610   3.956
 3546SOL    HW211538   0.502   3.755   3.886
 3547SOL     OW11539   6.609   4.982   5.491
 3547SOL    HW111540   6.683   5.043   5.461
 3547SOL    HW211541   6.521   5.025   5.473
 3548SOL     OW11542   5.297   0.490   5.380
 3548SOL    HW111543   5.341   0.556   5.441
 3548SOL    HW211544   5.309   0.518   5.285
 3549SOL     OW11545   6.854   4.565   6.089
 3549SOL    HW111546   6.814   4.645   6.044
 3549SOL    HW211547   6.806   4.483   6.060
 3550SOL     OW11548   5.812   3.068   3.427
 3550SOL    HW111549   5.854   3.115   3.349
 3550SOL    HW211550   5.762   3.134   3.483
 3551SOL     OW11551   3.473   2.044   2.757
 3551SOL    HW111552   3.423   1.959   2.775
 3551SOL    HW211553   3.431   2.092   2.680
 3552SOL     OW11554   6.387   6.604   1.451
 3552SOL    HW111555   6.415   6.692   1.489
 3552SOL    HW211556   6.292   6.586   1.475
 3553SOL     OW11557   4.715   5.367   1.160
 3553SOL    HW111558   4.710   5.433   1.085
 3553SOL    HW211559   4.798   5.311   1.149
 3554SOL     OW11560   4.454   1.950   1.385
 3554SOL    HW111561   4.427   1.956   1.481
 3554SOL    HW211562   4.549   1.918   1.379
 3555SOL     OW11563   0.651   4.385   3.376
 3555SOL    HW111564   0.662   4.482   3.399
 3555SOL    HW211565   0.723   4.332   3.422
 3556SOL     OW11566   3.925   1.325   4.361
 3556SOL    HW111567   4.008   1.371   4.393
 3556SOL    HW211568   3.948   1.261   4.289
 3557SOL     OW11569   1.189   1.478   4.396
 3557SOL    HW111570   1.172   1.386   4.432
 3557SOL    HW211571   1.102   1.525   4.382
 3558SOL     OW11572   1.206   6.180   2.333
 3558SOL    HW111573   1.161   6.092   2.347
 3558SOL    HW211574   1.144   6.243   2.286
 3559SOL     OW11575   0.169   5.974   5.482
 3559SOL    HW111576   0.177   5.992   5.384
 3559SOL    HW211577   0.096   5.908   5.498
 3560SOL     OW11578   1.231   5.399   2.933
 3560SOL    HW111579   1.258   5.303   2.931
 3560SOL    HW211580   1.221   5.429   3.028
 3561SOL     OW11581   4.363   4.645   4.763
 3561SOL    HW111582   4.267   4.669   4.775
 3561SOL    HW211583   4.395   4.595   4.844
 3562SOL     OW11584   4.005   1.476   3.124
 3562SOL    HW111585   4.019   1.398   3.063
 3562SOL    HW211586   3.910   1.507   3.118
 3563SOL     OW11587   5.769   1.792   0.412
 3563SOL    HW111588   5.756   1.705   0.365
 3563SOL    HW211589   5.836   1.780   0.485
 3564SOL     OW11590   0.985   4.482   3.376
 3564SOL    HW111591   0.925   4.533   3.438
 3564SOL    HW211592   1.027   4.406   3.425
 3565SOL     OW11593   3.091   5.436   4.914
 3565SOL    HW111594   3.189   5.433   4.933
 3565SOL    HW211595   3.075   5.485   4.828
 3566SOL     OW11596   6.949   3.721   5.759
 3566SOL    HW111597   6.894   3.675   5.689
 3566SOL    HW211598   6.889   3.765   5.826
 3567SOL     OW11599   0.347   2.590   6.479
 3567SOL    HW111600   0.271   2.591   6.413
 3567SOL    HW211601   0.322   2.532   6.556
 3568SOL     OW11602   4.650   5.136   3.892
 3568SOL    HW111603   4.721   5.188   3.844
 3568SOL    HW211604   4.665   5.038   3.879
 3569SOL     OW11605   2.091   1.562   5.689
 3569SOL    HW111606   2.186   1.529   5.696
 3569SOL    HW211607   2.089   1.660   5.706
 3570SOL     OW11608   5.340   0.747   5.230
 3570SOL    HW111609   5.310   0.840   5.252
 3570SOL    HW211610   5.439   0.746   5.217
 3571SOL     OW11611   0.936   5.222   4.452
 3571SOL    HW111612   0.948   5.129   4.487
 3571SOL    HW211613   1.019   5.276   4.470
 3572SOL     OW11614   5.722   3.859   2.969
 3572SOL    HW111615   5.775   3.775   2.958
 3572SOL    HW211616   5.688   3.864   3.063
 3573SOL     OW11617   0.529   5.753   3.193
 3573SOL    HW111618   0.539   5.802   3.107
 3573SOL    HW211619   0.511   5.656   3.174
 3574SOL     OW11620   0.696   3.457   0.924
 3574SOL    HW111621   0.677   3.381   0.985
 3574SOL    HW211622   0.795   3.472   0.919
 3575SOL     OW11623   5.453   5.224   2.144
 3575SOL    HW111624   5.426   5.167   2.066
 3575SOL    HW211625   5.434   5.174   2.229
 3576SOL     OW11626   0.452   2.610   6.034
 3576SOL    HW111627   0.519   2.680   6.062
 3576SOL    HW211628   0.364   2.654   6.015
 3577SOL     OW11629   1.341   2.065   6.218
 3577SOL    HW111630   1.375   2.038   6.128
 3577SOL    HW211631   1.253   2.020   6.235
 3578SOL     OW11632   4.037   1.787   0.500
 3578SOL    HW111633   4.086   1.720   0.555
 3578SOL    HW211634   4.089   1.873   0.496
 3579SOL     OW11635   0.405   2.295   3.209
 3579SOL    HW111636   0.450   2.315   3.122
 3579SOL    HW211637   0.473   2.298   3.283
 3580SOL     OW11638   6.098   3.150   1.292
 3580SOL    HW111639   6.003   3.126   1.313
 3580SOL    HW211640   6.159   3.085   1.336
 3581SOL     OW11641   1.165   5.790   3.475
 3581SOL    HW111642   1.151   5.874   3.527
 3581SOL    HW211643   1.191   5.716   3.537
 3582SOL     OW11644   0.984   3.340   6.445
 3582SOL    HW111645   0.989   3.431   6.485
 3582SOL    HW211646   1.016   3.272   6.511
 3583SOL     OW11647   1.391   4.470   6.478
 3583SOL    HW111648   1.400   4.532   6.400
 3583SOL    HW211649   1.393   4.376   6.446
 3584SOL     OW11650   5.519   5.077   6.621
 3584SOL    HW111651   5.559   5.120   6.540
 3584SOL    HW211652   5.481   4.988   6.596
 3585SOL     OW11653   3.260   0.957   4.752
 3585SOL    HW111654   3.174   0.930   4.707
 3585SOL    HW211655   3.290   1.045   4.715
 3586SOL     OW11656   6.231   1.718   4.608
 3586SOL    HW111657   6.209   1.632   4.655
 3586SOL    HW211658   6.229   1.793   4.674
 3587SOL     OW11659   1.983   4.922   5.467
 3587SOL    HW111660   2.024   4.848   5.520
 3587SOL    HW211661   2.017   4.920   5.373
 3588SOL     OW11662   1.287   3.019   5.446
 3588SOL    HW111663   1.345   3.079   5.501
 3588SOL    HW211664   1.281   3.055   5.352
 3589SOL     OW11665   5.103   1.361   4.862
 3589SOL    HW111666   5.065   1.426   4.928
 3589SOL    HW211667   5.054   1.274   4.869
 3590SOL     OW11668   1.029   3.281   0.475
 3590SOL    HW111669   1.033   3.200   0.533
 3590SOL    HW211670   1.089   3.269   0.396
 3591SOL     OW11671   5.154   4.207   6.610
 3591SOL    HW111672   5.205   4.122   6.603
 3591SOL    HW211673   5.091   4.215   6.533
 3592SOL     OW11674   1.008   5.043   1.694
 3592SOL    HW111675   1.009   5.142   1.702
 3592SOL    HW211676   0.924   5.013   1.650
 3593SOL     OW11677   0.841   5.238   5.492
 3593SOL    HW111678   0.766   5.178   5.466
 3593SOL    HW211679   0.846   5.315   5.428
 3594SOL     OW11680   4.885   6.817   3.285
 3594SOL    HW111681   4.877   6.722   3.256
 3594SOL    HW211682   4.796   6.862   3.272
 3595SOL     OW11683   4.383   5.706   5.952
 3595SOL    HW111684   4.412   5.794   5.990
 3595SOL    HW211685   4.354   5.719   5.857
 3596SOL     OW11686   6.501   3.195   3.130
 3596SOL    HW111687   6.442   3.117   3.150
 3596SOL    HW211688   6.446   3.271   3.095
 3597SOL     OW11689   1.832   2.129   5.606
 3597SOL    HW111690   1.760   2.186   5.566
 3597SOL    HW211691   1.864   2.172   5.691
 3598SOL     OW11692   0.902   5.380   6.307
 3598SOL    HW111693   0.991   5.343   6.334
 3598SOL    HW211694   0.857   5.421   6.387
 3599SOL     OW11695   6.166   2.307   6.226
 3599SOL    HW111696   6.264   2.290   6.233
 3599SOL    HW211697   6.150   2.404   6.207
 3600SOL     OW11698   0.770   2.945   1.716
 3600SOL    HW111699   0.696   2.889   1.678
 3600SOL    HW211700   0.857   2.917   1.675
 3601SOL     OW11701   5.350   3.080   6.115
 3601SOL    HW111702   5.298   3.037   6.041
 3601SOL    HW211703   5.308   3.168   6.137
 3602SOL     OW11704   1.751   3.548   0.649
 3602SOL    HW111705   1.724   3.640   0.624
 3602SOL    HW211706   1.678   3.483   0.625
 3603SOL     OW11707   3.506   1.141   3.983
 3603SOL    HW111708   3.552   1.199   4.050
 3603SOL    HW211709   3.554   1.053   3.977
 3604SOL     OW11710   6.597   6.109   3.273
 3604SOL    HW111711   6.506   6.147   3.286
 3604SOL    HW211712   6.655   6.175   3.225
 3605SOL     OW11713   6.501   4.340   4.592
 3605SOL    HW111714   6.566   4.405   4.552
 3605SOL    HW211715   6.416   4.342   4.540
 3606SOL     OW11716   0.743   0.549   4.698
 3606SOL    HW111717   0.714   0.644   4.703
 3606SOL    HW211718   0.664   0.489   4.711
 3607SOL     OW11719   5.932   5.180   1.888
 3607SOL    HW111720   5.962   5.091   1.855
 3607SOL    HW211721   5.895   5.233   1.812
 3608SOL     OW11722   4.892   2.337   4.632
 3608SOL    HW111723   4.855   2.325   4.540
 3608SOL    HW211724   4.960   2.410   4.632
 3609SOL     OW11725   1.415   0.210   4.467
 3609SOL    HW111726   1.402   0.307   4.490
 3609SOL    HW211727   1.326   0.166   4.460
 3610SOL     OW11728   1.775   6.752   5.809
 3610SOL    HW111729   1.745   6.657   5.815
 3610SOL    HW211730   1.861   6.756   5.759
 3611SOL     OW11731   4.476   4.888   4.762
 3611SOL    HW111732   4.424   4.804   4.748
 3611SOL    HW211733   4.554   4.869   4.823
 3612SOL     OW11734   6.870   6.836   0.505
 3612SOL    HW111735   6.936   6.852   0.579
 3612SOL    HW211736   6.920   6.826   0.419
 3613SOL     OW11737   4.808   4.724   2.002
 3613SOL    HW111738   4.790   4.644   2.059
 3613SOL    HW211739   4.796   4.699   1.906
 3614SOL     OW11740   3.861   3.469   1.248
 3614SOL    HW111741   3.853   3.452   1.347
 3614SOL    HW211742   3.772   3.492   1.211
 3615SOL     OW11743   5.285   3.761   6.210
 3615SOL    HW111744   5.265   3.746   6.307
 3615SOL    HW211745   5.381   3.739   6.192
 3616SOL     OW11746   0.404   1.724   6.370
 3616SOL    HW111747   0.329   1.784   6.342
 3616SOL    HW211748   0.403   1.642   6.314
 3617SOL     OW11749   4.677   0.595   6.970
 3617SOL    HW111750   4.600   0.545   6.930
 3617SOL    HW211751   4.763   0.554   6.941
 3618SOL     OW11752   2.575   3.089   5.659
 3618SOL    HW111753   2.660   3.129   5.626
 3618SOL    HW211754   2.518   3.061   5.581
 3619SOL     OW11755   5.933   2.744   4.718
 3619SOL    HW111756   5.937   2.668   4.652
 3619SOL    HW211757   5.983   2.822   4.681
 3620SOL     OW11758   6.228   6.105   5.687
 3620SOL    HW111759   6.182   6.192   5.706
 3620SOL    HW211760   6.308   6.121   5.629
 3621SOL     OW11761   3.181   2.836   5.196
 3621SOL    HW111762   3.087   2.808   5.178
 3621SOL    HW211763   3.222   2.872   5.112
 3622SOL     OW11764   1.021   1.761   6.326
 3622SOL    HW111765   1.059   1.824   6.259
 3622SOL    HW211766   0.975   1.686   6.280
 3623SOL     OW11767   0.109   6.441   4.347
 3623SOL    HW111768   0.083   6.432   4.251
 3623SOL    HW211769   0.058   6.517   4.388
 3624SOL     OW11770   2.052   0.003   2.152
 3624SOL    HW111771   1.974   0.015   2.090
 3624SOL    HW211772   2.029   0.037   2.243
 3625SOL     OW11773   0.096   2.975   6.683
 3625SOL    HW111774   0.005   2.938   6.662
 3625SOL    HW211775   0.165   2.924   6.632
 3626SOL     OW11776   1.781   2.435   5.516
 3626SOL    HW111777   1.726   2.493   5.577
 3626SOL    HW211778   1.759   2.458   5.421
 3627SOL     OW11779   2.960   3.532   1.704
 3627SOL    HW111780   3.032   3.476   1.744
 3627SOL    HW211781   3.000   3.607   1.652
 3628SOL     OW11782   1.410   0.956   2.322
 3628SOL    HW111783   1.378   0.897   2.397
 3628SOL    HW211784   1.359   0.933   2.238
 3629SOL     OW11785   6.802   1.210   5.385
 3629SOL    HW111786   6.813   1.132   5.323
 3629SOL    HW211787   6.779   1.176   5.477
 3630SOL     OW11788   5.121   2.337   4.126
 3630SOL    HW111789   5.219   2.339   4.144
 3630SOL    HW211790   5.074   2.400   4.187
 3631SOL     OW11791   2.337   1.155   3.316
 3631SOL    HW111792   2.375   1.114   3.399
 3631SOL    HW211793   2.370   1.248   3.305
 3632SOL     OW11794   5.711   5.215   0.703
 3632SOL    HW111795   5.717   5.207   0.802
 3632SOL    HW211796   5.743   5.130   0.660
 3633SOL     OW11797   4.221   2.057   5.830
 3633SOL    HW111798   4.316   2.028   5.837
 3633SOL    HW211799   4.216   2.141   5.776
 3634SOL     OW11800   1.571   5.232   5.611
 3634SOL    HW111801   1.643   5.185   5.560
 3634SOL    HW211802   1.482   5.192   5.588
 3635SOL     OW11803   3.399   6.820   0.962
 3635SOL    HW111804   3.300   6.814   0.972
 3635SOL    HW211805   3.437   6.729   0.942
 3636SOL     OW11806   6.947   5.902   0.983
 3636SOL    HW111807   7.024   5.844   1.010
 3636SOL    HW211808   6.918   5.878   0.890
 3637SOL     OW11809   0.277   2.741   2.025
 3637SOL    HW111810   0.270   2.797   1.943
 3637SOL    HW211811   0.204   2.765   2.089
 3638SOL     OW11812   0.882   4.111   3.204
 3638SOL    HW111813   0.899   4.199   3.160
 3638SOL    HW211814   0.790   4.112   3.243
 3639SOL     OW11815   3.901   5.650   0.542
 3639SOL    HW111816   3.863   5.740   0.521
 3639SOL    HW211817   3.847   5.580   0.495
 3640SOL     OW11818   4.269   0.784   0.404
 3640SOL    HW111819   4.197   0.724   0.368
 3640SOL    HW211820   4.274   0.867   0.347
 3641SOL     OW11821   5.959   3.706   2.423
 3641SOL    HW111822   6.022   3.635   2.393
 3641SOL    HW211823   5.992   3.747   2.507
 3642SOL     OW11824   5.415   2.022   0.122
 3642SOL    HW111825   5.419   2.095   0.189
 3642SOL    HW211826   5.499   1.967   0.128
 3643SOL     OW11827   2.744   5.404   4.637
 3643SOL    HW111828   2.717   5.332   4.700
 3643SOL    HW211829   2.667   5.466   4.621
 3644SOL     OW11830   1.232   1.617   1.700
 3644SOL    HW111831   1.144   1.570   1.689
 3644SOL    HW211832   1.294   1.559   1.753
 3645SOL     OW11833   1.568   1.889   3.898
 3645SOL    HW111834   1.636   1.909   3.968
 3645SOL    HW211835   1.493   1.954   3.905
 3646SOL     OW11836   1.888   4.218   6.090
 3646SOL    HW111837   1.801   4.199   6.045
 3646SOL    HW211838   1.881   4.195   6.187
 3647SOL     OW11839   2.232   6.396   6.545
 3647SOL    HW111840   2.272   6.410   6.454
 3647SOL    HW211841   2.222   6.298   6.562
 3648SOL     OW11842   4.616   5.885   2.520
 3648SOL    HW111843   4.615   5.937   2.606
 3648SOL    HW211844   4.656   5.941   2.447
 3649SOL     OW11845   6.142   2.896   1.431
 3649SOL    HW111846   6.158   2.807   1.387
 3649SOL    HW211847   6.183   2.895   1.523
 3650SOL     OW11848   6.472   5.482   2.291
 3650SOL    HW111849   6.564   5.494   2.252
 3650SOL    HW211850   6.405   5.531   2.235
 3651SOL     OW11851   0.803   0.524   4.401
 3651SOL    HW111852   0.821   0.436   4.358
 3651SOL    HW211853   0.760   0.510   4.490
 3652SOL     OW11854   6.409   7.012   3.497
 3652SOL    HW111855   6.339   6.968   3.554
 3652SOL    HW211856   6.438   6.948   3.425
 3653SOL     OW11857   1.309   1.099   3.169
 3653SOL    HW111858   1.387   1.041   3.147
 3653SOL    HW211859   1.225   1.052   3.142
 3654SOL     OW11860   4.198   4.879   0.127
 3654SOL    HW111861   4.138   4.891   0.048
 3654SOL    HW211862   4.148   4.831   0.199
 3655SOL     OW11863   3.491   6.977   4.062
 3655SOL    HW111864   3.587   6.951   4.074
 3655SOL    HW211865   3.436   6.937   4.135
 3656SOL     OW11866   0.308   5.192   1.556
 3656SOL    HW111867   0.284   5.238   1.470
 3656SOL    HW211868   0.269   5.242   1.633
 3657SOL     OW11869   5.657   5.272   5.466
 3657SOL    HW111870   5.669   5.175   5.487
 3657SOL    HW211871   5.640   5.283   5.368
 3658SOL     OW11872   2.344   4.523   6.738
 3658SOL    HW111873   2.375   4.445   6.793
 3658SOL    HW211874   2.284   4.490   6.665
 3659SOL     OW11875   2.139   2.589   6.158
 3659SOL    HW111876   2.127   2.615   6.062
 3659SOL    HW211877   2.225   2.628   6.192
 3660SOL     OW11878   5.737   5.944   4.504
 3660SOL    HW111879   5.639   5.931   4.487
 3660SOL    HW211880   5.770   5.872   4.565
 3661SOL     OW11881   6.963   0.780   5.137
 3661SOL    HW111882   0.004   0.760   5.065
 3661SOL    HW211883   7.010   0.788   5.224
 3662SOL     OW11884   4.073   0.738   4.250
 3662SOL    HW111885   4.091   0.792   4.167
 3662SOL    HW211886   4.075   0.799   4.330
 3663SOL     OW11887   1.916   2.193   0.454
 3663SOL    HW111888   1.970   2.217   0.373
 3663SOL    HW211889   1.845   2.128   0.429
 3664SOL     OW11890   4.566   2.191   1.781
 3664SOL    HW111891   4.533   2.275   1.825
 3664SOL    HW211892   4.653   2.164   1.820
 3665SOL     OW11893   1.168   6.237   5.065
 3665SOL    HW111894   1.115   6.156   5.090
 3665SOL    HW211895   1.106   6.308   5.033
 3666SOL     OW11896   1.138   3.896   2.757
 3666SOL    HW111897   1.158   3.975   2.816
 3666SOL    HW211898   1.041   3.896   2.734
 3667SOL     OW11899   0.401   1.178   3.934
 3667SOL    HW111900   0.435   1.198   3.842
 3667SOL    HW211901   0.331   1.245   3.958
 3668SOL     OW11902   1.190   1.001   1.200
 3668SOL    HW111903   1.124   1.005   1.275
 3668SOL    HW211904   1.227   0.909   1.193
 3669SOL     OW11905   5.138   1.879   3.802
 3669SOL    HW111906   5.198   1.940   3.750
 3669SOL    HW211907   5.056   1.929   3.831
 3670SOL     OW11908   2.045   5.402   6.519
 3670SOL    HW111909   2.144   5.412   6.506
 3670SOL    HW211910   1.997   5.451   6.446
 3671SOL     OW11911   0.028   1.954   3.671
 3671SOL    HW111912   6.984   1.881   3.681
 3671SOL    HW211913   7.009   2.035   3.631
 3672SOL     OW11914   4.708   2.336   2.231
 3672SOL    HW111915   4.807   2.342   2.218
 3672SOL    HW211916   4.668   2.427   2.226
 3673SOL     OW11917   4.104   5.839   6.731
 3673SOL    HW111918   4.152   5.925   6.754
 3673SOL    HW211919   4.045   5.813   6.807
 3674SOL     OW11920   1.601   5.603   5.781
 3674SOL    HW111921   1.669   5.676   5.772
 3674SOL    HW211922   1.513   5.636   5.747
 3675SOL     OW11923   1.700   2.882   4.207
 3675SOL    HW111924   1.766   2.911   4.138
 3675SOL    HW211925   1.699   2.947   4.283
 3676SOL     OW11926   6.560   4.413   2.977
 3676SOL    HW111927   6.477   4.373   2.939
 3676SOL    HW211928   6.637   4.352   2.960
 3677SOL     OW11929   2.870   6.303   4.340
 3677SOL    HW111930   2.920   6.387   4.320
 3677SOL    HW211931   2.932   6.225   4.332
 3678SOL     OW11932   1.260   1.370   4.098
 3678SOL    HW111933   1.241   1.404   4.190
 3678SOL    HW211934   1.353   1.395   4.072
 3679SOL     OW11935   7.002   0.333   3.057
 3679SOL    HW111936   0.036   0.318   3.136
 3679SOL    HW211937   6.942   0.412   3.074
 3680SOL     OW11938   5.346   2.676   4.000
 3680SOL    HW111939   5.354   2.648   4.096
 3680SOL    HW211940   5.312   2.599   3.946
 3681SOL     OW11941   0.424   1.198   6.639
 3681SOL    HW111942   0.503   1.207   6.579
 3681SOL    HW211943   0.372   1.284   6.640
 3682SOL     OW11944   5.861   2.782   0.167
 3682SOL    HW111945   5.764   2.802   0.180
 3682SOL    HW211946   5.910   2.801   0.252
 3683SOL     OW11947   0.295   1.636   4.514
 3683SOL    HW111948   0.282   1.640   4.415
 3683SOL    HW211949   0.382   1.592   4.534
 3684SOL     OW11950   1.334   5.646   0.324
 3684SOL    HW111951   1.372   5.580   0.390
 3684SOL    HW211952   1.238   5.665   0.347
 3685SOL     OW11953   1.662   6.035   6.371
 3685SOL    HW111954   1.713   5.955   6.338
 3685SOL    HW211955   1.727   6.104   6.403
 3686SOL     OW11956   6.209   5.196   4.630
 3686SOL    HW111957   6.236   5.100   4.617
 3686SOL    HW211958   6.109   5.202   4.635
 3687SOL     OW11959   3.794   6.143   4.087
 3687SOL    HW111960   3.709   6.183   4.055
 3687SOL    HW211961   3.804   6.161   4.185
 3688SOL     OW11962   7.008   2.614   0.003
 3688SOL    HW111963   6.967   2.523   0.002
 3688SOL    HW211964   6.940   2.682   7.000
 3689SOL     OW11965   1.815   0.178   5.626
 3689SOL    HW111966   1.764   0.092   5.626
 3689SOL    HW211967   1.794   0.229   5.542
 3690SOL     OW11968   3.791   6.091   0.061
 3690SOL    HW111969   3.833   6.082   6.995
 3690SOL    HW211970   3.696   6.063   0.058
 3691SOL     OW11971   2.510   1.509   6.850
 3691SOL    HW111972   2.524   1.581   6.782
 3691SOL    HW211973   2.586   1.509   6.915
 3692SOL     OW11974   6.925   5.178   5.745
 3692SOL    HW111975   6.973   5.113   5.805
 3692SOL    HW211976   6.980   5.261   5.736
 3693SOL     OW11977   2.087   3.164   3.053
 3693SOL    HW111978   2.079   3.261   3.076
 3693SOL    HW211979   2.084   3.152   2.954
 3694SOL     OW11980   0.713   6.205   2.346
 3694SOL    HW111981   0.635   6.251   2.303
 3694SOL    HW211982   0.761   6.151   2.277
 3695SOL     OW11983   4.805   2.962   1.367
 3695SOL    HW111984   4.851   2.876   1.344
 3695SOL    HW211985   4.872   3.028   1.401
 3696SOL     OW11986   3.810   0.432   4.045
 3696SOL    HW111987   3.822   0.447   4.143
 3696SOL    HW211988   3.735   0.367   4.030
 3697SOL     OW11989   0.363   5.973   2.826
 3697SOL    HW111990   0.406   5.883   2.824
 3697SOL    HW211991   0.309   5.982   2.910
 3698SOL     OW11992   2.505   0.751   3.731
 3698SOL    HW111993   2.582   0.814   3.736
 3698SOL    HW211994   2.481   0.735   3.635
 3699SOL     OW11995   1.954   1.079   3.466
 3699SOL    HW111996   1.940   1.137   3.546
 3699SOL    HW211997   1.960   0.983   3.495
 3700SOL     OW11998   1.348   5.267   4.999
 3700SOL    HW111999   1.314   5.260   5.093
 3700SOL    HW212000   1.447   5.283   5.000
 3701SOL     OW12001   1.500   0.201   3.656
 3701SOL    HW112002   1.504   0.260   3.737
 3701SOL    HW212003   1.593   0.181   3.625
 3702SOL     OW12004   5.529   6.523   3.663
 3702SOL    HW112005   5.565   6.469   3.587
 3702SOL    HW212006   5.434   6.548   3.643
 3703SOL     OW12007   6.827   0.654   6.543
 3703SOL    HW112008   6.835   0.719   6.619
 3703SOL    HW212009   6.779   0.697   6.467
 3704SOL     OW12010   3.778   2.126   1.213
 3704SOL    HW112011   3.802   2.093   1.122
 3704SOL    HW212012   3.843   2.090   1.280
 3705SOL     OW12013   5.307   4.196   4.656
 3705SOL    HW112014   5.298   4.108   4.610
 3705SOL    HW212015   5.403   4.223   4.658
 3706SOL     OW12016   0.814   3.573   0.016
 3706SOL    HW112017   0.854   3.481   0.019
 3706SOL    HW212018   0.859   3.630   0.085
 3707SOL     OW12019   5.422   5.247   4.744
 3707SOL    HW112020   5.337   5.222   4.699
 3707SOL    HW212021   5.490   5.274   4.675
 3708SOL     OW12022   5.688   0.243   0.331
 3708SOL    HW112023   5.592   0.238   0.358
 3708SOL    HW212024   5.739   0.169   0.375
 3709SOL     OW12025   3.564   0.239   1.772
 3709SOL    HW112026   3.580   0.275   1.680
 3709SOL    HW212027   3.480   0.277   1.809
 3710SOL     OW12028   6.511   5.417   5.248
 3710SOL    HW112029   6.537   5.447   5.340
 3710SOL    HW212030   6.432   5.357   5.254
 3711SOL     OW12031   1.129   5.371   4.867
 3711SOL    HW112032   1.060   5.329   4.926
 3711SOL    HW212033   1.220   5.356   4.906
 3712SOL     OW12034   1.021   4.901   6.282
 3712SOL    HW112035   1.053   4.888   6.376
 3712SOL    HW212036   0.930   4.944   6.284
 3713SOL     OW12037   0.531   6.955   5.154
 3713SOL    HW112038   0.622   6.997   5.146
 3713SOL    HW212039   0.528   6.900   5.237
 3714SOL     OW12040   5.925   5.909   6.577
 3714SOL    HW112041   5.858   5.835   6.573
 3714SOL    HW212042   5.877   5.996   6.593
 3715SOL     OW12043   0.946   3.839   2.384
 3715SOL    HW112044   0.861   3.851   2.436
 3715SOL    HW212045   1.010   3.912   2.407
 3716SOL     OW12046   5.683   6.641   4.354
 3716SOL    HW112047   5.656   6.736   4.336
 3716SOL    HW212048   5.782   6.633   4.352
 3717SOL     OW12049   5.796   0.397   0.021
 3717SOL    HW112050   5.874   0.335   0.034
 3717SOL    HW212051   5.830   0.488   7.020
 3718SOL     OW12052   6.929   0.396   0.620
 3718SOL    HW112053   6.897   0.303   0.636
 3718SOL    HW212054   6.955   0.406   0.524
 3719SOL     OW12055   4.999   3.311   0.807
 3719SOL    HW112056   5.045   3.224   0.823
 3719SOL    HW212057   5.064   3.378   0.772
 3720SOL     OW12058   5.987   3.254   0.618
 3720SOL    HW112059   6.059   3.229   0.682
 3720SOL    HW212060   5.938   3.172   0.590
 3721SOL     OW12061   0.007   4.798   1.576
 3721SOL    HW112062   0.041   4.782   1.668
 3721SOL    HW212063   0.080   4.781   1.510
 3722SOL     OW12064   5.573   5.840   0.903
 3722SOL    HW112065   5.643   5.816   0.836
 3722SOL    HW212066   5.483   5.813   0.869
 3723SOL     OW12067   5.554   4.581   1.043
 3723SOL    HW112068   5.590   4.664   1.085
 3723SOL    HW212069   5.553   4.592   0.943
 3724SOL     OW12070   1.966   4.613   4.958
 3724SOL    HW112071   1.872   4.641   4.935
 3724SOL    HW212072   1.979   4.517   4.933
 3725SOL     OW12073   0.451   5.596   6.984
 3725SOL    HW112074   0.480   5.666   0.025
 3725SOL    HW212075   0.524   5.581   6.918
 3726SOL     OW12076   5.991   2.918   6.126
 3726SOL    HW112077   5.980   2.825   6.162
 3726SOL    HW212078   5.983   2.916   6.026
 3727SOL     OW12079   6.571   1.966   5.419
 3727SOL    HW112080   6.593   1.941   5.325
 3727SOL    HW212081   6.527   1.889   5.465
 3728SOL     OW12082   0.889   3.268   6.738
 3728SOL    HW112083   0.819   3.226   6.795
 3728SOL    HW212084   0.957   3.199   6.713
 3729SOL     OW12085   1.812   1.495   3.986
 3729SOL    HW112086   1.726   1.502   3.936
 3729SOL    HW212087   1.855   1.407   3.968
 3730SOL     OW12088   3.095   5.796   5.496
 3730SOL    HW112089   3.077   5.762   5.589
 3730SOL    HW212090   3.022   5.765   5.435
 3731SOL     OW12091   6.999   1.338   0.238
 3731SOL    HW112092   6.975   1.269   0.307
 3731SOL    HW212093   0.060   1.383   0.263
 3732SOL     OW12094   2.525   1.922   0.322
 3732SOL    HW112095   2.505   1.972   0.238
 3732SOL    HW212096   2.618   1.885   0.318
 3733SOL     OW12097   2.024   3.202   2.764
 3733SOL    HW112098   2.030   3.300   2.750
 3733SOL    HW212099   2.059   3.154   2.683
 3734SOL     OW12100   5.300   6.989   0.892
 3734SOL    HW112101   5.201   7.003   0.885
 3734SOL    HW212102   5.334   0.006   0.976
 3735SOL     OW12103   3.084   0.494   2.634
 3735SOL    HW112104   3.092   0.416   2.572
 3735SOL    HW212105   3.173   0.513   2.674
 3736SOL     OW12106   0.276   1.455   1.137
 3736SOL    HW112107   0.373   1.468   1.153
 3736SOL    HW212108   0.250   1.361   1.159
 3737SOL     OW12109   5.307   1.545   4.043
 3737SOL    HW112110   5.208   1.541   4.036
 3737SOL    HW212111   5.333   1.630   4.090
 3738SOL     OW12112   6.459   0.270   1.440
 3738SOL    HW112113   6.497   0.230   1.357
 3738SOL    HW212114   6.359   0.277   1.431
 3739SOL     OW12115   2.438   5.194   0.986
 3739SOL    HW112116   2.525   5.160   1.020
 3739SOL    HW212117   2.431   5.177   0.888
 3740SOL     OW12118   6.138   6.991   0.794
 3740SOL    HW112119   6.234   7.019   0.803
 3740SOL    HW212120   6.101   6.969   0.884
 3741SOL     OW12121   5.011   2.779   5.980
 3741SOL    HW112122   4.923   2.817   5.949
 3741SOL    HW212123   5.010   2.772   6.080
 3742SOL     OW12124   3.517   1.557   0.127
 3742SOL    HW112125   3.557   1.466   0.128
 3742SOL    HW212126   3.576   1.621   0.177
 3743SOL     OW12127   5.558   2.784   0.506
 3743SOL    HW112128   5.636   2.725   0.528
 3743SOL    HW212129   5.519   2.756   0.418
 3744SOL     OW12130   1.571   6.841   1.909
 3744SOL    HW112131   1.559   6.752   1.955
 3744SOL    HW212132   1.481   6.879   1.887
 3745SOL     OW12133   4.694   4.606   2.868
 3745SOL    HW112134   4.730   4.577   2.779
 3745SOL    HW212135   4.689   4.527   2.929
 3746SOL     OW12136   7.008   0.454   4.036
 3746SOL    HW112137   0.061   0.457   4.098
 3746SOL    HW212138   7.021   0.521   3.963
 3747SOL     OW12139   3.818   5.561   5.070
 3747SOL    HW112140   3.767   5.564   4.984
 3747SOL    HW212141   3.766   5.509   5.138
 3748SOL     OW12142   5.673   0.915   1.551
 3748SOL    HW112143   5.710   1.000   1.515
 3748SOL    HW212144   5.631   0.932   1.640
 3749SOL     OW12145   2.262   5.124   2.856
 3749SOL    HW112146   2.359   5.141   2.838
 3749SOL    HW212147   2.207   5.185   2.799
 3750SOL     OW12148   6.566   4.886   1.127
 3750SOL    HW112149   6.565   4.809   1.063
 3750SOL    HW212150   6.615   4.861   1.210
 3751SOL     OW12151   6.730   3.133   1.126
 3751SOL    HW112152   6.794   3.191   1.176
 3751SOL    HW212153   6.649   3.117   1.182
 3752SOL     OW12154   0.195   6.624   0.235
 3752SOL    HW112155   0.283   6.652   0.198
 3752SOL    HW212156   0.138   6.587   0.161
 3753SOL     OW12157   0.160   0.971   4.106
 3753SOL    HW112158   0.243   0.955   4.053
 3753SOL    HW212159   0.143   1.069   4.114
 3754SOL     OW12160   3.886   6.819   1.283
 3754SOL    HW112161   3.787   6.831   1.277
 3754SOL    HW212162   3.930   6.868   1.208
 3755SOL     OW12163   5.227   5.653   4.274
 3755SOL    HW112164   5.236   5.703   4.360
 3755SOL    HW212165   5.135   5.614   4.268
 3756SOL     OW12166   2.101   6.193   6.352
 3756SOL    HW112167   2.135   6.130   6.423
 3756SOL    HW212168   2.123   6.156   6.262
 3757SOL     OW12169   3.956   6.645   6.357
 3757SOL    HW112170   4.019   6.569   6.372
 3757SOL    HW212171   3.946   6.662   6.259
 3758SOL     OW12172   2.062   1.652   4.961
 3758SOL    HW112173   2.028   1.645   4.867
 3758SOL    HW212174   2.160   1.631   4.963
 3759SOL     OW12175   4.799   5.429   5.899
 3759SOL    HW112176   4.835   5.474   5.980
 3759SOL    HW212177   4.766   5.497   5.834
 3760SOL     OW12178   1.807   2.130   4.815
 3760SOL    HW112179   1.799   2.227   4.792
 3760SOL    HW212180   1.790   2.117   4.913
 3761SOL     OW12181   0.903   1.004   5.217
 3761SOL    HW112182   0.904   0.941   5.295
 3761SOL    HW212183   0.990   1.000   5.169
 3762SOL     OW12184   1.328   4.437   0.327
 3762SOL    HW112185   1.324   4.337   0.331
 3762SOL    HW212186   1.423   4.467   0.328
 3763SOL     OW12187   0.028   4.631   0.595
 3763SOL    HW112188   6.959   4.615   0.627
 3763SOL    HW212189   0.073   4.544   0.575
 3764SOL     OW12190   1.587   6.667   4.524
 3764SOL    HW112191   1.535   6.689   4.606
 3764SOL    HW212192   1.672   6.620   4.549
 3765SOL     OW12193   4.834   0.817   1.221
 3765SOL    HW112194   4.800   0.811   1.127
 3765SOL    HW212195   4.761   0.850   1.281
 3766SOL     OW12196   0.839   1.280   3.792
 3766SOL    HW112197   0.794   1.252   3.877
 3766SOL    HW212198   0.886   1.202   3.751
 3767SOL     OW12199   2.567   4.572   0.822
 3767SOL    HW112200   2.636   4.500   0.825
 3767SOL    HW212201   2.570   4.625   0.907
 3768SOL     OW12202   1.839   5.969   5.072
 3768SOL    HW112203   1.861   5.872   5.065
 3768SOL    HW212204   1.814   6.005   4.982
 3769SOL     OW12205   6.089   6.327   5.668
 3769SOL    HW112206   6.039   6.348   5.753
 3769SOL    HW212207   6.043   6.373   5.591
 3770SOL     OW12208   1.912   0.309   6.807
 3770SOL    HW112209   2.003   0.334   6.774
 3770SOL    HW212210   1.919   0.231   6.869
 3771SOL     OW12211   6.013   2.898   0.426
 3771SOL    HW112212   6.105   2.860   0.422
 3771SOL    HW212213   6.001   2.948   0.511
 3772SOL     OW12214   6.952   0.735   0.396
 3772SOL    HW112215   6.905   0.729   0.309
 3772SOL    HW212216   6.968   0.831   0.419
 3773SOL     OW12217   6.486   2.907   5.502
 3773SOL    HW112218   6.448   2.993   5.535
 3773SOL    HW212219   6.586   2.911   5.508
 3774SOL     OW12220   0.095   5.614   0.247
 3774SOL    HW112221   0.076   5.712   0.241
 3774SOL    HW212222   0.089   5.585   0.343
 3775SOL     OW12223   5.069   5.135   2.455
 3775SOL    HW112224   5.044   5.100   2.546
 3775SOL    HW212225   4.989   5.131   2.395
 3776SOL     OW12226   3.784   1.647   1.129
 3776SOL    HW112227   3.819   1.587   1.201
 3776SOL    HW212228   3.714   1.599   1.076
 3777SOL     OW12229   3.440   4.960   4.383
 3777SOL    HW112230   3.403   4.915   4.302
 3777SOL    HW212231   3.367   4.969   4.452
 3778SOL     OW12232   3.351   4.994   2.446
 3778SOL    HW112233   3.435   5.037   2.411
 3778SOL    HW212234   3.367   4.897   2.463
 3779SOL     OW12235   1.908   5.177   0.955
 3779SOL    HW112236   1.957   5.259   0.988
 3779SOL    HW212237   1.934   5.159   0.861
 3780SOL     OW12238   5.315   5.877   5.358
 3780SOL    HW112239   5.252   5.819   5.410
 3780SOL    HW212240   5.345   5.829   5.276
 3781SOL     OW12241   1.271   6.829   4.615
 3781SOL    HW112242   1.350   6.820   4.675
 3781SOL    HW212243   1.272   6.756   4.547
 3782SOL     OW12244   2.638   0.663   4.141
 3782SOL    HW112245   2.578   0.602   4.091
 3782SOL    HW212246   2.688   0.612   4.211
 3783SOL     OW12247   5.396   5.401   4.286
 3783SOL    HW112248   5.344   5.484   4.269
 3783SOL    HW212249   5.485   5.408   4.242
 3784SOL     OW12250   4.866   2.906   2.246
 3784SOL    HW112251   4.844   2.955   2.162
 3784SOL    HW212252   4.783   2.863   2.282
 3785SOL     OW12253   1.736   1.501   6.329
 3785SOL    HW112254   1.756   1.596   6.355
 3785SOL    HW212255   1.637   1.485   6.336
 3786SOL     OW12256   2.070   6.469   2.842
 3786SOL    HW112257   2.118   6.458   2.929
 3786SOL    HW212258   1.974   6.442   2.853
 3787SOL     OW12259   5.898   0.357   2.450
 3787SOL    HW112260   5.994   0.384   2.450
 3787SOL    HW212261   5.873   0.320   2.360
 3788SOL     OW12262   1.005   4.277   4.423
 3788SOL    HW112263   0.918   4.229   4.422
 3788SOL    HW212264   1.077   4.216   4.388
 3789SOL     OW12265   0.524   3.096   5.326
 3789SOL    HW112266   0.480   3.158   5.391
 3789SOL    HW212267   0.594   3.042   5.372
 3790SOL     OW12268   1.734   4.842   5.132
 3790SOL    HW112269   1.639   4.871   5.118
 3790SOL    HW212270   1.737   4.743   5.145
 3791SOL     OW12271   5.595   0.676   0.296
 3791SOL    HW112272   5.642   0.761   0.316
 3791SOL    HW212273   5.560   0.678   0.202
 3792SOL     OW12274   0.977   1.682   4.337
 3792SOL    HW112275   0.887   1.709   4.369
 3792SOL    HW212276   1.003   1.738   4.258
 3793SOL     OW12277   4.079   6.944   2.686
 3793SOL    HW112278   4.039   6.959   2.777
 3793SOL    HW212279   4.019   6.986   2.617
 3794SOL     OW12280   2.414   4.069   0.740
 3794SOL    HW112281   2.377   4.059   0.833
 3794SOL    HW212282   2.377   3.998   0.681
 3795SOL     OW12283   4.816   6.517   6.865
 3795SOL    HW112284   4.878   6.483   6.794
 3795SOL    HW212285   4.851   6.602   6.903
 3796SOL     OW12286   2.770   1.910   1.745
 3796SOL    HW112287   2.693   1.887   1.804
 3796SOL    HW212288   2.794   2.007   1.758
 3797SOL     OW12289   0.322   4.045   2.877
 3797SOL    HW112290   0.290   4.092   2.795
 3797SOL    HW212291   0.322   3.946   2.861
 3798SOL     OW12292   2.962   5.645   2.405
 3798SOL    HW112293   2.917   5.608   2.324
 3798SOL    HW212294   3.052   5.604   2.416
 3799SOL     OW12295   0.824   2.228   4.478
 3799SOL    HW112296   0.767   2.147   4.489
 3799SOL    HW212297   0.894   2.229   4.550
 3800SOL     OW12298   5.482   3.257   4.622
 3800SOL    HW112299   5.530   3.317   4.687
 3800SOL    HW212300   5.396   3.226   4.663
 3801SOL     OW12301   6.328   6.497   2.692
 3801SOL    HW112302   6.366   6.520   2.602
 3801SOL    HW212303   6.272   6.573   2.725
 3802SOL     OW12304   1.214   2.193   2.476
 3802SOL    HW112305   1.127   2.150   2.452
 3802SOL    HW212306   1.203   2.292   2.477
 3803SOL     OW12307   3.375   2.304   1.454
 3803SOL    HW112308   3.426   2.220   1.436
 3803SOL    HW212309   3.379   2.325   1.551
 3804SOL     OW12310   5.439   1.249   3.705
 3804SOL    HW112311   5.423   1.305   3.624
 3804SOL    HW212312   5.373   1.273   3.776
 3805SOL     OW12313   2.488   3.249   1.511
 3805SOL    HW112314   2.534   3.233   1.598
 3805SOL    HW212315   2.423   3.325   1.521
 3806SOL     OW12316   3.902   4.330   6.549
 3806SOL    HW112317   3.807   4.303   6.536
 3806SOL    HW212318   3.957   4.298   6.471
 3807SOL     OW12319   1.743   6.380   3.448
 3807SOL    HW112320   1.681   6.342   3.516
 3807SOL    HW212321   1.709   6.357   3.356
 3808SOL     OW12322   4.620   0.219   0.945
 3808SOL    HW112323   4.686   0.193   1.015
 3808SOL    HW212324   4.665   0.273   0.874
 3809SOL     OW12325   6.016   2.994   0.736
 3809SOL    HW112326   6.048   3.020   0.827
 3809SOL    HW212327   5.917   3.001   0.732
 3810SOL     OW12328   4.653   2.505   4.604
 3810SOL    HW112329   4.665   2.547   4.513
 3810SOL    HW212330   4.571   2.449   4.604
 3811SOL     OW12331   1.146   4.131   4.029
 3811SOL    HW112332   1.053   4.119   4.063
 3811SOL    HW212333   1.197   4.045   4.042
 3812SOL     OW12334   5.449   0.373   5.083
 3812SOL    HW112335   5.455   0.473   5.083
 3812SOL    HW212336   5.541   0.333   5.084
 3813SOL     OW12337   4.781   4.819   0.262
 3813SOL    HW112338   4.754   4.801   0.167
 3813SOL    HW212339   4.874   4.787   0.277
 3814SOL     OW12340   0.185   6.530   0.491
 3814SOL    HW112341   0.210   6.610   0.546
 3814SOL    HW212342   0.211   6.546   0.395
 3815SOL     OW12343   4.724   3.077   6.816
 3815SOL    HW112344   4.655   3.146   6.838
 3815SOL    HW212345   4.768   3.046   6.901
 3816SOL     OW12346   0.489   5.903   0.041
 3816SOL    HW112347   0.575   5.863   0.011
 3816SOL    HW212348   0.431   5.923   6.986
 3817SOL     OW12349   4.772   4.076   2.632
 3817SOL    HW112350   4.867   4.105   2.617
 3817SOL    HW212351   4.770   4.003   2.701
 3818SOL     OW12352   5.429   0.687   0.066
 3818SOL    HW112353   5.339   0.674   0.108
 3818SOL    HW212354   5.436   0.630   7.009
 3819SOL     OW12355   5.256   5.343   1.456
 3819SOL    HW112356   5.170   5.393   1.447
 3819SOL    HW212357   5.247   5.252   1.417
 3820SOL     OW12358   6.207   6.723   3.206
 3820SOL    HW112359   6.228   6.713   3.304
 3820SOL    HW212360   6.291   6.738   3.155
 3821SOL     OW12361   2.950   1.449   0.716
 3821SOL    HW112362   2.987   1.486   0.631
 3821SOL    HW212363   2.903   1.521   0.766
 3822SOL     OW12364   1.297   6.713   2.662
 3822SOL    HW112365   1.353   6.753   2.590
 3822SOL    HW212366   1.325   6.749   2.751
 3823SOL     OW12367   3.043   2.857   6.186
 3823SOL    HW112368   3.079   2.847   6.279
 3823SOL    HW212369   3.104   2.812   6.121
 3824SOL     OW12370   5.983   2.135   0.510
 3824SOL    HW112371   5.909   2.068   0.503
 3824SOL    HW212372   6.008   2.167   0.419
 3825SOL     OW12373   0.930   6.353   0.460
 3825SOL    HW112374   0.841   6.313   0.437
 3825SOL    HW212375   1.003   6.291   0.431
 3826SOL     OW12376   0.659   2.649   0.153
 3826SOL    HW112377   0.737   2.712   0.145
 3826SOL    HW212378   0.689   2.557   0.130
 3827SOL     OW12379   2.968   2.928   1.029
 3827SOL    HW112380   2.897   2.987   0.990
 3827SOL    HW212381   2.931   2.880   1.108
 3828SOL     OW12382   3.773   2.583   1.693
 3828SOL    HW112383   3.729   2.507   1.741
 3828SOL    HW212384   3.832   2.547   1.620
 3829SOL     OW12385   1.940   4.590   4.366
 3829SOL    HW112386   1.996   4.672   4.354
 3829SOL    HW212387   1.928   4.572   4.464
 3830SOL     OW12388   0.665   0.287   4.180
 3830SOL    HW112389   0.764   0.281   4.188
 3830SOL    HW212390   0.640   0.291   4.083
 3831SOL     OW12391   4.585   2.088   2.172
 3831SOL    HW112392   4.635   2.021   2.228
 3831SOL    HW212393   4.610   2.180   2.202
 3832SOL     OW12394   5.811   0.399   2.951
 3832SOL    HW112395   5.723   0.351   2.956
 3832SOL    HW212396   5.810   0.476   3.015
 3833SOL     OW12397   0.729   5.814   6.317
 3833SOL    HW112398   0.730   5.900   6.266
 3833SOL    HW212399   0.658   5.819   6.388
 3834SOL     OW12400   4.343   3.228   1.390
 3834SOL    HW112401   4.318   3.185   1.477
 3834SOL    HW212402   4.395   3.311   1.409
 3835SOL     OW12403   3.346   5.425   5.262
 3835SOL    HW112404   3.341   5.525   5.262
 3835SOL    HW212405   3.255   5.387   5.279
 3836SOL     OW12406   1.357   3.986   5.978
 3836SOL    HW112407   1.374   3.933   6.061
 3836SOL    HW212408   1.441   4.034   5.951
 3837SOL     OW12409   4.952   3.631   6.945
 3837SOL    HW112410   4.950   3.728   6.923
 3837SOL    HW212411   4.999   3.617   0.007
 3838SOL     OW12412   0.449   3.071   4.348
 3838SOL    HW112413   0.438   3.141   4.278
 3838SOL    HW212414   0.427   3.110   4.438
 3839SOL     OW12415   3.961   0.514   4.324
 3839SOL    HW112416   4.010   0.594   4.289
 3839SOL    HW212417   3.967   0.513   4.424
 3840SOL     OW12418   1.968   1.533   5.189
 3840SOL    HW112419   2.012   1.592   5.122
 3840SOL    HW212420   1.946   1.586   5.271
 3841SOL     OW12421   0.210   3.207   5.167
 3841SOL    HW112422   0.162   3.255   5.241
 3841SOL    HW212423   0.242   3.119   5.199
 3842SOL     OW12424   0.895   3.922   6.880
 3842SOL    HW112425   0.835   3.881   6.811
 3842SOL    HW212426   0.969   3.971   6.834
 3843SOL     OW12427   0.055   4.041   2.477
 3843SOL    HW112428   0.078   4.104   2.550
 3843SOL    HW212429   0.068   3.947   2.509
 3844SOL     OW12430   7.010   3.326   6.115
 3844SOL    HW112431   7.001   3.246   6.175
 3844SOL    HW212432   0.027   3.401   6.166
 3845SOL     OW12433   3.935   2.997   2.929
 3845SOL    HW112434   4.021   2.947   2.937
 3845SOL    HW212435   3.934   3.071   2.996
 3846SOL     OW12436   1.198   4.719   3.850
 3846SOL    HW112437   1.236   4.718   3.942
 3846SOL    HW212438   1.186   4.625   3.818
 3847SOL     OW12439   6.044   0.709   4.954
 3847SOL    HW112440   6.001   0.793   4.920
 3847SOL    HW212441   6.028   0.635   4.888
 3848SOL     OW12442   3.235   5.560   2.460
 3848SOL    HW112443   3.255   5.494   2.532
 3848SOL    HW212444   3.308   5.629   2.458
 3849SOL     OW12445   0.810   1.637   5.204
 3849SOL    HW112446   0.747   1.561   5.189
 3849SOL    HW212447   0.771   1.701   5.270
 3850SOL     OW12448   2.756   3.641   1.348
 3850SOL    HW112449   2.809   3.714   1.391
 3850SOL    HW212450   2.774   3.555   1.395
 3851SOL     OW12451   1.457   4.689   2.915
 3851SOL    HW112452   1.535   4.665   2.858
 3851SOL    HW212453   1.387   4.618   2.906
 3852SOL     OW12454   4.682   6.580   4.293
 3852SOL    HW112455   4.662   6.667   4.339
 3852SOL    HW212456   4.749   6.596   4.220
 3853SOL     OW12457   1.707   2.865   2.788
 3853SOL    HW112458   1.736   2.961   2.793
 3853SOL    HW212459   1.744   2.815   2.866
 3854SOL     OW12460   1.522   3.313   2.673
 3854SOL    HW112461   1.511   3.325   2.574
 3854SOL    HW212462   1.455   3.247   2.706
 3855SOL     OW12463   4.966   6.120   6.382
 3855SOL    HW112464   4.888   6.072   6.423
 3855SOL    HW212465   4.951   6.218   6.386
 3856SOL     OW12466   6.374   6.056   5.425
 3856SOL    HW112467   6.419   5.987   5.482
 3856SOL    HW212468   6.307   6.012   5.366
 3857SOL     OW12469   0.781   6.040   6.162
 3857SOL    HW112470   0.837   6.013   6.084
 3857SOL    HW212471   0.779   6.140   6.169
 3858SOL     OW12472   1.522   5.904   5.463
 3858SOL    HW112473   1.456   5.941   5.398
 3858SOL    HW212474   1.580   5.836   5.418
 3859SOL     OW12475   6.668   2.386   3.307
 3859SOL    HW112476   6.705   2.453   3.371
 3859SOL    HW212477   6.657   2.298   3.353
 3860SOL     OW12478   1.283   0.757   5.615
 3860SOL    HW112479   1.238   0.820   5.552
 3860SOL    HW212480   1.327   0.684   5.564
 3861SOL     OW12481   5.262   4.648   1.838
 3861SOL    HW112482   5.200   4.716   1.799
 3861SOL    HW212483   5.354   4.660   1.799
 3862SOL     OW12484   0.128   6.879   5.176
 3862SOL    HW112485   0.037   6.846   5.200
 3862SOL    HW212486   0.190   6.869   5.254
 3863SOL     OW12487   4.214   3.196   6.403
 3863SOL    HW112488   4.304   3.216   6.441
 3863SOL    HW212489   4.224   3.173   6.306
 3864SOL     OW12490   3.585   1.486   5.132
 3864SOL    HW112491   3.627   1.575   5.149
 3864SOL    HW212492   3.491   1.485   5.166
 3865SOL     OW12493   3.808   0.142   0.565
 3865SOL    HW112494   3.771   0.153   0.657
 3865SOL    HW212495   3.738   0.168   0.498
 3866SOL     OW12496   4.089   0.995   1.233
 3866SOL    HW112497   4.170   0.936   1.233
 3866SOL    HW212498   4.053   1.002   1.139
 3867SOL     OW12499   2.070   3.421   3.731
 3867SOL    HW112500   2.116   3.375   3.655
 3867SOL    HW212501   2.019   3.500   3.697
 3868SOL     OW12502   2.695   6.474   1.447
 3868SOL    HW112503   2.768   6.536   1.478
 3868SOL    HW212504   2.727   6.380   1.451
 3869SOL     OW12505   6.915   3.083   4.586
 3869SOL    HW112506   6.818   3.100   4.602
 3869SOL    HW212507   6.943   3.125   4.500
 3870SOL     OW12508   4.958   4.968   0.615
 3870SOL    HW112509   4.980   4.940   0.708
 3870SOL    HW212510   4.860   4.989   0.609
 3871SOL     OW12511   3.851   0.602   2.788
 3871SOL    HW112512   3.943   0.634   2.811
 3871SOL    HW212513   3.793   0.680   2.767
 3872SOL     OW12514   3.159   3.066   2.063
 3872SOL    HW112515   3.173   3.002   2.138
 3872SOL    HW212516   3.241   3.070   2.007
 3873SOL     OW12517   6.817   5.798   1.277
 3873SOL    HW112518   6.812   5.809   1.178
 3873SOL    HW212519   6.899   5.844   1.312
 3874SOL     OW12520   3.999   5.820   0.114
 3874SOL    HW112521   3.967   5.892   0.175
 3874SOL    HW212522   3.947   5.824   0.028
 3875SOL     OW12523   1.126   3.136   2.356
 3875SOL    HW112524   1.127   3.214   2.419
 3875SOL    HW212525   1.041   3.137   2.303
 3876SOL     OW12526   6.160   5.309   6.884
 3876SOL    HW112527   6.254   5.341   6.878
 3876SOL    HW212528   6.098   5.387   6.885
 3877SOL     OW12529   6.829   2.158   0.271
 3877SOL    HW112530   6.761   2.167   0.198
 3877SOL    HW212531   6.827   2.241   0.328
 3878SOL     OW12532   2.219   6.247   5.615
 3878SOL    HW112533   2.179   6.173   5.670
 3878SOL    HW212534   2.225   6.218   5.519
 3879SOL     OW12535   4.740   6.767   1.298
 3879SOL    HW112536   4.678   6.835   1.338
 3879SOL    HW212537   4.687   6.692   1.260
 3880SOL     OW12538   5.540   4.154   3.634
 3880SOL    HW112539   5.625   4.105   3.618
 3880SOL    HW212540   5.521   4.157   3.732
 3881SOL     OW12541   1.279   5.134   0.383
 3881SOL    HW112542   1.257   5.076   0.305
 3881SOL    HW212543   1.376   5.125   0.405
 3882SOL     OW12544   6.393   1.098   5.231
 3882SOL    HW112545   6.437   1.138   5.151
 3882SOL    HW212546   6.300   1.134   5.239
 3883SOL     OW12547   4.303   1.253   3.683
 3883SOL    HW112548   4.357   1.220   3.606
 3883SOL    HW212549   4.207   1.229   3.669
 3884SOL     OW12550   1.012   5.685   4.119
 3884SOL    HW112551   1.059   5.606   4.158
 3884SOL    HW212552   1.012   5.760   4.185
 3885SOL     OW12553   6.002   1.225   4.632
 3885SOL    HW112554   6.024   1.159   4.560
 3885SOL    HW212555   6.048   1.198   4.717
 3886SOL     OW12556   6.471   6.866   4.867
 3886SOL    HW112557   6.479   6.784   4.924
 3886SOL    HW212558   6.391   6.857   4.807
 3887SOL     OW12559   5.043   1.700   5.640
 3887SOL    HW112560   5.111   1.773   5.631
 3887SOL    HW212561   5.011   1.695   5.734
 3888SOL     OW12562   0.674   0.392   6.364
 3888SOL    HW112563   0.660   0.331   6.286
 3888SOL    HW212564   0.594   0.453   6.373
 3889SOL     OW12565   7.024   3.363   6.598
 3889SOL    HW112566   0.031   3.337   6.689
 3889SOL    HW212567   6.944   3.307   6.574
 3890SOL     OW12568   6.412   6.742   3.038
 3890SOL    HW112569   6.460   6.657   3.055
 3890SOL    HW212570   6.424   6.769   2.942
 3891SOL     OW12571   5.116   4.390   4.621
 3891SOL    HW112572   5.192   4.329   4.644
 3891SOL    HW212573   5.140   4.445   4.541
 3892SOL     OW12574   0.702   0.409   1.990
 3892SOL    HW112575   0.706   0.358   1.904
 3892SOL    HW212576   0.635   0.366   2.051
 3893SOL     OW12577   3.209   5.581   2.100
 3893SOL    HW112578   3.156   5.510   2.053
 3893SOL    HW212579   3.303   5.548   2.114
 3894SOL     OW12580   3.714   2.387   1.293
 3894SOL    HW112581   3.715   2.293   1.261
 3894SOL    HW212582   3.759   2.392   1.382
 3895SOL     OW12583   0.999   0.774   5.673
 3895SOL    HW112584   1.068   0.779   5.744
 3895SOL    HW212585   0.909   0.793   5.712
 3896SOL     OW12586   0.501   2.385   5.706
 3896SOL    HW112587   0.513   2.432   5.619
 3896SOL    HW212588   0.466   2.293   5.690
 3897SOL     OW12589   2.763   6.777   2.111
 3897SOL    HW112590   2.664   6.776   2.093
 3897SOL    HW212591   2.783   6.717   2.188
 3898SOL     OW12592   3.440   3.042   3.383
 3898SOL    HW112593   3.343   3.051   3.404
 3898SOL    HW212594   3.487   2.997   3.459
 3899SOL     OW12595   4.514   1.306   4.609
 3899SOL    HW112596   4.454   1.356   4.672
 3899SOL    HW212597   4.458   1.264   4.537
 3900SOL     OW12598   5.662   3.207   3.594
 3900SOL    HW112599   5.581   3.172   3.641
 3900SOL    HW212600   5.710   3.272   3.654
 3901SOL     OW12601   1.838   6.219   6.428
 3901SOL    HW112602   1.799   6.309   6.407
 3901SOL    HW212603   1.934   6.217   6.399
 3902SOL     OW12604   4.555   4.361   2.316
 3902SOL    HW112605   4.538   4.335   2.221
 3902SOL    HW212606   4.611   4.291   2.360
 3903SOL     OW12607   4.084   4.098   6.644
 3903SOL    HW112608   4.022   4.173   6.623
 3903SOL    HW212609   4.121   4.110   6.736
 3904SOL     OW12610   0.864   0.314   6.848
 3904SOL    HW112611   0.847   0.313   6.749
 3904SOL    HW212612   0.860   0.408   6.882
 3905SOL     OW12613   6.074   6.640   6.482
 3905SOL    HW112614   6.152   6.628   6.544
 3905SOL    HW212615   6.080   6.729   6.437
 3906SOL     OW12616   2.118   4.957   4.930
 3906SOL    HW112617   2.150   5.052   4.932
 3906SOL    HW212618   2.019   4.955   4.929
 3907SOL     OW12619   0.719   1.531   4.934
 3907SOL    HW112620   0.796   1.494   4.985
 3907SOL    HW212621   0.634   1.489   4.966
 3908SOL     OW12622   0.367   0.707   6.675
 3908SOL    HW112623   0.430   0.642   6.717
 3908SOL    HW212624   0.362   0.789   6.732
 3909SOL     OW12625   5.560   4.022   6.052
 3909SOL    HW112626   5.568   4.013   6.151
 3909SOL    HW212627   5.614   3.951   6.007
 3910SOL     OW12628   3.562   3.999   2.021
 3910SOL    HW112629   3.613   4.003   2.107
 3910SOL    HW212630   3.575   4.085   1.971
 3911SOL     OW12631   5.571   0.717   0.804
 3911SOL    HW112632   5.650   0.668   0.841
 3911SOL    HW212633   5.557   0.689   0.709
 3912SOL     OW12634   3.289   1.407   6.345
 3912SOL    HW112635   3.333   1.419   6.255
 3912SOL    HW212636   3.194   1.380   6.332
 3913SOL     OW12637   3.862   5.987   6.822
 3913SOL    HW112638   3.804   6.011   6.744
 3913SOL    HW212639   3.860   5.888   6.835
 3914SOL     OW12640   5.123   1.253   1.756
 3914SOL    HW112641   5.207   1.212   1.721
 3914SOL    HW212642   5.045   1.196   1.730
 3915SOL     OW12643   3.875   6.451   6.721
 3915SOL    HW112644   3.882   6.551   6.724
 3915SOL    HW212645   3.863   6.415   6.814
 3916SOL     OW12646   2.394   0.034   2.845
 3916SOL    HW112647   2.478   7.016   2.811
 3916SOL    HW212648   2.337   6.990   2.891
 3917SOL     OW12649   2.836   5.256   0.135
 3917SOL    HW112650   2.885   5.341   0.116
 3917SOL    HW212651   2.868   5.185   0.073
 3918SOL     OW12652   4.569   0.950   0.543
 3918SOL    HW112653   4.650   0.923   0.595
 3918SOL    HW212654   4.589   0.947   0.445
 3919SOL     OW12655   4.374   0.809   0.663
 3919SOL    HW112656   4.453   0.868   0.642
 3919SOL    HW212657   4.328   0.783   0.578
 3920SOL     OW12658   2.253   1.201   6.301
 3920SOL    HW112659   2.249   1.104   6.326
 3920SOL    HW212660   2.170   1.247   6.333
 3921SOL     OW12661   6.794   2.781   6.981
 3921SOL    HW112662   6.788   2.876   7.011
 3921SOL    HW212663   6.704   2.738   6.990
 3922SOL     OW12664   4.808   5.282   1.915
 3922SOL    HW112665   4.828   5.376   1.941
 3922SOL    HW212666   4.711   5.262   1.932
 3923SOL     OW12667   5.779   1.148   1.400
 3923SOL    HW112668   5.805   1.147   1.304
 3923SOL    HW212669   5.748   1.240   1.426
 3924SOL     OW12670   0.924   4.363   3.126
 3924SOL    HW112671   0.959   4.434   3.065
 3924SOL    HW212672   0.949   4.384   3.221
 3925SOL     OW12673   4.668   4.506   1.103
 3925SOL    HW112674   4.700   4.476   1.193
 3925SOL    HW212675   4.607   4.584   1.113
 3926SOL     OW12676   0.607   0.170   5.726
 3926SOL    HW112677   0.520   0.211   5.753
 3926SOL    HW212678   0.614   0.078   5.763
 3927SOL     OW12679   0.929   3.209   3.968
 3927SOL    HW112680   1.024   3.237   3.981
 3927SOL    HW212681   0.927   3.128   3.909
 3928SOL     OW12682   2.532   6.707   2.403
 3928SOL    HW112683   2.489   6.627   2.361
 3928SOL    HW212684   2.495   6.790   2.360
 3929SOL     OW12685   6.871   1.276   7.018
 3929SOL    HW112686   6.933   1.294   0.071
 3929SOL    HW212687   6.784   1.322   0.009
 3930SOL     OW12688   1.248   1.988   3.957
 3930SOL    HW112689   1.309   2.062   3.985
 3930SOL    HW212690   1.272   1.905   4.007
 3931SOL     OW12691   1.669   2.131   1.892
 3931SOL    HW112692   1.665   2.185   1.808
 3931SOL    HW212693   1.750   2.074   1.892
 3932SOL     OW12694   2.306   5.439   3.826
 3932SOL    HW112695   2.332   5.527   3.867
 3932SOL    HW212696   2.368   5.368   3.857
 3933SOL     OW12697   1.077   6.414   0.161
 3933SOL    HW112698   1.118   6.443   0.247
 3933SOL    HW212699   1.059   6.315   0.164
 3934SOL     OW12700   0.549   1.582   3.105
 3934SOL    HW112701   0.572   1.577   3.008
 3934SOL    HW212702   0.632   1.563   3.159
 3935SOL     OW12703   6.438   2.196   6.186
 3935SOL    HW112704   6.483   2.259   6.123
 3935SOL    HW212705   6.485   2.108   6.186
 3936SOL     OW12706   6.576   5.879   5.552
 3936SOL    HW112707   6.666   5.899   5.513
 3936SOL    HW212708   6.585   5.865   5.650
 3937SOL     OW12709   0.515   5.539   2.703
 3937SOL    HW112710   0.552   5.502   2.618
 3937SOL    HW212711   0.422   5.572   2.688
 3938SOL     OW12712   6.916   3.506   4.555
 3938SOL    HW112713   6.824   3.485   4.588
 3938SOL    HW212714   6.910   3.542   4.462
 3939SOL     OW12715   1.724   0.812   3.385
 3939SOL    HW112716   1.751   0.899   3.345
 3939SOL    HW212717   1.624   0.810   3.396
 3940SOL     OW12718   3.176   4.875   1.833
 3940SOL    HW112719   3.093   4.839   1.875
 3940SOL    HW212720   3.210   4.951   1.888
 3941SOL     OW12721   5.775   7.007   4.503
 3941SOL    HW112722   5.822   6.919   4.498
 3941SOL    HW212723   5.676   6.993   4.495
 3942SOL     OW12724   1.142   6.143   5.871
 3942SOL    HW112725   1.070   6.210   5.891
 3942SOL    HW212726   1.182   6.111   5.956
 3943SOL     OW12727   1.151   3.534   1.888
 3943SOL    HW112728   1.211   3.457   1.910
 3943SOL    HW212729   1.205   3.615   1.869
 3944SOL     OW12730   5.743   2.973   5.629
 3944SOL    HW112731   5.714   2.960   5.535
 3944SOL    HW212732   5.663   2.971   5.689
 3945SOL     OW12733   1.161   2.332   3.139
 3945SOL    HW112734   1.092   2.395   3.103
 3945SOL    HW212735   1.236   2.324   3.073
 3946SOL     OW12736   0.059   3.217   6.829
 3946SOL    HW112737   0.124   3.222   6.905
 3946SOL    HW212738   0.087   3.145   6.766
 3947SOL     OW12739   6.249   5.087   0.437
 3947SOL    HW112740   6.295   5.163   0.391
 3947SOL    HW212741   6.171   5.122   0.489
 3948SOL     OW12742   1.905   3.705   0.008
 3948SOL    HW112743   1.930   3.794   6.993
 3948SOL    HW212744   1.956   3.632   6.987
 3949SOL     OW12745   6.667   7.004   2.961
 3949SOL    HW112746   6.699   0.019   3.047
 3949SOL    HW212747   6.590   0.034   2.926
 3950SOL     OW12748   4.194   4.239   1.702
 3950SOL    HW112749   4.161   4.155   1.746
 3950SOL    HW212750   4.275   4.271   1.749
 3951SOL     OW12751   0.568   2.583   6.671
 3951SOL    HW112752   0.645   2.646   6.661
 3951SOL    HW212753   0.541   2.549   6.581
 3952SOL     OW12754   5.852   2.654   3.744
 3952SOL    HW112755   5.825   2.733   3.689
 3952SOL    HW212756   5.798   2.652   3.829
 3953SOL     OW12757   3.152   4.613   5.832
 3953SOL    HW112758   3.217   4.681   5.798
 3953SOL    HW212759   3.133   4.546   5.760
 3954SOL     OW12760   6.433   3.819   5.702
 3954SOL    HW112761   6.489   3.850   5.779
 3954SOL    HW212762   6.337   3.840   5.720
 3955SOL     OW12763   4.801   6.522   0.553
 3955SOL    HW112764   4.830   6.598   0.495
 3955SOL    HW212765   4.768   6.557   0.641
 3956SOL     OW12766   1.124   2.976   5.658
 3956SOL    HW112767   1.081   2.886   5.658
 3956SOL    HW212768   1.176   2.989   5.574
 3957SOL     OW12769   3.312   6.426   4.196
 3957SOL    HW112770   3.302   6.500   4.263
 3957SOL    HW212771   3.244   6.436   4.124
 3958SOL     OW12772   5.967   0.025   0.029
 3958SOL    HW112773   6.025   6.988   7.000
 3958SOL    HW212774   5.940   7.005   0.114
 3959SOL     OW12775   3.503   6.000   1.065
 3959SOL    HW112776   3.409   6.004   1.030
 3959SOL    HW212777   3.515   6.072   1.133
 3960SOL     OW12778   4.853   2.731   6.857
 3960SOL    HW112779   4.847   2.783   6.771
 3960SOL    HW212780   4.802   2.780   6.928
 3961SOL     OW12781   5.288   2.163   1.842
 3961SOL    HW112782   5.227   2.243   1.839
 3961SOL    HW212783   5.355   2.176   1.915
 3962SOL     OW12784   0.930   5.845   0.199
 3962SOL    HW112785   0.937   5.754   0.239
 3962SOL    HW212786   0.921   5.913   0.271
 3963SOL     OW12787   5.627   5.155   3.057
 3963SOL    HW112788   5.529   5.145   3.077
 3963SOL    HW212789   5.681   5.110   3.128
 3964SOL     OW12790   4.632   6.152   4.893
 3964SOL    HW112791   4.579   6.222   4.942
 3964SOL    HW212792   4.727   6.156   4.922
 3965SOL     OW12793   3.581   4.614   6.358
 3965SOL    HW112794   3.606   4.598   6.262
 3965SOL    HW212795   3.485   4.588   6.371
 3966SOL     OW12796   6.818   4.706   6.496
 3966SOL    HW112797   6.906   4.748   6.474
 3966SOL    HW212798   6.824   4.607   6.482
 3967SOL     OW12799   0.962   5.209   3.906
 3967SOL    HW112800   0.898   5.213   3.983
 3967SOL    HW212801   0.914   5.178   3.824
 3968SOL     OW12802   5.342   0.138   2.733
 3968SOL    HW112803   5.436   0.137   2.767
 3968SOL    HW212804   5.295   0.055   2.762
 3969SOL     OW12805   1.167   4.740   2.697
 3969SOL    HW112806   1.224   4.761   2.776
 3969SOL    HW212807   1.130   4.825   2.658
 3970SOL     OW12808   4.710   4.863   3.895
 3970SOL    HW112809   4.703   4.825   3.803
 3970SOL    HW212810   4.756   4.797   3.955
 3971SOL     OW12811   2.778   5.578   3.048
 3971SOL    HW112812   2.834   5.661   3.052
 3971SOL    HW212813   2.682   5.603   3.039
 3972SOL     OW12814   0.310   6.176   0.784
 3972SOL    HW112815   0.375   6.100   0.780
 3972SOL    HW212816   0.287   6.205   0.691
 3973SOL     OW12817   3.069   3.135   5.502
 3973SOL    HW112818   3.085   3.129   5.601
 3973SOL    HW212819   3.146   3.094   5.454
 3974SOL     OW12820   0.674   1.343   6.361
 3974SOL    HW112821   0.707   1.385   6.277
 3974SOL    HW212822   0.702   1.399   6.439
 3975SOL     OW12823   6.804   0.431   5.456
 3975SOL    HW112824   6.892   0.464   5.421
 3975SOL    HW212825   6.790   0.466   5.549
 3976SOL     OW12826   1.265   4.706   1.223
 3976SOL    HW112827   1.346   4.694   1.281
 3976SOL    HW212828   1.185   4.670   1.270
 3977SOL     OW12829   2.818   5.841   6.152
 3977SOL    HW112830   2.910   5.848   6.113
 3977SOL    HW212831   2.821   5.784   6.234
 3978SOL     OW12832   5.532   1.440   5.182
 3978SOL    HW112833   5.465   1.393   5.124
 3978SOL    HW212834   5.581   1.372   5.237
 3979SOL     OW12835   1.842   6.932   1.540
 3979SOL    HW112836   1.854   7.012   1.482
 3979SOL    HW212837   1.810   6.855   1.485
 3980SOL     OW12838   5.887   3.726   4.849
 3980SOL    HW112839   5.789   3.745   4.855
 3980SOL    HW212840   5.934   3.771   4.925
 3981SOL     OW12841   6.971   1.963   6.199
 3981SOL    HW112842   0.028   1.906   6.196
 3981SOL    HW212843   6.980   2.030   6.274
 3982SOL     OW12844   2.483   1.042   4.924
 3982SOL    HW112845   2.557   1.079   4.869
 3982SOL    HW212846   2.506   0.949   4.951
 3983SOL     OW12847   3.475   6.211   4.370
 3983SOL    HW112848   3.494   6.117   4.342
 3983SOL    HW212849   3.394   6.245   4.322
 3984SOL     OW12850   1.684   0.283   1.663
 3984SOL    HW112851   1.653   0.308   1.571
 3984SOL    HW212852   1.654   0.190   1.684
 3985SOL     OW12853   2.099   4.095   0.305
 3985SOL    HW112854   2.122   4.050   0.392
 3985SOL    HW212855   2.175   4.086   0.241
 3986SOL     OW12856   6.876   1.991   2.478
 3986SOL    HW112857   6.859   2.001   2.575
 3986SOL    HW212858   6.896   2.080   2.437
 3987SOL     OW12859   1.637   5.604   4.922
 3987SOL    HW112860   1.715   5.628   4.980
 3987SOL    HW212861   1.593   5.521   4.958
 3988SOL     OW12862   3.188   2.113   5.936
 3988SOL    HW112863   3.091   2.091   5.935
 3988SOL    HW212864   3.217   2.142   5.844
 3989SOL     OW12865   5.933   0.161   6.431
 3989SOL    HW112866   5.916   0.196   6.523
 3989SOL    HW212867   5.917   0.234   6.364
 3990SOL     OW12868   5.841   2.703   4.963
 3990SOL    HW112869   5.920   2.722   5.021
 3990SOL    HW212870   5.870   2.696   4.868
 3991SOL     OW12871   7.007   2.540   3.363
 3991SOL    HW112872   0.082   2.539   3.353
 3991SOL    HW212873   6.965   2.573   3.278
 3992SOL     OW12874   4.131   3.053   6.793
 3992SOL    HW112875   4.183   3.116   6.736
 3992SOL    HW212876   4.041   3.092   6.813
 3993SOL     OW12877   2.743   1.911   3.050
 3993SOL    HW112878   2.760   1.823   3.006
 3993SOL    HW212879   2.658   1.906   3.101
 3994SOL     OW12880   2.202   2.717   5.064
 3994SOL    HW112881   2.155   2.633   5.041
 3994SOL    HW212882   2.215   2.772   4.981
 3995SOL     OW12883   2.179   4.366   3.401
 3995SOL    HW112884   2.129   4.342   3.317
 3995SOL    HW212885   2.277   4.362   3.383
 3996SOL     OW12886   1.895   1.138   5.009
 3996SOL    HW112887   1.802   1.174   5.021
 3996SOL    HW212888   1.926   1.157   4.916
 3997SOL     OW12889   5.024   3.686   3.053
 3997SOL    HW112890   4.973   3.631   2.987
 3997SOL    HW212891   5.014   3.646   3.145
 3998SOL     OW12892   5.799   2.224   2.119
 3998SOL    HW112893   5.864   2.230   2.044
 3998SOL    HW212894   5.713   2.184   2.087
 3999SOL     OW12895   6.248   3.893   3.478
 3999SOL    HW112896   6.185   3.916   3.553
 3999SOL    HW212897   6.256   3.794   3.471
 4000SOL     OW12898   3.243   5.431   2.688
 4000SOL    HW112899   3.242   5.331   2.686
 4000SOL    HW212900   3.151   5.464   2.710
 4001SOL     OW12901   2.671   4.157   5.361
 4001SOL    HW112902   2.760   4.200   5.376
 4001SOL    HW212903   2.685   4.060   5.341
 4002SOL     OW12904   3.551   2.931   4.397
 4002SOL    HW112905   3.637   2.940   4.447
 4002SOL    HW212906   3.476   2.971   4.450
 4003SOL     OW12907   1.681   1.114   6.414
 4003SOL    HW112908   1.762   1.130   6.357
 4003SOL    HW212909   1.709   1.106   6.510
 4004SOL     OW12910   6.872   3.610   4.295
 4004SOL    HW112911   6.849   3.575   4.205
 4004SOL    HW212912   6.953   3.668   4.289
 4005SOL     OW12913   4.683   4.873   1.291
 4005SOL    HW112914   4.762   4.925   1.322
 4005SOL    HW212915   4.602   4.901   1.343
 4006SOL     OW12916   5.687   4.689   2.365
 4006SOL    HW112917   5.730   4.771   2.402
 4006SOL    HW212918   5.602   4.713   2.319
 4007SOL     OW12919   0.536   2.340   2.982
 4007SOL    HW112920   0.494   2.325   2.893
 4007SOL    HW212921   0.632   2.309   2.979
 4008SOL     OW12922   3.120   0.762   6.029
 4008SOL    HW112923   3.172   0.843   6.002
 4008SOL    HW212924   3.023   0.785   6.029
 4009SOL     OW12925   4.829   1.983   1.659
 4009SOL    HW112926   4.810   2.079   1.642
 4009SOL    HW212927   4.904   1.975   1.726
 4010SOL     OW12928   2.918   3.818   1.486
 4010SOL    HW112929   2.901   3.916   1.496
 4010SOL    HW212930   3.011   3.797   1.514
 4011SOL     OW12931   0.131   6.483   1.895
 4011SOL    HW112932   0.144   6.385   1.909
 4011SOL    HW212933   0.134   6.530   1.984
 4012SOL     OW12934   4.376   6.484   2.646
 4012SOL    HW112935   4.452   6.419   2.656
 4012SOL    HW212936   4.406   6.575   2.673
 4013SOL     OW12937   2.159   0.735   1.288
 4013SOL    HW112938   2.190   0.642   1.272
 4013SOL    HW212939   2.229   0.786   1.338
 4014SOL     OW12940   3.424   5.613   3.726
 4014SOL    HW112941   3.337   5.635   3.769
 4014SOL    HW212942   3.422   5.519   3.692
 4015SOL     OW12943   5.193   4.580   6.652
 4015SOL    HW112944   5.253   4.517   6.602
 4015SOL    HW212945   5.145   4.639   6.586
 4016SOL     OW12946   3.167   6.035   6.904
 4016SOL    HW112947   3.091   6.012   6.844
 4016SOL    HW212948   3.144   6.117   6.956
 4017SOL     OW12949   0.489   5.819   6.067
 4017SOL    HW112950   0.478   5.871   6.152
 4017SOL    HW212951   0.584   5.789   6.059
 4018SOL     OW12952   4.546   6.791   1.615
 4018SOL    HW112953   4.446   6.782   1.617
 4018SOL    HW212954   4.577   6.798   1.520
 4019SOL     OW12955   5.904   4.180   2.222
 4019SOL    HW112956   5.989   4.141   2.258
 4019SOL    HW212957   5.834   4.179   2.294
 4020SOL     OW12958   6.635   3.233   5.271
 4020SOL    HW112959   6.686   3.316   5.250
 4020SOL    HW212960   6.657   3.162   5.204
 4021SOL     OW12961   3.677   4.237   5.137
 4021SOL    HW112962   3.670   4.206   5.043
 4021SOL    HW212963   3.772   4.235   5.166
 4022SOL     OW12964   3.719   6.860   6.266
 4022SOL    HW112965   3.703   6.943   6.213
 4022SOL    HW212966   3.745   6.883   6.359
 4023SOL     OW12967   0.275   0.333   5.465
 4023SOL    HW112968   0.232   0.258   5.416
 4023SOL    HW212969   0.293   0.306   5.560
 4024SOL     OW12970   2.397   4.880   4.240
 4024SOL    HW112971   2.394   4.806   4.173
 4024SOL    HW212972   2.451   4.852   4.319
 4025SOL     OW12973   0.792   6.387   4.198
 4025SOL    HW112974   0.800   6.430   4.108
 4025SOL    HW212975   0.739   6.303   4.190
 4026SOL     OW12976   5.880   6.970   3.882
 4026SOL    HW112977   5.789   7.008   3.864
 4026SOL    HW212978   5.904   6.906   3.810
 4027SOL     OW12979   2.570   2.419   0.429
 4027SOL    HW112980   2.648   2.477   0.409
 4027SOL    HW212981   2.497   2.473   0.471
 4028SOL     OW12982   3.946   1.700   3.782
 4028SOL    HW112983   4.046   1.701   3.786
 4028SOL    HW212984   3.914   1.608   3.760
 4029SOL     OW12985   2.973   4.404   5.714
 4029SOL    HW112986   2.937   4.362   5.631
 4029SOL    HW212987   2.985   4.334   5.785
 4030SOL     OW12988   6.763   1.110   2.187
 4030SOL    HW112989   6.826   1.061   2.126
 4030SOL    HW212990   6.736   1.196   2.144
 4031SOL     OW12991   5.341   5.793   3.742
 4031SOL    HW112992   5.301   5.841   3.821
 4031SOL    HW212993   5.310   5.837   3.658
 4032SOL     OW12994   6.963   6.901   1.883
 4032SOL    HW112995   0.025   6.930   1.924
 4032SOL    HW212996   6.907   6.981   1.864
 4033SOL     OW12997   2.086   3.171   1.356
 4033SOL    HW112998   2.132   3.233   1.420
 4033SOL    HW212999   1.998   3.143   1.395
 4034SOL     OW13000   5.903   1.636   5.139
 4034SOL    HW113001   5.893   1.655   5.237
 4034SOL    HW213002   5.986   1.680   5.106
 4035SOL     OW13003   6.341   1.764   0.999
 4035SOL    HW113004   6.439   1.751   0.989
 4035SOL    HW213005   6.303   1.690   1.055
 4036SOL     OW13006   3.841   5.115   2.350
 4036SOL    HW113007   3.887   5.189   2.300
 4036SOL    HW213008   3.844   5.031   2.296
 4037SOL     OW13009   2.026   1.663   6.922
 4037SOL    HW113010   2.122   1.690   6.914
 4037SOL    HW213011   1.996   1.676   7.017
 4038SOL     OW13012   4.262   2.708   1.689
 4038SOL    HW113013   4.326   2.782   1.667
 4038SOL    HW213014   4.176   2.723   1.640
 4039SOL     OW13015   5.808   5.661   1.294
 4039SOL    HW113016   5.831   5.601   1.370
 4039SOL    HW213017   5.887   5.717   1.270
 4040SOL     OW13018   3.316   6.873   5.186
 4040SOL    HW113019   3.270   6.809   5.248
 4040SOL    HW213020   3.414   6.856   5.186
 4041SOL     OW13021   0.673   5.550   1.208
 4041SOL    HW113022   0.758   5.541   1.261
 4041SOL    HW213023   0.619   5.626   1.245
 4042SOL     OW13024   5.739   5.787   3.980
 4042SOL    HW113025   5.796   5.750   3.907
 4042SOL    HW213026   5.743   5.886   3.979
 4043SOL     OW13027   6.706   2.406   5.335
 4043SOL    HW113028   6.643   2.473   5.295
 4043SOL    HW213029   6.758   2.361   5.261
 4044SOL     OW13030   4.379   6.926   3.496
 4044SOL    HW113031   4.427   6.876   3.424
 4044SOL    HW213032   4.295   6.966   3.459
 4045SOL     OW13033   4.133   6.299   5.381
 4045SOL    HW113034   4.161   6.303   5.285
 4045SOL    HW213035   4.166   6.214   5.422
 4046SOL     OW13036   1.563   1.615   3.902
 4046SOL    HW113037   1.546   1.583   3.809
 4046SOL    HW213038   1.559   1.715   3.904
 4047SOL     OW13039   2.104   2.454   0.570
 4047SOL    HW113040   2.060   2.520   0.630
 4047SOL    HW213041   2.096   2.484   0.475
 4048SOL     OW13042   5.165   1.491   1.872
 4048SOL    HW113043   5.137   1.470   1.966
 4048SOL    HW213044   5.137   1.417   1.811
 4049SOL     OW13045   5.517   5.165   6.869
 4049SOL    HW113046   5.475   5.093   6.925
 4049SOL    HW213047   5.511   5.140   6.773
 4050SOL     OW13048   0.927   6.963   1.837
 4050SOL    HW113049   0.976   6.877   1.852
 4050SOL    HW213050   0.976   7.018   1.770
 4051SOL     OW13051   3.874   1.924   6.621
 4051SOL    HW113052   3.875   1.933   6.720
 4051SOL    HW213053   3.815   1.847   6.595
 4052SOL     OW13054   6.869   1.307   2.410
 4052SOL    HW113055   6.823   1.331   2.325
 4052SOL    HW213056   6.937   1.236   2.393
 4053SOL     OW13057   3.128   5.910   3.721
 4053SOL    HW113058   3.191   5.852   3.669
 4053SOL    HW213059   3.135   5.888   3.818
 4054SOL     OW13060   5.942   3.868   1.302
 4054SOL    HW113061   6.008   3.816   1.248
 4054SOL    HW213062   5.849   3.847   1.271
 4055SOL     OW13063   2.904   3.246   6.959
 4055SOL    HW113064   2.854   3.209   6.880
 4055SOL    HW213065   2.880   3.194   0.016
 4056SOL     OW13066   4.833   4.060   0.938
 4056SOL    HW113067   4.843   3.961   0.929
 4056SOL    HW213068   4.796   4.098   0.853
 4057SOL     OW13069   6.842   2.521   1.222
 4057SOL    HW113070   6.842   2.421   1.222
 4057SOL    HW213071   6.936   2.554   1.233
 4058SOL     OW13072   1.955   0.265   4.800
 4058SOL    HW113073   2.042   0.313   4.794
 4058SOL    HW213074   1.915   0.279   4.890
 4059SOL     OW13075   0.757   1.366   2.821
 4059SOL    HW113076   0.767   1.381   2.920
 4059SOL    HW213077   0.672   1.408   2.789
 4060SOL     OW13078   5.328   5.575   4.980
 4060SOL    HW113079   5.271   5.551   4.902
 4060SOL    HW213080   5.424   5.575   4.952
 4061SOL     OW13081   2.545   4.511   2.320
 4061SOL    HW113082   2.607   4.439   2.349
 4061SOL    HW213083   2.522   4.569   2.398
 4062SOL     OW13084   2.324   1.893   1.983
 4062SOL    HW113085   2.259   1.875   2.056
 4062SOL    HW213086   2.302   1.836   1.904
 4063SOL     OW13087   6.181   6.474   0.060
 4063SOL    HW113088   6.197   6.448   0.155
 4063SOL    HW213089   6.161   6.393   0.005
 4064SOL     OW13090   2.350   0.127   3.918
 4064SOL    HW113091   2.446   0.157   3.923
 4064SOL    HW213092   2.346   0.031   3.893
 4065SOL     OW13093   1.302   6.604   1.262
 4065SOL    HW113094   1.235   6.669   1.227
 4065SOL    HW213095   1.274   6.511   1.238
 4066SOL     OW13096   5.775   4.912   3.854
 4066SOL    HW113097   5.817   4.897   3.765
 4066SOL    HW213098   5.796   5.004   3.886
 4067SOL     OW13099   6.552   3.482   2.689
 4067SOL    HW113100   6.456   3.454   2.687
 4067SOL    HW213101   6.577   3.507   2.783
 4068SOL     OW13102   1.808   1.429   4.255
 4068SOL    HW113103   1.719   1.384   4.251
 4068SOL    HW213104   1.833   1.460   4.163
 4069SOL     OW13105   2.726   5.494   6.544
 4069SOL    HW113106   2.728   5.536   6.635
 4069SOL    HW213107   2.765   5.403   6.549
 4070SOL     OW13108   0.711   3.596   2.001
 4070SOL    HW113109   0.673   3.522   1.947
 4070SOL    HW213110   0.801   3.621   1.964
 4071SOL     OW13111   1.340   0.971   5.215
 4071SOL    HW113112   1.432   0.963   5.178
 4071SOL    HW213113   1.332   1.056   5.267
 4072SOL     OW13114   0.290   5.698   4.391
 4072SOL    HW113115   0.241   5.717   4.306
 4072SOL    HW213116   0.352   5.774   4.411
 4073SOL     OW13117   2.439   6.194   6.083
 4073SOL    HW113118   2.490   6.161   6.003
 4073SOL    HW213119   2.501   6.244   6.144
 4074SOL     OW13120   0.105   3.758   2.323
 4074SOL    HW113121   0.112   3.771   2.422
 4074SOL    HW213122   0.083   3.663   2.303
 4075SOL     OW13123   4.124   2.092   1.824
 4075SOL    HW113124   4.068   2.035   1.884
 4075SOL    HW213125   4.197   2.135   1.877
 4076SOL     OW13126   2.676   2.361   5.611
 4076SOL    HW113127   2.612   2.289   5.640
 4076SOL    HW213128   2.624   2.444   5.590
 4077SOL     OW13129   3.162   1.392   0.060
 4077SOL    HW113130   3.196   1.397   6.990
 4077SOL    HW213131   3.064   1.413   0.061
 4078SOL     OW13132   0.551   5.783   1.269
 4078SOL    HW113133   0.466   5.803   1.220
 4078SOL    HW213134   0.618   5.855   1.250
 4079SOL     OW13135   1.538   1.075   3.639
 4079SOL    HW113136   1.598   1.051   3.715
 4079SOL    HW213137   1.590   1.077   3.554
 4080SOL     OW13138   3.859   4.272   6.168
 4080SOL    HW113139   3.775   4.219   6.184
 4080SOL    HW213140   3.901   4.243   6.083
 4081SOL     OW13141   2.053   2.725   4.697
 4081SOL    HW113142   2.130   2.783   4.724
 4081SOL    HW213143   1.986   2.722   4.771
 4082SOL     OW13144   1.300   3.658   0.543
 4082SOL    HW113145   1.359   3.641   0.464
 4082SOL    HW213146   1.210   3.689   0.511
 4083SOL     OW13147   6.850   4.389   2.141
 4083SOL    HW113148   6.895   4.445   2.211
 4083SOL    HW213149   6.785   4.445   2.090
 4084SOL     OW13150   4.969   2.053   3.349
 4084SOL    HW113151   4.894   2.090   3.404
 4084SOL    HW213152   5.010   2.127   3.295
 4085SOL     OW13153   2.601   5.662   1.366
 4085SOL    HW113154   2.648   5.596   1.425
 4085SOL    HW213155   2.536   5.715   1.419
 4086SOL     OW13156   0.950   5.312   1.677
 4086SOL    HW113157   0.871   5.373   1.668
 4086SOL    HW213158   1.024   5.345   1.618
 4087SOL     OW13159   1.443   1.583   3.062
 4087SOL    HW113160   1.412   1.643   3.135
 4087SOL    HW213161   1.526   1.535   3.091
 4088SOL     OW13162   6.680   0.754   6.336
 4088SOL    HW113163   6.588   0.763   6.373
 4088SOL    HW213164   6.676   0.719   6.243
 4089SOL     OW13165   6.010   5.779   4.230
 4089SOL    HW113166   5.926   5.728   4.246
 4089SOL    HW213167   6.060   5.738   4.153
 4090SOL     OW13168   1.675   5.304   5.305
 4090SOL    HW113169   1.699   5.386   5.358
 4090SOL    HW213170   1.743   5.233   5.321
 4091SOL     OW13171   6.641   6.557   6.778
 4091SOL    HW113172   6.583   6.476   6.769
 4091SOL    HW213173   6.614   6.608   6.860
 4092SOL     OW13174   6.489   2.606   5.356
 4092SOL    HW113175   6.412   2.597   5.293
 4092SOL    HW213176   6.556   2.669   5.318
 4093SOL     OW13177   4.797   6.357   2.230
 4093SOL    HW113178   4.707   6.326   2.201
 4093SOL    HW213179   4.790   6.451   2.263
 4094SOL     OW13180   2.015   5.634   5.278
 4094SOL    HW113181   2.024   5.651   5.376
 4094SOL    HW213182   2.102   5.600   5.242
 4095SOL     OW13183   0.951   3.664   0.222
 4095SOL    HW113184   0.954   3.622   0.313
 4095SOL    HW213185   0.890   3.744   0.224
 4096SOL     OW13186   4.600   6.433   5.790
 4096SOL    HW113187   4.568   6.468   5.702
 4096SOL    HW213188   4.529   6.445   5.859
 4097SOL     OW13189   4.130   4.668   5.282
 4097SOL    HW113190   4.170   4.587   5.240
 4097SOL    HW213191   4.054   4.642   5.341
 4098SOL     OW13192   6.821   2.484   1.854
 4098SOL    HW113193   6.878   2.404   1.874
 4098SOL    HW213194   6.855   2.563   1.906
 4099SOL     OW13195   2.940   5.124   1.603
 4099SOL    HW113196   2.949   5.026   1.623
 4099SOL    HW213197   2.947   5.139   1.504
 4100SOL     OW13198   6.802   6.857   4.804
 4100SOL    HW113199   6.882   6.896   4.849
 4100SOL    HW213200   6.719   6.896   4.843
 4101SOL     OW13201   5.935   1.204   0.044
 4101SOL    HW113202   6.028   1.180   0.018
 4101SOL    HW213203   5.937   1.271   0.119
 4102SOL     OW13204   6.861   1.120   0.905
 4102SOL    HW113205   6.809   1.169   0.975
 4102SOL    HW213206   6.904   1.039   0.945
 4103SOL     OW13207   6.837   0.259   0.340
 4103SOL    HW113208   6.872   0.283   0.249
 4103SOL    HW213209   6.778   0.179   0.332
 4104SOL     OW13210   0.471   4.666   2.995
 4104SOL    HW113211   0.470   4.743   3.058
 4104SOL    HW213212   0.466   4.580   3.047
 4105SOL     OW13213   5.128   6.980   1.607
 4105SOL    HW113214   5.189   7.015   1.537
 4105SOL    HW213215   5.070   6.909   1.568
 4106SOL     OW13216   6.399   3.072   2.867
 4106SOL    HW113217   6.351   3.046   2.950
 4106SOL    HW213218   6.333   3.110   2.802
 4107SOL     OW13219   1.336   5.829   1.125
 4107SOL    HW113220   1.299   5.809   1.216
 4107SOL    HW213221   1.403   5.759   1.099
 4108SOL     OW13222   6.501   4.075   5.988
 4108SOL    HW113223   6.415   4.113   5.954
 4108SOL    HW213224   6.480   4.003   6.055
 4109SOL     OW13225   6.178   0.088   4.995
 4109SOL    HW113226   6.228   0.100   5.081
 4109SOL    HW213227   6.188   7.018   4.963
 4110SOL     OW13228   4.007   3.465   5.901
 4110SOL    HW113229   4.076   3.395   5.919
 4110SOL    HW213230   3.940   3.430   5.836
 4111SOL     OW13231   5.188   3.320   0.039
 4111SOL    HW113232   5.103   3.373   0.036
 4111SOL    HW213233   5.181   3.249   0.108
 4112SOL     OW13234   4.961   6.029   4.253
 4112SOL    HW113235   4.896   5.979   4.311
 4112SOL    HW213236   5.020   6.086   4.310
 4113SOL     OW13237   5.016   5.945   4.669
 4113SOL    HW113238   4.928   5.969   4.627
 4113SOL    HW213239   5.074   6.026   4.671
 4114SOL     OW13240   3.372   2.126   4.162
 4114SOL    HW113241   3.464   2.116   4.124
 4114SOL    HW213242   3.306   2.142   4.089
 4115SOL     OW13243   3.420   5.110   1.718
 4115SOL    HW113244   3.493   5.049   1.748
 4115SOL    HW213245   3.354   5.122   1.791
 4116SOL     OW13246   2.995   1.420   2.452
 4116SOL    HW113247   3.094   1.414   2.437
 4116SOL    HW213248   2.959   1.329   2.473
 4117SOL     OW13249   1.603   4.359   2.462
 4117SOL    HW113250   1.620   4.458   2.466
 4117SOL    HW213251   1.585   4.324   2.554
 4118SOL     OW13252   3.429   6.669   6.856
 4118SOL    HW113253   3.446   6.571   6.849
 4118SOL    HW213254   3.487   6.708   6.927
 4119SOL     OW13255   2.767   1.942   3.963
 4119SOL    HW113256   2.822   1.936   3.879
 4119SOL    HW213257   2.716   1.857   3.976
 4120SOL     OW13258   3.576   0.669   6.720
 4120SOL    HW113259   3.621   0.583   6.744
 4120SOL    HW213260   3.479   0.652   6.701
 4121SOL     OW13261   5.826   1.063   4.320
 4121SOL    HW113262   5.826   0.977   4.372
 4121SOL    HW213263   5.824   1.042   4.222
 4122SOL     OW13264   1.070   5.660   4.866
 4122SOL    HW113265   1.044   5.563   4.872
 4122SOL    HW213266   1.166   5.667   4.839
 4123SOL     OW13267   4.486   4.949   5.499
 4123SOL    HW113268   4.429   4.867   5.492
 4123SOL    HW213269   4.523   4.972   5.409
 4124SOL     OW13270   6.246   5.658   6.978
 4124SOL    HW113271   6.174   5.668   6.909
 4124SOL    HW213272   6.209   5.677   0.044
 4125SOL     OW13273   5.057   1.439   2.126
 4125SOL    HW113274   5.022   1.355   2.083
 4125SOL    HW213275   4.992   1.470   2.195
 4126SOL     OW13276   1.050   3.820   4.335
 4126SOL    HW113277   0.985   3.895   4.319
 4126SOL    HW213278   1.000   3.741   4.373
 4127SOL     OW13279   4.730   5.106   5.051
 4127SOL    HW113280   4.803   5.162   5.011
 4127SOL    HW213281   4.730   5.016   5.008
 4128SOL     OW13282   1.257   2.832   1.655
 4128SOL    HW113283   1.310   2.759   1.612
 4128SOL    HW213284   1.194   2.793   1.722
 4129SOL     OW13285   3.518   1.320   6.722
 4129SOL    HW113286   3.534   1.418   6.716
 4129SOL    HW213287   3.536   1.289   6.815
 4130SOL     OW13288   6.749   3.252   6.815
 4130SOL    HW113289   6.838   3.223   6.851
 4130SOL    HW213290   6.729   3.344   6.850
 4131SOL     OW13291   0.990   0.662   3.658
 4131SOL    HW113292   1.080   0.628   3.630
 4131SOL    HW213293   0.938   0.689   3.577
 4132SOL     OW13294   4.831   4.709   3.655
 4132SOL    HW113295   4.827   4.614   3.688
 4132SOL    HW213296   4.765   4.721   3.581
 4133SOL     OW13297   2.961   6.008   0.767
 4133SOL    HW113298   2.967   5.917   0.807
 4133SOL    HW213299   2.868   6.023   0.731
 4134SOL     OW13300   2.849   3.362   0.865
 4134SOL    HW113301   2.843   3.357   0.964
 4134SOL    HW213302   2.757   3.354   0.825
 4135SOL     OW13303   0.769   1.168   2.493
 4135SOL    HW113304   0.815   1.156   2.581
 4135SOL    HW213305   0.674   1.197   2.509
 4136SOL     OW13306   1.357   2.261   3.320
 4136SOL    HW113307   1.267   2.290   3.289
 4136SOL    HW213308   1.351   2.231   3.415
 4137SOL     OW13309   0.908   4.361   0.794
 4137SOL    HW113310   0.923   4.379   0.892
 4137SOL    HW213311   0.926   4.265   0.775
 4138SOL     OW13312   4.937   5.596   2.979
 4138SOL    HW113313   4.873   5.575   3.053
 4138SOL    HW213314   4.900   5.563   2.892
 4139SOL     OW13315   1.821   1.867   5.626
 4139SOL    HW113316   1.850   1.960   5.601
 4139SOL    HW213317   1.888   1.826   5.687
 4140SOL     OW13318   3.158   0.349   5.164
 4140SOL    HW113319   3.191   0.282   5.097
 4140SOL    HW213320   3.172   0.441   5.130
 4141SOL     OW13321   6.364   6.075   0.942
 4141SOL    HW113322   6.298   6.003   0.966
 4141SOL    HW213323   6.333   6.123   0.860
 4142SOL     OW13324   6.808   5.231   1.113
 4142SOL    HW113325   6.819   5.248   1.211
 4142SOL    HW213326   6.774   5.139   1.099
 4143SOL     OW13327   6.082   1.520   0.934
 4143SOL    HW113328   6.066   1.615   0.958
 4143SOL    HW213329   5.996   1.477   0.908
 4144SOL     OW13330   5.065   3.504   6.714
 4144SOL    HW113331   5.025   3.528   6.803
 4144SOL    HW213332   5.035   3.570   6.645
 4145SOL     OW13333   6.201   6.349   1.379
 4145SOL    HW113334   6.153   6.288   1.315
 4145SOL    HW213335   6.280   6.390   1.333
 4146SOL     OW13336   6.406   0.577   4.693
 4146SOL    HW113337   6.359   0.533   4.769
 4146SOL    HW213338   6.496   0.609   4.722
 4147SOL     OW13339   4.975   4.078   5.892
 4147SOL    HW113340   4.924   4.162   5.877
 4147SOL    HW213341   4.946   4.008   5.827
 4148SOL     OW13342   1.237   0.722   5.072
 4148SOL    HW113343   1.235   0.622   5.061
 4148SOL    HW213344   1.266   0.744   5.165
 4149SOL     OW13345   0.090   3.191   0.592
 4149SOL    HW113346   0.045   3.147   0.515
 4149SOL    HW213347   0.159   3.129   0.631
 4150SOL     OW13348   0.993   0.519   6.168
 4150SOL    HW113349   0.936   0.444   6.134
 4150SOL    HW213350   1.041   0.490   6.251
 4151SOL     OW13351   2.176   6.116   6.081
 4151SOL    HW113352   2.198   6.019   6.072
 4151SOL    HW213353   2.260   6.169   6.090
 4152SOL     OW13354   4.604   5.913   1.807
 4152SOL    HW113355   4.631   5.819   1.788
 4152SOL    HW213356   4.533   5.941   1.743
 4153SOL     OW13357   4.490   5.414   6.904
 4153SOL    HW113358   4.578   5.426   6.950
 4153SOL    HW213359   4.505   5.381   6.811
 4154SOL     OW13360   0.078   5.131   3.944
 4154SOL    HW113361   0.087   5.216   3.995
 4154SOL    HW213362   0.114   5.143   3.852
 4155SOL     OW13363   0.395   0.988   2.429
 4155SOL    HW113364   0.477   0.934   2.412
 4155SOL    HW213365   0.408   1.081   2.394
 4156SOL     OW13366   5.203   6.010   5.096
 4156SOL    HW113367   5.291   6.007   5.048
 4156SOL    HW213368   5.202   6.089   5.158
 4157SOL     OW13369   5.018   4.997   4.562
 4157SOL    HW113370   5.104   4.949   4.543
 4157SOL    HW213371   4.950   4.971   4.493
 4158SOL     OW13372   1.229   4.610   2.308
 4158SOL    HW113373   1.155   4.542   2.308
 4158SOL    HW213374   1.190   4.701   2.320
 4159SOL     OW13375   2.150   3.771   4.244
 4159SOL    HW113376   2.151   3.672   4.233
 4159SOL    HW213377   2.185   3.814   4.161
 4160SOL     OW13378   6.492   1.069   0.889
 4160SOL    HW113379   6.563   1.105   0.949
 4160SOL    HW213380   6.512   1.095   0.795
 4161SOL     OW13381   0.768   1.079   0.795
 4161SOL    HW113382   0.685   1.071   0.739
 4161SOL    HW213383   0.744   1.072   0.891
 4162SOL     OW13384   6.288   6.612   6.646
 4162SOL    HW113385   6.349   6.535   6.631
 4162SOL    HW213386   6.281   6.632   6.744
 4163SOL     OW13387   5.685   6.393   3.468
 4163SOL    HW113388   5.753   6.364   3.535
 4163SOL    HW213389   5.715   6.478   3.424
 4164SOL     OW13390   1.717   6.614   6.539
 4164SOL    HW113391   1.788   6.571   6.594
 4164SOL    HW213392   1.653   6.662   6.598
 4165SOL     OW13393   4.194   6.914   7.023
 4165SOL    HW113394   4.161   6.862   0.078
 4165SOL    HW213395   4.217   7.007   0.028
 4166SOL     OW13396   6.458   3.879   1.371
 4166SOL    HW113397   6.479   3.791   1.413
 4166SOL    HW213398   6.395   3.866   1.295
 4167SOL     OW13399   1.282   4.124   0.991
 4167SOL    HW113400   1.227   4.147   1.071
 4167SOL    HW213401   1.240   4.046   0.943
 4168SOL     OW13402   6.719   4.869   0.784
 4168SOL    HW113403   6.775   4.888   0.865
 4168SOL    HW213404   6.623   4.860   0.811
 4169SOL     OW13405   5.816   4.099   3.731
 4169SOL    HW113406   5.855   4.067   3.817
 4169SOL    HW213407   5.783   4.193   3.742
 4170SOL     OW13408   4.633   4.184   5.440
 4170SOL    HW113409   4.615   4.264   5.382
 4170SOL    HW213410   4.703   4.127   5.397
 4171SOL     OW13411   6.511   5.627   0.774
 4171SOL    HW113412   6.441   5.696   0.790
 4171SOL    HW213413   6.567   5.617   0.856
 4172SOL     OW13414   0.309   2.295   6.009
 4172SOL    HW113415   0.289   2.319   6.104
 4172SOL    HW213416   0.230   2.315   5.951
 4173SOL     OW13417   5.390   3.641   5.681
 4173SOL    HW113418   5.328   3.571   5.645
 4173SOL    HW213419   5.368   3.659   5.777
 4174SOL     OW13420   5.518   0.758   3.028
 4174SOL    HW113421   5.428   0.794   3.054
 4174SOL    HW213422   5.586   0.787   3.094
 4175SOL     OW13423   1.996   6.045   4.163
 4175SOL    HW113424   2.002   6.144   4.148
 4175SOL    HW213425   2.089   6.006   4.162
 4176SOL     OW13426   2.829   6.674   1.867
 4176SOL    HW113427   2.806   6.716   1.955
 4176SOL    HW213428   2.778   6.720   1.794
 4177SOL     OW13429   6.151   4.532   4.800
 4177SOL    HW113430   6.071   4.545   4.742
 4177SOL    HW213431   6.121   4.503   4.891
 4178SOL     OW13432   4.592   0.499   4.596
 4178SOL    HW113433   4.521   0.568   4.603
 4178SOL    HW213434   4.645   0.514   4.513
 4179SOL     OW13435   5.187   2.606   3.432
 4179SOL    HW113436   5.143   2.627   3.344
 4179SOL    HW213437   5.138   2.530   3.476
 4180SOL     OW13438   4.933   4.430   1.624
 4180SOL    HW113439   4.894   4.340   1.606
 4180SOL    HW213440   4.969   4.433   1.717
 4181SOL     OW13441   2.630   1.388   0.817
 4181SOL    HW113442   2.575   1.453   0.766
 4181SOL    HW213443   2.691   1.438   0.879
 4182SOL     OW13444   0.418   6.956   3.156
 4182SOL    HW113445   0.332   7.006   3.145
 4182SOL    HW213446   0.453   6.929   3.066
 4183SOL     OW13447   4.521   0.788   0.105
 4183SOL    HW113448   4.468   0.852   0.048
 4183SOL    HW213449   4.558   0.715   0.048
 4184SOL     OW13450   4.685   5.090   1.515
 4184SOL    HW113451   4.626   5.132   1.446
 4184SOL    HW213452   4.757   5.154   1.542
 4185SOL     OW13453   0.122   5.558   2.291
 4185SOL    HW113454   0.219   5.557   2.265
 4185SOL    HW213455   0.095   5.652   2.312
 4186SOL     OW13456   2.290   5.494   0.966
 4186SOL    HW113457   2.368   5.475   1.025
 4186SOL    HW213458   2.212   5.524   1.021
 4187SOL     OW13459   3.762   4.171   5.793
 4187SOL    HW113460   3.734   4.192   5.699
 4187SOL    HW213461   3.682   4.139   5.845
 4188SOL     OW13462   4.386   6.833   4.476
 4188SOL    HW113463   4.433   6.755   4.517
 4188SOL    HW213464   4.315   6.866   4.539
 4189SOL     OW13465   3.571   0.400   5.726
 4189SOL    HW113466   3.522   0.322   5.763
 4189SOL    HW213467   3.578   0.392   5.627
 4190SOL     OW13468   0.693   0.486   0.554
 4190SOL    HW113469   0.759   0.556   0.526
 4190SOL    HW213470   0.674   0.426   0.477
 4191SOL     OW13471   5.371   3.606   3.137
 4191SOL    HW113472   5.451   3.546   3.142
 4191SOL    HW213473   5.308   3.570   3.068
 4192SOL     OW13474   0.471   1.024   4.351
 4192SOL    HW113475   0.568   1.049   4.350
 4192SOL    HW213476   0.462   0.925   4.352
 4193SOL     OW13477   1.390   0.437   2.741
 4193SOL    HW113478   1.344   0.372   2.801
 4193SOL    HW213479   1.429   0.389   2.662
 4194SOL     OW13480   5.822   0.463   5.195
 4194SOL    HW113481   5.778   0.398   5.132
 4194SOL    HW213482   5.786   0.450   5.287
 4195SOL     OW13483   3.886   6.820   2.481
 4195SOL    HW113484   3.986   6.820   2.479
 4195SOL    HW213485   3.853   6.780   2.566
 4196SOL     OW13486   5.568   2.330   3.288
 4196SOL    HW113487   5.621   2.286   3.361
 4196SOL    HW213488   5.625   2.399   3.243
 4197SOL     OW13489   4.921   6.063   5.400
 4197SOL    HW113490   4.915   5.973   5.357
 4197SOL    HW213491   5.013   6.099   5.389
 4198SOL     OW13492   5.638   3.287   6.764
 4198SOL    HW113493   5.612   3.335   6.680
 4198SOL    HW213494   5.565   3.296   6.832
 4199SOL     OW13495   2.230   3.092   6.611
 4199SOL    HW113496   2.276   3.126   6.529
 4199SOL    HW213497   2.158   3.028   6.585
 4200SOL     OW13498   3.023   6.226   5.735
 4200SOL    HW113499   3.000   6.134   5.767
 4200SOL    HW213500   3.123   6.238   5.734
 4201SOL     OW13501   6.235   6.415   3.641
 4201SOL    HW113502   6.273   6.327   3.666
 4201SOL    HW213503   6.144   6.402   3.600
 4202SOL     OW13504   4.506   5.441   5.513
 4202SOL    HW113505   4.597   5.467   5.482
 4202SOL    HW213506   4.443   5.445   5.435
 4203SOL     OW13507   4.872   5.399   0.496
 4203SOL    HW113508   4.922   5.320   0.461
 4203SOL    HW213509   4.825   5.445   0.420
 4204SOL     OW13510   4.002   3.140   2.329
 4204SOL    HW113511   4.062   3.218   2.344
 4204SOL    HW213512   3.978   3.098   2.417
 4205SOL     OW13513   3.536   5.133   3.518
 4205SOL    HW113514   3.635   5.146   3.506
 4205SOL    HW213515   3.498   5.090   3.437
 4206SOL     OW13516   6.040   0.638   5.478
 4206SOL    HW113517   6.113   0.694   5.517
 4206SOL    HW213518   6.054   0.628   5.379
 4207SOL     OW13519   1.903   1.651   1.777
 4207SOL    HW113520   1.979   1.629   1.717
 4207SOL    HW213521   1.819   1.609   1.741
 4208SOL     OW13522   0.964   3.520   6.809
 4208SOL    HW113523   0.908   3.442   6.783
 4208SOL    HW213524   0.920   3.569   6.884
 4209SOL     OW13525   0.361   1.134   5.858
 4209SOL    HW113526   0.454   1.150   5.824
 4209SOL    HW213527   0.343   1.036   5.863
 4210SOL     OW13528   3.228   3.378   2.066
 4210SOL    HW113529   3.240   3.279   2.065
 4210SOL    HW213530   3.163   3.403   2.138
 4211SOL     OW13531   3.997   5.187   5.504
 4211SOL    HW113532   4.015   5.110   5.441
 4211SOL    HW213533   4.015   5.158   5.598
 4212SOL     OW13534   6.030   2.845   2.418
 4212SOL    HW113535   6.007   2.752   2.390
 4212SOL    HW213536   6.104   2.843   2.485
 4213SOL     OW13537   2.614   0.960   2.205
 4213SOL    HW113538   2.600   0.905   2.287
 4213SOL    HW213539   2.638   1.054   2.230
 4214SOL     OW13540   1.329   3.894   5.276
 4214SOL    HW113541   1.414   3.901   5.224
 4214SOL    HW213542   1.271   3.973   5.255
 4215SOL     OW13543   6.790   6.151   4.630
 4215SOL    HW113544   6.728   6.154   4.552
 4215SOL    HW213545   6.876   6.106   4.603
 4216SOL     OW13546   1.162   1.448   3.118
 4216SOL    HW113547   1.139   1.530   3.169
 4216SOL    HW213548   1.192   1.473   3.025
 4217SOL     OW13549   6.779   0.261   2.540
 4217SOL    HW113550   6.682   0.245   2.517
 4217SOL    HW213551   6.804   0.205   2.619
 4218SOL     OW13552   5.055   0.759   1.596
 4218SOL    HW113553   5.126   0.794   1.534
 4218SOL    HW213554   5.080   0.667   1.626
 4219SOL     OW13555   2.659   5.053   3.453
 4219SOL    HW113556   2.717   5.064   3.372
 4219SOL    HW213557   2.586   4.988   3.432
 4220SOL     OW13558   5.411   2.813   3.677
 4220SOL    HW113559   5.403   2.844   3.582
 4220SOL    HW213560   5.322   2.784   3.711
 4221SOL     OW13561   6.131   5.675   6.723
 4221SOL    HW113562   6.066   5.610   6.762
 4221SOL    HW213563   6.081   5.749   6.677
 4222SOL     OW13564   6.168   2.542   2.941
 4222SOL    HW113565   6.195   2.565   2.848
 4222SOL    HW213566   6.235   2.481   2.982
 4223SOL     OW13567   3.347   3.450   5.385
 4223SOL    HW113568   3.249   3.472   5.391
 4223SOL    HW213569   3.358   3.356   5.354
 4224SOL     OW13570   4.833   3.065   3.305
 4224SOL    HW113571   4.772   2.985   3.309
 4224SOL    HW213572   4.891   3.066   3.387
 4225SOL     OW13573   4.488   0.837   5.619
 4225SOL    HW113574   4.467   0.746   5.583
 4225SOL    HW213575   4.576   0.868   5.582
 4226SOL     OW13576   0.617   0.393   3.077
 4226SOL    HW113577   0.545   0.326   3.059
 4226SOL    HW213578   0.585   0.484   3.054
 4227SOL     OW13579   3.510   5.121   6.644
 4227SOL    HW113580   3.471   5.048   6.588
 4227SOL    HW213581   3.537   5.197   6.586
 4228SOL     OW13582   0.825   3.911   3.753
 4228SOL    HW113583   0.914   3.866   3.740
 4228SOL    HW213584   0.770   3.901   3.670
 4229SOL     OW13585   4.958   5.530   5.613
 4229SOL    HW113586   4.898   5.596   5.659
 4229SOL    HW213587   4.901   5.461   5.567
 4230SOL     OW13588   2.272   0.572   4.325
 4230SOL    HW113589   2.242   0.657   4.369
 4230SOL    HW213590   2.223   0.560   4.238
 4231SOL     OW13591   5.407   6.099   4.873
 4231SOL    HW113592   5.478   6.029   4.869
 4231SOL    HW213593   5.434   6.178   4.819
 4232SOL     OW13594   0.152   4.420   1.534
 4232SOL    HW113595   0.061   4.442   1.500
 4232SOL    HW213596   0.198   4.359   1.470
 4233SOL     OW13597   6.587   0.617   6.825
 4233SOL    HW113598   6.502   0.655   6.790
 4233SOL    HW213599   6.664   0.675   6.797
 4234SOL     OW13600   1.384   6.913   5.735
 4234SOL    HW113601   1.468   6.893   5.784
 4234SOL    HW213602   1.307   6.869   5.780
 4235SOL     OW13603   5.357   4.058   5.367
 4235SOL    HW113604   5.273   4.080   5.317
 4235SOL    HW213605   5.356   3.961   5.392
 4236SOL     OW13606   0.133   3.617   2.938
 4236SOL    HW113607   0.202   3.571   2.993
 4236SOL    HW213608   0.048   3.565   2.940
 4237SOL     OW13609   6.429   5.306   3.589
 4237SOL    HW113610   6.507   5.271   3.536
 4237SOL    HW213611   6.387   5.381   3.539
 4238SOL     OW13612   3.535   4.917   2.931
 4238SOL    HW113613   3.613   4.881   2.982
 4238SOL    HW213614   3.552   5.012   2.905
 4239SOL     OW13615   5.679   1.289   4.014
 4239SOL    HW113616   5.743   1.353   4.055
 4239SOL    HW213617   5.598   1.280   4.072
 4240SOL     OW13618   2.149   6.819   0.125
 4240SOL    HW113619   2.215   6.766   0.071
 4240SOL    HW213620   2.192   6.904   0.155
 4241SOL     OW13621   5.888   1.167   1.065
 4241SOL    HW113622   5.874   1.242   1.000
 4241SOL    HW213623   5.886   1.080   1.017
 4242SOL     OW13624   1.967   0.503   3.508
 4242SOL    HW113625   1.951   0.421   3.563
 4242SOL    HW213626   2.053   0.546   3.536
 4243SOL     OW13627   0.766   3.852   4.033
 4243SOL    HW113628   0.682   3.799   4.037
 4243SOL    HW213629   0.786   3.876   3.938
 4244SOL     OW13630   5.183   5.095   1.062
 4244SOL    HW113631   5.112   5.163   1.081
 4244SOL    HW213632   5.230   5.120   0.977
 4245SOL     OW13633   6.281   1.075   6.209
 4245SOL    HW113634   6.200   1.115   6.166
 4245SOL    HW213635   6.253   1.017   6.286
 4246SOL     OW13636   5.683   2.849   3.650
 4246SOL    HW113637   5.672   2.879   3.556
 4246SOL    HW213638   5.595   2.818   3.686
 4247SOL     OW13639   2.026   5.005   3.306
 4247SOL    HW113640   1.930   5.026   3.325
 4247SOL    HW213641   2.082   5.030   3.385
 4248SOL     OW13642   1.635   1.083   3.383
 4248SOL    HW113643   1.541   1.059   3.359
 4248SOL    HW213644   1.667   1.156   3.323
 4249SOL     OW13645   5.292   1.738   3.377
 4249SOL    HW113646   5.229   1.797   3.326
 4249SOL    HW213647   5.240   1.673   3.432
 4250SOL     OW13648   6.164   6.088   4.551
 4250SOL    HW113649   6.171   5.993   4.521
 4250SOL    HW213650   6.256   6.127   4.558
 4251SOL     OW13651   6.476   3.060   1.262
 4251SOL    HW113652   6.526   3.054   1.349
 4251SOL    HW213653   6.424   2.975   1.248
 4252SOL     OW13654   5.105   5.975   6.197
 4252SOL    HW113655   5.194   6.016   6.214
 4252SOL    HW213656   5.040   6.006   6.267
 4253SOL     OW13657   3.484   6.705   1.603
 4253SOL    HW113658   3.447   6.700   1.696
 4253SOL    HW213659   3.579   6.735   1.606
 4254SOL     OW13660   2.278   4.002   1.911
 4254SOL    HW113661   2.311   4.097   1.913
 4254SOL    HW213662   2.236   3.979   1.999
 4255SOL     OW13663   6.890   4.233   3.985
 4255SOL    HW113664   6.896   4.242   4.084
 4255SOL    HW213665   6.981   4.212   3.948
 4256SOL     OW13666   0.946   5.958   0.922
 4256SOL    HW113667   1.035   5.993   0.952
 4256SOL    HW213668   0.959   5.901   0.841
 4257SOL     OW13669   4.145   1.486   4.389
 4257SOL    HW113670   4.108   1.554   4.326
 4257SOL    HW213671   4.228   1.521   4.432
 4258SOL     OW13672   3.225   6.022   1.066
 4258SOL    HW113673   3.202   6.088   1.137
 4258SOL    HW213674   3.148   5.958   1.053
 4259SOL     OW13675   1.613   6.145   0.776
 4259SOL    HW113676   1.517   6.171   0.789
 4259SOL    HW213677   1.650   6.192   0.695
 4260SOL     OW13678   5.747   0.823   3.212
 4260SOL    HW113679   5.747   0.896   3.143
 4260SOL    HW213680   5.711   0.858   3.298
 4261SOL     OW13681   1.764   0.636   2.918
 4261SOL    HW113682   1.744   0.730   2.893
 4261SOL    HW213683   1.796   0.633   3.013
 4262SOL     OW13684   1.188   4.078   6.262
 4262SOL    HW113685   1.109   4.078   6.324
 4262SOL    HW213686   1.161   4.118   6.174
 4263SOL     OW13687   2.445   0.637   3.486
 4263SOL    HW113688   2.513   0.565   3.502
 4263SOL    HW213689   2.461   0.677   3.395
 4264SOL     OW13690   6.591   1.955   4.624
 4264SOL    HW113691   6.565   1.939   4.529
 4264SOL    HW213692   6.518   2.005   4.670
 4265SOL     OW13693   3.695   0.929   0.982
 4265SOL    HW113694   3.674   1.024   0.962
 4265SOL    HW213695   3.614   0.873   0.967
 4266SOL     OW13696   2.003   6.489   6.280
 4266SOL    HW113697   1.904   6.477   6.290
 4266SOL    HW213698   2.044   6.403   6.250
 4267SOL     OW13699   2.167   3.962   4.452
 4267SOL    HW113700   2.227   4.025   4.402
 4267SOL    HW213701   2.150   3.882   4.394
 4268SOL     OW13702   1.597   5.551   6.680
 4268SOL    HW113703   1.608   5.503   6.767
 4268SOL    HW213704   1.650   5.505   6.609
 4269SOL     OW13705   2.913   0.315   3.393
 4269SOL    HW113706   2.916   0.319   3.492
 4269SOL    HW213707   2.833   0.264   3.363
 4270SOL     OW13708   3.477   2.960   2.298
 4270SOL    HW113709   3.380   2.963   2.322
 4270SOL    HW213710   3.531   2.933   2.377
 4271SOL     OW13711   0.276   0.731   0.449
 4271SOL    HW113712   0.238   0.689   0.532
 4271SOL    HW213713   0.374   0.710   0.444
 4272SOL     OW13714   6.919   2.669   4.761
 4272SOL    HW113715   6.920   2.611   4.679
 4272SOL    HW213716   6.995   2.734   4.757
 4273SOL     OW13717   4.886   6.378   4.561
 4273SOL    HW113718   4.788   6.368   4.581
 4273SOL    HW213719   4.917   6.302   4.504
 4274SOL     OW13720   1.323   0.025   2.165
 4274SOL    HW113721   1.343   0.086   2.089
 4274SOL    HW213722   1.249   0.064   2.221
 4275SOL     OW13723   0.072   1.644   4.132
 4275SOL    HW113724   0.031   1.734   4.119
 4275SOL    HW213725   0.036   1.603   4.216
 4276SOL     OW13726   3.105   5.222   4.053
 4276SOL    HW113727   3.108   5.315   4.089
 4276SOL    HW213728   3.030   5.171   4.097
 4277SOL     OW13729   6.966   4.512   2.884
 4277SOL    HW113730   6.948   4.595   2.831
 4277SOL    HW213731   0.032   4.476   2.859
 4278SOL     OW13732   0.200   6.801   4.711
 4278SOL    HW113733   0.122   6.857   4.742
 4278SOL    HW213734   0.233   6.746   4.787
 4279SOL     OW13735   2.072   1.340   2.902
 4279SOL    HW113736   2.024   1.417   2.944
 4279SOL    HW213737   2.099   1.275   2.972
 4280SOL     OW13738   6.185   0.064   5.691
 4280SOL    HW113739   6.107   0.118   5.662
 4280SOL    HW213740   6.266   0.090   5.638
 4281SOL     OW13741   5.785   5.147   3.515
 4281SOL    HW113742   5.825   5.091   3.588
 4281SOL    HW213743   5.745   5.088   3.446
 4282SOL     OW13744   3.241   4.151   0.500
 4282SOL    HW113745   3.264   4.062   0.461
 4282SOL    HW213746   3.169   4.194   0.446
 4283SOL     OW13747   2.984   1.433   3.753
 4283SOL    HW113748   3.006   1.472   3.663
 4283SOL    HW213749   3.066   1.434   3.810
 4284SOL     OW13750   4.494   5.228   0.978
 4284SOL    HW113751   4.565   5.175   0.931
 4284SOL    HW213752   4.497   5.322   0.946
 4285SOL     OW13753   2.472   1.256   5.845
 4285SOL    HW113754   2.410   1.195   5.893
 4285SOL    HW213755   2.541   1.203   5.797
 4286SOL     OW13756   5.696   6.720   5.737
 4286SOL    HW113757   5.610   6.730   5.685
 4286SOL    HW213758   5.684   6.759   5.828
 4287SOL     OW13759   4.674   0.990   5.817
 4287SOL    HW113760   4.583   0.949   5.809
 4287SOL    HW213761   4.698   0.998   5.914
 4288SOL     OW13762   0.855   5.392   3.543
 4288SOL    HW113763   0.786   5.461   3.520
 4288SOL    HW213764   0.918   5.429   3.610
 4289SOL     OW13765   0.645   2.227   5.911
 4289SOL    HW113766   0.705   2.179   5.975
 4289SOL    HW213767   0.675   2.207   5.817
 4290SOL     OW13768   0.971   6.388   4.976
 4290SOL    HW113769   0.891   6.392   5.036
 4290SOL    HW213770   0.979   6.474   4.926
 4291SOL     OW13771   4.987   3.701   6.553
 4291SOL    HW113772   5.018   3.794   6.569
 4291SOL    HW213773   4.901   3.702   6.501
 4292SOL     OW13774   6.271   2.784   0.466
 4292SOL    HW113775   6.345   2.746   0.411
 4292SOL    HW213776   6.297   2.781   0.563
 4293SOL     OW13777   3.832   4.727   0.183
 4293SOL    HW113778   3.782   4.800   0.135
 4293SOL    HW213779   3.767   4.672   0.236
 4294SOL     OW13780   1.881   0.937   6.101
 4294SOL    HW113781   1.943   0.961   6.027
 4294SOL    HW213782   1.882   1.009   6.171
 4295SOL     OW13783   5.491   5.804   4.188
 4295SOL    HW113784   5.450   5.713   4.176
 4295SOL    HW213785   5.558   5.821   4.116
 4296SOL     OW13786   3.204   6.803   6.922
 4296SOL    HW113787   3.279   6.743   6.894
 4296SOL    HW213788   3.209   6.818   7.020
 4297SOL     OW13789   6.134   0.194   2.085
 4297SOL    HW113790   6.120   0.188   1.987
 4297SOL    HW213791   6.178   0.110   2.118
 4298SOL     OW13792   3.504   5.935   1.439
 4298SOL    HW113793   3.448   5.881   1.377
 4298SOL    HW213794   3.496   5.898   1.532
 4299SOL     OW13795   1.388   2.745   0.062
 4299SOL    HW113796   1.372   2.791   6.999
 4299SOL    HW213797   1.327   2.667   0.070
 4300SOL     OW13798   2.705   6.763   0.169
 4300SOL    HW113799   2.768   6.736   0.242
 4300SOL    HW213800   2.727   6.712   0.085
 4301SOL     OW13801   4.336   0.051   1.693
 4301SOL    HW113802   4.414   0.111   1.672
 4301SOL    HW213803   4.364   7.007   1.760
 4302SOL     OW13804   6.593   0.437   6.137
 4302SOL    HW113805   6.517   0.462   6.196
 4302SOL    HW213806   6.632   0.519   6.095
 4303SOL     OW13807   0.200   4.515   4.225
 4303SOL    HW113808   0.299   4.513   4.211
 4303SOL    HW213809   0.180   4.563   4.310
 4304SOL     OW13810   3.306   3.599   2.419
 4304SOL    HW113811   3.402   3.582   2.441
 4304SOL    HW213812   3.300   3.654   2.336
 4305SOL     OW13813   0.621   6.931   5.764
 4305SOL    HW113814   0.580   6.846   5.796
 4305SOL    HW213815   0.721   6.920   5.757
 4306SOL     OW13816   4.789   4.612   4.404
 4306SOL    HW113817   4.800   4.578   4.311
 4306SOL    HW213818   4.719   4.557   4.451
 4307SOL     OW13819   5.840   3.449   5.331
 4307SOL    HW113820   5.896   3.529   5.353
 4307SOL    HW213821   5.899   3.373   5.303
 4308SOL     OW13822   6.222   5.679   1.131
 4308SOL    HW113823   6.192   5.656   1.223
 4308SOL    HW213824   6.316   5.711   1.133
 4309SOL     OW13825   1.031   1.075   0.714
 4309SOL    HW113826   1.072   1.000   0.766
 4309SOL    HW213827   0.934   1.083   0.739
 4310SOL     OW13828   1.775   2.543   1.555
 4310SOL    HW113829   1.742   2.633   1.527
 4310SOL    HW213830   1.784   2.540   1.655
 4311SOL     OW13831   0.163   5.887   2.617
 4311SOL    HW113832   0.082   5.931   2.578
 4311SOL    HW213833   0.209   5.951   2.679
 4312SOL     OW13834   1.485   5.573   2.826
 4312SOL    HW113835   1.402   5.522   2.846
 4312SOL    HW213836   1.541   5.521   2.760
 4313SOL     OW13837   4.523   1.925   0.412
 4313SOL    HW113838   4.455   1.854   0.400
 4313SOL    HW213839   4.539   1.941   0.509
 4314SOL     OW13840   5.989   1.621   5.400
 4314SOL    HW113841   5.992   1.523   5.417
 4314SOL    HW213842   6.029   1.671   5.477
 4315SOL     OW13843   2.399   6.947   3.570
 4315SOL    HW113844   2.330   6.894   3.520
 4315SOL    HW213845   2.482   6.952   3.515
 4316SOL     OW13846   4.366   0.354   2.275
 4316SOL    HW113847   4.366   0.417   2.352
 4316SOL    HW213848   4.378   0.405   2.190
 4317SOL     OW13849   5.258   1.427   5.792
 4317SOL    HW113850   5.209   1.477   5.719
 4317SOL    HW213851   5.192   1.377   5.847
 4318SOL     OW13852   1.290   1.754   5.081
 4318SOL    HW113853   1.322   1.814   5.154
 4318SOL    HW213854   1.291   1.805   4.994
 4319SOL     OW13855   1.785   1.848   1.017
 4319SOL    HW113856   1.742   1.867   1.105
 4319SOL    HW213857   1.764   1.922   0.953
 4320SOL     OW13858   3.794   5.480   0.759
 4320SOL    HW113859   3.780   5.460   0.662
 4320SOL    HW213860   3.872   5.428   0.793
 4321SOL     OW13861   0.076   4.589   4.471
 4321SOL    HW113862   0.051   4.592   4.568
 4321SOL    HW213863   7.018   4.574   4.416
 4322SOL     OW13864   6.504   3.278   6.638
 4322SOL    HW113865   6.408   3.307   6.649
 4322SOL    HW213866   6.536   3.239   6.724
 4323SOL     OW13867   5.211   4.610   6.910
 4323SOL    HW113868   5.292   4.563   6.944
 4323SOL    HW213869   5.207   4.601   6.810
 4324SOL     OW13870   6.237   4.373   6.302
 4324SOL    HW113871   6.288   4.291   6.327
 4324SOL    HW213872   6.158   4.346   6.245
 4325SOL     OW13873   2.852   1.774   2.069
 4325SOL    HW113874   2.921   1.706   2.094
 4325SOL    HW213875   2.894   1.843   2.011
 4326SOL     OW13876   5.240   4.597   2.100
 4326SOL    HW113877   5.200   4.514   2.139
 4326SOL    HW213878   5.206   4.609   2.007
 4327SOL     OW13879   4.899   6.188   2.479
 4327SOL    HW113880   4.891   6.266   2.417
 4327SOL    HW213881   4.989   6.145   2.468
 4328SOL     OW13882   5.866   4.633   5.480
 4328SOL    HW113883   5.951   4.684   5.466
 4328SOL    HW213884   5.819   4.668   5.561
 4329SOL     OW13885   5.285   3.037   5.187
 4329SOL    HW113886   5.249   2.944   5.177
 4329SOL    HW213887   5.345   3.058   5.110
 4330SOL     OW13888   2.277   6.038   4.301
 4330SOL    HW113889   2.372   6.039   4.271
 4330SOL    HW213890   2.273   6.035   4.401
 4331SOL     OW13891   5.610   0.629   1.532
 4331SOL    HW113892   5.512   0.614   1.548
 4331SOL    HW213893   5.625   0.724   1.504
 4332SOL     OW13894   5.984   2.967   2.771
 4332SOL    HW113895   5.944   3.054   2.742
 4332SOL    HW213896   5.944   2.940   2.859
 4333SOL     OW13897   4.497   1.634   5.114
 4333SOL    HW113898   4.421   1.579   5.081
 4333SOL    HW213899   4.473   1.675   5.202
 4334SOL     OW13900   1.967   2.737   2.101
 4334SOL    HW113901   2.032   2.675   2.145
 4334SOL    HW213902   2.011   2.781   2.022
 4335SOL     OW13903   3.615   3.108   2.118
 4335SOL    HW113904   3.662   3.165   2.184
 4335SOL    HW213905   3.548   3.051   2.165
 4336SOL     OW13906   2.664   5.789   5.497
 4336SOL    HW113907   2.639   5.853   5.425
 4336SOL    HW213908   2.666   5.836   5.585
 4337SOL     OW13909   2.514   4.773   1.779
 4337SOL    HW113910   2.459   4.814   1.707
 4337SOL    HW213911   2.607   4.757   1.745
 4338SOL     OW13912   6.306   6.954   5.925
 4338SOL    HW113913   6.276   7.018   5.854
 4338SOL    HW213914   6.279   6.861   5.900
 4339SOL     OW13915   3.991   2.745   6.639
 4339SOL    HW113916   3.908   2.768   6.691
 4339SOL    HW213917   4.071   2.770   6.693
 4340SOL     OW13918   6.253   3.709   1.583
 4340SOL    HW113919   6.343   3.665   1.577
 4340SOL    HW213920   6.261   3.793   1.637
 4341SOL     OW13921   1.518   5.620   0.884
 4341SOL    HW113922   1.563   5.685   0.823
 4341SOL    HW213923   1.556   5.629   0.976
 4342SOL     OW13924   5.369   3.871   3.188
 4342SOL    HW113925   5.286   3.914   3.152
 4342SOL    HW213926   5.364   3.772   3.174
 4343SOL     OW13927   3.291   5.828   4.472
 4343SOL    HW113928   3.309   5.754   4.537
 4343SOL    HW213929   3.242   5.902   4.519
 4344SOL     OW13930   1.124   3.481   3.032
 4344SOL    HW113931   1.099   3.575   3.051
 4344SOL    HW213932   1.148   3.471   2.935
 4345SOL     OW13933   3.435   4.121   4.757
 4345SOL    HW113934   3.412   4.109   4.660
 4345SOL    HW213935   3.352   4.139   4.810
 4346SOL     OW13936   2.150   2.716   2.969
 4346SOL    HW113937   2.128   2.768   3.052
 4346SOL    HW213938   2.115   2.765   2.889
 4347SOL     OW13939   5.636   6.325   2.931
 4347SOL    HW113940   5.578   6.273   2.994
 4347SOL    HW213941   5.614   6.300   2.837
 4348SOL     OW13942   0.249   5.947   4.238
 4348SOL    HW113943   0.339   5.920   4.270
 4348SOL    HW213944   0.243   5.933   4.139
 4349SOL     OW13945   6.403   2.082   3.377
 4349SOL    HW113946   6.328   2.137   3.341
 4349SOL    HW213947   6.377   1.985   3.375
 4350SOL     OW13948   4.010   1.895   4.030
 4350SOL    HW113949   3.925   1.876   3.982
 4350SOL    HW213950   4.053   1.977   3.991
 4351SOL     OW13951   1.231   6.094   1.324
 4351SOL    HW113952   1.174   6.014   1.339
 4351SOL    HW213953   1.257   6.133   1.413
 4352SOL     OW13954   6.235   4.391   1.949
 4352SOL    HW113955   6.225   4.474   2.003
 4352SOL    HW213956   6.145   4.362   1.915
 4353SOL     OW13957   3.739   3.398   0.009
 4353SOL    HW113958   3.796   3.475   0.039
 4353SOL    HW213959   3.715   3.410   6.938
 4354SOL     OW13960   1.902   1.165   6.264
 4354SOL    HW113961   1.898   1.247   6.206
 4354SOL    HW213962   1.942   1.189   6.353
 4355SOL     OW13963   2.117   0.380   2.536
 4355SOL    HW113964   2.062   0.437   2.597
 4355SOL    HW213965   2.057   0.316   2.488
 4356SOL     OW13966   4.733   3.295   5.936
 4356SOL    HW113967   4.801   3.238   5.982
 4356SOL    HW213968   4.764   3.390   5.938
 4357SOL     OW13969   6.926   1.217   1.294
 4357SOL    HW113970   6.907   1.299   1.240
 4357SOL    HW213971   6.959   1.244   1.384
 4358SOL     OW13972   6.740   0.774   0.745
 4358SOL    HW113973   6.710   0.683   0.716
 4358SOL    HW213974   6.798   0.766   0.826
 4359SOL     OW13975   1.273   1.116   6.989
 4359SOL    HW113976   1.180   1.086   7.010
 4359SOL    HW213977   1.338   1.061   0.017
 4360SOL     OW13978   0.299   3.546   4.318
 4360SOL    HW113979   0.322   3.470   4.257
 4360SOL    HW213980   0.312   3.633   4.270
 4361SOL     OW13981   2.021   4.125   1.379
 4361SOL    HW113982   2.082   4.059   1.335
 4361SOL    HW213983   1.991   4.193   1.312
 4362SOL     OW13984   6.857   5.856   4.195
 4362SOL    HW113985   6.838   5.915   4.117
 4362SOL    HW213986   6.895   5.910   4.269
 4363SOL     OW13987   4.776   1.163   1.283
 4363SOL    HW113988   4.747   1.259   1.272
 4363SOL    HW213989   4.860   1.160   1.337
 4364SOL     OW13990   3.216   3.833   3.368
 4364SOL    HW113991   3.299   3.777   3.375
 4364SOL    HW213992   3.218   3.884   3.283
 4365SOL     OW13993   2.826   0.549   2.587
 4365SOL    HW113994   2.923   0.540   2.608
 4365SOL    HW213995   2.814   0.616   2.514
 4366SOL     OW13996   5.889   6.475   6.558
 4366SOL    HW113997   5.971   6.531   6.542
 4366SOL    HW213998   5.808   6.533   6.550
 4367SOL     OW13999   2.462   4.861   3.490
 4367SOL    HW114000   2.405   4.859   3.572
 4367SOL    HW214001   2.413   4.820   3.414
 4368SOL     OW14002   3.652   5.582   1.820
 4368SOL    HW114003   3.644   5.669   1.869
 4368SOL    HW214004   3.721   5.591   1.748
 4369SOL     OW14005   4.835   5.315   3.163
 4369SOL    HW114006   4.817   5.243   3.230
 4369SOL    HW214007   4.753   5.330   3.108
 4370SOL     OW14008   3.671   4.480   1.414
 4370SOL    HW114009   3.711   4.507   1.326
 4370SOL    HW214010   3.697   4.546   1.484
 4371SOL     OW14011   2.117   2.011   2.898
 4371SOL    HW114012   2.158   2.010   2.989
 4371SOL    HW214013   2.048   2.083   2.893
 4372SOL     OW14014   2.309   2.842   4.524
 4372SOL    HW114015   2.259   2.903   4.463
 4372SOL    HW214016   2.310   2.879   4.616
 4373SOL     OW14017   4.386   0.992   6.980
 4373SOL    HW114018   4.418   0.996   6.885
 4373SOL    HW214019   4.308   1.052   6.992
 4374SOL     OW14020   1.670   1.619   1.641
 4374SOL    HW114021   1.585   1.673   1.636
 4374SOL    HW214022   1.647   1.522   1.650
 4375SOL     OW14023   4.119   5.913   2.952
 4375SOL    HW114024   4.057   5.890   3.027
 4375SOL    HW214025   4.127   5.834   2.891
 4376SOL     OW14026   6.146   0.453   2.438
 4376SOL    HW114027   6.175   0.546   2.462
 4376SOL    HW214028   6.144   0.444   2.339
 4377SOL     OW14029   5.764   5.498   0.076
 4377SOL    HW114030   5.756   5.578   0.134
 4377SOL    HW214031   5.763   5.415   0.132
 4378SOL     OW14032   1.758   3.716   2.692
 4378SOL    HW114033   1.756   3.731   2.791
 4378SOL    HW214034   1.752   3.618   2.673
 4379SOL     OW14035   2.153   1.838   2.166
 4379SOL    HW114036   2.152   1.868   2.262
 4379SOL    HW214037   2.059   1.821   2.136
 4380SOL     OW14038   1.686   6.198   3.955
 4380SOL    HW114039   1.737   6.174   3.872
 4380SOL    HW214040   1.739   6.265   4.008
 4381SOL     OW14041   2.194   4.204   4.833
 4381SOL    HW114042   2.260   4.247   4.772
 4381SOL    HW214043   2.237   4.127   4.881
 4382SOL     OW14044   6.224   3.077   6.212
 4382SOL    HW114045   6.190   3.129   6.290
 4382SOL    HW214046   6.151   3.017   6.179
 4383SOL     OW14047   0.510   2.905   5.701
 4383SOL    HW114048   0.591   2.867   5.746
 4383SOL    HW214049   0.469   2.974   5.760
 4384SOL     OW14050   5.737   1.081   6.258
 4384SOL    HW114051   5.748   1.103   6.355
 4384SOL    HW214052   5.676   1.148   6.215
 4385SOL     OW14053   6.801   2.216   4.714
 4385SOL    HW114054   6.746   2.143   4.756
 4385SOL    HW214055   6.880   2.236   4.772
 4386SOL     OW14056   1.654   3.613   6.405
 4386SOL    HW114057   1.615   3.598   6.314
 4386SOL    HW214058   1.597   3.569   6.474
 4387SOL     OW14059   1.096   1.373   1.413
 4387SOL    HW114060   1.038   1.445   1.375
 4387SOL    HW214061   1.186   1.377   1.370
 4388SOL     OW14062   4.665   1.082   6.281
 4388SOL    HW114063   4.623   0.992   6.280
 4388SOL    HW214064   4.644   1.130   6.195
 4389SOL     OW14065   5.492   1.844   0.502
 4389SOL    HW114066   5.418   1.831   0.436
 4389SOL    HW214067   5.580   1.827   0.457
 4390SOL     OW14068   4.332   1.696   2.208
 4390SOL    HW114069   4.377   1.708   2.297
 4390SOL    HW214070   4.354   1.773   2.149
 4391SOL     OW14071   1.707   5.863   6.001
 4391SOL    HW114072   1.735   5.867   5.905
 4391SOL    HW214073   1.736   5.776   6.041
 4392SOL     OW14074   6.492   3.615   5.167
 4392SOL    HW114075   6.469   3.711   5.148
 4392SOL    HW214076   6.463   3.592   5.260
 4393SOL     OW14077   5.428   6.500   3.287
 4393SOL    HW114078   5.394   6.574   3.345
 4393SOL    HW214079   5.504   6.454   3.332
 4394SOL     OW14080   6.387   5.588   2.756
 4394SOL    HW114081   6.462   5.644   2.720
 4394SOL    HW214082   6.337   5.641   2.825
 4395SOL     OW14083   3.664   1.168   1.829
 4395SOL    HW114084   3.651   1.188   1.732
 4395SOL    HW214085   3.744   1.109   1.841
 4396SOL     OW14086   2.417   2.084   4.317
 4396SOL    HW114087   2.500   2.137   4.302
 4396SOL    HW214088   2.350   2.106   4.247
 4397SOL     OW14089   0.577   1.765   5.007
 4397SOL    HW114090   0.660   1.710   4.996
 4397SOL    HW214091   0.497   1.714   4.976
 4398SOL     OW14092   1.261   4.645   4.767
 4398SOL    HW114093   1.283   4.559   4.814
 4398SOL    HW214094   1.218   4.624   4.679
 4399SOL     OW14095   1.549   0.855   1.980
 4399SOL    HW114096   1.534   0.954   1.985
 4399SOL    HW214097   1.477   0.808   2.031
 4400SOL     OW14098   2.420   0.127   5.118
 4400SOL    HW114099   2.401   0.134   5.020
 4400SOL    HW214100   2.417   0.218   5.159
 4401SOL     OW14101   5.154   6.915   0.050
 4401SOL    HW114102   5.253   6.909   0.037
 4401SOL    HW214103   5.122   7.006   0.023
 4402SOL     OW14104   1.869   6.698   1.975
 4402SOL    HW114105   1.881   6.672   1.880
 4402SOL    HW214106   1.801   6.771   1.981
 4403SOL     OW14107   0.326   7.013   3.829
 4403SOL    HW114108   0.301   0.085   3.823
 4403SOL    HW214109   0.247   6.957   3.804
 4404SOL     OW14110   0.918   4.361   5.542
 4404SOL    HW114111   0.862   4.289   5.584
 4404SOL    HW214112   1.015   4.339   5.556
 4405SOL     OW14113   2.959   4.056   0.551
 4405SOL    HW114114   3.027   4.114   0.596
 4405SOL    HW214115   2.886   4.114   0.513
 4406SOL     OW14116   6.571   4.607   1.489
 4406SOL    HW114117   6.608   4.700   1.477
 4406SOL    HW214118   6.535   4.598   1.582
 4407SOL     OW14119   0.302   4.169   0.546
 4407SOL    HW114120   0.382   4.210   0.591
 4407SOL    HW214121   0.321   4.073   0.526
 4408SOL     OW14122   4.321   1.280   1.071
 4408SOL    HW114123   4.393   1.213   1.088
 4408SOL    HW214124   4.302   1.330   1.155
 4409SOL     OW14125   4.242   0.204   1.949
 4409SOL    HW114126   4.292   0.286   1.976
 4409SOL    HW214127   4.287   0.162   1.870
 4410SOL     OW14128   1.715   5.477   0.494
 4410SOL    HW114129   1.791   5.481   0.559
 4410SOL    HW214130   1.656   5.400   0.517
 4411SOL     OW14131   3.666   3.166   3.971
 4411SOL    HW114132   3.752   3.186   4.018
 4411SOL    HW214133   3.593   3.157   4.038
 4412SOL     OW14134   3.301   1.133   4.993
 4412SOL    HW114135   3.277   1.065   4.924
 4412SOL    HW214136   3.395   1.118   5.023
 4413SOL     OW14137   4.868   5.502   4.663
 4413SOL    HW114138   4.953   5.450   4.672
 4413SOL    HW214139   4.813   5.462   4.589
 4414SOL     OW14140   3.937   4.964   1.783
 4414SOL    HW114141   3.998   4.949   1.861
 4414SOL    HW214142   3.962   5.048   1.736
 4415SOL     OW14143   4.384   3.572   6.135
 4415SOL    HW114144   4.479   3.606   6.135
 4415SOL    HW214145   4.332   3.619   6.063
 4416SOL     OW14146   2.844   0.470   4.049
 4416SOL    HW114147   2.792   0.555   4.061
 4416SOL    HW214148   2.902   0.477   3.968
 4417SOL     OW14149   6.080   4.007   3.212
 4417SOL    HW114150   6.044   3.917   3.186
 4417SOL    HW214151   6.021   4.048   3.281
 4418SOL     OW14152   5.231   0.683   3.236
 4418SOL    HW114153   5.139   0.643   3.234
 4418SOL    HW214154   5.283   0.643   3.311
 4419SOL     OW14155   5.271   6.218   0.648
 4419SOL    HW114156   5.214   6.300   0.647
 4419SOL    HW214157   5.273   6.180   0.740
 4420SOL     OW14158   5.398   1.636   1.566
 4420SOL    HW114159   5.338   1.680   1.633
 4420SOL    HW214160   5.489   1.678   1.570
 4421SOL     OW14161   2.251   1.236   3.602
 4421SOL    HW114162   2.284   1.322   3.564
 4421SOL    HW214163   2.295   1.160   3.556
 4422SOL     OW14164   2.341   3.918   5.847
 4422SOL    HW114165   2.318   4.004   5.891
 4422SOL    HW214166   2.405   3.935   5.771
 4423SOL     OW14167   1.234   2.712   5.395
 4423SOL    HW114168   1.273   2.803   5.406
 4423SOL    HW214169   1.290   2.660   5.330
 4424SOL     OW14170   4.828   0.356   4.123
 4424SOL    HW114171   4.881   0.433   4.088
 4424SOL    HW214172   4.884   0.306   4.189
 4425SOL     OW14173   3.773   5.746   6.082
 4425SOL    HW114174   3.726   5.802   6.013
 4425SOL    HW214175   3.870   5.741   6.059
 4426SOL     OW14176   0.092   1.965   4.342
 4426SOL    HW114177   7.022   1.995   4.323
 4426SOL    HW214178   0.100   1.944   4.440
 4427SOL     OW14179   6.718   6.749   3.098
 4427SOL    HW114180   6.680   6.833   3.060
 4427SOL    HW214181   6.744   6.764   3.193
 4428SOL     OW14182   3.429   5.422   2.103
 4428SOL    HW114183   3.511   5.479   2.109
 4428SOL    HW214184   3.454   5.326   2.101
 4429SOL     OW14185   2.828   0.344   3.058
 4429SOL    HW114186   2.740   0.300   3.072
 4429SOL    HW214187   2.816   0.443   3.050
 4430SOL     OW14188   5.215   3.334   5.219
 4430SOL    HW114189   5.254   3.243   5.201
 4430SOL    HW214190   5.150   3.357   5.147
 4431SOL     OW14191   1.375   0.687   2.124
 4431SOL    HW114192   1.431   0.698   2.206
 4431SOL    HW214193   1.288   0.644   2.148
 4432SOL     OW14194   3.539   4.156   3.932
 4432SOL    HW114195   3.488   4.130   3.849
 4432SOL    HW214196   3.497   4.238   3.972
 4433SOL     OW14197   5.647   0.354   4.768
 4433SOL    HW114198   5.698   0.303   4.699
 4433SOL    HW214199   5.659   0.452   4.754
 4434SOL     OW14200   3.523   1.899   3.497
 4434SOL    HW114201   3.473   1.925   3.414
 4434SOL    HW214202   3.469   1.925   3.577
 4435SOL     OW14203   4.144   3.939   1.050
 4435SOL    HW114204   4.104   4.014   1.103
 4435SOL    HW214205   4.191   3.876   1.113
 4436SOL     OW14206   4.144   1.532   0.866
 4436SOL    HW114207   4.100   1.502   0.782
 4436SOL    HW214208   4.088   1.505   0.945
 4437SOL     OW14209   5.258   1.321   3.880
 4437SOL    HW114210   5.263   1.396   3.945
 4437SOL    HW214211   5.163   1.305   3.854
 4438SOL     OW14212   4.823   1.079   0.262
 4438SOL    HW114213   4.790   0.991   0.296
 4438SOL    HW214214   4.799   1.090   0.166
 4439SOL     OW14215   0.599   6.388   1.600
 4439SOL    HW114216   0.564   6.408   1.692
 4439SOL    HW214217   0.585   6.292   1.580
 4440SOL     OW14218   1.879   4.890   0.932
 4440SOL    HW114219   1.951   4.852   0.874
 4440SOL    HW214220   1.909   4.978   0.969
 4441SOL     OW14221   6.554   1.666   2.840
 4441SOL    HW114222   6.538   1.673   2.741
 4441SOL    HW214223   6.466   1.665   2.888
 4442SOL     OW14224   2.843   5.747   5.141
 4442SOL    HW114225   2.773   5.817   5.154
 4442SOL    HW214226   2.905   5.775   5.069
 4443SOL     OW14227   6.847   2.873   1.102
 4443SOL    HW114228   6.814   2.968   1.102
 4443SOL    HW214229   6.947   2.872   1.098
 4444SOL     OW14230   4.369   5.474   6.067
 4444SOL    HW114231   4.460   5.434   6.054
 4444SOL    HW214232   4.372   5.571   6.044
 4445SOL     OW14233   6.736   0.464   1.033
 4445SOL    HW114234   6.808   0.408   1.074
 4445SOL    HW214235   6.772   0.555   1.015
 4446SOL     OW14236   6.358   1.904   1.780
 4446SOL    HW114237   6.410   1.965   1.720
 4446SOL    HW214238   6.321   1.957   1.857
 4447SOL     OW14239   5.802   3.302   6.186
 4447SOL    HW114240   5.741   3.292   6.107
 4447SOL    HW214241   5.804   3.216   6.237
 4448SOL     OW14242   3.298   4.084   0.787
 4448SOL    HW114243   3.289   3.986   0.804
 4448SOL    HW214244   3.275   4.104   0.692
 4449SOL     OW14245   4.568   0.823   6.260
 4449SOL    HW114246   4.637   0.807   6.331
 4449SOL    HW214247   4.512   0.741   6.249
 4450SOL     OW14248   4.135   3.517   4.213
 4450SOL    HW114249   4.156   3.599   4.266
 4450SOL    HW214250   4.092   3.449   4.273
 4451SOL     OW14251   5.983   4.119   3.512
 4451SOL    HW114252   6.067   4.173   3.516
 4451SOL    HW214253   5.937   4.123   3.601
 4452SOL     OW14254   5.383   6.764   4.343
 4452SOL    HW114255   5.417   6.672   4.362
 4452SOL    HW214256   5.460   6.823   4.318
 4453SOL     OW14257   6.844   2.730   1.491
 4453SOL    HW114258   6.855   2.803   1.558
 4453SOL    HW214259   6.747   2.722   1.466
 4454SOL     OW14260   6.069   2.266   6.925
 4454SOL    HW114261   6.010   2.326   6.980
 4454SOL    HW214262   6.083   2.180   6.974
 4455SOL     OW14263   3.809   0.345   6.485
 4455SOL    HW114264   3.780   0.268   6.428
 4455SOL    HW214265   3.879   0.315   6.549
 4456SOL     OW14266   2.672   5.381   2.366
 4456SOL    HW114267   2.737   5.444   2.324
 4456SOL    HW214268   2.598   5.362   2.301
 4457SOL     OW14269   4.602   2.654   0.488
 4457SOL    HW114270   4.546   2.573   0.506
 4457SOL    HW214271   4.569   2.730   0.545
 4458SOL     OW14272   1.362   3.971   6.975
 4458SOL    HW114273   1.392   4.067   6.980
 4458SOL    HW214274   1.331   3.950   6.882
 4459SOL     OW14275   4.435   0.689   3.795
 4459SOL    HW114276   4.394   0.614   3.743
 4459SOL    HW214277   4.520   0.657   3.837
 4460SOL     OW14278   2.732   3.046   5.315
 4460SOL    HW114279   2.658   3.022   5.251
 4460SOL    HW214280   2.810   3.082   5.263
 4461SOL     OW14281   1.253   0.436   2.415
 4461SOL    HW114282   1.323   0.505   2.432
 4461SOL    HW214283   1.246   0.418   2.317
 4462SOL     OW14284   6.714   3.583   1.823
 4462SOL    HW114285   6.806   3.623   1.824
 4462SOL    HW214286   6.647   3.654   1.841
 4463SOL     OW14287   4.419   3.217   0.099
 4463SOL    HW114288   4.470   3.270   0.167
 4463SOL    HW214289   4.463   3.225   0.010
 4464SOL     OW14290   6.686   4.534   6.800
 4464SOL    HW114291   6.645   4.446   6.776
 4464SOL    HW214292   6.693   4.591   6.718
 4465SOL     OW14293   2.427   5.487   2.583
 4465SOL    HW114294   2.367   5.522   2.655
 4465SOL    HW214295   2.503   5.552   2.569
 4466SOL     OW14296   1.465   0.897   3.056
 4466SOL    HW114297   1.537   0.909   2.987
 4466SOL    HW214298   1.405   0.822   3.029
 4467SOL     OW14299   1.344   6.986   3.274
 4467SOL    HW114300   1.375   6.893   3.294
 4467SOL    HW214301   1.262   6.983   3.217
 4468SOL     OW14302   1.736   2.707   0.764
 4468SOL    HW114303   1.727   2.757   0.678
 4468SOL    HW214304   1.651   2.713   0.816
 4469SOL     OW14305   3.787   0.461   1.580
 4469SOL    HW114306   3.694   0.436   1.554
 4469SOL    HW214307   3.810   0.418   1.667
 4470SOL     OW14308   5.884   3.133   1.897
 4470SOL    HW114309   5.847   3.144   1.805
 4470SOL    HW214310   5.892   3.035   1.917
 4471SOL     OW14311   0.113   1.944   0.321
 4471SOL    HW114312   0.118   2.010   0.396
 4471SOL    HW214313   0.083   1.991   0.238
 4472SOL     OW14314   1.632   3.019   3.755
 4472SOL    HW114315   1.601   2.950   3.820
 4472SOL    HW214316   1.724   3.049   3.779
 4473SOL     OW14317   0.141   2.644   3.697
 4473SOL    HW114318   0.098   2.564   3.655
 4473SOL    HW214319   0.184   2.699   3.626
 4474SOL     OW14320   3.831   0.697   1.974
 4474SOL    HW114321   3.829   0.612   2.026
 4474SOL    HW214322   3.909   0.695   1.911
 4475SOL     OW14323   1.641   3.618   2.191
 4475SOL    HW114324   1.603   3.566   2.114
 4475SOL    HW214325   1.572   3.625   2.263
 4476SOL     OW14326   4.860   6.286   4.218
 4476SOL    HW114327   4.940   6.233   4.246
 4476SOL    HW214328   4.888   6.377   4.188
 4477SOL     OW14329   1.344   0.182   5.643
 4477SOL    HW114330   1.370   0.128   5.723
 4477SOL    HW214331   1.395   0.149   5.563
 4478SOL     OW14332   3.502   6.240   2.627
 4478SOL    HW114333   3.543   6.158   2.588
 4478SOL    HW214334   3.403   6.237   2.615
 4479SOL     OW14335   0.664   0.639   1.128
 4479SOL    HW114336   0.704   0.568   1.070
 4479SOL    HW214337   0.703   0.728   1.103
 4480SOL     OW14338   1.648   3.834   5.527
 4480SOL    HW114339   1.548   3.831   5.532
 4480SOL    HW214340   1.685   3.854   5.618
 4481SOL     OW14341   2.365   6.578   5.089
 4481SOL    HW114342   2.445   6.634   5.112
 4481SOL    HW214343   2.361   6.499   5.150
 4482SOL     OW14344   0.587   4.270   3.988
 4482SOL    HW114345   0.534   4.353   3.970
 4482SOL    HW214346   0.678   4.296   4.022
 4483SOL     OW14347   4.901   3.503   2.152
 4483SOL    HW114348   4.883   3.553   2.067
 4483SOL    HW214349   4.873   3.408   2.142
 4484SOL     OW14350   3.287   2.999   5.390
 4484SOL    HW114351   3.358   2.949   5.440
 4484SOL    HW214352   3.250   2.941   5.318
 4485SOL     OW14353   5.272   2.057   5.136
 4485SOL    HW114354   5.317   2.070   5.224
 4485SOL    HW214355   5.187   2.006   5.149
 4486SOL     OW14356   5.318   3.952   4.547
 4486SOL    HW114357   5.333   3.874   4.486
 4486SOL    HW214358   5.354   3.931   4.637
 4487SOL     OW14359   2.700   3.104   6.468
 4487SOL    HW114360   2.628   3.121   6.401
 4487SOL    HW214361   2.697   3.008   6.496
 4488SOL     OW14362   6.061   3.563   5.811
 4488SOL    HW114363   6.111   3.486   5.772
 4488SOL    HW214364   6.057   3.553   5.911
 4489SOL     OW14365   5.841   5.352   4.350
 4489SOL    HW114366   5.936   5.324   4.356
 4489SOL    HW214367   5.788   5.281   4.304
 4490SOL     OW14368   6.348   2.350   3.039
 4490SOL    HW114369   6.439   2.384   3.066
 4490SOL    HW214370   6.354   2.307   2.949
 4491SOL     OW14371   0.084   2.872   4.684
 4491SOL    HW114372   0.165   2.923   4.715
 4491SOL    HW214373   0.026   2.933   4.630
 4492SOL     OW14374   5.352   3.873   1.260
 4492SOL    HW114375   5.323   3.870   1.355
 4492SOL    HW214376   5.274   3.898   1.202
 4493SOL     OW14377   4.609   6.395   5.357
 4493SOL    HW114378   4.667   6.444   5.422
 4493SOL    HW214379   4.656   6.313   5.325
 4494SOL     OW14380   6.949   1.618   6.040
 4494SOL    HW114381   6.929   1.655   5.949
 4494SOL    HW214382   6.979   1.523   6.031
 4495SOL     OW14383   4.929   5.739   4.477
 4495SOL    HW114384   4.921   5.685   4.560
 4495SOL    HW214385   4.916   5.836   4.499
 4496SOL     OW14386   5.045   5.545   1.142
 4496SOL    HW114387   4.993   5.617   1.096
 4496SOL    HW214388   5.131   5.583   1.178
 4497SOL     OW14389   4.512   0.672   6.583
 4497SOL    HW114390   4.575   0.712   6.650
 4497SOL    HW214391   4.438   0.737   6.564
 4498SOL     OW14392   6.687   3.473   6.599
 4498SOL    HW114393   6.764   3.445   6.541
 4498SOL    HW214394   6.612   3.408   6.589
 4499SOL     OW14395   0.037   3.519   3.787
 4499SOL    HW114396   7.003   3.445   3.752
 4499SOL    HW214397   7.016   3.564   3.864
 4500SOL     OW14398   3.246   3.350   3.962
 4500SOL    HW114399   3.293   3.288   4.024
 4500SOL    HW214400   3.270   3.445   3.986
 4501SOL     OW14401   0.060   2.875   5.377
 4501SOL    HW114402   0.142   2.858   5.431
 4501SOL    HW214403   0.080   2.859   5.280
 4502SOL     OW14404   1.511   1.821   6.899
 4502SOL    HW114405   1.469   1.793   6.985
 4502SOL    HW214406   1.499   1.749   6.830
 4503SOL     OW14407   3.406   0.002   2.619
 4503SOL    HW114408   3.492   7.003   2.574
 4503SOL    HW214409   3.404   6.987   2.711
 4504SOL     OW14410   6.325   1.360   4.865
 4504SOL    HW114411   6.330   1.460   4.866
 4504SOL    HW214412   6.363   1.326   4.780
 4505SOL     OW14413   6.321   5.696   3.238
 4505SOL    HW114414   6.238   5.738   3.204
 4505SOL    HW214415   6.391   5.766   3.253
 4506SOL     OW14416   4.702   2.304   3.855
 4506SOL    HW114417   4.765   2.313   3.778
 4506SOL    HW214418   4.644   2.224   3.842
 4507SOL     OW14419   5.752   4.985   2.482
 4507SOL    HW114420   5.669   4.960   2.532
 4507SOL    HW214421   5.730   5.055   2.414
 4508SOL     OW14422   1.364   4.667   6.291
 4508SOL    HW114423   1.266   4.650   6.302
 4508SOL    HW214424   1.386   4.669   6.193
 4509SOL     OW14425   5.253   2.947   2.895
 4509SOL    HW114426   5.201   2.878   2.845
 4509SOL    HW214427   5.195   2.988   2.966
 4510SOL     OW14428   4.706   0.339   5.084
 4510SOL    HW114429   4.652   0.297   5.157
 4510SOL    HW214430   4.727   0.434   5.107
 4511SOL     OW14431   6.797   3.025   6.116
 4511SOL    HW114432   6.774   3.103   6.058
 4511SOL    HW214433   6.854   3.056   6.193
 4512SOL     OW14434   2.652   6.945   5.709
 4512SOL    HW114435   2.605   6.986   5.787
 4512SOL    HW214436   2.636   6.847   5.709
 4513SOL     OW14437   4.710   6.665   0.755
 4513SOL    HW114438   4.633   6.698   0.701
 4513SOL    HW214439   4.718   6.719   0.839
 4514SOL     OW14440   4.523   1.245   5.248
 4514SOL    HW114441   4.604   1.297   5.219
 4514SOL    HW214442   4.551   1.172   5.310
 4515SOL     OW14443   0.500   3.409   5.914
 4515SOL    HW114444   0.419   3.455   5.951
 4515SOL    HW214445   0.572   3.407   5.984
 4516SOL     OW14446   1.771   0.184   6.608
 4516SOL    HW114447   1.674   0.189   6.634
 4516SOL    HW214448   1.825   0.242   6.669
 4517SOL     OW14449   2.810   0.880   6.504
 4517SOL    HW114450   2.805   0.942   6.582
 4517SOL    HW214451   2.739   0.905   6.437
 4518SOL     OW14452   6.709   0.975   3.408
 4518SOL    HW114453   6.761   1.038   3.466
 4518SOL    HW214454   6.631   1.024   3.368
 4519SOL     OW14455   5.551   0.242   2.089
 4519SOL    HW114456   5.589   0.193   2.168
 4519SOL    HW214457   5.557   0.340   2.104
 4520SOL     OW14458   5.022   6.100   3.504
 4520SOL    HW114459   5.032   6.198   3.521
 4520SOL    HW214460   4.937   6.068   3.546
 4521SOL     OW14461   5.779   2.021   3.733
 4521SOL    HW114462   5.700   1.995   3.789
 4521SOL    HW214463   5.798   2.118   3.745
 4522SOL     OW14464   5.614   0.016   3.897
 4522SOL    HW114465   5.532   0.027   3.841
 4522SOL    HW214466   5.612   0.081   3.973
 4523SOL     OW14467   1.569   4.634   0.358
 4523SOL    HW114468   1.646   4.689   0.326
 4523SOL    HW214469   1.516   4.687   0.424
 4524SOL     OW14470   5.378   2.309   4.189
 4524SOL    HW114471   5.398   2.368   4.268
 4524SOL    HW214472   5.452   2.243   4.177
 4525SOL     OW14473   5.355   1.207   3.314
 4525SOL    HW114474   5.347   1.202   3.214
 4525SOL    HW214475   5.342   1.301   3.344
 4526SOL     OW14476   5.197   0.583   1.058
 4526SOL    HW114477   5.160   0.572   1.151
 4526SOL    HW214478   5.164   0.669   1.020
 4527SOL     OW14479   4.060   1.468   3.521
 4527SOL    HW114480   4.111   1.552   3.541
 4527SOL    HW214481   4.107   1.417   3.448
 4528SOL     OW14482   4.618   6.790   6.823
 4528SOL    HW114483   4.679   6.718   6.790
 4528SOL    HW214484   4.526   6.775   6.787
 4529SOL     OW14485   3.256   1.811   4.713
 4529SOL    HW114486   3.163   1.777   4.700
 4529SOL    HW214487   3.253   1.906   4.745
 4530SOL     OW14488   0.315   3.558   6.015
 4530SOL    HW114489   0.352   3.638   6.062
 4530SOL    HW214490   0.277   3.586   5.926
 4531SOL     OW14491   0.553   3.416   3.942
 4531SOL    HW114492   0.463   3.431   3.902
 4531SOL    HW214493   0.557   3.324   3.980
 4532SOL     OW14494   6.100   1.663   3.593
 4532SOL    HW114495   6.012   1.657   3.545
 4532SOL    HW214496   6.108   1.753   3.636
 4533SOL     OW14497   1.791   0.720   2.481
 4533SOL    HW114498   1.890   0.740   2.480
 4533SOL    HW214499   1.770   0.652   2.411
 4534SOL     OW14500   5.142   4.273   4.887
 4534SOL    HW114501   5.220   4.212   4.876
 4534SOL    HW214502   5.138   4.337   4.810
 4535SOL     OW14503   4.701   1.710   2.571
 4535SOL    HW114504   4.676   1.710   2.668
 4535SOL    HW214505   4.793   1.746   2.561
 4536SOL     OW14506   3.867   2.165   4.105
 4536SOL    HW114507   3.958   2.194   4.076
 4536SOL    HW214508   3.866   2.153   4.204
 4537SOL     OW14509   3.702   3.133   5.841
 4537SOL    HW114510   3.712   3.092   5.750
 4537SOL    HW214511   3.790   3.130   5.888
 4538SOL     OW14512   2.793   0.907   4.445
 4538SOL    HW114513   2.729   0.959   4.389
 4538SOL    HW214514   2.758   0.814   4.457
 4539SOL     OW14515   2.137   1.067   4.238
 4539SOL    HW114516   2.203   1.025   4.300
 4539SOL    HW214517   2.089   1.141   4.285
 4540SOL     OW14518   3.031   3.149   4.838
 4540SOL    HW114519   3.098   3.155   4.912
 4540SOL    HW214520   3.017   3.239   4.798
 4541SOL     OW14521   6.007   1.390   0.639
 4541SOL    HW114522   6.049   1.366   0.727
 4541SOL    HW214523   6.054   1.469   0.600
 4542SOL     OW14524   6.281   0.661   2.769
 4542SOL    HW114525   6.301   0.755   2.794
 4542SOL    HW214526   6.349   0.600   2.809
 4543SOL     OW14527   5.231   1.922   1.471
 4543SOL    HW114528   5.272   1.913   1.562
 4543SOL    HW214529   5.154   1.858   1.462
 4544SOL     OW14530   3.441   6.269   6.320
 4544SOL    HW114531   3.393   6.283   6.407
 4544SOL    HW214532   3.401   6.190   6.273
 4545SOL     OW14533   5.496   2.754   4.515
 4545SOL    HW114534   5.554   2.836   4.513
 4545SOL    HW214535   5.416   2.768   4.458
 4546SOL     OW14536   2.003   1.320   6.469
 4546SOL    HW114537   1.912   1.359   6.477
 4546SOL    HW214538   2.071   1.386   6.501
 4547SOL     OW14539   6.262   2.671   3.229
 4547SOL    HW114540   6.344   2.643   3.278
 4547SOL    HW214541   6.252   2.616   3.146
 4548SOL     OW14542   1.071   4.585   4.578
 4548SOL    HW114543   0.977   4.605   4.606
 4548SOL    HW214544   1.071   4.511   4.510
 4549SOL     OW14545   5.709   3.701   2.281
 4549SOL    HW114546   5.644   3.766   2.319
 4549SOL    HW214547   5.797   3.709   2.329
 4550SOL     OW14548   1.097   6.260   2.747
 4550SOL    HW114549   1.130   6.353   2.733
 4550SOL    HW214550   1.037   6.234   2.670
 4551SOL     OW14551   6.174   1.426   6.308
 4551SOL    HW114552   6.118   1.467   6.236
 4551SOL    HW214553   6.265   1.468   6.308
 4552SOL     OW14554   6.248   2.348   0.944
 4552SOL    HW114555   6.205   2.285   1.009
 4552SOL    HW214556   6.230   2.317   0.851
 4553SOL     OW14557   3.982   4.346   6.907
 4553SOL    HW114558   4.021   4.304   6.825
 4553SOL    HW214559   3.903   4.294   6.938
 4554SOL     OW14560   4.809   0.472   1.570
 4554SOL    HW114561   4.832   0.489   1.666
 4554SOL    HW214562   4.756   0.550   1.535
 4555SOL     OW14563   3.338   1.650   5.964
 4555SOL    HW114564   3.411   1.717   5.948
 4555SOL    HW214565   3.276   1.684   6.035
 4556SOL     OW14566   4.504   2.469   3.737
 4556SOL    HW114567   4.585   2.510   3.697
 4556SOL    HW214568   4.523   2.443   3.832
 4557SOL     OW14569   4.907   6.836   4.531
 4557SOL    HW114570   4.933   6.763   4.468
 4557SOL    HW214571   4.809   6.853   4.524
 4558SOL     OW14572   0.235   3.486   5.536
 4558SOL    HW114573   0.249   3.566   5.477
 4558SOL    HW214574   0.234   3.516   5.631
 4559SOL     OW14575   0.741   4.469   1.535
 4559SOL    HW114576   0.673   4.413   1.580
 4559SOL    HW214577   0.828   4.420   1.531
 4560SOL     OW14578   4.957   4.811   2.968
 4560SOL    HW114579   4.906   4.776   3.046
 4560SOL    HW214580   5.047   4.842   2.999
 4561SOL     OW14581   2.754   0.768   1.279
 4561SOL    HW114582   2.758   0.756   1.179
 4561SOL    HW214583   2.750   0.865   1.301
 4562SOL     OW14584   3.268   6.463   5.206
 4562SOL    HW114585   3.311   6.412   5.281
 4562SOL    HW214586   3.337   6.489   5.139
 4563SOL     OW14587   1.011   4.107   0.659
 4563SOL    HW114588   0.990   4.013   0.685
 4563SOL    HW214589   0.996   4.120   0.561
 4564SOL     OW14590   0.617   6.402   0.861
 4564SOL    HW114591   0.663   6.317   0.839
 4564SOL    HW214592   0.600   6.454   0.777
 4565SOL     OW14593   6.905   0.946   5.750
 4565SOL    HW114594   6.989   1.000   5.754
 4565SOL    HW214595   6.891   0.899   5.837
 4566SOL     OW14596   6.919   1.816   0.441
 4566SOL    HW114597   6.988   1.867   0.390
 4566SOL    HW214598   6.962   1.773   0.520
 4567SOL     OW14599   0.256   0.796   0.183
 4567SOL    HW114600   0.176   0.765   0.133
 4567SOL    HW214601   0.235   0.801   0.281
 4568SOL     OW14602   1.057   4.507   5.332
 4568SOL    HW114603   1.151   4.484   5.311
 4568SOL    HW214604   1.027   4.454   5.412
 4569SOL     OW14605   1.703   1.308   3.212
 4569SOL    HW114606   1.781   1.245   3.215
 4569SOL    HW214607   1.653   1.296   3.126
 4570SOL     OW14608   0.806   6.354   2.976
 4570SOL    HW114609   0.855   6.294   2.913
 4570SOL    HW214610   0.724   6.307   3.010
 4571SOL     OW14611   3.113   3.219   6.072
 4571SOL    HW114612   3.049   3.233   6.148
 4571SOL    HW214613   3.070   3.162   6.002
 4572SOL     OW14614   1.193   7.013   6.597
 4572SOL    HW114615   1.226   6.931   6.550
 4572SOL    HW214616   1.248   0.004   6.679
 4573SOL     OW14617   6.334   6.148   0.403
 4573SOL    HW114618   6.430   6.174   0.389
 4573SOL    HW214619   6.315   6.062   0.356
 4574SOL     OW14620   6.592   3.615   1.268
 4574SOL    HW114621   6.522   3.655   1.209
 4574SOL    HW214622   6.563   3.622   1.363
 4575SOL     OW14623   5.901   1.806   6.090
 4575SOL    HW114624   5.958   1.874   6.137
 4575SOL    HW214625   5.855   1.849   6.013
 4576SOL     OW14626   2.196   6.042   6.554
 4576SOL    HW114627   2.115   5.987   6.534
 4576SOL    HW214628   2.191   6.074   6.649
 4577SOL     OW14629   1.009   2.149   3.990
 4577SOL    HW114630   1.086   2.094   3.959
 4577SOL    HW214631   0.931   2.090   4.008
 4578SOL     OW14632   1.367   3.277   3.775
 4578SOL    HW114633   1.398   3.213   3.704
 4578SOL    HW214634   1.439   3.291   3.842
 4579SOL     OW14635   4.902   2.364   2.827
 4579SOL    HW114636   4.806   2.355   2.800
 4579SOL    HW214637   4.922   2.300   2.901
 4580SOL     OW14638   4.793   5.225   6.673
 4580SOL    HW114639   4.711   5.274   6.644
 4580SOL    HW214640   4.767   5.151   6.736
 4581SOL     OW14641   3.223   5.254   3.258
 4581SOL    HW114642   3.203   5.293   3.168
 4581SOL    HW214643   3.198   5.157   3.258
 4582SOL     OW14644   5.643   6.622   5.008
 4582SOL    HW114645   5.563   6.562   5.018
 4582SOL    HW214646   5.709   6.601   5.081
 4583SOL     OW14647   2.948   1.322   5.489
 4583SOL    HW114648   2.974   1.406   5.440
 4583SOL    HW214649   2.885   1.346   5.563
 4584SOL     OW14650   0.156   5.097   5.577
 4584SOL    HW114651   0.133   5.140   5.665
 4584SOL    HW214652   0.170   4.999   5.592
 4585SOL     OW14653   2.493   6.471   2.841
 4585SOL    HW114654   2.489   6.545   2.774
 4585SOL    HW214655   2.589   6.448   2.858
 4586SOL     OW14656   4.057   5.146   0.412
 4586SOL    HW114657   4.121   5.142   0.335
 4586SOL    HW214658   4.063   5.236   0.456
 4587SOL     OW14659   4.028   3.931   1.960
 4587SOL    HW114660   4.026   3.894   2.052
 4587SOL    HW214661   4.116   3.910   1.917
 4588SOL     OW14662   4.278   4.218   5.491
 4588SOL    HW114663   4.213   4.191   5.419
 4588SOL    HW214664   4.332   4.138   5.518
 4589SOL     OW14665   5.453   1.399   2.324
 4589SOL    HW114666   5.491   1.338   2.393
 4589SOL    HW214667   5.490   1.491   2.336
 4590SOL     OW14668   4.919   5.271   0.762
 4590SOL    HW114669   5.008   5.258   0.719
 4590SOL    HW214670   4.870   5.345   0.717
 4591SOL     OW14671   0.676   6.160   5.002
 4591SOL    HW114672   0.580   6.155   5.030
 4591SOL    HW214673   0.701   6.077   4.952
 4592SOL     OW14674   4.084   1.844   2.254
 4592SOL    HW114675   4.110   1.925   2.307
 4592SOL    HW214676   4.163   1.784   2.243
 4593SOL     OW14677   4.132   5.804   3.773
 4593SOL    HW114678   4.132   5.789   3.674
 4593SOL    HW214679   4.071   5.739   3.817
 4594SOL     OW14680   3.204   0.865   1.661
 4594SOL    HW114681   3.288   0.878   1.607
 4594SOL    HW214682   3.210   0.916   1.746
 4595SOL     OW14683   3.303   2.373   6.115
 4595SOL    HW114684   3.345   2.282   6.119
 4595SOL    HW214685   3.327   2.424   6.198
 4596SOL     OW14686   5.820   6.292   3.243
 4596SOL    HW114687   5.784   6.342   3.165
 4596SOL    HW214688   5.771   6.318   3.326
 4597SOL     OW14689   4.792   4.307   6.753
 4597SOL    HW114690   4.809   4.249   6.673
 4597SOL    HW214691   4.696   4.333   6.755
 4598SOL     OW14692   2.266   5.291   0.296
 4598SOL    HW114693   2.340   5.347   0.260
 4598SOL    HW214694   2.302   5.200   0.320
 4599SOL     OW14695   1.765   5.537   0.219
 4599SOL    HW114696   1.850   5.490   0.196
 4599SOL    HW214697   1.746   5.525   0.316
 4600SOL     OW14698   1.222   4.948   5.258
 4600SOL    HW114699   1.154   4.929   5.187
 4600SOL    HW214700   1.298   4.884   5.249
 4601SOL     OW14701   1.552   6.797   5.456
 4601SOL    HW114702   1.454   6.814   5.450
 4601SOL    HW214703   1.569   6.711   5.504
 4602SOL     OW14704   1.177   5.755   1.366
 4602SOL    HW114705   1.161   5.808   1.450
 4602SOL    HW214706   1.094   5.704   1.342
 4603SOL     OW14707   3.603   6.272   1.152
 4603SOL    HW114708   3.633   6.302   1.242
 4603SOL    HW214709   3.668   6.304   1.083
 4604SOL     OW14710   4.474   0.566   2.123
 4604SOL    HW114711   4.531   0.589   2.043
 4604SOL    HW214712   4.524   0.590   2.206
 4605SOL     OW14713   3.573   0.875   3.590
 4605SOL    HW114714   3.553   0.934   3.668
 4605SOL    HW214715   3.494   0.872   3.529
 4606SOL     OW14716   1.119   6.807   1.225
 4606SOL    HW114717   1.069   6.762   1.151
 4606SOL    HW214718   1.058   6.821   1.303
 4607SOL     OW14719   2.274   2.222   0.985
 4607SOL    HW114720   2.302   2.183   0.897
 4607SOL    HW214721   2.285   2.152   1.057
 4608SOL     OW14722   0.827   5.991   3.528
 4608SOL    HW114723   0.922   6.019   3.541
 4608SOL    HW214724   0.778   6.000   3.615
 4609SOL     OW14725   4.361   5.116   6.075
 4609SOL    HW114726   4.453   5.157   6.071
 4609SOL    HW214727   4.294   5.188   6.093
 4610SOL     OW14728   5.113   2.185   0.997
 4610SOL    HW114729   5.129   2.185   0.898
 4610SOL    HW214730   5.029   2.235   1.017
 4611SOL     OW14731   6.796   6.185   6.049
 4611SOL    HW114732   6.752   6.096   6.054
 4611SOL    HW214733   6.775   6.237   6.132
 4612SOL     OW14734   0.911   5.545   7.007
 4612SOL    HW114735   0.984   5.606   6.979
 4612SOL    HW214736   0.949   5.471   0.038
 4613SOL     OW14737   2.411   6.123   2.298
 4613SOL    HW114738   2.346   6.194   2.272
 4613SOL    HW214739   2.491   6.165   2.340
 4614SOL     OW14740   0.606   4.368   4.709
 4614SOL    HW114741   0.612   4.414   4.620
 4614SOL    HW214742   0.510   4.348   4.729
 4615SOL     OW14743   2.213   0.986   6.957
 4615SOL    HW114744   2.183   1.032   0.016
 4615SOL    HW214745   2.233   1.055   6.887
 4616SOL     OW14746   5.738   0.355   5.459
 4616SOL    HW114747   5.728   0.275   5.517
 4616SOL    HW214748   5.777   0.430   5.512
 4617SOL     OW14749   1.184   2.638   2.201
 4617SOL    HW114750   1.176   2.542   2.175
 4617SOL    HW214751   1.095   2.673   2.230
 4618SOL     OW14752   2.204   2.923   5.536
 4618SOL    HW114753   2.200   2.855   5.462
 4618SOL    HW214754   2.229   2.877   5.622
 4619SOL     OW14755   3.458   6.123   2.952
 4619SOL    HW114756   3.369   6.161   2.928
 4619SOL    HW214757   3.451   6.077   3.040
 4620SOL     OW14758   3.592   4.311   0.118
 4620SOL    HW114759   3.511   4.261   0.151
 4620SOL    HW214760   3.657   4.320   0.193
 4621SOL     OW14761   4.760   1.395   2.936
 4621SOL    HW114762   4.679   1.356   2.979
 4621SOL    HW214763   4.818   1.320   2.903
 4622SOL     OW14764   2.290   4.378   0.478
 4622SOL    HW114765   2.368   4.386   0.416
 4622SOL    HW214766   2.295   4.451   0.547
 4623SOL     OW14767   6.541   6.295   0.777
 4623SOL    HW114768   6.451   6.304   0.818
 4623SOL    HW214769   6.543   6.213   0.720
 4624SOL     OW14770   5.660   0.116   3.331
 4624SOL    HW114771   5.729   0.118   3.259
 4624SOL    HW214772   5.610   0.202   3.331
 4625SOL     OW14773   2.109   4.598   0.400
 4625SOL    HW114774   2.080   4.619   0.307
 4625SOL    HW214775   2.039   4.630   0.465
 4626SOL     OW14776   5.646   5.218   2.791
 4626SOL    HW114777   5.631   5.189   2.886
 4626SOL    HW214778   5.559   5.243   2.749
 4627SOL     OW14779   3.125   5.116   3.803
 4627SOL    HW114780   3.109   5.188   3.736
 4627SOL    HW214781   3.106   5.150   3.895
 4628SOL     OW14782   5.613   3.860   3.862
 4628SOL    HW114783   5.639   3.885   3.769
 4628SOL    HW214784   5.549   3.782   3.859
 4629SOL     OW14785   2.419   5.283   4.892
 4629SOL    HW114786   2.477   5.244   4.963
 4629SOL    HW214787   2.323   5.279   4.921
 4630SOL     OW14788   4.017   5.534   2.297
 4630SOL    HW114789   3.994   5.606   2.231
 4630SOL    HW214790   3.935   5.509   2.349
 4631SOL     OW14791   2.413   6.378   3.716
 4631SOL    HW114792   2.392   6.426   3.800
 4631SOL    HW214793   2.361   6.418   3.640
 4632SOL     OW14794   3.895   5.220   2.586
 4632SOL    HW114795   3.932   5.144   2.639
 4632SOL    HW214796   3.862   5.186   2.497
 4633SOL     OW14797   5.550   1.523   3.837
 4633SOL    HW114798   5.596   1.436   3.820
 4633SOL    HW214799   5.481   1.511   3.909
 4634SOL     OW14800   2.597   4.692   6.211
 4634SOL    HW114801   2.655   4.612   6.223
 4634SOL    HW214802   2.618   4.760   6.281
 4635SOL     OW14803   5.470   3.654   2.099
 4635SOL    HW114804   5.534   3.709   2.152
 4635SOL    HW214805   5.387   3.637   2.154
 4636SOL     OW14806   2.067   4.697   0.128
 4636SOL    HW114807   2.060   4.778   0.070
 4636SOL    HW214808   2.058   4.615   0.071
 4637SOL     OW14809   1.127   0.407   0.194
 4637SOL    HW114810   1.213   0.411   0.244
 4637SOL    HW214811   1.109   0.313   0.164
 4638SOL     OW14812   4.689   2.773   0.056
 4638SOL    HW114813   4.611   2.734   0.007
 4638SOL    HW214814   4.659   2.802   0.148
 4639SOL     OW14815   2.379   4.334   4.680
 4639SOL    HW114816   2.362   4.348   4.583
 4639SOL    HW214817   2.409   4.420   4.721
 4640SOL     OW14818   5.077   4.607   3.860
 4640SOL    HW114819   5.163   4.644   3.897
 4640SOL    HW214820   5.001   4.665   3.891
 4641SOL     OW14821   3.095   6.144   4.325
 4641SOL    HW114822   3.123   6.092   4.406
 4641SOL    HW214823   3.131   6.100   4.243
 4642SOL     OW14824   0.499   5.896   4.343
 4642SOL    HW114825   0.542   5.970   4.394
 4642SOL    HW214826   0.547   5.880   4.257
 4643SOL     OW14827   5.896   2.931   1.203
 4643SOL    HW114828   5.926   2.837   1.219
 4643SOL    HW214829   5.901   2.952   1.106
 4644SOL     OW14830   0.629   4.747   5.053
 4644SOL    HW114831   0.532   4.741   5.077
 4644SOL    HW214832   0.678   4.793   5.127
 4645SOL     OW14833   0.886   1.188   4.828
 4645SOL    HW114834   0.838   1.115   4.877
 4645SOL    HW214835   0.940   1.242   4.893
 4646SOL     OW14836   2.299   5.930   3.427
 4646SOL    HW114837   2.283   5.980   3.342
 4646SOL    HW214838   2.374   5.865   3.414
 4647SOL     OW14839   1.251   0.478   3.889
 4647SOL    HW114840   1.180   0.447   3.826
 4647SOL    HW214841   1.340   0.441   3.860
 4648SOL     OW14842   3.946   0.682   2.316
 4648SOL    HW114843   3.897   0.757   2.270
 4648SOL    HW214844   4.019   0.720   2.373
 4649SOL     OW14845   5.284   0.207   5.977
 4649SOL    HW114846   5.262   0.276   6.046
 4649SOL    HW214847   5.383   0.192   5.975
 4650SOL     OW14848   4.693   5.748   3.667
 4650SOL    HW114849   4.720   5.809   3.742
 4650SOL    HW214850   4.737   5.659   3.680
 4651SOL     OW14851   6.628   1.558   1.084
 4651SOL    HW114852   6.640   1.637   1.023
 4651SOL    HW214853   6.567   1.584   1.159
 4652SOL     OW14854   0.487   0.418   4.630
 4652SOL    HW114855   0.443   0.441   4.543
 4652SOL    HW214856   0.485   0.319   4.643
 4653SOL     OW14857   6.106   5.157   0.104
 4653SOL    HW114858   6.098   5.209   0.019
 4653SOL    HW214859   6.190   5.102   0.101
 4654SOL     OW14860   0.306   6.281   0.477
 4654SOL    HW114861   0.253   6.365   0.488
 4654SOL    HW214862   0.346   6.278   0.386
 4655SOL     OW14863   6.708   5.507   1.482
 4655SOL    HW114864   6.647   5.453   1.541
 4655SOL    HW214865   6.705   5.603   1.510
 4656SOL     OW14866   0.755   0.520   3.754
 4656SOL    HW114867   0.760   0.509   3.853
 4656SOL    HW214868   0.838   0.565   3.721
 4657SOL     OW14869   4.931   6.466   1.338
 4657SOL    HW114870   4.957   6.495   1.246
 4657SOL    HW214871   4.995   6.505   1.404
 4658SOL     OW14872   4.688   1.397   2.539
 4658SOL    HW114873   4.783   1.425   2.533
 4658SOL    HW214874   4.655   1.408   2.633
 4659SOL     OW14875   2.855   4.379   5.401
 4659SOL    HW114876   2.880   4.418   5.313
 4659SOL    HW214877   2.773   4.425   5.436
 4660SOL     OW14878   1.162   3.228   5.767
 4660SOL    HW114879   1.101   3.286   5.713
 4660SOL    HW214880   1.156   3.133   5.734
 4661SOL     OW14881   3.531   4.043   5.847
 4661SOL    HW114882   3.485   4.124   5.812
 4661SOL    HW214883   3.505   3.963   5.792
 4662SOL     OW14884   3.891   6.769   4.922
 4662SOL    HW114885   3.834   6.842   4.886
 4662SOL    HW214886   3.914   6.705   4.848
 4663SOL     OW14887   0.299   1.792   2.917
 4663SOL    HW114888   0.356   1.860   2.963
 4663SOL    HW214889   0.345   1.703   2.919
 4664SOL     OW14890   2.044   1.210   0.921
 4664SOL    HW114891   2.111   1.282   0.901
 4664SOL    HW214892   1.978   1.205   0.846
 4665SOL     OW14893   3.426   6.669   0.362
 4665SOL    HW114894   3.365   6.636   0.435
 4665SOL    HW214895   3.419   6.769   0.355
 4666SOL     OW14896   1.486   2.071   1.071
 4666SOL    HW114897   1.480   2.045   0.975
 4666SOL    HW214898   1.582   2.080   1.098
 4667SOL     OW14899   6.254   4.410   1.489
 4667SOL    HW114900   6.161   4.399   1.453
 4667SOL    HW214901   6.315   4.441   1.416
 4668SOL     OW14902   5.412   2.245   3.068
 4668SOL    HW114903   5.321   2.273   3.037
 4668SOL    HW214904   5.440   2.303   3.144
 4669SOL     OW14905   4.187   6.557   6.787
 4669SOL    HW114906   4.206   6.472   6.837
 4669SOL    HW214907   4.118   6.539   6.717
 4670SOL     OW14908   3.017   2.453   5.376
 4670SOL    HW114909   3.081   2.424   5.305
 4670SOL    HW214910   3.065   2.461   5.463
 4671SOL     OW14911   6.739   2.575   2.393
 4671SOL    HW114912   6.655   2.629   2.401
 4671SOL    HW214913   6.753   2.523   2.478
 4672SOL     OW14914   2.771   4.588   5.931
 4672SOL    HW114915   2.831   4.659   5.893
 4672SOL    HW214916   2.684   4.588   5.882
 4673SOL     OW14917   4.949   6.823   1.135
 4673SOL    HW114918   4.873   6.790   1.190
 4673SOL    HW214919   4.979   6.912   1.170
 4674SOL     OW14920   4.798   0.197   6.563
 4674SOL    HW114921   4.801   0.135   6.642
 4674SOL    HW214922   4.727   0.167   6.500
 4675SOL     OW14923   0.300   2.306   6.298
 4675SOL    HW114924   0.397   2.324   6.317
 4675SOL    HW214925   0.249   2.392   6.304
 4676SOL     OW14926   6.870   6.203   3.417
 4676SOL    HW114927   6.905   6.221   3.325
 4676SOL    HW214928   6.787   6.146   3.410
 4677SOL     OW14929   2.616   1.127   0.122
 4677SOL    HW114930   2.596   1.098   0.216
 4677SOL    HW214931   2.552   1.084   0.059
 4678SOL     OW14932   1.965   4.479   2.813
 4678SOL    HW114933   2.014   4.407   2.763
 4678SOL    HW214934   1.872   4.485   2.778
 4679SOL     OW14935   3.915   0.080   1.449
 4679SOL    HW114936   3.842   0.113   1.389
 4679SOL    HW214937   3.915   0.133   1.534
 4680SOL     OW14938   4.009   1.454   6.856
 4680SOL    HW114939   4.004   1.406   6.769
 4680SOL    HW214940   4.021   1.552   6.840
 4681SOL     OW14941   5.496   4.774   6.853
 4681SOL    HW114942   5.453   4.798   6.766
 4681SOL    HW214943   5.496   4.675   6.864
 4682SOL     OW14944   4.619   4.627   5.587
 4682SOL    HW114945   4.623   4.643   5.488
 4682SOL    HW214946   4.658   4.706   5.635
 4683SOL     OW14947   5.003   5.243   2.783
 4683SOL    HW114948   4.974   5.147   2.783
 4683SOL    HW214949   5.064   5.260   2.861
 4684SOL     OW14950   5.258   0.167   5.188
 4684SOL    HW114951   5.236   0.163   5.286
 4684SOL    HW214952   5.341   0.219   5.174
 4685SOL     OW14953   1.989   5.028   6.112
 4685SOL    HW114954   1.892   5.047   6.130
 4685SOL    HW214955   2.015   4.944   6.158
 4686SOL     OW14956   4.550   5.344   6.570
 4686SOL    HW114957   4.473   5.287   6.541
 4686SOL    HW214958   4.542   5.435   6.528
 4687SOL     OW14959   4.826   3.252   4.364
 4687SOL    HW114960   4.855   3.306   4.443
 4687SOL    HW214961   4.777   3.311   4.300
 4688SOL     OW14962   5.646   3.818   4.883
 4688SOL    HW114963   5.646   3.904   4.832
 4688SOL    HW214964   5.654   3.836   4.981
 4689SOL     OW14965   4.943   0.652   0.323
 4689SOL    HW114966   4.940   0.603   0.236
 4689SOL    HW214967   4.873   0.724   0.323
 4690SOL     OW14968   1.154   0.102   0.673
 4690SOL    HW114969   1.206   0.075   0.592
 4690SOL    HW214970   1.094   0.179   0.651
 4691SOL     OW14971   3.113   3.633   0.359
 4691SOL    HW114972   3.161   3.705   0.310
 4691SOL    HW214973   3.083   3.667   0.448
 4692SOL     OW14974   5.682   5.447   2.423
 4692SOL    HW114975   5.635   5.384   2.360
 4692SOL    HW214976   5.614   5.508   2.465
 4693SOL     OW14977   1.151   1.566   2.850
 4693SOL    HW114978   1.065   1.585   2.802
 4693SOL    HW214979   1.226   1.564   2.784
 4694SOL     OW14980   2.131   1.187   0.133
 4694SOL    HW114981   2.152   1.146   0.222
 4694SOL    HW214982   2.198   1.258   0.113
 4695SOL     OW14983   1.622   4.884   1.774
 4695SOL    HW114984   1.588   4.798   1.811
 4695SOL    HW214985   1.636   4.875   1.676
 4696SOL     OW14986   0.248   4.049   7.006
 4696SOL    HW114987   0.274   4.080   0.073
 4696SOL    HW214988   0.168   4.099   6.975
 4697SOL     OW14989   1.616   4.134   1.557
 4697SOL    HW114990   1.624   4.056   1.495
 4697SOL    HW214991   1.705   4.155   1.596
 4698SOL     OW14992   4.555   6.112   3.017
 4698SOL    HW114993   4.638   6.166   3.002
 4698SOL    HW214994   4.580   6.024   3.059
 4699SOL     OW14995   1.016   6.389   2.231
 4699SOL    HW114996   1.096   6.448   2.225
 4699SOL    HW214997   0.984   6.387   2.326
 4700SOL     OW14998   6.727   1.422   2.904
 4700SOL    HW114999   6.702   1.514   2.874
 4700SOL    HW215000   6.716   1.358   2.829
 4701SOL     OW15001   3.234   2.421   0.505
 4701SOL    HW115002   3.260   2.377   0.420
 4701SOL    HW215003   3.288   2.384   0.580
 4702SOL     OW15004   5.023   5.198   0.410
 4702SOL    HW115005   5.123   5.192   0.414
 4702SOL    HW215006   4.983   5.113   0.443
 4703SOL     OW15007   0.316   7.023   2.260
 4703SOL    HW115008   0.266   0.081   2.287
 4703SOL    HW215009   0.313   6.957   2.335
 4704SOL     OW15010   6.440   6.733   6.449
 4704SOL    HW115011   6.381   6.692   6.519
 4704SOL    HW215012   6.471   6.823   6.479
 4705SOL     OW15013   4.214   2.626   1.112
 4705SOL    HW115014   4.271   2.663   1.186
 4705SOL    HW215015   4.272   2.573   1.049
 4706SOL     OW15016   2.849   0.158   0.052
 4706SOL    HW115017   2.870   0.122   6.986
 4706SOL    HW215018   2.832   0.256   0.046
 4707SOL     OW15019   1.448   7.018   0.482
 4707SOL    HW115020   1.390   0.061   0.436
 4707SOL    HW215021   1.540   7.021   0.443
 4708SOL     OW15022   1.000   2.368   6.279
 4708SOL    HW115023   0.906   2.399   6.268
 4708SOL    HW215024   1.061   2.427   6.226
 4709SOL     OW15025   4.628   5.524   5.042
 4709SOL    HW115026   4.573   5.451   5.082
 4709SOL    HW215027   4.602   5.612   5.081
 4710SOL     OW15028   4.996   0.094   5.888
 4710SOL    HW115029   4.975   0.020   5.825
 4710SOL    HW215030   4.969   0.181   5.848
 4711SOL     OW15031   6.349   1.659   1.636
 4711SOL    HW115032   6.330   1.746   1.681
 4711SOL    HW215033   6.327   1.584   1.697
 4712SOL     OW15034   2.771   5.226   6.251
 4712SOL    HW115035   2.783   5.308   6.195
 4712SOL    HW215036   2.832   5.153   6.217
 4713SOL     OW15037   3.755   4.277   0.671
 4713SOL    HW115038   3.831   4.222   0.707
 4713SOL    HW215039   3.669   4.247   0.713
 4714SOL     OW15040   1.065   1.403   6.107
 4714SOL    HW115041   1.152   1.426   6.063
 4714SOL    HW215042   0.993   1.463   6.072
 4715SOL     OW15043   5.827   3.339   2.383
 4715SOL    HW115044   5.902   3.334   2.318
 4715SOL    HW215045   5.767   3.259   2.372
 4716SOL     OW15046   4.188   6.803   6.046
 4716SOL    HW115047   4.094   6.817   6.014
 4716SOL    HW215048   4.249   6.794   5.967
 4717SOL     OW15049   0.471   6.265   3.836
 4717SOL    HW115050   0.543   6.316   3.789
 4717SOL    HW215051   0.506   6.229   3.922
 4718SOL     OW15052   6.127   2.204   1.132
 4718SOL    HW115053   6.172   2.157   1.208
 4718SOL    HW215054   6.030   2.216   1.153
 4719SOL     OW15055   4.762   2.876   1.686
 4719SOL    HW115056   4.696   2.904   1.755
 4719SOL    HW215057   4.805   2.956   1.646
 4720SOL     OW15058   2.291   5.262   5.772
 4720SOL    HW115059   2.340   5.315   5.841
 4720SOL    HW215060   2.322   5.289   5.681
 4721SOL     OW15061   6.796   1.741   2.733
 4721SOL    HW115062   6.700   1.731   2.761
 4721SOL    HW215063   6.817   1.675   2.661
 4722SOL     OW15064   1.161   6.153   6.719
 4722SOL    HW115065   1.232   6.134   6.786
 4722SOL    HW215066   1.193   6.224   6.656
 4723SOL     OW15067   2.270   3.225   5.885
 4723SOL    HW115068   2.204   3.151   5.893
 4723SOL    HW215069   2.363   3.188   5.887
 4724SOL     OW15070   6.323   0.257   4.055
 4724SOL    HW115071   6.282   0.225   3.969
 4724SOL    HW215072   6.268   0.226   4.132
 4725SOL     OW15073   6.602   5.073   0.930
 4725SOL    HW115074   6.641   5.019   0.855
 4725SOL    HW215075   6.579   5.012   1.006
 4726SOL     OW15076   1.367   3.158   6.535
 4726SOL    HW115077   1.461   3.177   6.506
 4726SOL    HW215078   1.318   3.112   6.461
 4727SOL     OW15079   0.996   6.656   1.532
 4727SOL    HW115080   0.974   6.750   1.506
 4727SOL    HW215081   0.921   6.596   1.504
 4728SOL     OW15082   5.545   1.317   1.840
 4728SOL    HW115083   5.504   1.325   1.749
 4728SOL    HW215084   5.639   1.285   1.832
 4729SOL     OW15085   4.793   1.002   0.696
 4729SOL    HW115086   4.753   1.092   0.712
 4729SOL    HW215087   4.885   1.012   0.658
 4730SOL     OW15088   3.247   5.904   4.773
 4730SOL    HW115089   3.331   5.849   4.773
 4730SOL    HW215090   3.245   5.961   4.855
 4731SOL     OW15091   2.983   0.170   0.376
 4731SOL    HW115092   2.961   0.266   0.390
 4731SOL    HW215093   2.947   0.139   0.288
 4732SOL     OW15094   0.960   3.968   5.087
 4732SOL    HW115095   0.924   3.977   5.179
 4732SOL    HW215096   1.003   4.054   5.059
 4733SOL     OW15097   2.077   3.872   3.598
 4733SOL    HW115098   1.989   3.919   3.588
 4733SOL    HW215099   2.146   3.937   3.630
 4734SOL     OW15100   4.732   3.496   6.844
 4734SOL    HW115101   4.661   3.564   6.826
 4734SOL    HW215102   4.809   3.539   6.891
 4735SOL     OW15103   0.353   5.180   4.973
 4735SOL    HW115104   0.359   5.158   4.876
 4735SOL    HW215105   0.298   5.111   5.020
 4736SOL     OW15106   6.259   1.420   5.956
 4736SOL    HW115107   6.351   1.458   5.939
 4736SOL    HW215108   6.205   1.487   6.008
 4737SOL     OW15109   3.255   4.334   1.442
 4737SOL    HW115110   3.213   4.394   1.510
 4737SOL    HW215111   3.201   4.334   1.358
 4738SOL     OW15112   1.605   6.605   3.065
 4738SOL    HW115113   1.643   6.659   3.140
 4738SOL    HW215114   1.573   6.665   2.993
 4739SOL     OW15115   4.545   2.110   2.937
 4739SOL    HW115116   4.615   2.042   2.956
 4739SOL    HW215117   4.463   2.090   2.992
 4740SOL     OW15118   0.275   1.747   0.599
 4740SOL    HW115119   0.251   1.755   0.502
 4740SOL    HW215120   0.270   1.837   0.642
 4741SOL     OW15121   5.193   3.514   0.867
 4741SOL    HW115122   5.265   3.461   0.822
 4741SOL    HW215123   5.208   3.514   0.966
 4742SOL     OW15124   3.158   0.048   6.891
 4742SOL    HW115125   3.174   6.974   6.901
 4742SOL    HW215126   3.067   0.064   6.854
 4743SOL     OW15127   1.912   3.556   5.435
 4743SOL    HW115128   1.847   3.590   5.366
 4743SOL    HW215129   1.992   3.518   5.390
 4744SOL     OW15130   2.520   3.693   5.886
 4744SOL    HW115131   2.451   3.736   5.827
 4744SOL    HW215132   2.481   3.677   5.977
 4745SOL     OW15133   3.137   5.597   6.153
 4745SOL    HW115134   3.203   5.585   6.079
 4745SOL    HW215135   3.153   5.528   6.224
 4746SOL     OW15136   5.687   6.601   2.430
 4746SOL    HW115137   5.686   6.701   2.420
 4746SOL    HW215138   5.777   6.572   2.462
 4747SOL     OW15139   2.094   3.973   6.425
 4747SOL    HW115140   2.066   4.061   6.463
 4747SOL    HW215141   2.016   3.933   6.376
 4748SOL     OW15142   0.775   4.862   0.759
 4748SOL    HW115143   0.781   4.812   0.845
 4748SOL    HW215144   0.855   4.842   0.703
 4749SOL     OW15145   3.069   6.088   5.465
 4749SOL    HW115146   3.104   5.997   5.488
 4749SOL    HW215147   3.042   6.135   5.549
 4750SOL     OW15148   0.190   3.722   3.682
 4750SOL    HW115149   0.138   3.646   3.719
 4750SOL    HW215150   0.215   3.702   3.587
 4751SOL     OW15151   2.965   2.685   0.899
 4751SOL    HW115152   2.875   2.676   0.857
 4751SOL    HW215153   2.965   2.762   0.962
 4752SOL     OW15154   3.159   0.428   6.726
 4752SOL    HW115155   3.066   0.465   6.725
 4752SOL    HW215156   3.163   0.344   6.671
 4753SOL     OW15157   4.949   0.759   3.649
 4753SOL    HW115158   4.944   0.836   3.712
 4753SOL    HW215159   4.915   0.676   3.694
 4754SOL     OW15160   6.248   6.991   4.709
 4754SOL    HW115161   6.214   6.964   4.618
 4754SOL    HW215162   6.334   0.015   4.699
 4755SOL     OW15163   2.229   0.444   1.083
 4755SOL    HW115164   2.150   0.499   1.057
 4755SOL    HW215165   2.276   0.487   1.160
 4756SOL     OW15166   6.221   3.390   1.463
 4756SOL    HW115167   6.180   3.358   1.378
 4756SOL    HW215168   6.173   3.349   1.541
 4757SOL     OW15169   2.195   1.916   0.705
 4757SOL    HW115170   2.247   1.907   0.790
 4757SOL    HW215171   2.242   1.867   0.632
 4758SOL     OW15172   1.789   5.880   4.118
 4758SOL    HW115173   1.695   5.915   4.121
 4758SOL    HW215174   1.853   5.957   4.117
 4759SOL     OW15175   5.664   5.016   4.526
 4759SOL    HW115176   5.650   5.014   4.625
 4759SOL    HW215177   5.599   4.955   4.482
 4760SOL     OW15178   3.248   2.129   0.368
 4760SOL    HW115179   3.242   2.030   0.356
 4760SOL    HW215180   3.220   2.175   0.284
 4761SOL     OW15181   0.333   6.284   0.055
 4761SOL    HW115182   0.278   6.329   7.009
 4761SOL    HW215183   0.316   6.186   0.053
 4762SOL     OW15184   1.596   5.760   2.971
 4762SOL    HW115185   1.519   5.792   3.026
 4762SOL    HW215186   1.567   5.681   2.916
 4763SOL     OW15187   6.327   6.163   3.315
 4763SOL    HW115188   6.315   6.262   3.316
 4763SOL    HW215189   6.241   6.120   3.288
 4764SOL     OW15190   4.944   3.877   4.992
 4764SOL    HW115191   4.939   3.914   4.899
 4764SOL    HW215192   4.913   3.781   4.990
 4765SOL     OW15193   4.369   0.963   4.403
 4765SOL    HW115194   4.354   1.062   4.399
 4765SOL    HW215195   4.420   0.933   4.322
 4766SOL     OW15196   5.053   5.637   3.880
 4766SOL    HW115197   5.060   5.726   3.926
 4766SOL    HW215198   5.061   5.650   3.781
 4767SOL     OW15199   4.047   5.134   5.760
 4767SOL    HW115200   4.062   5.055   5.819
 4767SOL    HW215201   4.034   5.215   5.817
 4768SOL     OW15202   4.112   1.142   5.481
 4768SOL    HW115203   4.148   1.228   5.516
 4768SOL    HW215204   4.055   1.099   5.551
 4769SOL     OW15205   5.279   4.665   0.436
 4769SOL    HW115206   5.352   4.718   0.393
 4769SOL    HW215207   5.317   4.591   0.490
 4770SOL     OW15208   0.982   0.707   4.461
 4770SOL    HW115209   0.917   0.642   4.421
 4770SOL    HW215210   0.955   0.726   4.556
 4771SOL     OW15211   3.309   5.509   5.768
 4771SOL    HW115212   3.357   5.484   5.853
 4771SOL    HW215213   3.376   5.524   5.696
 4772SOL     OW15214   3.097   4.360   1.153
 4772SOL    HW115215   3.006   4.320   1.150
 4772SOL    HW215216   3.151   4.325   1.077
 4773SOL     OW15217   6.777   5.782   5.161
 4773SOL    HW115218   6.785   5.686   5.132
 4773SOL    HW215219   6.697   5.823   5.116
 4774SOL     OW15220   1.252   2.383   2.116
 4774SOL    HW115221   1.277   2.286   2.115
 4774SOL    HW215222   1.183   2.400   2.045
 4775SOL     OW15223   5.176   6.380   2.430
 4775SOL    HW115224   5.170   6.359   2.333
 4775SOL    HW215225   5.271   6.396   2.455
 4776SOL     OW15226   1.082   5.863   5.457
 4776SOL    HW115227   1.102   5.948   5.407
 4776SOL    HW215228   1.083   5.786   5.394
 4777SOL     OW15229   2.715   5.124   1.070
 4777SOL    HW115230   2.765   5.045   1.104
 4777SOL    HW215231   2.768   5.169   0.998
 4778SOL     OW15232   6.666   2.782   3.273
 4778SOL    HW115233   6.642   2.840   3.350
 4778SOL    HW215234   6.666   2.836   3.189
 4779SOL     OW15235   6.371   6.519   2.404
 4779SOL    HW115236   6.371   6.425   2.368
 4779SOL    HW215237   6.340   6.582   2.334
 4780SOL     OW15238   6.506   0.565   0.427
 4780SOL    HW115239   6.420   0.515   0.439
 4780SOL    HW215240   6.559   0.523   0.353
 4781SOL     OW15241   1.927   5.924   2.238
 4781SOL    HW115242   1.958   5.956   2.148
 4781SOL    HW215243   1.868   5.992   2.279
 4782SOL     OW15244   4.275   5.853   0.024
 4782SOL    HW115245   4.193   5.869   0.078
 4782SOL    HW215246   4.288   5.755   0.010
 4783SOL     OW15247   5.075   4.802   0.151
 4783SOL    HW115248   5.079   4.901   0.138
 4783SOL    HW215249   5.096   4.757   0.065
 4784SOL     OW15250   5.718   4.070   6.649
 4784SOL    HW115251   5.770   4.130   6.710
 4784SOL    HW215252   5.712   3.978   6.689
 4785SOL     OW15253   6.764   5.982   1.921
 4785SOL    HW115254   6.809   6.068   1.945
 4785SOL    HW215255   6.822   5.931   1.857
 4786SOL     OW15256   2.842   1.586   0.279
 4786SOL    HW115257   2.771   1.517   0.297
 4786SOL    HW215258   2.894   1.603   0.362
 4787SOL     OW15259   4.482   1.479   2.358
 4787SOL    HW115260   4.433   1.531   2.428
 4787SOL    HW215261   4.551   1.421   2.402
 4788SOL     OW15262   0.818   5.516   5.893
 4788SOL    HW115263   0.792   5.439   5.835
 4788SOL    HW215264   0.880   5.576   5.842
 4789SOL     OW15265   5.559   1.240   1.053
 4789SOL    HW115266   5.642   1.196   1.020
 4789SOL    HW215267   5.524   1.190   1.132
 4790SOL     OW15268   6.510   2.654   4.629
 4790SOL    HW115269   6.575   2.578   4.620
 4790SOL    HW215270   6.545   2.720   4.695
 4791SOL     OW15271   6.183   2.367   1.497
 4791SOL    HW115272   6.122   2.302   1.453
 4791SOL    HW215273   6.267   2.321   1.524
 4792SOL     OW15274   2.095   3.422   3.150
 4792SOL    HW115275   2.147   3.450   3.070
 4792SOL    HW215276   2.005   3.466   3.149
 4793SOL     OW15277   2.054   2.691   5.893
 4793SOL    HW115278   2.024   2.610   5.842
 4793SOL    HW215279   1.975   2.749   5.911
 4794SOL     OW15280   4.186   0.655   3.547
 4794SOL    HW115281   4.138   0.626   3.630
 4794SOL    HW215282   4.120   0.663   3.472
 4795SOL     OW15283   6.375   2.363   4.256
 4795SOL    HW115284   6.373   2.453   4.213
 4795SOL    HW215285   6.315   2.300   4.205
 4796SOL     OW15286   4.912   1.690   5.413
 4796SOL    HW115287   4.870   1.599   5.418
 4796SOL    HW215288   4.977   1.701   5.488
 4797SOL     OW15289   1.304   6.371   6.040
 4797SOL    HW115290   1.277   6.308   6.114
 4797SOL    HW215291   1.296   6.465   6.072
 4798SOL     OW15292   0.093   3.233   4.720
 4798SOL    HW115293   0.149   3.275   4.648
 4798SOL    HW215294   0.031   3.166   4.678
 4799SOL     OW15295   5.416   2.487   6.611
 4799SOL    HW115296   5.377   2.404   6.651
 4799SOL    HW215297   5.345   2.536   6.561
 4800SOL     OW15298   3.249   3.453   5.952
 4800SOL    HW115299   3.246   3.437   5.854
 4800SOL    HW215300   3.210   3.374   6.000
 4801SOL     OW15301   2.883   2.228   0.361
 4801SOL    HW115302   2.843   2.150   0.312
 4801SOL    HW215303   2.893   2.205   0.458
 4802SOL     OW15304   0.868   6.066   2.156
 4802SOL    HW115305   0.900   5.999   2.089
 4802SOL    HW215306   0.828   6.144   2.108
 4803SOL     OW15307   0.909   5.414   1.332
 4803SOL    HW115308   0.971   5.412   1.410
 4803SOL    HW215309   0.960   5.434   1.248
 4804SOL     OW15310   5.251   5.710   6.623
 4804SOL    HW115311   5.350   5.711   6.605
 4804SOL    HW215312   5.208   5.787   6.576
 4805SOL     OW15313   5.501   0.776   2.174
 4805SOL    HW115314   5.413   0.822   2.163
 4805SOL    HW215315   5.547   0.811   2.256
 4806SOL     OW15316   0.932   4.633   2.994
 4806SOL    HW115317   0.921   4.728   2.966
 4806SOL    HW215318   0.865   4.611   3.065
 4807SOL     OW15319   0.974   4.562   0.398
 4807SOL    HW115320   0.897   4.606   0.351
 4807SOL    HW215321   0.941   4.520   0.483
 4808SOL     OW15322   5.755   3.776   6.657
 4808SOL    HW115323   5.807   3.716   6.596
 4808SOL    HW215324   5.811   3.799   6.737
 4809SOL     OW15325   3.517   4.496   6.857
 4809SOL    HW115326   3.598   4.506   6.800
 4809SOL    HW215327   3.534   4.428   6.929
 4810SOL     OW15328   1.287   5.322   2.598
 4810SOL    HW115329   1.275   5.391   2.527
 4810SOL    HW215330   1.382   5.293   2.600
 4811SOL     OW15331   2.532   4.207   1.674
 4811SOL    HW115332   2.609   4.272   1.672
 4811SOL    HW215333   2.515   4.174   1.581
 4812SOL     OW15334   6.522   5.332   4.265
 4812SOL    HW115335   6.463   5.251   4.266
 4812SOL    HW215336   6.600   5.316   4.204
 4813SOL     OW15337   5.074   1.651   1.217
 4813SOL    HW115338   5.091   1.694   1.306
 4813SOL    HW215339   5.135   1.573   1.205
 4814SOL     OW15340   6.559   3.914   0.627
 4814SOL    HW115341   6.655   3.887   0.620
 4814SOL    HW215342   6.546   4.002   0.582
 4815SOL     OW15343   5.493   4.790   2.826
 4815SOL    HW115344   5.564   4.807   2.894
 4815SOL    HW215345   5.518   4.710   2.771
 4816SOL     OW15346   1.586   5.302   0.931
 4816SOL    HW115347   1.646   5.254   0.994
 4816SOL    HW215348   1.515   5.351   0.982
 4817SOL     OW15349   0.320   2.054   6.722
 4817SOL    HW115350   0.294   2.095   6.635
 4817SOL    HW215351   0.252   2.078   6.792
 4818SOL     OW15352   1.018   6.866   4.695
 4818SOL    HW115353   1.115   6.846   4.709
 4818SOL    HW215354   1.000   6.880   4.598
 4819SOL     OW15355   1.564   1.785   0.535
 4819SOL    HW115356   1.660   1.755   0.529
 4819SOL    HW215357   1.529   1.766   0.627
 4820SOL     OW15358   5.919   2.819   1.891
 4820SOL    HW115359   5.871   2.854   1.811
 4820SOL    HW215360   5.881   2.730   1.917
 4821SOL     OW15361   0.907   6.098   2.951
 4821SOL    HW115362   0.911   6.013   2.900
 4821SOL    HW215363   0.980   6.100   3.019
 4822SOL     OW15364   2.634   1.881   5.106
 4822SOL    HW115365   2.681   1.902   5.192
 4822SOL    HW215366   2.578   1.959   5.079
 4823SOL     OW15367   1.789   1.078   4.415
 4823SOL    HW115368   1.725   1.147   4.449
 4823SOL    HW215369   1.877   1.121   4.396
 4824SOL     OW15370   4.864   2.597   5.149
 4824SOL    HW115371   4.897   2.540   5.224
 4824SOL    HW215372   4.766   2.612   5.158
 4825SOL     OW15373   1.973   2.967   4.931
 4825SOL    HW115374   2.046   2.949   4.996
 4825SOL    HW215375   2.008   3.022   4.856
 4826SOL     OW15376   5.446   1.498   6.843
 4826SOL    HW115377   5.519   1.502   6.910
 4826SOL    HW215378   5.483   1.519   6.752
 4827SOL     OW15379   6.372   1.643   0.623
 4827SOL    HW115380   6.425   1.720   0.588
 4827SOL    HW215381   6.407   1.617   0.713
 4828SOL     OW15382   5.277   1.973   1.074
 4828SOL    HW115383   5.207   2.045   1.071
 4828SOL    HW215384   5.234   1.884   1.056
 4829SOL     OW15385   4.039   6.616   5.305
 4829SOL    HW115386   4.048   6.675   5.224
 4829SOL    HW215387   3.997   6.669   5.379
 4830SOL     OW15388   4.102   5.987   4.550
 4830SOL    HW115389   4.124   5.890   4.542
 4830SOL    HW215390   4.027   6.010   4.488
 4831SOL     OW15391   1.409   4.343   6.097
 4831SOL    HW115392   1.487   4.360   6.037
 4831SOL    HW215393   1.333   4.403   6.072
 4832SOL     OW15394   3.845   4.069   3.629
 4832SOL    HW115395   3.833   4.075   3.728
 4832SOL    HW215396   3.769   4.116   3.583
 4833SOL     OW15397   5.497   1.001   2.760
 4833SOL    HW115398   5.597   0.997   2.764
 4833SOL    HW215399   5.461   0.912   2.735
 4834SOL     OW15400   3.125   6.350   1.660
 4834SOL    HW115401   3.150   6.328   1.566
 4834SOL    HW215402   3.057   6.285   1.693
 4835SOL     OW15403   5.771   1.759   6.441
 4835SOL    HW115404   5.791   1.706   6.358
 4835SOL    HW215405   5.684   1.807   6.431
 4836SOL     OW15406   5.163   2.229   4.964
 4836SOL    HW115407   5.205   2.160   5.023
 4836SOL    HW215408   5.068   2.243   4.992
 4837SOL     OW15409   0.033   3.874   3.007
 4837SOL    HW115410   0.068   3.780   3.006
 4837SOL    HW215411   0.067   3.921   3.088
 4838SOL     OW15412   1.127   5.386   0.155
 4838SOL    HW115413   1.197   5.359   0.221
 4838SOL    HW215414   1.166   5.386   0.063
 4839SOL     OW15415   1.552   3.884   0.125
 4839SOL    HW115416   1.479   3.915   0.063
 4839SOL    HW215417   1.639   3.923   0.095
 4840SOL     OW15418   0.002   4.841   6.418
 4840SOL    HW115419   0.087   4.791   6.433
 4840SOL    HW215420   0.012   4.903   6.340
 4841SOL     OW15421   2.485   5.214   2.569
 4841SOL    HW115422   2.460   5.310   2.581
 4841SOL    HW215423   2.540   5.183   2.647
 4842SOL     OW15424   3.580   5.120   2.355
 4842SOL    HW115425   3.539   5.141   2.266
 4842SOL    HW215426   3.678   5.140   2.352
 4843SOL     OW15427   6.198   2.993   1.718
 4843SOL    HW115428   6.211   3.034   1.808
 4843SOL    HW215429   6.103   3.004   1.688
 4844SOL     OW15430   6.975   3.124   6.295
 4844SOL    HW115431   6.925   3.173   6.366
 4844SOL    HW215432   0.034   3.086   6.333
 4845SOL     OW15433   5.440   4.811   6.589
 4845SOL    HW115434   5.523   4.755   6.591
 4845SOL    HW215435   5.364   4.757   6.553
 4846SOL     OW15436   0.106   2.383   3.591
 4846SOL    HW115437   0.111   2.404   3.493
 4846SOL    HW215438   0.192   2.340   3.620
 4847SOL     OW15439   2.564   1.011   6.395
 4847SOL    HW115440   2.480   1.003   6.447
 4847SOL    HW215441   2.614   1.093   6.424
 4848SOL     OW15442   1.941   1.196   4.720
 4848SOL    HW115443   1.925   1.295   4.720
 4848SOL    HW215444   2.013   1.174   4.654
 4849SOL     OW15445   1.809   5.745   0.066
 4849SOL    HW115446   1.797   5.662   0.120
 4849SOL    HW215447   1.720   5.782   0.040
 4850SOL     OW15448   4.239   1.211   1.554
 4850SOL    HW115449   4.148   1.193   1.592
 4850SOL    HW215450   4.308   1.177   1.618
 4851SOL     OW15451   3.404   6.807   5.807
 4851SOL    HW115452   3.310   6.838   5.796
 4851SOL    HW215453   3.406   6.722   5.860
 4852SOL     OW15454   2.198   5.778   4.985
 4852SOL    HW115455   2.112   5.811   4.946
 4852SOL    HW215456   2.267   5.769   4.913
 4853SOL     OW15457   3.318   1.335   3.580
 4853SOL    HW115458   3.242   1.288   3.626
 4853SOL    HW215459   3.354   1.407   3.640
 4854SOL     OW15460   4.361   6.436   2.310
 4854SOL    HW115461   4.298   6.501   2.268
 4854SOL    HW215462   4.322   6.400   2.394
 4855SOL     OW15463   5.865   2.809   4.419
 4855SOL    HW115464   5.949   2.850   4.384
 4855SOL    HW215465   5.886   2.718   4.455
 4856SOL     OW15466   1.698   3.352   2.968
 4856SOL    HW115467   1.731   3.379   3.058
 4856SOL    HW215468   1.602   3.324   2.974
 4857SOL     OW15469   2.830   2.237   3.597
 4857SOL    HW115470   2.828   2.325   3.644
 4857SOL    HW215471   2.865   2.167   3.659
 4858SOL     OW15472   6.853   0.265   4.916
 4858SOL    HW115473   6.887   0.257   5.010
 4858SOL    HW215474   6.763   0.222   4.909
 4859SOL     OW15475   0.627   5.278   2.746
 4859SOL    HW115476   0.560   5.350   2.760
 4859SOL    HW215477   0.601   5.196   2.798
 4860SOL     OW15478   4.745   4.366   0.479
 4860SOL    HW115479   4.655   4.402   0.505
 4860SOL    HW215480   4.790   4.431   0.418
 4861SOL     OW15481   6.166   4.941   6.798
 4861SOL    HW115482   6.078   4.986   6.812
 4861SOL    HW215483   6.237   5.010   6.787
 4862SOL     OW15484   1.990   4.358   4.877
 4862SOL    HW115485   1.910   4.299   4.883
 4862SOL    HW215486   2.072   4.303   4.858
 4863SOL     OW15487   5.182   3.321   2.079
 4863SOL    HW115488   5.201   3.272   1.994
 4863SOL    HW215489   5.170   3.418   2.059
 4864SOL     OW15490   3.371   1.266   2.192
 4864SOL    HW115491   3.297   1.258   2.124
 4864SOL    HW215492   3.455   1.294   2.145
 4865SOL     OW15493   1.666   6.208   4.367
 4865SOL    HW115494   1.622   6.249   4.287
 4865SOL    HW215495   1.603   6.142   4.410
 4866SOL     OW15496   6.118   5.056   1.695
 4866SOL    HW115497   6.158   5.058   1.603
 4866SOL    HW215498   6.125   4.963   1.732
 4867SOL     OW15499   5.274   5.687   2.747
 4867SOL    HW115500   5.286   5.767   2.807
 4867SOL    HW215501   5.201   5.629   2.784
 4868SOL     OW15502   0.475   5.281   2.018
 4868SOL    HW115503   0.541   5.352   2.043
 4868SOL    HW215504   0.523   5.194   2.004
 4869SOL     OW15505   0.580   2.083   1.975
 4869SOL    HW115506   0.505   2.040   1.924
 4869SOL    HW215507   0.543   2.130   2.055
 4870SOL     OW15508   6.514   5.997   1.643
 4870SOL    HW115509   6.578   6.036   1.576
 4870SOL    HW215510   6.423   6.035   1.628
 4871SOL     OW15511   0.421   1.390   4.750
 4871SOL    HW115512   0.508   1.341   4.743
 4871SOL    HW215513   0.354   1.350   4.688
 4872SOL     OW15514   7.023   5.972   4.377
 4872SOL    HW115515   0.013   5.952   4.474
 4872SOL    HW215516   0.076   5.938   4.324
 4873SOL     OW15517   6.795   4.747   3.879
 4873SOL    HW115518   6.873   4.689   3.855
 4873SOL    HW215519   6.827   4.839   3.901
 4874SOL     OW15520   5.914   3.319   3.224
 4874SOL    HW115521   5.848   3.393   3.233
 4874SOL    HW215522   5.982   3.325   3.297
 4875SOL     OW15523   4.885   2.702   1.289
 4875SOL    HW115524   4.838   2.633   1.234
 4875SOL    HW215525   4.975   2.666   1.317
 4876SOL     OW15526   5.471   1.158   4.623
 4876SOL    HW115527   5.494   1.190   4.532
 4876SOL    HW215528   5.549   1.170   4.684
 4877SOL     OW15529   6.825   1.978   6.956
 4877SOL    HW115530   6.796   2.035   6.879
 4877SOL    HW215531   6.753   1.974   0.000
 4878SOL     OW15532   6.269   1.297   3.343
 4878SOL    HW115533   6.240   1.376   3.397
 4878SOL    HW215534   6.216   1.293   3.259
 4879SOL     OW15535   4.584   5.090   3.358
 4879SOL    HW115536   4.528   5.051   3.431
 4879SOL    HW215537   4.594   5.189   3.373
 4880SOL     OW15538   5.996   3.403   6.726
 4880SOL    HW115539   5.956   3.420   6.637
 4880SOL    HW215540   5.953   3.462   6.794
 4881SOL     OW15541   2.127   6.934   6.808
 4881SOL    HW115542   2.149   6.849   6.856
 4881SOL    HW215543   2.107   6.913   6.712
 4882SOL     OW15544   5.677   1.659   4.169
 4882SOL    HW115545   5.657   1.666   4.267
 4882SOL    HW215546   5.594   1.675   4.116
 4883SOL     OW15547   4.924   4.812   2.338
 4883SOL    HW115548   4.902   4.854   2.426
 4883SOL    HW215549   5.012   4.766   2.344
 4884SOL     OW15550   4.117   0.333   1.077
 4884SOL    HW115551   4.144   0.406   1.139
 4884SOL    HW215552   4.022   0.347   1.049
 4885SOL     OW15553   3.289   6.025   1.915
 4885SOL    HW115554   3.363   6.053   1.977
 4885SOL    HW215555   3.202   6.029   1.964
 4886SOL     OW15556   6.332   5.846   6.364
 4886SOL    HW115557   6.338   5.869   6.267
 4886SOL    HW215558   6.359   5.751   6.378
 4887SOL     OW15559   0.084   0.279   2.810
 4887SOL    HW115560   0.167   0.328   2.786
 4887SOL    HW215561   0.049   0.315   2.897
 4888SOL     OW15562   1.887   6.335   4.460
 4888SOL    HW115563   1.803   6.302   4.419
 4888SOL    HW215564   1.873   6.350   4.558
 4889SOL     OW15565   6.178   0.654   6.631
 4889SOL    HW115566   6.191   0.559   6.661
 4889SOL    HW215567   6.092   0.661   6.580
 4890SOL     OW15568   0.438   2.116   5.623
 4890SOL    HW115569   0.367   2.141   5.557
 4890SOL    HW215570   0.409   2.035   5.674
 4891SOL     OW15571   1.316   5.871   0.703
 4891SOL    HW115572   1.288   5.918   0.786
 4891SOL    HW215573   1.415   5.857   0.705
 4892SOL     OW15574   2.163   6.570   1.923
 4892SOL    HW115575   2.097   6.586   1.850
 4892SOL    HW215576   2.179   6.471   1.932
 4893SOL     OW15577   6.957   4.284   0.535
 4893SOL    HW115578   6.942   4.220   0.610
 4893SOL    HW215579   6.869   4.311   0.496
 4894SOL     OW15580   2.013   2.207   2.136
 4894SOL    HW115581   2.096   2.258   2.111
 4894SOL    HW215582   2.032   2.150   2.216
 4895SOL     OW15583   0.358   4.504   2.664
 4895SOL    HW115584   0.289   4.572   2.639
 4895SOL    HW215585   0.370   4.439   2.589
 4896SOL     OW15586   2.423   5.195   1.932
 4896SOL    HW115587   2.499   5.227   1.876
 4896SOL    HW215588   2.436   5.226   2.026
 4897SOL     OW15589   2.554   4.824   5.627
 4897SOL    HW115590   2.513   4.907   5.666
 4897SOL    HW215591   2.496   4.789   5.554
 4898SOL     OW15592   4.947   1.031   4.480
 4898SOL    HW115593   5.003   0.987   4.550
 4898SOL    HW215594   4.981   1.124   4.463
 4899SOL     OW15595   6.288   5.065   3.565
 4899SOL    HW115596   6.352   4.998   3.526
 4899SOL    HW215597   6.329   5.156   3.562
 4900SOL     OW15598   1.700   5.706   5.373
 4900SOL    HW115599   1.723   5.615   5.409
 4900SOL    HW215600   1.744   5.718   5.283
 4901SOL     OW15601   2.778   6.615   5.507
 4901SOL    HW115602   2.814   6.681   5.441
 4901SOL    HW215603   2.765   6.527   5.462
 4902SOL     OW15604   2.794   2.317   4.796
 4902SOL    HW115605   2.883   2.362   4.796
 4902SOL    HW215606   2.804   2.221   4.823
 4903SOL     OW15607   3.056   6.581   6.409
 4903SOL    HW115608   2.964   6.618   6.392
 4903SOL    HW215609   3.088   6.610   6.499
 4904SOL     OW15610   0.797   0.509   4.034
 4904SOL    HW115611   0.841   0.438   4.087
 4904SOL    HW215612   0.758   0.578   4.095
 4905SOL     OW15613   4.369   1.210   2.177
 4905SOL    HW115614   4.369   1.298   2.131
 4905SOL    HW215615   4.284   1.162   2.157
 4906SOL     OW15616   4.072   1.725   6.752
 4906SOL    HW115617   4.171   1.726   6.770
 4906SOL    HW215618   4.048   1.805   6.698
 4907SOL     OW15619   4.908   6.196   1.278
 4907SOL    HW115620   4.927   6.292   1.299
 4907SOL    HW215621   4.858   6.189   1.192
 4908SOL     OW15622   5.107   4.745   6.438
 4908SOL    HW115623   5.113   4.844   6.426
 4908SOL    HW215624   5.011   4.717   6.440
 4909SOL     OW15625   6.797   0.371   5.185
 4909SOL    HW115626   6.785   0.414   5.275
 4909SOL    HW215627   6.895   0.359   5.167
 4910SOL     OW15628   5.216   6.777   4.553
 4910SOL    HW115629   5.300   6.760   4.501
 4910SOL    HW215630   5.190   6.873   4.544
 4911SOL     OW15631   6.716   2.761   5.282
 4911SOL    HW115632   6.743   2.794   5.372
 4911SOL    HW215633   6.795   2.761   5.221
 4912SOL     OW15634   5.336   2.462   1.538
 4912SOL    HW115635   5.241   2.430   1.537
 4912SOL    HW215636   5.394   2.396   1.490
 4913SOL     OW15637   4.083   3.416   3.380
 4913SOL    HW115638   3.989   3.399   3.350
 4913SOL    HW215639   4.100   3.514   3.384
 4914SOL     OW15640   3.163   6.751   4.928
 4914SOL    HW115641   3.216   6.740   5.012
 4914SOL    HW215642   3.104   6.831   4.935
 4915SOL     OW15643   4.264   0.356   4.766
 4915SOL    HW115644   4.204   0.380   4.691
 4915SOL    HW215645   4.344   0.307   4.730
 4916SOL     OW15646   2.335   1.514   3.600
 4916SOL    HW115647   2.418   1.491   3.651
 4916SOL    HW215648   2.259   1.526   3.663
 4917SOL     OW15649   1.454   4.895   0.604
 4917SOL    HW115650   1.456   4.962   0.678
 4917SOL    HW215651   1.471   4.804   0.640
 4918SOL     OW15652   2.657   6.958   2.821
 4918SOL    HW115653   2.619   6.873   2.858
 4918SOL    HW215654   2.733   6.989   2.878
 4919SOL     OW15655   1.853   1.701   0.510
 4919SOL    HW115656   1.914   1.639   0.560
 4919SOL    HW215657   1.904   1.783   0.483
 4920SOL     OW15658   4.854   0.437   6.078
 4920SOL    HW115659   4.881   0.530   6.052
 4920SOL    HW215660   4.821   0.436   6.172
 4921SOL     OW15661   1.824   4.504   1.216
 4921SOL    HW115662   1.771   4.493   1.300
 4921SOL    HW215663   1.871   4.419   1.194
 4922SOL     OW15664   2.003   3.149   4.684
 4922SOL    HW115665   1.907   3.171   4.696
 4922SOL    HW215666   2.054   3.231   4.661
 4923SOL     OW15667   3.021   1.099   0.670
 4923SOL    HW115668   3.067   1.159   0.736
 4923SOL    HW215669   2.922   1.105   0.683
 4924SOL     OW15670   1.872   2.539   6.157
 4924SOL    HW115671   1.839   2.596   6.082
 4924SOL    HW215672   1.967   2.562   6.177
 4925SOL     OW15673   5.411   6.531   0.790
 4925SOL    HW115674   5.393   6.624   0.760
 4925SOL    HW215675   5.332   6.496   0.841
 4926SOL     OW15676   4.715   2.259   1.198
 4926SOL    HW115677   4.767   2.181   1.235
 4926SOL    HW215678   4.637   2.278   1.258
 4927SOL     OW15679   3.981   3.799   4.144
 4927SOL    HW115680   4.000   3.755   4.232
 4927SOL    HW215681   3.981   3.898   4.156
 4928SOL     OW15682   0.122   0.387   6.932
 4928SOL    HW115683   0.126   0.328   6.851
 4928SOL    HW215684   0.206   0.377   6.985
 4929SOL     OW15685   1.343   4.438   4.909
 4929SOL    HW115686   1.401   4.366   4.871
 4929SOL    HW215687   1.332   4.423   5.008
 4930SOL     OW15688   6.193   0.713   2.037
 4930SOL    HW115689   6.202   0.626   1.989
 4930SOL    HW215690   6.095   0.734   2.048
 4931SOL     OW15691   6.882   6.800   1.468
 4931SOL    HW115692   6.977   6.827   1.488
 4931SOL    HW215693   6.836   6.874   1.419
 4932SOL     OW15694   2.498   2.970   1.728
 4932SOL    HW115695   2.573   3.035   1.723
 4932SOL    HW215696   2.497   2.913   1.645
 4933SOL     OW15697   2.868   6.588   4.063
 4933SOL    HW115698   2.964   6.570   4.085
 4933SOL    HW215699   2.860   6.676   4.016
 4934SOL     OW15700   1.556   4.931   2.800
 4934SOL    HW115701   1.599   4.845   2.829
 4934SOL    HW215702   1.543   4.930   2.701
 4935SOL     OW15703   0.997   1.553   6.692
 4935SOL    HW115704   0.942   1.624   6.735
 4935SOL    HW215705   1.071   1.595   6.639
 4936SOL     OW15706   2.438   5.311   2.184
 4936SOL    HW115707   2.375   5.365   2.240
 4936SOL    HW215708   2.458   5.225   2.230
 4937SOL     OW15709   6.704   3.240   5.529
 4937SOL    HW115710   6.757   3.156   5.545
 4937SOL    HW215711   6.673   3.242   5.434
 4938SOL     OW15712   2.764   5.649   0.455
 4938SOL    HW115713   2.764   5.550   0.444
 4938SOL    HW215714   2.815   5.673   0.538
 4939SOL     OW15715   1.093   1.711   3.987
 4939SOL    HW115716   1.130   1.724   3.895
 4939SOL    HW215717   1.079   1.614   4.004
 4940SOL     OW15718   0.777   1.331   5.825
 4940SOL    HW115719   0.862   1.280   5.839
 4940SOL    HW215720   0.797   1.415   5.774
 4941SOL     OW15721   4.300   2.437   5.373
 4941SOL    HW115722   4.330   2.503   5.442
 4941SOL    HW215723   4.258   2.484   5.296
 4942SOL     OW15724   5.456   3.486   5.071
 4942SOL    HW115725   5.493   3.433   5.146
 4942SOL    HW215726   5.405   3.565   5.107
 4943SOL     OW15727   5.040   4.257   5.317
 4943SOL    HW115728   5.030   4.271   5.415
 4943SOL    HW215729   5.073   4.164   5.300
 4944SOL     OW15730   2.530   4.508   1.902
 4944SOL    HW115731   2.516   4.546   1.811
 4944SOL    HW215732   2.619   4.537   1.937
 4945SOL     OW15733   1.293   6.685   5.215
 4945SOL    HW115734   1.285   6.712   5.119
 4945SOL    HW215735   1.226   6.614   5.235
 4946SOL     OW15736   0.907   5.557   0.311
 4946SOL    HW115737   0.821   5.508   0.294
 4946SOL    HW215738   0.983   5.492   0.311
 4947SOL     OW15739   2.413   0.403   0.882
 4947SOL    HW115740   2.345   0.427   0.952
 4947SOL    HW215741   2.407   0.468   0.807
 4948SOL     OW15742   2.322   2.339   2.435
 4948SOL    HW115743   2.392   2.346   2.364
 4948SOL    HW215744   2.232   2.337   2.393
 4949SOL     OW15745   6.476   4.187   5.636
 4949SOL    HW115746   6.534   4.121   5.589
 4949SOL    HW215747   6.532   4.261   5.672
 4950SOL     OW15748   1.897   4.423   5.381
 4950SOL    HW115749   1.996   4.440   5.384
 4950SOL    HW215750   1.880   4.325   5.383
 4951SOL     OW15751   6.358   0.972   4.258
 4951SOL    HW115752   6.344   0.979   4.160
 4951SOL    HW215753   6.327   0.882   4.290
 4952SOL     OW15754   0.149   6.973   6.282
 4952SOL    HW115755   0.214   6.986   6.356
 4952SOL    HW215756   0.062   7.017   6.305
 4953SOL     OW15757   1.233   0.028   3.642
 4953SOL    HW115758   1.170   0.068   3.708
 4953SOL    HW215759   1.322   0.074   3.650
 4954SOL     OW15760   3.163   3.270   6.877
 4954SOL    HW115761   3.066   3.265   6.900
 4954SOL    HW215762   3.200   3.357   6.908
 4955SOL     OW15763   2.511   6.573   0.012
 4955SOL    HW115764   2.599   6.595   6.996
 4955SOL    HW215765   2.524   6.540   0.106
 4956SOL     OW15766   2.922   6.980   5.622
 4956SOL    HW115767   2.920   6.985   5.522
 4956SOL    HW215768   2.829   6.988   5.657
 4957SOL     OW15769   5.968   2.529   1.625
 4957SOL    HW115770   5.965   2.629   1.620
 4957SOL    HW215771   6.058   2.497   1.596
 4958SOL     OW15772   0.777   5.015   6.411
 4958SOL    HW115773   0.720   5.091   6.379
 4958SOL    HW215774   0.783   5.016   6.511
 4959SOL     OW15775   6.133   1.629   0.472
 4959SOL    HW115776   6.160   1.600   0.380
 4959SOL    HW215777   6.212   1.623   0.533
 4960SOL     OW15778   4.168   4.748   3.902
 4960SOL    HW115779   4.080   4.792   3.887
 4960SOL    HW215780   4.187   4.743   4.000
 4961SOL     OW15781   3.420   0.713   5.889
 4961SOL    HW115782   3.368   0.645   5.940
 4961SOL    HW215783   3.514   0.715   5.922
 4962SOL     OW15784   5.788   2.649   0.568
 4962SOL    HW115785   5.835   2.565   0.541
 4962SOL    HW215786   5.856   2.717   0.597
 4963SOL     OW15787   0.564   5.775   0.470
 4963SOL    HW115788   0.481   5.775   0.414
 4963SOL    HW215789   0.620   5.695   0.448
 4964SOL     OW15790   2.332   0.176   4.838
 4964SOL    HW115791   2.334   0.272   4.810
 4964SOL    HW215792   2.355   0.118   4.760
 4965SOL     OW15793   0.802   0.040   2.076
 4965SOL    HW115794   0.837   0.004   1.989
 4965SOL    HW215795   0.855   0.002   2.151
 4966SOL     OW15796   2.812   6.359   5.346
 4966SOL    HW115797   2.840   6.354   5.250
 4966SOL    HW215798   2.878   6.308   5.402
 4967SOL     OW15799   3.721   4.844   5.470
 4967SOL    HW115800   3.650   4.858   5.538
 4967SOL    HW215801   3.811   4.852   5.513
 4968SOL     OW15802   0.117   1.122   3.509
 4968SOL    HW115803   0.041   1.173   3.470
 4968SOL    HW215804   0.090   1.084   3.598
 4969SOL     OW15805   1.943   6.063   2.733
 4969SOL    HW115806   1.909   6.012   2.812
 4969SOL    HW215807   1.896   6.032   2.650
 4970SOL     OW15808   2.823   1.881   1.317
 4970SOL    HW115809   2.855   1.882   1.223
 4970SOL    HW215810   2.810   1.786   1.347
 4971SOL     OW15811   5.995   5.338   3.165
 4971SOL    HW115812   5.921   5.343   3.098
 4971SOL    HW215813   6.068   5.400   3.139
 4972SOL     OW15814   0.944   3.573   1.352
 4972SOL    HW115815   0.845   3.570   1.365
 4972SOL    HW215816   0.970   3.510   1.278
 4973SOL     OW15817   1.679   0.290   1.967
 4973SOL    HW115818   1.686   0.298   1.867
 4973SOL    HW215819   1.594   0.333   1.998
 4974SOL     OW15820   6.795   4.639   0.650
 4974SOL    HW115821   6.732   4.638   0.573
 4974SOL    HW215822   6.770   4.712   0.713
 4975SOL     OW15823   6.184   3.849   5.782
 4975SOL    HW115824   6.132   3.766   5.761
 4975SOL    HW215825   6.129   3.907   5.842
 4976SOL     OW15826   2.150   1.904   3.973
 4976SOL    HW115827   2.087   1.833   4.003
 4976SOL    HW215828   2.244   1.871   3.979
 4977SOL     OW15829   4.804   5.065   0.165
 4977SOL    HW115830   4.797   4.978   0.213
 4977SOL    HW215831   4.739   5.130   0.204
 4978SOL     OW15832   6.357   4.444   5.096
 4978SOL    HW115833   6.402   4.534   5.097
 4978SOL    HW215834   6.261   4.456   5.069
 4979SOL     OW15835   6.564   6.762   5.864
 4979SOL    HW115836   6.609   6.827   5.925
 4979SOL    HW215837   6.473   6.739   5.899
 4980SOL     OW15838   5.311   5.451   3.343
 4980SOL    HW115839   5.349   5.394   3.271
 4980SOL    HW215840   5.368   5.445   3.425
 4981SOL     OW15841   4.159   5.377   0.598
 4981SOL    HW115842   4.143   5.358   0.695
 4981SOL    HW215843   4.147   5.474   0.580
 4982SOL     OW15844   3.374   1.423   6.086
 4982SOL    HW115845   3.366   1.508   6.035
 4982SOL    HW215846   3.460   1.378   6.063
 4983SOL     OW15847   6.233   3.333   5.735
 4983SOL    HW115848   6.252   3.273   5.658
 4983SOL    HW215849   6.205   3.279   5.814
 4984SOL     OW15850   5.827   4.331   3.365
 4984SOL    HW115851   5.832   4.422   3.406
 4984SOL    HW215852   5.889   4.270   3.414
 4985SOL     OW15853   6.095   6.904   2.973
 4985SOL    HW115854   6.017   6.901   2.911
 4985SOL    HW215855   6.086   6.834   3.044
 4986SOL     OW15856   0.042   4.933   0.870
 4986SOL    HW115857   0.113   4.867   0.847
 4986SOL    HW215858   0.012   4.979   0.786
 4987SOL     OW15859   0.120   6.389   2.500
 4987SOL    HW115860   0.216   6.392   2.530
 4987SOL    HW215861   0.061   6.419   2.575
 4988SOL     OW15862   5.276   0.858   2.626
 4988SOL    HW115863   5.217   0.919   2.680
 4988SOL    HW215864   5.230   0.770   2.615
 4989SOL     OW15865   5.276   6.487   1.312
 4989SOL    HW115866   5.210   6.519   1.244
 4989SOL    HW215867   5.334   6.417   1.272
 4990SOL     OW15868   2.669   2.098   5.957
 4990SOL    HW115869   2.661   2.188   5.915
 4990SOL    HW215870   2.604   2.091   6.033
 4991SOL     OW15871   6.516   5.581   3.729
 4991SOL    HW115872   6.459   5.522   3.672
 4991SOL    HW215873   6.605   5.538   3.745
 4992SOL     OW15874   4.866   0.495   1.829
 4992SOL    HW115875   4.846   0.420   1.893
 4992SOL    HW215876   4.958   0.530   1.847
 4993SOL     OW15877   3.593   5.900   5.033
 4993SOL    HW115878   3.661   5.854   5.091
 4993SOL    HW215879   3.599   5.863   4.940
 4994SOL     OW15880   1.731   0.462   4.658
 4994SOL    HW115881   1.655   0.398   4.657
 4994SOL    HW215882   1.815   0.415   4.632
 4995SOL     OW15883   0.682   1.867   5.268
 4995SOL    HW115884   0.628   1.943   5.305
 4995SOL    HW215885   0.667   1.861   5.169
 4996SOL     OW15886   0.254   1.453   3.006
 4996SOL    HW115887   0.286   1.372   3.056
 4996SOL    HW215888   0.227   1.524   3.071
 4997SOL     OW15889   4.527   2.519   2.474
 4997SOL    HW115890   4.597   2.461   2.514
 4997SOL    HW215891   4.441   2.469   2.468
 4998SOL     OW15892   2.087   3.263   5.188
 4998SOL    HW115893   2.093   3.168   5.156
 4998SOL    HW215894   2.141   3.273   5.272
 4999SOL     OW15895   6.626   3.397   6.052
 4999SOL    HW115896   6.676   3.329   5.999
 4999SOL    HW215897   6.582   3.462   5.990
 5000SOL     OW15898   3.583   6.707   3.294
 5000SOL    HW115899   3.567   6.629   3.353
 5000SOL    HW215900   3.654   6.684   3.227
 5001SOL     OW15901   0.738   4.431   2.178
 5001SOL    HW115902   0.662   4.433   2.243
 5001SOL    HW215903   0.719   4.495   2.103
 5002SOL     OW15904   1.032   3.420   2.196
 5002SOL    HW115905   1.058   3.481   2.120
 5002SOL    HW215906   1.044   3.468   2.283
 5003SOL     OW15907   3.191   5.283   2.966
 5003SOL    HW115908   3.100   5.246   2.981
 5003SOL    HW215909   3.235   5.234   2.891
 5004SOL     OW15910   2.699   4.629   5.298
 5004SOL    HW115911   2.717   4.659   5.392
 5004SOL    HW215912   2.780   4.644   5.242
 5005SOL     OW15913   3.432   3.021   0.955
 5005SOL    HW115914   3.343   3.034   0.913
 5005SOL    HW215915   3.447   2.923   0.972
 5006SOL     OW15916   4.979   0.595   1.260
 5006SOL    HW115917   5.060   0.624   1.311
 5006SOL    HW215918   4.919   0.674   1.245
 5007SOL     OW15919   0.990   6.322   0.736
 5007SOL    HW115920   0.974   6.315   0.638
 5007SOL    HW215921   0.976   6.416   0.765
 5008SOL     OW15922   5.379   6.433   1.577
 5008SOL    HW115923   5.460   6.377   1.562
 5008SOL    HW215924   5.347   6.470   1.490
 5009SOL     OW15925   0.371   1.376   0.499
 5009SOL    HW115926   0.363   1.459   0.443
 5009SOL    HW215927   0.283   1.356   0.542
 5010SOL     OW15928   4.238   3.431   1.764
 5010SOL    HW115929   4.193   3.410   1.851
 5010SOL    HW215930   4.305   3.359   1.744
 5011SOL     OW15931   1.913   4.246   2.060
 5011SOL    HW115932   1.866   4.214   2.143
 5011SOL    HW215933   1.882   4.339   2.039
 5012SOL     OW15934   5.610   3.678   5.333
 5012SOL    HW115935   5.639   3.588   5.299
 5012SOL    HW215936   5.618   3.680   5.432
 5013SOL     OW15937   5.178   1.490   6.738
 5013SOL    HW115938   5.256   1.431   6.761
 5013SOL    HW215939   5.211   1.581   6.716
 5014SOL     OW15940   6.325   4.576   1.271
 5014SOL    HW115941   6.310   4.612   1.179
 5014SOL    HW215942   6.418   4.598   1.300
 5015SOL     OW15943   4.738   1.776   4.738
 5015SOL    HW115944   4.716   1.679   4.726
 5015SOL    HW215945   4.828   1.785   4.781
 5016SOL     OW15946   1.626   3.092   6.845
 5016SOL    HW115947   1.710   3.120   6.893
 5016SOL    HW215948   1.547   3.129   6.893
 5017SOL     OW15949   2.678   2.884   1.117
 5017SOL    HW115950   2.658   2.910   1.212
 5017SOL    HW215951   2.721   2.793   1.117
 5018SOL     OW15952   1.106   4.100   2.419
 5018SOL    HW115953   1.016   4.142   2.410
 5018SOL    HW215954   1.164   4.127   2.343
 5019SOL     OW15955   0.953   5.120   5.808
 5019SOL    HW115956   1.024   5.149   5.744
 5019SOL    HW215957   0.984   5.138   5.902
 5020SOL     OW15958   5.530   0.388   0.026
 5020SOL    HW115959   5.628   0.402   0.014
 5020SOL    HW215960   5.508   0.392   0.123
 5021SOL     OW15961   0.330   1.227   0.098
 5021SOL    HW115962   0.280   1.220   0.184
 5021SOL    HW215963   0.414   1.173   0.104
 5022SOL     OW15964   1.370   1.126   0.798
 5022SOL    HW115965   1.467   1.142   0.779
 5022SOL    HW215966   1.318   1.130   0.712
 5023SOL     OW15967   0.071   3.441   1.646
 5023SOL    HW115968   7.004   3.429   1.607
 5023SOL    HW215969   0.076   3.397   1.735
 5024SOL     OW15970   6.159   5.682   1.627
 5024SOL    HW115971   6.092   5.722   1.689
 5024SOL    HW215972   6.251   5.709   1.656
 5025SOL     OW15973   4.135   1.563   2.689
 5025SOL    HW115974   4.072   1.557   2.612
 5025SOL    HW215975   4.097   1.623   2.759
 5026SOL     OW15976   6.235   6.150   5.151
 5026SOL    HW115977   6.304   6.125   5.082
 5026SOL    HW215978   6.194   6.238   5.126
 5027SOL     OW15979   0.325   6.057   1.682
 5027SOL    HW115980   0.320   6.053   1.582
 5027SOL    HW215981   0.278   6.140   1.714
 5028SOL     OW15982   0.222   2.116   2.333
 5028SOL    HW115983   0.313   2.078   2.354
 5028SOL    HW215984   0.156   2.083   2.401
 5029SOL     OW15985   6.631   2.186   1.997
 5029SOL    HW115986   6.545   2.182   2.047
 5029SOL    HW215987   6.707   2.202   2.061
 5030SOL     OW15988   6.850   6.746   6.952
 5030SOL    HW115989   6.875   6.835   6.989
 5030SOL    HW215990   6.844   6.752   6.852
 5031SOL     OW15991   6.225   0.324   5.932
 5031SOL    HW115992   6.225   0.407   5.877
 5031SOL    HW215993   6.136   0.279   5.924
 5032SOL     OW15994   1.985   2.250   0.185
 5032SOL    HW115995   1.942   2.286   0.103
 5032SOL    HW215996   2.024   2.160   0.166
 5033SOL     OW15997   2.299   6.708   5.575
 5033SOL    HW115998   2.363   6.662   5.512
 5033SOL    HW215999   2.219   6.650   5.589
 5034SOL     OW16000   5.818   0.509   3.599
 5034SOL    HW116001   5.870   0.552   3.673
 5034SOL    HW216002   5.880   0.486   3.524
 5035SOL     OW16003   0.907   3.327   0.033
 5035SOL    HW116004   0.817   3.294   0.063
 5035SOL    HW216005   0.927   3.290   6.967
 5036SOL     OW16006   0.803   5.070   6.707
 5036SOL    HW116007   0.813   4.970   6.715
 5036SOL    HW216008   0.765   5.106   6.792
 5037SOL     OW16009   5.745   3.903   2.048
 5037SOL    HW116010   5.669   3.908   1.984
 5037SOL    HW216011   5.711   3.916   2.141
 5038SOL     OW16012   3.668   3.948   6.076
 5038SOL    HW116013   3.628   3.863   6.110
 5038SOL    HW216014   3.626   3.973   5.989
 5039SOL     OW16015   2.925   4.259   5.966
 5039SOL    HW116016   2.883   4.178   6.006
 5039SOL    HW216017   2.855   4.314   5.919
 5040SOL     OW16018   1.627   6.055   5.674
 5040SOL    HW116019   1.672   5.992   5.738
 5040SOL    HW216020   1.585   6.002   5.600
 5041SOL     OW16021   2.147   1.764   2.692
 5041SOL    HW116022   2.246   1.755   2.688
 5041SOL    HW216023   2.122   1.835   2.757
 5042SOL     OW16024   6.540   2.927   0.244
 5042SOL    HW116025   6.462   2.957   0.190
 5042SOL    HW216026   6.534   2.828   0.260
 5043SOL     OW16027   3.126   0.042   5.998
 5043SOL    HW116028   3.190   7.007   6.047
 5043SOL    HW216029   3.119   0.130   6.046
 5044SOL     OW16030   0.529   6.727   6.930
 5044SOL    HW116031   0.608   6.671   6.952
 5044SOL    HW216032   0.481   6.689   6.851
 5045SOL     OW16033   4.873   0.487   6.361
 5045SOL    HW116034   4.949   0.426   6.382
 5045SOL    HW216035   4.907   0.581   6.354
 5046SOL     OW16036   3.340   4.094   2.582
 5046SOL    HW116037   3.319   4.044   2.498
 5046SOL    HW216038   3.433   4.131   2.577
 5047SOL     OW16039   0.870   4.249   2.345
 5047SOL    HW116040   0.848   4.165   2.295
 5047SOL    HW216041   0.850   4.328   2.288
 5048SOL     OW16042   0.924   1.563   2.726
 5048SOL    HW116043   0.864   1.497   2.772
 5048SOL    HW216044   0.886   1.587   2.637
 5049SOL     OW16045   5.526   2.070   6.051
 5049SOL    HW116046   5.506   2.160   6.089
 5049SOL    HW216047   5.550   2.080   5.954
 5050SOL     OW16048   1.721   1.676   1.332
 5050SOL    HW116049   1.799   1.737   1.319
 5050SOL    HW216050   1.711   1.654   1.429
 5051SOL     OW16051   4.766   4.604   0.738
 5051SOL    HW116052   4.705   4.607   0.659
 5051SOL    HW216053   4.712   4.595   0.821
 5052SOL     OW16054   2.226   1.127   5.959
 5052SOL    HW116055   2.194   1.220   5.938
 5052SOL    HW216056   2.256   1.123   6.054
 5053SOL     OW16057   2.128   3.733   3.377
 5053SOL    HW116058   2.121   3.792   3.457
 5053SOL    HW216059   2.123   3.637   3.406
 5054SOL     OW16060   3.690   5.432   5.272
 5054SOL    HW116061   3.638   5.360   5.226
 5054SOL    HW216062   3.707   5.406   5.367
 5055SOL     OW16063   1.906   2.178   5.879
 5055SOL    HW116064   1.995   2.139   5.904
 5055SOL    HW216065   1.836   2.143   5.941
 5056SOL     OW16066   6.551   4.049   6.777
 5056SOL    HW116067   6.493   4.070   6.856
 5056SOL    HW216068   6.496   4.001   6.708
 5057SOL     OW16069   6.692   5.900   3.807
 5057SOL    HW116070   6.699   5.810   3.850
 5057SOL    HW216071   6.743   5.966   3.861
 5058SOL     OW16072   2.782   3.487   5.559
 5058SOL    HW116073   2.728   3.543   5.495
 5058SOL    HW216074   2.774   3.391   5.534
 5059SOL     OW16075   5.808   1.147   3.825
 5059SOL    HW116076   5.759   1.142   3.738
 5059SOL    HW216077   5.773   1.224   3.878
 5060SOL     OW16078   0.711   2.150   5.654
 5060SOL    HW116079   0.765   2.067   5.643
 5060SOL    HW216080   0.616   2.132   5.629
 5061SOL     OW16081   4.183   2.462   1.766
 5061SOL    HW116082   4.199   2.559   1.749
 5061SOL    HW216083   4.087   2.440   1.746
 5062SOL     OW16084   5.230   0.920   3.107
 5062SOL    HW116085   5.235   0.848   3.176
 5062SOL    HW216086   5.210   1.007   3.153
 5063SOL     OW16087   1.168   6.851   2.073
 5063SOL    HW116088   1.212   6.918   2.133
 5063SOL    HW216089   1.069   6.856   2.084
 5064SOL     OW16090   5.056   4.075   1.366
 5064SOL    HW116091   5.111   4.157   1.379
 5064SOL    HW216092   5.080   4.032   1.279
 5065SOL     OW16093   1.942   0.276   3.691
 5065SOL    HW116094   1.972   0.267   3.786
 5065SOL    HW216095   1.851   0.237   3.681
 5066SOL     OW16096   4.879   5.121   2.167
 5066SOL    HW116097   4.834   5.168   2.242
 5066SOL    HW216098   4.873   5.176   2.084
 5067SOL     OW16099   4.639   0.947   1.397
 5067SOL    HW116100   4.705   0.895   1.452
 5067SOL    HW216101   4.683   1.030   1.363
 5068SOL     OW16102   3.633   4.605   0.369
 5068SOL    HW116103   3.592   4.536   0.308
 5068SOL    HW216104   3.612   4.581   0.463
 5069SOL     OW16105   2.097   3.670   5.608
 5069SOL    HW116106   2.026   3.638   5.546
 5069SOL    HW216107   2.171   3.712   5.555
 5070SOL     OW16108   4.682   4.974   4.146
 5070SOL    HW116109   4.583   4.969   4.141
 5070SOL    HW216110   4.721   4.953   4.056
 5071SOL     OW16111   4.124   2.169   3.150
 5071SOL    HW116112   4.126   2.213   3.240
 5071SOL    HW216113   4.030   2.143   3.128
 5072SOL     OW16114   1.083   0.259   1.080
 5072SOL    HW116115   1.092   0.311   0.994
 5072SOL    HW216116   1.001   0.202   1.075
 5073SOL     OW16117   0.145   5.923   1.874
 5073SOL    HW116118   0.128   5.834   1.917
 5073SOL    HW216119   0.203   5.910   1.794
 5074SOL     OW16120   3.286   2.961   1.271
 5074SOL    HW116121   3.326   3.052   1.285
 5074SOL    HW216122   3.343   2.909   1.208
 5075SOL     OW16123   1.251   1.997   6.580
 5075SOL    HW116124   1.314   2.031   6.649
 5075SOL    HW216125   1.208   2.074   6.533
 5076SOL     OW16126   4.077   1.184   0.953
 5076SOL    HW116127   4.091   1.128   0.872
 5076SOL    HW216128   4.165   1.221   0.984
 5077SOL     OW16129   1.586   4.750   5.512
 5077SOL    HW116130   1.684   4.733   5.523
 5077SOL    HW216131   1.571   4.846   5.487
 5078SOL     OW16132   1.455   0.459   4.144
 5078SOL    HW116133   1.392   0.387   4.171
 5078SOL    HW216134   1.499   0.497   4.225
 5079SOL     OW16135   2.382   3.142   6.384
 5079SOL    HW116136   2.408   3.116   6.291
 5079SOL    HW216137   2.410   3.236   6.402
 5080SOL     OW16138   6.168   6.619   6.089
 5080SOL    HW116139   6.209   6.677   6.160
 5080SOL    HW216140   6.205   6.644   6.000
 5081SOL     OW16141   3.129   3.037   4.603
 5081SOL    HW116142   3.062   3.017   4.532
 5081SOL    HW216143   3.081   3.068   4.686
 5082SOL     OW16144   4.676   5.910   0.547
 5082SOL    HW116145   4.767   5.908   0.504
 5082SOL    HW216146   4.635   6.001   0.534
 5083SOL     OW16147   1.996   6.704   2.414
 5083SOL    HW116148   2.041   6.736   2.331
 5083SOL    HW216149   1.933   6.775   2.446
 5084SOL     OW16150   0.298   4.956   4.719
 5084SOL    HW116151   0.307   4.905   4.634
 5084SOL    HW216152   0.347   5.043   4.712
 5085SOL     OW16153   5.083   3.221   6.797
 5085SOL    HW116154   5.015   3.269   6.741
 5085SOL    HW216155   5.088   3.264   6.887
 5086SOL     OW16156   0.936   5.785   3.149
 5086SOL    HW116157   1.022   5.756   3.108
 5086SOL    HW216158   0.908   5.718   3.218
 5087SOL     OW16159   1.151   5.248   2.280
 5087SOL    HW116160   1.099   5.275   2.200
 5087SOL    HW216161   1.093   5.254   2.362
 5088SOL     OW16162   6.910   1.049   5.146
 5088SOL    HW116163   6.837   1.044   5.078
 5088SOL    HW216164   6.944   0.957   5.165
 5089SOL     OW16165   5.098   3.747   4.386
 5089SOL    HW116166   5.198   3.737   4.384
 5089SOL    HW216167   5.074   3.843   4.369
 5090SOL     OW16168   2.053   3.986   2.507
 5090SOL    HW116169   2.075   3.899   2.550
 5090SOL    HW216170   1.966   3.979   2.460
 5091SOL     OW16171   0.601   0.086   2.543
 5091SOL    HW116172   0.530   0.062   2.476
 5091SOL    HW216173   0.561   0.141   2.616
 5092SOL     OW16174   3.726   3.206   1.723
 5092SOL    HW116175   3.670   3.131   1.759
 5092SOL    HW216176   3.745   3.272   1.795
 5093SOL     OW16177   2.580   1.318   1.544
 5093SOL    HW116178   2.626   1.230   1.545
 5093SOL    HW216179   2.630   1.382   1.602
 5094SOL     OW16180   2.235   5.567   5.472
 5094SOL    HW116181   2.243   5.658   5.512
 5094SOL    HW216182   2.293   5.560   5.392
 5095SOL     OW16183   6.114   2.549   4.798
 5095SOL    HW116184   6.025   2.510   4.823
 5095SOL    HW216185   6.109   2.649   4.802
 5096SOL     OW16186   4.457   4.102   0.694
 5096SOL    HW116187   4.417   4.179   0.744
 5096SOL    HW216188   4.407   4.018   0.716
 5097SOL     OW16189   1.216   0.762   6.676
 5097SOL    HW116190   1.182   0.669   6.686
 5097SOL    HW216191   1.306   0.769   6.720
 5098SOL     OW16192   1.604   0.745   1.727
 5098SOL    HW116193   1.573   0.777   1.817
 5098SOL    HW216194   1.548   0.786   1.655
 5099SOL     OW16195   0.463   6.311   6.807
 5099SOL    HW116196   0.439   6.298   6.903
 5099SOL    HW216197   0.455   6.408   6.783
 5100SOL     OW16198   4.159   5.521   5.619
 5100SOL    HW116199   4.168   5.507   5.521
 5100SOL    HW216200   4.201   5.608   5.645
 5101SOL     OW16201   4.842   6.378   0.330
 5101SOL    HW116202   4.792   6.291   0.331
 5101SOL    HW216203   4.826   6.427   0.416
 5102SOL     OW16204   5.282   0.534   4.000
 5102SOL    HW116205   5.331   0.577   3.924
 5102SOL    HW216206   5.271   0.436   3.982
 5103SOL     OW16207   0.326   1.710   4.225
 5103SOL    HW116208   0.238   1.684   4.187
 5103SOL    HW216209   0.345   1.806   4.205
 5104SOL     OW16210   1.480   6.794   2.873
 5104SOL    HW116211   1.514   6.876   2.921
 5104SOL    HW216212   1.529   6.784   2.787
 5105SOL     OW16213   3.584   2.904   0.438
 5105SOL    HW116214   3.590   2.808   0.467
 5105SOL    HW216215   3.509   2.949   0.486
 5106SOL     OW16216   3.256   0.963   0.140
 5106SOL    HW116217   3.176   0.940   0.085
 5106SOL    HW216218   3.317   1.022   0.088
 5107SOL     OW16219   3.578   0.726   0.444
 5107SOL    HW116220   3.675   0.739   0.465
 5107SOL    HW216221   3.566   0.716   0.345
 5108SOL     OW16222   2.899   3.804   4.819
 5108SOL    HW116223   2.806   3.820   4.786
 5108SOL    HW216224   2.953   3.758   4.748
 5109SOL     OW16225   1.243   0.825   0.715
 5109SOL    HW116226   1.325   0.773   0.740
 5109SOL    HW216227   1.238   0.836   0.616
 5110SOL     OW16228   0.594   0.557   6.786
 5110SOL    HW116229   0.575   0.462   6.809
 5110SOL    HW216230   0.674   0.561   6.726
 5111SOL     OW16231   2.615   1.442   5.633
 5111SOL    HW116232   2.521   1.468   5.614
 5111SOL    HW216233   2.653   1.394   5.554
 5112SOL     OW16234   0.846   6.821   2.876
 5112SOL    HW116235   0.781   6.754   2.912
 5112SOL    HW216236   0.912   6.774   2.817
 5113SOL     OW16237   2.196   6.571   1.445
 5113SOL    HW116238   2.249   6.486   1.442
 5113SOL    HW216239   2.258   6.648   1.428
 5114SOL     OW16240   3.183   1.850   0.256
 5114SOL    HW116241   3.196   1.752   0.245
 5114SOL    HW216242   3.141   1.888   0.174
 5115SOL     OW16243   2.182   5.235   4.458
 5115SOL    HW116244   2.231   5.168   4.514
 5115SOL    HW216245   2.096   5.260   4.502
 5116SOL     OW16246   5.780   6.725   6.513
 5116SOL    HW116247   5.741   6.812   6.484
 5116SOL    HW216248   5.880   6.733   6.515
 5117SOL     OW16249   2.994   4.887   4.966
 5117SOL    HW116250   2.904   4.850   4.989
 5117SOL    HW216251   3.015   4.866   4.870
 5118SOL     OW16252   5.106   0.652   0.548
 5118SOL    HW116253   5.072   0.650   0.454
 5118SOL    HW216254   5.201   0.682   0.549
 5119SOL     OW16255   5.320   1.064   1.701
 5119SOL    HW116256   5.249   1.016   1.753
 5119SOL    HW216257   5.391   1.095   1.763
 5120SOL     OW16258   4.052   1.600   4.136
 5120SOL    HW116259   4.038   1.528   4.068
 5120SOL    HW216260   4.057   1.688   4.090
 5121SOL     OW16261   2.414   1.921   0.037
 5121SOL    HW116262   2.461   1.996   7.015
 5121SOL    HW216263   2.330   1.955   0.079
 5122SOL     OW16264   3.114   0.137   3.168
 5122SOL    HW116265   3.110   0.231   3.203
 5122SOL    HW216266   3.070   0.076   3.233
 5123SOL     OW16267   5.436   1.695   5.269
 5123SOL    HW116268   5.503   1.623   5.250
 5123SOL    HW216269   5.484   1.782   5.284
 5124SOL     OW16270   3.108   5.114   4.751
 5124SOL    HW116271   3.035   5.078   4.808
 5124SOL    HW216272   3.188   5.134   4.808
 5125SOL     OW16273   6.572   3.260   3.882
 5125SOL    HW116274   6.572   3.165   3.853
 5125SOL    HW216275   6.520   3.270   3.966
 5126SOL     OW16276   6.250   5.396   5.900
 5126SOL    HW116277   6.205   5.308   5.886
 5126SOL    HW216278   6.185   5.462   5.939
 5127SOL     OW16279   0.492   3.752   0.404
 5127SOL    HW116280   0.412   3.782   0.455
 5127SOL    HW216281   0.533   3.673   0.450
 5128SOL     OW16282   6.960   0.613   6.956
 5128SOL    HW116283   7.020   0.550   7.006
 5128SOL    HW216284   6.961   0.589   6.859
 5129SOL     OW16285   4.579   0.336   3.029
 5129SOL    HW116286   4.508   0.312   3.094
 5129SOL    HW216287   4.543   0.331   2.936
 5130SOL     OW16288   1.485   5.532   3.966
 5130SOL    HW116289   1.430   5.604   4.006
 5130SOL    HW216290   1.441   5.498   3.882
 5131SOL     OW16291   2.778   4.943   3.846
 5131SOL    HW116292   2.781   4.994   3.932
 5131SOL    HW216293   2.799   5.005   3.771
 5132SOL     OW16294   3.489   1.702   6.358
 5132SOL    HW116295   3.564   1.757   6.323
 5132SOL    HW216296   3.523   1.612   6.385
 5133SOL     OW16297   2.370   4.978   6.817
 5133SOL    HW116298   2.432   4.909   6.855
 5133SOL    HW216299   2.420   5.035   6.751
 5134SOL     OW16300   6.458   0.899   2.096
 5134SOL    HW116301   6.552   0.872   2.117
 5134SOL    HW216302   6.414   0.933   2.179
 5135SOL     OW16303   5.023   3.506   4.336
 5135SOL    HW116304   4.973   3.493   4.250
 5135SOL    HW216305   5.040   3.604   4.350
 5136SOL     OW16306   5.133   0.902   6.560
 5136SOL    HW116307   5.065   0.847   6.512
 5136SOL    HW216308   5.173   0.848   6.635
 5137SOL     OW16309   5.313   3.471   5.423
 5137SOL    HW116310   5.291   3.437   5.332
 5137SOL    HW216311   5.231   3.511   5.464
 5138SOL     OW16312   3.964   4.001   4.532
 5138SOL    HW116313   3.865   4.014   4.525
 5138SOL    HW216314   4.011   4.086   4.510
 5139SOL     OW16315   0.624   0.063   4.342
 5139SOL    HW116316   0.633   0.153   4.300
 5139SOL    HW216317   0.633   7.017   4.271
 5140SOL     OW16318   3.804   1.799   5.938
 5140SOL    HW116319   3.860   1.882   5.933
 5140SOL    HW216320   3.835   1.742   6.014
 5141SOL     OW16321   6.600   3.371   1.499
 5141SOL    HW116322   6.624   3.352   1.594
 5141SOL    HW216323   6.563   3.289   1.456
 5142SOL     OW16324   5.488   6.501   4.128
 5142SOL    HW116325   5.474   6.454   4.041
 5142SOL    HW216326   5.565   6.564   4.121
 5143SOL     OW16327   0.488   4.335   4.384
 5143SOL    HW116328   0.556   4.393   4.430
 5143SOL    HW216329   0.530   4.248   4.359
 5144SOL     OW16330   1.348   5.056   5.588
 5144SOL    HW116331   1.281   4.983   5.596
 5144SOL    HW216332   1.385   5.058   5.495
 5145SOL     OW16333   3.717   5.906   6.331
 5145SOL    HW116334   3.790   5.851   6.291
 5145SOL    HW216335   3.731   6.002   6.308
 5146SOL     OW16336   3.342   3.904   5.090
 5146SOL    HW116337   3.441   3.900   5.075
 5146SOL    HW216338   3.316   3.996   5.119
 5147SOL     OW16339   6.317   5.948   4.040
 5147SOL    HW116340   6.354   5.908   3.956
 5147SOL    HW216341   6.244   5.889   4.075
 5148SOL     OW16342   0.084   0.997   2.156
 5148SOL    HW116343   0.066   1.040   2.244
 5148SOL    HW216344   0.149   1.053   2.104
 5149SOL     OW16345   6.140   5.628   4.644
 5149SOL    HW116346   6.204   5.556   4.615
 5149SOL    HW216347   6.133   5.627   4.744
 5150SOL     OW16348   2.105   5.033   3.656
 5150SOL    HW116349   2.074   5.084   3.736
 5150SOL    HW216350   2.124   5.096   3.582
 5151SOL     OW16351   0.218   4.148   1.904
 5151SOL    HW116352   0.137   4.132   1.960
 5151SOL    HW216353   0.288   4.080   1.926
 5152SOL     OW16354   1.977   5.213   6.959
 5152SOL    HW116355   1.964   5.230   0.033
 5152SOL    HW216356   1.959   5.297   6.908
 5153SOL     OW16357   0.674   1.976   1.056
 5153SOL    HW116358   0.646   1.882   1.075
 5153SOL    HW216359   0.713   2.016   1.139
 5154SOL     OW16360   1.128   2.543   6.125
 5154SOL    HW116361   1.048   2.596   6.098
 5154SOL    HW216362   1.209   2.602   6.124
 5155SOL     OW16363   3.763   0.193   2.155
 5155SOL    HW116364   3.848   0.172   2.107
 5155SOL    HW216365   3.744   0.121   2.222
 5156SOL     OW16366   5.687   4.567   5.271
 5156SOL    HW116367   5.741   4.607   5.345
 5156SOL    HW216368   5.593   4.554   5.301
 5157SOL     OW16369   3.103   1.869   2.793
 5157SOL    HW116370   3.070   1.957   2.827
 5157SOL    HW216371   3.052   1.844   2.711
 5158SOL     OW16372   4.262   2.075   1.203
 5158SOL    HW116373   4.338   2.117   1.155
 5158SOL    HW216374   4.297   2.018   1.278
 5159SOL     OW16375   6.042   3.037   5.558
 5159SOL    HW116376   5.993   3.112   5.604
 5159SOL    HW216377   5.980   2.991   5.494
 5160SOL     OW16378   6.953   4.478   3.278
 5160SOL    HW116379   6.860   4.457   3.248
 5160SOL    HW216380   6.967   4.577   3.275
 5161SOL     OW16381   2.134   3.523   0.064
 5161SOL    HW116382   2.183   3.438   0.044
 5161SOL    HW216383   2.067   3.506   0.137
 5162SOL     OW16384   0.907   5.162   2.892
 5162SOL    HW116385   0.836   5.217   2.848
 5162SOL    HW216386   0.996   5.186   2.853
 5163SOL     OW16387   2.961   6.870   0.543
 5163SOL    HW116388   2.881   6.914   0.584
 5163SOL    HW216389   3.006   6.813   0.611
 5164SOL     OW16390   3.769   3.056   0.302
 5164SOL    HW116391   3.729   2.986   0.360
 5164SOL    HW216392   3.702   3.082   0.231
 5165SOL     OW16393   0.939   3.794   6.471
 5165SOL    HW116394   0.916   3.770   6.377
 5165SOL    HW216395   0.980   3.885   6.473
 5166SOL     OW16396   2.113   5.157   2.197
 5166SOL    HW116397   2.173   5.102   2.255
 5166SOL    HW216398   2.096   5.245   2.241
 5167SOL     OW16399   6.306   4.191   5.848
 5167SOL    HW116400   6.374   4.194   5.775
 5167SOL    HW216401   6.215   4.205   5.809
 5168SOL     OW16402   5.149   3.576   2.532
 5168SOL    HW116403   5.059   3.548   2.563
 5168SOL    HW216404   5.218   3.513   2.567
 5169SOL     OW16405   3.633   2.134   3.266
 5169SOL    HW116406   3.576   2.175   3.195
 5169SOL    HW216407   3.600   2.042   3.287
 5170SOL     OW16408   1.381   3.660   4.997
 5170SOL    HW116409   1.345   3.734   4.940
 5170SOL    HW216410   1.313   3.635   5.066
 5171SOL     OW16411   0.418   3.773   6.168
 5171SOL    HW116412   0.440   3.845   6.103
 5171SOL    HW216413   0.436   3.804   6.261
 5172SOL     OW16414   1.750   3.424   2.708
 5172SOL    HW116415   1.663   3.375   2.701
 5172SOL    HW216416   1.783   3.419   2.802
 5173SOL     OW16417   4.050   5.415   5.335
 5173SOL    HW116418   4.010   5.389   5.248
 5173SOL    HW216419   4.040   5.340   5.401
 5174SOL     OW16420   2.326   4.755   3.271
 5174SOL    HW116421   2.250   4.710   3.318
 5174SOL    HW216422   2.303   4.769   3.175
 5175SOL     OW16423   2.707   3.774   6.317
 5175SOL    HW116424   2.700   3.683   6.276
 5175SOL    HW216425   2.794   3.782   6.366
 5176SOL     OW16426   5.332   3.892   6.827
 5176SOL    HW116427   5.358   3.796   6.815
 5176SOL    HW216428   5.319   3.934   6.737
 5177SOL     OW16429   5.050   6.701   0.689
 5177SOL    HW116430   4.975   6.658   0.639
 5177SOL    HW216431   5.039   6.800   0.687
 5178SOL     OW16432   1.321   4.059   2.577
 5178SOL    HW116433   1.247   4.103   2.525
 5178SOL    HW216434   1.282   3.992   2.640
 5179SOL     OW16435   4.561   4.459   3.879
 5179SOL    HW116436   4.507   4.543   3.875
 5179SOL    HW216437   4.540   4.410   3.964
 5180SOL     OW16438   3.476   1.685   1.346
 5180SOL    HW116439   3.431   1.646   1.426
 5180SOL    HW216440   3.550   1.746   1.375
 5181SOL     OW16441   5.607   0.507   2.153
 5181SOL    HW116442   5.573   0.600   2.138
 5181SOL    HW216443   5.615   0.490   2.251
 5182SOL     OW16444   4.426   4.601   2.184
 5182SOL    HW116445   4.504   4.655   2.216
 5182SOL    HW216446   4.407   4.529   2.251
 5183SOL     OW16447   3.332   1.785   2.898
 5183SOL    HW116448   3.248   1.791   2.843
 5183SOL    HW216449   3.327   1.851   2.973
 5184SOL     OW16450   1.397   2.618   3.645
 5184SOL    HW116451   1.438   2.551   3.584
 5184SOL    HW216452   1.303   2.636   3.616
 5185SOL     OW16453   5.135   1.146   2.680
 5185SOL    HW116454   5.082   1.121   2.599
 5185SOL    HW216455   5.108   1.088   2.757
 5186SOL     OW16456   6.020   1.226   6.410
 5186SOL    HW116457   6.096   1.291   6.410
 5186SOL    HW216458   5.978   1.223   6.501
 5187SOL     OW16459   1.342   6.056   5.308
 5187SOL    HW116460   1.271   6.050   5.238
 5187SOL    HW216461   1.360   6.152   5.329
 5188SOL     OW16462   6.660   5.787   1.492
 5188SOL    HW116463   6.711   5.805   1.408
 5188SOL    HW216464   6.624   5.872   1.529
 5189SOL     OW16465   4.503   5.849   0.772
 5189SOL    HW116466   4.442   5.770   0.763
 5189SOL    HW216467   4.579   5.841   0.708
 5190SOL     OW16468   0.617   3.520   4.336
 5190SOL    HW116469   0.533   3.487   4.294
 5190SOL    HW216470   0.632   3.472   4.423
 5191SOL     OW16471   3.366   6.618   2.339
 5191SOL    HW116472   3.274   6.640   2.371
 5191SOL    HW216473   3.411   6.702   2.307
 5192SOL     OW16474   1.462   5.745   1.406
 5192SOL    HW116475   1.364   5.731   1.394
 5192SOL    HW216476   1.478   5.802   1.487
 5193SOL     OW16477   5.671   5.554   5.774
 5193SOL    HW116478   5.698   5.651   5.775
 5193SOL    HW216479   5.607   5.538   5.698
 5194SOL     OW16480   3.787   2.334   0.077
 5194SOL    HW116481   3.792   2.287   7.013
 5194SOL    HW216482   3.806   2.431   0.064
 5195SOL     OW16483   0.199   0.485   4.203
 5195SOL    HW116484   0.242   0.516   4.118
 5195SOL    HW216485   0.265   0.433   4.256
 5196SOL     OW16486   4.651   0.080   2.056
 5196SOL    HW116487   4.728   0.017   2.061
 5196SOL    HW216488   4.618   0.100   2.148
 5197SOL     OW16489   2.327   3.807   6.347
 5197SOL    HW116490   2.303   3.726   6.401
 5197SOL    HW216491   2.251   3.873   6.350
 5198SOL     OW16492   4.749   6.273   3.286
 5198SOL    HW116493   4.769   6.177   3.306
 5198SOL    HW216494   4.830   6.318   3.250
 5199SOL     OW16495   1.126   6.174   0.380
 5199SOL    HW116496   1.073   6.090   0.384
 5199SOL    HW216497   1.214   6.159   0.425
 5200SOL     OW16498   6.873   3.929   5.460
 5200SOL    HW116499   6.778   3.955   5.479
 5200SOL    HW216500   6.876   3.831   5.438
 5201SOL     OW16501   0.520   6.649   2.981
 5201SOL    HW116502   0.533   6.748   2.985
 5201SOL    HW216503   0.564   6.613   2.899
 5202SOL     OW16504   4.980   2.691   6.250
 5202SOL    HW116505   4.990   2.756   6.325
 5202SOL    HW216506   5.055   2.626   6.251
 5203SOL     OW16507   2.147   2.394   6.710
 5203SOL    HW116508   2.140   2.487   6.673
 5203SOL    HW216509   2.072   2.338   6.675
 5204SOL     OW16510   3.422   4.984   6.428
 5204SOL    HW116511   3.448   4.999   6.332
 5204SOL    HW216512   3.332   5.024   6.445
 5205SOL     OW16513   0.565   6.800   0.732
 5205SOL    HW116514   0.574   6.702   0.715
 5205SOL    HW216515   0.633   6.849   0.677
 5206SOL     OW16516   7.022   4.231   5.511
 5206SOL    HW116517   0.040   4.199   5.426
 5206SOL    HW216518   6.923   4.238   5.497
 5207SOL     OW16519   1.001   6.284   3.651
 5207SOL    HW116520   1.056   6.337   3.715
 5207SOL    HW216521   0.912   6.263   3.693
 5208SOL     OW16522   3.072   1.839   6.467
 5208SOL    HW116523   3.085   1.933   6.437
 5208SOL    HW216524   3.161   1.798   6.488
 5209SOL     OW16525   5.434   6.264   3.561
 5209SOL    HW116526   5.486   6.211   3.628
 5209SOL    HW216527   5.418   6.207   3.480
 5210SOL     OW16528   5.623   2.321   5.484
 5210SOL    HW116529   5.576   2.396   5.531
 5210SOL    HW216530   5.662   2.354   5.398
 5211SOL     OW16531   3.386   2.986   4.590
 5211SOL    HW116532   3.410   2.927   4.666
 5211SOL    HW216533   3.287   3.004   4.591
 5212SOL     OW16534   5.953   1.805   0.603
 5212SOL    HW116535   6.030   1.750   0.574
 5212SOL    HW216536   5.976   1.853   0.688
 5213SOL     OW16537   4.412   3.889   0.017
 5213SOL    HW116538   4.410   3.984   7.009
 5213SOL    HW216539   4.507   3.861   0.034
 5214SOL     OW16540   4.568   1.462   5.628
 5214SOL    HW116541   4.494   1.445   5.563
 5214SOL    HW216542   4.641   1.395   5.614
 5215SOL     OW16543   6.027   4.987   3.398
 5215SOL    HW116544   6.081   5.062   3.437
 5215SOL    HW216545   6.078   4.946   3.323
 5216SOL     OW16546   4.495   5.421   1.734
 5216SOL    HW116547   4.454   5.384   1.817
 5216SOL    HW216548   4.437   5.399   1.655
 5217SOL     OW16549   3.123   5.520   4.439
 5217SOL    HW116550   3.222   5.515   4.424
 5217SOL    HW216551   3.088   5.429   4.462
 5218SOL     OW16552   1.186   0.670   4.110
 5218SOL    HW116553   1.212   0.658   4.206
 5218SOL    HW216554   1.237   0.606   4.053
 5219SOL     OW16555   4.232   0.794   5.706
 5219SOL    HW116556   4.201   0.712   5.657
 5219SOL    HW216557   4.327   0.814   5.680
 5220SOL     OW16558   1.287   5.697   2.557
 5220SOL    HW116559   1.379   5.659   2.570
 5220SOL    HW216560   1.277   5.729   2.463
 5221SOL     OW16561   5.537   1.950   3.866
 5221SOL    HW116562   5.516   2.033   3.917
 5221SOL    HW216563   5.457   1.922   3.812
 5222SOL     OW16564   3.305   6.058   3.448
 5222SOL    HW116565   3.319   5.960   3.439
 5222SOL    HW216566   3.314   6.101   3.358
 5223SOL     OW16567   5.748   1.484   1.155
 5223SOL    HW116568   5.752   1.480   1.055
 5223SOL    HW216569   5.793   1.403   1.193
 5224SOL     OW16570   0.210   2.688   3.967
 5224SOL    HW116571   0.212   2.652   3.874
 5224SOL    HW216572   0.136   2.643   4.018
 5225SOL     OW16573   0.414   0.246   3.031
 5225SOL    HW116574   0.371   0.235   2.941
 5225SOL    HW216575   0.361   0.311   3.086
 5226SOL     OW16576   0.022   5.700   4.909
 5226SOL    HW116577   0.025   5.628   4.839
 5226SOL    HW216578   0.078   5.777   4.879
 5227SOL     OW16579   1.327   3.672   3.862
 5227SOL    HW116580   1.408   3.722   3.831
 5227SOL    HW216581   1.297   3.610   3.790
 5228SOL     OW16582   6.525   2.057   1.227
 5228SOL    HW116583   6.522   2.062   1.127
 5228SOL    HW216584   6.433   2.040   1.262
 5229SOL     OW16585   1.991   5.058   0.249
 5229SOL    HW116586   2.077   5.039   0.298
 5229SOL    HW216587   1.998   5.022   0.156
 5230SOL     OW16588   0.780   6.186   0.848
 5230SOL    HW116589   0.859   6.225   0.802
 5230SOL    HW216590   0.805   6.096   0.885
 5231SOL     OW16591   4.116   3.352   5.002
 5231SOL    HW116592   4.071   3.419   5.060
 5231SOL    HW216593   4.201   3.322   5.045
 5232SOL     OW16594   3.219   2.158   5.639
 5232SOL    HW116595   3.130   2.156   5.593
 5232SOL    HW216596   3.286   2.200   5.578
 5233SOL     OW16597   5.871   0.633   1.769
 5233SOL    HW116598   5.878   0.598   1.675
 5233SOL    HW216599   5.804   0.707   1.771
 5234SOL     OW16600   2.513   0.719   0.081
 5234SOL    HW116601   2.415   0.734   0.089
 5234SOL    HW216602   2.530   0.633   0.033
 5235SOL     OW16603   2.020   3.354   1.165
 5235SOL    HW116604   2.047   3.445   1.197
 5235SOL    HW216605   2.043   3.286   1.234
 5236SOL     OW16606   5.832   4.038   2.614
 5236SOL    HW116607   5.802   3.943   2.618
 5236SOL    HW216608   5.790   4.083   2.535
 5237SOL     OW16609   1.799   0.673   5.053
 5237SOL    HW116610   1.702   0.676   5.077
 5237SOL    HW216611   1.854   0.673   5.136
 5238SOL     OW16612   1.484   4.549   0.871
 5238SOL    HW116613   1.522   4.641   0.875
 5238SOL    HW216614   1.559   4.482   0.874
 5239SOL     OW16615   4.038   3.499   4.491
 5239SOL    HW116616   4.076   3.476   4.580
 5239SOL    HW216617   3.945   3.535   4.503
 5240SOL     OW16618   3.138   2.094   6.442
 5240SOL    HW116619   3.219   2.152   6.443
 5240SOL    HW216620   3.067   2.137   6.386
 5241SOL     OW16621   0.512   5.401   5.821
 5241SOL    HW116622   0.495   5.488   5.775
 5241SOL    HW216623   0.601   5.365   5.791
 5242SOL     OW16624   6.518   6.261   6.335
 5242SOL    HW116625   6.420   6.276   6.320
 5242SOL    HW216626   6.529   6.199   6.413
 5243SOL     OW16627   1.170   5.695   1.837
 5243SOL    HW116628   1.151   5.610   1.887
 5243SOL    HW216629   1.086   5.728   1.795
 5244SOL     OW16630   3.202   4.180   5.915
 5244SOL    HW116631   3.235   4.138   5.999
 5244SOL    HW216632   3.106   4.205   5.924
 5245SOL     OW16633   5.012   4.525   0.050
 5245SOL    HW116634   5.082   4.527   0.121
 5245SOL    HW216635   5.051   4.555   6.987
 5246SOL     OW16636   5.719   4.256   2.452
 5246SOL    HW116637   5.767   4.308   2.524
 5246SOL    HW216638   5.653   4.316   2.407
 5247SOL     OW16639   1.156   6.838   0.441
 5247SOL    HW116640   1.233   6.830   0.504
 5247SOL    HW216641   1.100   6.755   0.446
 5248SOL     OW16642   5.459   0.695   4.429
 5248SOL    HW116643   5.394   0.764   4.461
 5248SOL    HW216644   5.528   0.738   4.372
 5249SOL     OW16645   6.822   4.717   4.750
 5249SOL    HW116646   6.861   4.794   4.699
 5249SOL    HW216647   6.891   4.646   4.761
 5250SOL     OW16648   0.635   1.123   5.711
 5250SOL    HW116649   0.662   1.032   5.742
 5250SOL    HW216650   0.687   1.192   5.761
 5251SOL     OW16651   0.718   3.230   0.444
 5251SOL    HW116652   0.645   3.290   0.477
 5251SOL    HW216653   0.806   3.266   0.475
 5252SOL     OW16654   2.467   5.706   0.834
 5252SOL    HW116655   2.418   5.663   0.909
 5252SOL    HW216656   2.419   5.687   0.748
 5253SOL     OW16657   5.341   3.455   4.842
 5253SOL    HW116658   5.390   3.476   4.927
 5253SOL    HW216659   5.290   3.535   4.811
 5254SOL     OW16660   4.686   1.292   3.246
 5254SOL    HW116661   4.588   1.313   3.256
 5254SOL    HW216662   4.738   1.377   3.237
 5255SOL     OW16663   4.413   0.628   5.892
 5255SOL    HW116664   4.382   0.655   5.800
 5255SOL    HW216665   4.457   0.706   5.936
 5256SOL     OW16666   4.566   0.888   3.624
 5256SOL    HW116667   4.619   0.838   3.556
 5256SOL    HW216668   4.510   0.824   3.676
 5257SOL     OW16669   4.484   6.483   1.975
 5257SOL    HW116670   4.531   6.401   2.006
 5257SOL    HW216671   4.508   6.560   2.036
 5258SOL     OW16672   5.052   3.231   1.422
 5258SOL    HW116673   5.135   3.183   1.449
 5258SOL    HW216674   5.076   3.318   1.378
 5259SOL     OW16675   4.723   5.949   0.926
 5259SOL    HW116676   4.630   5.938   0.892
 5259SOL    HW216677   4.737   5.888   1.005
 5260SOL     OW16678   5.515   3.640   0.929
 5260SOL    HW116679   5.603   3.667   0.969
 5260SOL    HW216680   5.525   3.552   0.884
 5261SOL     OW16681   1.997   3.063   6.859
 5261SOL    HW116682   1.925   3.130   6.879
 5261SOL    HW216683   2.086   3.102   6.882
 5262SOL     OW16684   2.703   0.503   2.832
 5262SOL    HW116685   2.708   0.409   2.867
 5262SOL    HW216686   2.754   0.509   2.746
 5263SOL     OW16687   1.167   0.908   5.429
 5263SOL    HW116688   1.089   0.846   5.417
 5263SOL    HW216689   1.229   0.899   5.351
 5264SOL     OW16690   5.833   1.067   2.480
 5264SOL    HW116691   5.878   1.057   2.569
 5264SOL    HW216692   5.772   0.989   2.464
 5265SOL     OW16693   5.126   4.420   3.241
 5265SOL    HW116694   5.099   4.434   3.145
 5265SOL    HW216695   5.055   4.367   3.288
 5266SOL     OW16696   2.687   0.115   2.111
 5266SOL    HW116697   2.765   0.085   2.166
 5266SOL    HW216698   2.708   0.204   2.069
 5267SOL     OW16699   4.717   4.374   5.647
 5267SOL    HW116700   4.673   4.464   5.640
 5267SOL    HW216701   4.669   4.309   5.589
 5268SOL     OW16702   6.070   6.928   6.415
 5268SOL    HW116703   6.056   6.979   6.500
 5268SOL    HW216704   6.012   6.966   6.343
 5269SOL     OW16705   2.020   6.964   4.374
 5269SOL    HW116706   2.055   0.012   4.315
 5269SOL    HW216707   2.055   6.876   4.343
 5270SOL     OW16708   5.134   1.888   2.128
 5270SOL    HW116709   5.042   1.890   2.088
 5270SOL    HW216710   5.159   1.980   2.159
 5271SOL     OW16711   5.633   4.971   5.178
 5271SOL    HW116712   5.722   5.014   5.188
 5271SOL    HW216713   5.572   5.002   5.251
 5272SOL     OW16714   1.790   6.490   2.124
 5272SOL    HW116715   1.793   6.408   2.067
 5272SOL    HW216716   1.843   6.563   2.080
 5273SOL     OW16717   6.943   3.192   3.185
 5273SOL    HW116718   6.894   3.279   3.184
 5273SOL    HW216719   6.923   3.141   3.101
 5274SOL     OW16720   6.396   6.210   2.220
 5274SOL    HW116721   6.461   6.194   2.146
 5274SOL    HW216722   6.345   6.125   2.238
 5275SOL     OW16723   3.397   2.190   6.447
 5275SOL    HW116724   3.483   2.210   6.400
 5275SOL    HW216725   3.415   2.164   6.541
 5276SOL     OW16726   1.332   0.769   1.188
 5276SOL    HW116727   1.313   0.673   1.209
 5276SOL    HW216728   1.363   0.777   1.093
 5277SOL     OW16729   1.808   2.535   3.188
 5277SOL    HW116730   1.896   2.534   3.235
 5277SOL    HW216731   1.756   2.453   3.214
 5278SOL     OW16732   4.544   0.258   4.193
 5278SOL    HW116733   4.553   0.176   4.136
 5278SOL    HW216734   4.625   0.266   4.252
 5279SOL     OW16735   1.465   5.198   6.564
 5279SOL    HW116736   1.488   5.146   6.646
 5279SOL    HW216737   1.379   5.163   6.526
 5280SOL     OW16738   3.264   6.422   5.490
 5280SOL    HW116739   3.242   6.351   5.558
 5280SOL    HW216740   3.258   6.512   5.533
 5281SOL     OW16741   0.843   1.483   3.097
 5281SOL    HW116742   0.900   1.401   3.084
 5281SOL    HW216743   0.823   1.493   3.195
 5282SOL     OW16744   2.318   1.529   3.316
 5282SOL    HW116745   2.335   1.534   3.415
 5282SOL    HW216746   2.227   1.490   3.300
 5283SOL     OW16747   3.337   6.906   2.098
 5283SOL    HW116748   3.258   6.940   2.150
 5283SOL    HW216749   3.420   6.915   2.153
 5284SOL     OW16750   5.195   3.261   2.878
 5284SOL    HW116751   5.272   3.289   2.821
 5284SOL    HW216752   5.130   3.208   2.822
 5285SOL     OW16753   1.516   4.103   4.447
 5285SOL    HW116754   1.499   4.073   4.353
 5285SOL    HW216755   1.573   4.185   4.447
 5286SOL     OW16756   0.199   3.957   1.281
 5286SOL    HW116757   0.193   3.865   1.319
 5286SOL    HW216758   0.123   3.973   1.218
 5287SOL     OW16759   1.530   5.932   1.584
 5287SOL    HW116760   1.487   6.023   1.579
 5287SOL    HW216761   1.565   5.917   1.676
 5288SOL     OW16762   3.753   0.893   2.446
 5288SOL    HW116763   3.665   0.904   2.494
 5288SOL    HW216764   3.736   0.886   2.348
 5289SOL     OW16765   1.526   5.475   6.266
 5289SOL    HW116766   1.592   5.425   6.322
 5289SOL    HW216767   1.503   5.422   6.185
 5290SOL     OW16768   1.556   4.257   5.423
 5290SOL    HW116769   1.543   4.339   5.368
 5290SOL    HW216770   1.647   4.220   5.407
 5291SOL     OW16771   3.113   5.184   5.683
 5291SOL    HW116772   3.043   5.131   5.731
 5291SOL    HW216773   3.133   5.268   5.733
 5292SOL     OW16774   6.503   5.226   0.165
 5292SOL    HW116775   6.434   5.284   0.209
 5292SOL    HW216776   6.532   5.268   0.079
 5293SOL     OW16777   1.195   0.319   4.155
 5293SOL    HW116778   1.209   0.343   4.058
 5293SOL    HW216779   1.147   0.232   4.161
 5294SOL     OW16780   6.496   3.024   4.396
 5294SOL    HW116781   6.441   2.942   4.382
 5294SOL    HW216782   6.541   3.049   4.310
 5295SOL     OW16783   4.157   0.774   2.458
 5295SOL    HW116784   4.255   0.785   2.476
 5295SOL    HW216785   4.104   0.820   2.530
 5296SOL     OW16786   2.459   5.150   0.715
 5296SOL    HW116787   2.457   5.149   0.615
 5296SOL    HW216788   2.437   5.059   0.749
 5297SOL     OW16789   3.056   2.418   0.991
 5297SOL    HW116790   3.023   2.383   1.079
 5297SOL    HW216791   3.061   2.518   0.994
 5298SOL     OW16792   1.120   5.695   6.932
 5298SOL    HW116793   1.104   5.786   6.894
 5298SOL    HW216794   1.124   5.629   6.857
 5299SOL     OW16795   2.578   2.451   0.884
 5299SOL    HW116796   2.508   2.441   0.814
 5299SOL    HW216797   2.537   2.488   0.968
 5300SOL     OW16798   0.847   6.426   1.456
 5300SOL    HW116799   0.752   6.437   1.485
 5300SOL    HW216800   0.874   6.330   1.467
 5301SOL     OW16801   3.326   2.482   6.375
 5301SOL    HW116802   3.365   2.402   6.422
 5301SOL    HW216803   3.394   2.556   6.373
 5302SOL     OW16804   5.589   5.423   3.827
 5302SOL    HW116805   5.509   5.477   3.853
 5302SOL    HW216806   5.659   5.483   3.787
 5303SOL     OW16807   6.736   5.985   3.013
 5303SOL    HW116808   6.777   6.043   2.943
 5303SOL    HW216809   6.788   5.996   3.098
 5304SOL     OW16810   5.412   1.473   6.246
 5304SOL    HW116811   5.415   1.563   6.204
 5304SOL    HW216812   5.337   1.469   6.313
 5305SOL     OW16813   0.790   5.314   3.151
 5305SOL    HW116814   0.829   5.396   3.193
 5305SOL    HW216815   0.850   5.281   3.079
 5306SOL     OW16816   0.583   4.248   5.143
 5306SOL    HW116817   0.510   4.277   5.205
 5306SOL    HW216818   0.605   4.324   5.081
 5307SOL     OW16819   4.457   0.480   0.736
 5307SOL    HW116820   4.418   0.543   0.804
 5307SOL    HW216821   4.421   0.388   0.752
 5308SOL     OW16822   0.860   6.270   3.408
 5308SOL    HW116823   0.781   6.209   3.406
 5308SOL    HW216824   0.906   6.263   3.497
 5309SOL     OW16825   4.092   4.583   1.536
 5309SOL    HW116826   4.114   4.651   1.466
 5309SOL    HW216827   4.026   4.621   1.600
 5310SOL     OW16828   6.374   3.502   2.020
 5310SOL    HW116829   6.428   3.565   2.075
 5310SOL    HW216830   6.297   3.551   1.979
 5311SOL     OW16831   6.616   5.905   0.262
 5311SOL    HW116832   6.666   5.983   0.299
 5311SOL    HW216833   6.680   5.834   0.234
 5312SOL     OW16834   0.701   5.102   1.948
 5312SOL    HW116835   0.723   5.018   1.997
 5312SOL    HW216836   0.756   5.107   1.864
 5313SOL     OW16837   1.796   4.467   6.348
 5313SOL    HW116838   1.742   4.548   6.374
 5313SOL    HW216839   1.739   4.386   6.355
 5314SOL     OW16840   3.450   6.388   6.797
 5314SOL    HW116841   3.392   6.362   6.719
 5314SOL    HW216842   3.408   6.354   6.881
 5315SOL     OW16843   4.760   3.638   1.311
 5315SOL    HW116844   4.840   3.580   1.299
 5315SOL    HW216845   4.678   3.581   1.321
 5316SOL     OW16846   0.110   4.556   4.979
 5316SOL    HW116847   0.030   4.582   5.033
 5316SOL    HW216848   0.156   4.639   4.946
 5317SOL     OW16849   6.617   0.078   4.919
 5317SOL    HW116850   6.571   7.017   4.896
 5317SOL    HW216851   6.588   0.149   4.856
 5318SOL     OW16852   6.707   2.301   6.301
 5318SOL    HW116853   6.765   2.382   6.312
 5318SOL    HW216854   6.721   2.262   6.211
 5319SOL     OW16855   4.212   6.988   6.679
 5319SOL    HW116856   4.177   6.923   6.611
 5319SOL    HW216857   4.156   6.981   6.762
 5320SOL     OW16858   6.447   4.974   0.177
 5320SOL    HW116859   6.471   5.071   0.175
 5320SOL    HW216860   6.522   4.921   0.137
 5321SOL     OW16861   0.974   4.096   3.452
 5321SOL    HW116862   0.902   4.130   3.513
 5321SOL    HW216863   0.947   4.112   3.357
 5322SOL     OW16864   4.655   6.121   6.577
 5322SOL    HW116865   4.587   6.128   6.650
 5322SOL    HW216866   4.646   6.199   6.515
 5323SOL     OW16867   3.483   2.519   6.918
 5323SOL    HW116868   3.484   2.610   6.960
 5323SOL    HW216869   3.525   2.525   6.827
 5324SOL     OW16870   4.379   2.635   0.811
 5324SOL    HW116871   4.401   2.551   0.761
 5324SOL    HW216872   4.282   2.657   0.800
 5325SOL     OW16873   4.243   0.548   4.502
 5325SOL    HW116874   4.216   0.529   4.408
 5325SOL    HW216875   4.304   0.627   4.504
 5326SOL     OW16876   0.274   5.553   4.094
 5326SOL    HW116877   0.346   5.484   4.101
 5326SOL    HW216878   0.185   5.507   4.092
 5327SOL     OW16879   5.604   3.356   5.287
 5327SOL    HW116880   5.551   3.364   5.371
 5327SOL    HW216881   5.695   3.396   5.301
 5328SOL     OW16882   4.091   2.698   5.842
 5328SOL    HW116883   4.024   2.684   5.769
 5328SOL    HW216884   4.073   2.785   5.888
 5329SOL     OW16885   0.033   4.188   6.870
 5329SOL    HW116886   7.014   4.231   6.949
 5329SOL    HW216887   0.080   4.257   6.816
 5330SOL     OW16888   3.678   4.232   5.548
 5330SOL    HW116889   3.581   4.212   5.534
 5330SOL    HW216890   3.699   4.322   5.509
 5331SOL     OW16891   4.990   1.161   0.877
 5331SOL    HW116892   4.895   1.169   0.909
 5331SOL    HW216893   5.034   1.084   0.923
 5332SOL     OW16894   0.425   4.014   1.128
 5332SOL    HW116895   0.475   3.933   1.099
 5332SOL    HW216896   0.345   3.987   1.181
 5333SOL     OW16897   1.074   0.930   3.336
 5333SOL    HW116898   1.079   0.986   3.418
 5333SOL    HW216899   1.010   0.855   3.350
 5334SOL     OW16900   3.849   6.684   4.348
 5334SOL    HW116901   3.880   6.758   4.409
 5334SOL    HW216902   3.923   6.618   4.337
 5335SOL     OW16903   6.295   5.695   2.402
 5335SOL    HW116904   6.232   5.634   2.450
 5335SOL    HW216905   6.387   5.684   2.439
 5336SOL     OW16906   2.021   2.136   3.261
 5336SOL    HW116907   2.030   2.168   3.356
 5336SOL    HW216908   1.925   2.117   3.241
 5337SOL     OW16909   5.531   4.408   2.300
 5337SOL    HW116910   5.565   4.491   2.255
 5337SOL    HW216911   5.514   4.337   2.231
 5338SOL     OW16912   5.804   0.853   5.537
 5338SOL    HW116913   5.849   0.764   5.528
 5338SOL    HW216914   5.858   0.923   5.492
 5339SOL     OW16915   6.473   2.253   3.608
 5339SOL    HW116916   6.454   2.207   3.521
 5339SOL    HW216917   6.463   2.352   3.596
 5340SOL     OW16918   5.296   3.140   1.144
 5340SOL    HW116919   5.269   3.102   1.232
 5340SOL    HW216920   5.218   3.140   1.082
 5341SOL     OW16921   3.265   4.956   5.951
 5341SOL    HW116922   3.305   4.906   5.874
 5341SOL    HW216923   3.240   4.892   6.023
 5342SOL     OW16924   4.264   6.370   4.350
 5342SOL    HW116925   4.251   6.284   4.301
 5342SOL    HW216926   4.359   6.377   4.382
 5343SOL     OW16927   3.461   3.649   4.656
 5343SOL    HW116928   3.491   3.717   4.723
 5343SOL    HW216929   3.512   3.564   4.668
 5344SOL     OW16930   1.863   1.911   1.306
 5344SOL    HW116931   1.941   1.972   1.304
 5344SOL    HW216932   1.792   1.949   1.367
 5345SOL     OW16933   3.703   6.290   0.579
 5345SOL    HW116934   3.614   6.321   0.612
 5345SOL    HW216935   3.695   6.197   0.543
 5346SOL     OW16936   3.440   5.573   4.074
 5346SOL    HW116937   3.482   5.662   4.091
 5346SOL    HW216938   3.431   5.558   3.976
 5347SOL     OW16939   0.147   2.858   1.817
 5347SOL    HW116940   0.147   2.955   1.793
 5347SOL    HW216941   0.055   2.830   1.843
 5348SOL     OW16942   6.620   1.749   0.910
 5348SOL    HW116943   6.683   1.723   0.836
 5348SOL    HW216944   6.582   1.839   0.892
 5349SOL     OW16945   2.366   2.714   0.642
 5349SOL    HW116946   2.350   2.777   0.566
 5349SOL    HW216947   2.356   2.620   0.611
 5350SOL     OW16948   1.448   6.918   5.076
 5350SOL    HW116949   1.506   6.985   5.030
 5350SOL    HW216950   1.503   6.861   5.137
 5351SOL     OW16951   6.404   5.107   2.550
 5351SOL    HW116952   6.501   5.086   2.536
 5351SOL    HW216953   6.391   5.206   2.549
 5352SOL     OW16954   1.596   5.247   3.364
 5352SOL    HW116955   1.556   5.334   3.333
 5352SOL    HW216956   1.637   5.200   3.286
 5353SOL     OW16957   3.673   5.355   4.468
 5353SOL    HW116958   3.596   5.312   4.422
 5353SOL    HW216959   3.755   5.298   4.459
 5354SOL     OW16960   2.161   5.204   1.340
 5354SOL    HW116961   2.134   5.113   1.372
 5354SOL    HW216962   2.261   5.208   1.332
 5355SOL     OW16963   6.334   4.680   4.649
 5355SOL    HW116964   6.410   4.721   4.701
 5355SOL    HW216965   6.290   4.610   4.705
 5356SOL     OW16966   6.455   3.860   2.638
 5356SOL    HW116967   6.527   3.796   2.610
 5356SOL    HW216968   6.471   3.889   2.732
 5357SOL     OW16969   3.124   6.272   0.018
 5357SOL    HW116970   3.051   6.241   0.079
 5357SOL    HW216971   3.108   6.368   7.018
 5358SOL     OW16972   5.037   1.449   0.152
 5358SOL    HW116973   4.998   1.422   0.064
 5358SOL    HW216974   5.005   1.387   0.224
 5359SOL     OW16975   1.799   0.773   5.610
 5359SOL    HW116976   1.782   0.795   5.706
 5359SOL    HW216977   1.715   0.786   5.557
 5360SOL     OW16978   3.534   6.009   3.712
 5360SOL    HW116979   3.629   5.989   3.737
 5360SOL    HW216980   3.519   5.984   3.616
 5361SOL     OW16981   3.025   1.092   4.879
 5361SOL    HW116982   2.949   1.141   4.922
 5361SOL    HW216983   3.089   1.157   4.839
 5362SOL     OW16984   6.278   6.238   2.725
 5362SOL    HW116985   6.294   6.336   2.713
 5362SOL    HW216986   6.337   6.187   2.663
 5363SOL     OW16987   6.656   6.709   5.245
 5363SOL    HW116988   6.659   6.713   5.145
 5363SOL    HW216989   6.598   6.782   5.281
 5364SOL     OW16990   6.885   0.040   2.180
 5364SOL    HW116991   6.826   0.118   2.157
 5364SOL    HW216992   6.848   6.981   2.138
 5365SOL     OW16993   4.240   3.080   1.188
 5365SOL    HW116994   4.246   3.144   1.264
 5365SOL    HW216995   4.160   3.021   1.200
 5366SOL     OW16996   5.955   5.933   1.285
 5366SOL    HW116997   6.023   5.935   1.359
 5366SOL    HW216998   5.998   5.957   1.199
 5367SOL     OW16999   0.487   6.937   0.964
 5367SOL    HW117000   0.507   6.919   1.060
 5367SOL    HW217001   0.547   6.881   0.906
 5368SOL     OW17002   5.426   6.955   2.417
 5368SOL    HW117003   5.340   7.004   2.430
 5368SOL    HW217004   5.422   6.902   2.332
 5369SOL     OW17005   2.667   6.707   0.948
 5369SOL    HW117006   2.757   6.708   0.993
 5369SOL    HW217007   2.645   6.799   0.917
 5370SOL     OW17008   4.708   2.375   1.482
 5370SOL    HW117009   4.757   2.313   1.543
 5370SOL    HW217010   4.636   2.324   1.433
 5371SOL     OW17011   0.544   3.866   5.439
 5371SOL    HW117012   0.518   3.920   5.359
 5371SOL    HW217013   0.583   3.780   5.409
 5372SOL     OW17014   1.456   6.093   3.059
 5372SOL    HW117015   1.551   6.113   3.083
 5372SOL    HW217016   1.416   6.172   3.012
 5373SOL     OW17017   3.731   6.449   4.754
 5373SOL    HW117018   3.700   6.368   4.804
 5373SOL    HW217019   3.670   6.466   4.677
 5374SOL     OW17020   2.127   4.491   0.851
 5374SOL    HW117021   2.169   4.403   0.874
 5374SOL    HW217022   2.059   4.515   0.920
 5375SOL     OW17023   0.256   5.527   4.608
 5375SOL    HW117024   0.279   5.591   4.534
 5375SOL    HW217025   0.335   5.517   4.668
 5376SOL     OW17026   1.528   2.600   1.251
 5376SOL    HW117027   1.599   2.637   1.192
 5376SOL    HW217028   1.557   2.512   1.288
 5377SOL     OW17029   0.007   6.709   2.141
 5377SOL    HW117030   0.076   6.740   2.076
 5377SOL    HW217031   7.021   6.777   2.214
 5378SOL     OW17032   0.043   0.129   2.571
 5378SOL    HW117033   0.042   0.178   2.658
 5378SOL    HW217034   6.999   0.169   2.510
 5379SOL     OW17035   1.072   4.819   4.808
 5379SOL    HW117036   1.128   4.739   4.786
 5379SOL    HW217037   1.053   4.871   4.725
 5380SOL     OW17038   2.878   1.012   3.007
 5380SOL    HW117039   2.873   0.929   2.952
 5380SOL    HW217040   2.924   0.992   3.094
 5381SOL     OW17041   6.282   4.845   2.651
 5381SOL    HW117042   6.337   4.928   2.647
 5381SOL    HW217043   6.186   4.867   2.631
 5382SOL     OW17044   2.762   1.270   2.097
 5382SOL    HW117045   2.666   1.285   2.075
 5382SOL    HW217046   2.808   1.358   2.107
 5383SOL     OW17047   1.903   2.076   5.124
 5383SOL    HW117048   1.895   1.991   5.073
 5383SOL    HW217049   1.995   2.083   5.163
 5384SOL     OW17050   5.710   0.294   5.023
 5384SOL    HW117051   5.694   0.311   4.926
 5384SOL    HW217052   5.758   0.207   5.033
 5385SOL     OW17053   3.489   3.593   4.165
 5385SOL    HW117054   3.574   3.546   4.186
 5385SOL    HW217055   3.436   3.607   4.248
 5386SOL     OW17056   4.852   1.271   4.158
 5386SOL    HW117057   4.753   1.262   4.170
 5386SOL    HW217058   4.896   1.279   4.248
 5387SOL     OW17059   1.982   6.687   3.671
 5387SOL    HW117060   2.072   6.691   3.714
 5387SOL    HW217061   1.929   6.768   3.698
 5388SOL     OW17062   0.171   1.601   3.230
 5388SOL    HW117063   0.217   1.595   3.319
 5388SOL    HW217064   0.108   1.679   3.230
 5389SOL     OW17065   3.534   1.457   3.213
 5389SOL    HW117066   3.451   1.422   3.169
 5389SOL    HW217067   3.509   1.525   3.282
 5390SOL     OW17068   4.760   4.111   3.221
 5390SOL    HW117069   4.693   4.129   3.294
 5390SOL    HW217070   4.791   4.017   3.227
 5391SOL     OW17071   2.664   1.115   1.179
 5391SOL    HW117072   2.596   1.094   1.108
 5391SOL    HW217073   2.619   1.158   1.257
 5392SOL     OW17074   5.459   3.375   1.117
 5392SOL    HW117075   5.403   3.456   1.135
 5392SOL    HW217076   5.404   3.293   1.133
 5393SOL     OW17077   4.839   0.546   5.519
 5393SOL    HW117078   4.881   0.561   5.608
 5393SOL    HW217079   4.897   0.584   5.447
 5394SOL     OW17080   0.550   5.595   0.967
 5394SOL    HW117081   0.583   5.554   1.052
 5394SOL    HW217082   0.462   5.640   0.983
 5395SOL     OW17083   4.766   1.124   1.015
 5395SOL    HW117084   4.750   1.115   1.113
 5395SOL    HW217085   4.678   1.127   0.967
 5396SOL     OW17086   5.221   4.354   1.717
 5396SOL    HW117087   5.149   4.358   1.786
 5396SOL    HW217088   5.298   4.410   1.745
 5397SOL     OW17089   0.756   2.932   1.406
 5397SOL    HW117090   0.847   2.898   1.429
 5397SOL    HW217091   0.764   3.003   1.336
 5398SOL     OW17092   2.714   2.225   4.011
 5398SOL    HW117093   2.711   2.213   4.110
 5398SOL    HW217094   2.739   2.138   3.968
 5399SOL     OW17095   2.646   6.422   0.928
 5399SOL    HW117096   2.669   6.518   0.910
 5399SOL    HW217097   2.547   6.413   0.939
 5400SOL     OW17098   3.452   3.741   6.956
 5400SOL    HW117099   3.525   3.676   6.933
 5400SOL    HW217100   3.393   3.754   6.877
 5401SOL     OW17101   6.459   4.513   2.238
 5401SOL    HW117102   6.547   4.547   2.270
 5401SOL    HW217103   6.419   4.578   2.174
 5402SOL     OW17104   2.228   6.299   1.881
 5402SOL    HW117105   2.174   6.235   1.828
 5402SOL    HW217106   2.314   6.256   1.908
 5403SOL     OW17107   5.930   2.878   5.348
 5403SOL    HW117108   5.917   2.817   5.427
 5403SOL    HW217109   5.850   2.873   5.288
 5404SOL     OW17110   0.886   0.280   3.028
 5404SOL    HW117111   0.937   0.348   2.974
 5404SOL    HW217112   0.807   0.325   3.071
 5405SOL     OW17113   5.638   5.923   0.405
 5405SOL    HW117114   5.566   5.969   0.352
 5405SOL    HW217115   5.698   5.872   0.343
 5406SOL     OW17116   1.674   6.985   5.642
 5406SOL    HW117117   1.630   6.948   5.561
 5406SOL    HW217118   1.721   6.912   5.692
 5407SOL     OW17119   3.886   1.718   1.584
 5407SOL    HW117120   3.967   1.684   1.536
 5407SOL    HW217121   3.820   1.752   1.518
 5408SOL     OW17122   3.240   0.501   5.716
 5408SOL    HW117123   3.286   0.474   5.800
 5408SOL    HW217124   3.269   0.594   5.691
 5409SOL     OW17125   0.061   1.835   3.107
 5409SOL    HW117126   0.141   1.867   3.056
 5409SOL    HW217127   0.037   1.903   3.176
 5410SOL     OW17128   1.587   2.596   6.764
 5410SOL    HW117129   1.547   2.509   6.794
 5410SOL    HW217130   1.539   2.627   6.681
 5411SOL     OW17131   6.162   5.118   5.786
 5411SOL    HW117132   6.244   5.139   5.734
 5411SOL    HW217133   6.184   5.052   5.859
 5412SOL     OW17134   3.791   1.346   0.026
 5412SOL    HW117135   3.861   1.347   6.979
 5412SOL    HW217136   3.711   1.295   7.018
 5413SOL     OW17137   0.310   0.274   1.015
 5413SOL    HW117138   0.247   0.203   0.981
 5413SOL    HW217139   0.309   0.352   0.953
 5414SOL     OW17140   6.302   3.467   4.945
 5414SOL    HW117141   6.354   3.441   4.864
 5414SOL    HW217142   6.364   3.508   5.012
 5415SOL     OW17143   1.110   6.211   1.719
 5415SOL    HW117144   1.106   6.287   1.783
 5415SOL    HW217145   1.074   6.128   1.763
 5416SOL     OW17146   3.292   5.239   5.959
 5416SOL    HW117147   3.280   5.140   5.966
 5416SOL    HW217148   3.343   5.260   5.875
 5417SOL     OW17149   4.517   6.635   4.627
 5417SOL    HW117150   4.569   6.658   4.709
 5417SOL    HW217151   4.454   6.560   4.648
 5418SOL     OW17152   4.820   0.732   4.005
 5418SOL    HW117153   4.829   0.762   4.100
 5418SOL    HW217154   4.821   0.811   3.944
 5419SOL     OW17155   4.169   5.324   6.790
 5419SOL    HW117156   4.197   5.389   6.720
 5419SOL    HW217157   4.129   5.243   6.747
 5420SOL     OW17158   1.796   3.413   1.755
 5420SOL    HW117159   1.826   3.508   1.767
 5420SOL    HW217160   1.875   3.355   1.739
 5421SOL     OW17161   2.852   4.724   3.297
 5421SOL    HW117162   2.813   4.762   3.213
 5421SOL    HW217163   2.942   4.686   3.277
 5422SOL     OW17164   0.892   5.533   5.160
 5422SOL    HW117165   0.925   5.449   5.117
 5422SOL    HW217166   0.796   5.523   5.184
 5423SOL     OW17167   6.200   3.772   0.023
 5423SOL    HW117168   6.269   3.735   6.985
 5423SOL    HW217169   6.170   3.861   7.015
 5424SOL     OW17170   5.741   3.746   4.231
 5424SOL    HW117171   5.834   3.717   4.209
 5424SOL    HW217172   5.676   3.689   4.182
 5425SOL     OW17173   5.070   2.071   4.196
 5425SOL    HW117174   5.063   2.162   4.155
 5425SOL    HW217175   5.043   2.075   4.292
 5426SOL     OW17176   6.377   5.272   3.853
 5426SOL    HW117177   6.288   5.237   3.883
 5426SOL    HW217178   6.380   5.274   3.754
 5427SOL     OW17179   5.562   4.530   0.753
 5427SOL    HW117180   5.496   4.503   0.683
 5427SOL    HW217181   5.652   4.541   0.713
 5428SOL     OW17182   6.108   6.812   1.919
 5428SOL    HW117183   6.178   6.872   1.881
 5428SOL    HW217184   6.135   6.717   1.906
 5429SOL     OW17185   1.121   0.998   5.047
 5429SOL    HW117186   1.128   0.926   4.978
 5429SOL    HW217187   1.199   0.991   5.110
 5430SOL     OW17188   2.590   2.417   6.303
 5430SOL    HW117189   2.552   2.471   6.378
 5430SOL    HW217190   2.546   2.443   6.217
 5431SOL     OW17191   3.409   4.573   5.989
 5431SOL    HW117192   3.490   4.526   5.956
 5431SOL    HW217193   3.330   4.548   5.933
 5432SOL     OW17194   3.527   5.734   6.185
 5432SOL    HW117195   3.527   5.803   6.257
 5432SOL    HW217196   3.618   5.728   6.144
 5433SOL     OW17197   0.316   1.205   3.111
 5433SOL    HW117198   0.327   1.107   3.094
 5433SOL    HW217199   0.320   1.222   3.210
 5434SOL     OW17200   4.490   1.215   4.949
 5434SOL    HW117201   4.568   1.256   4.902
 5434SOL    HW217202   4.511   1.205   5.046
 5435SOL     OW17203   6.273   2.082   1.336
 5435SOL    HW117204   6.243   1.988   1.353
 5435SOL    HW217205   6.308   2.122   1.421
 5436SOL     OW17206   5.525   4.330   4.604
 5436SOL    HW117207   5.624   4.326   4.621
 5436SOL    HW217208   5.488   4.413   4.646
 5437SOL     OW17209   2.797   5.277   5.821
 5437SOL    HW117210   2.747   5.353   5.862
 5437SOL    HW217211   2.782   5.194   5.875
 5438SOL     OW17212   6.669   3.988   2.256
 5438SOL    HW117213   6.581   3.949   2.228
 5438SOL    HW217214   6.727   4.000   2.175
 5439SOL     OW17215   6.762   2.446   7.019
 5439SOL    HW117216   6.712   2.363   6.996
 5439SOL    HW217217   6.703   2.526   7.003
 5440SOL     OW17218   6.624   0.335   3.536
 5440SOL    HW117219   6.585   0.350   3.445
 5440SOL    HW217220   6.553   0.345   3.605
 5441SOL     OW17221   4.786   2.805   3.413
 5441SOL    HW117222   4.775   2.790   3.512
 5441SOL    HW217223   4.735   2.734   3.363
 5442SOL     OW17224   2.767   6.762   3.322
 5442SOL    HW117225   2.828   6.730   3.394
 5442SOL    HW217226   2.820   6.775   3.238
 5443SOL     OW17227   3.166   5.799   4.214
 5443SOL    HW117228   3.171   5.874   4.148
 5443SOL    HW217229   3.234   5.812   4.285
 5444SOL     OW17230   0.272   0.767   3.200
 5444SOL    HW117231   0.181   0.802   3.222
 5444SOL    HW217232   0.309   0.718   3.279
 5445SOL     OW17233   6.353   4.116   4.035
 5445SOL    HW117234   6.264   4.157   4.016
 5445SOL    HW217235   6.408   4.179   4.089
 5446SOL     OW17236   5.605   5.045   4.808
 5446SOL    HW117237   5.530   5.110   4.799
 5446SOL    HW217238   5.617   5.021   4.904
 5447SOL     OW17239   1.196   1.738   0.769
 5447SOL    HW117240   1.113   1.783   0.803
 5447SOL    HW217241   1.175   1.690   0.684
 5448SOL     OW17242   5.758   4.444   4.384
 5448SOL    HW117243   5.775   4.380   4.459
 5448SOL    HW217244   5.715   4.395   4.308
 5449SOL     OW17245   2.067   1.547   0.630
 5449SOL    HW117246   2.044   1.475   0.564
 5449SOL    HW217247   2.107   1.506   0.712
 5450SOL     OW17248   3.423   0.500   0.919
 5450SOL    HW117249   3.480   0.510   1.000
 5450SOL    HW217250   3.333   0.467   0.945
 5451SOL     OW17251   2.487   6.046   4.141
 5451SOL    HW117252   2.463   6.032   4.045
 5451SOL    HW217253   2.576   6.092   4.147
 5452SOL     OW17254   3.020   4.141   6.756
 5452SOL    HW117255   2.990   4.101   6.842
 5452SOL    HW217256   2.972   4.097   6.680
 5453SOL     OW17257   5.480   4.175   1.763
 5453SOL    HW117258   5.502   4.078   1.775
 5453SOL    HW217259   5.564   4.228   1.753
 5454SOL     OW17260   5.345   5.231   6.149
 5454SOL    HW117261   5.308   5.139   6.136
 5454SOL    HW217262   5.276   5.289   6.192
 5455SOL     OW17263   0.133   2.141   2.848
 5455SOL    HW117264   0.122   2.180   2.940
 5455SOL    HW217265   0.049   2.094   2.822
 5456SOL     OW17266   2.744   7.024   0.247
 5456SOL    HW117267   2.794   0.034   0.167
 5456SOL    HW217268   2.729   6.926   0.236
 5457SOL     OW17269   0.170   2.279   2.055
 5457SOL    HW117270   0.078   2.242   2.042
 5457SOL    HW217271   0.171   2.376   2.030
 5458SOL     OW17272   0.670   5.103   0.701
 5458SOL    HW117273   0.701   5.010   0.722
 5458SOL    HW217274   0.669   5.157   0.784
 5459SOL     OW17275   3.710   4.008   6.487
 5459SOL    HW117276   3.647   4.053   6.424
 5459SOL    HW217277   3.792   3.978   6.438
 5460SOL     OW17278   3.293   6.706   3.047
 5460SOL    HW117279   3.333   6.617   3.028
 5460SOL    HW217280   3.365   6.769   3.078
 5461SOL     OW17281   0.427   0.926   5.390
 5461SOL    HW117282   0.518   0.967   5.386
 5461SOL    HW217283   0.358   0.997   5.399
 5462SOL     OW17284   5.720   6.757   0.624
 5462SOL    HW117285   5.716   6.728   0.528
 5462SOL    HW217286   5.669   6.841   0.636
 5463SOL     OW17287   0.124   1.143   6.933
 5463SOL    HW117288   0.037   1.171   6.972
 5463SOL    HW217289   0.198   1.168   6.996
 5464SOL     OW17290   6.327   0.152   4.455
 5464SOL    HW117291   6.387   0.073   4.468
 5464SOL    HW217292   6.375   0.236   4.480
 5465SOL     OW17293   4.733   0.581   4.359
 5465SOL    HW117294   4.752   0.503   4.299
 5465SOL    HW217295   4.770   0.664   4.318
 5466SOL     OW17296   4.898   2.992   5.084
 5466SOL    HW117297   4.986   2.948   5.067
 5466SOL    HW217298   4.872   2.979   5.180
 5467SOL     OW17299   5.037   4.007   3.425
 5467SOL    HW117300   5.120   3.998   3.371
 5467SOL    HW217301   5.048   3.959   3.512
 5468SOL     OW17302   6.731   2.796   3.658
 5468SOL    HW117303   6.733   2.789   3.758
 5468SOL    HW217304   6.772   2.713   3.618
 5469SOL     OW17305   2.837   6.403   5.831
 5469SOL    HW117306   2.856   6.486   5.883
 5469SOL    HW217307   2.920   6.374   5.783
 5470SOL     OW17308   3.679   5.485   3.228
 5470SOL    HW117309   3.701   5.506   3.133
 5470SOL    HW217310   3.612   5.411   3.231
 5471SOL     OW17311   6.018   0.135   3.512
 5471SOL    HW117312   5.949   0.064   3.525
 5471SOL    HW217313   6.103   0.094   3.480
 5472SOL     OW17314   2.839   3.735   6.789
 5472SOL    HW117315   2.767   3.696   6.847
 5472SOL    HW217316   2.893   3.661   6.749
 5473SOL     OW17317   1.318   3.304   1.911
 5473SOL    HW117318   1.298   3.224   1.968
 5473SOL    HW217319   1.389   3.281   1.844
 5474SOL     OW17320   1.097   4.395   4.053
 5474SOL    HW117321   1.126   4.300   4.045
 5474SOL    HW217322   1.117   4.429   4.145
 5475SOL     OW17323   2.146   2.897   0.852
 5475SOL    HW117324   2.216   2.860   0.913
 5475SOL    HW217325   2.174   2.987   0.819
 5476SOL     OW17326   2.151   4.133   5.169
 5476SOL    HW117327   2.210   4.097   5.096
 5476SOL    HW217328   2.198   4.209   5.214
 5477SOL     OW17329   2.200   4.426   2.430
 5477SOL    HW117330   2.223   4.330   2.447
 5477SOL    HW217331   2.101   4.434   2.419
 5478SOL     OW17332   3.126   6.395   4.488
 5478SOL    HW117333   3.113   6.306   4.443
 5478SOL    HW217334   3.090   6.467   4.429
 5479SOL     OW17335   5.418   1.162   5.936
 5479SOL    HW117336   5.419   1.262   5.941
 5479SOL    HW217337   5.323   1.131   5.933
 5480SOL     OW17338   5.643   5.565   4.089
 5480SOL    HW117339   5.651   5.645   4.029
 5480SOL    HW217340   5.630   5.483   4.034
 5481SOL     OW17341   4.377   1.584   4.513
 5481SOL    HW117342   4.395   1.552   4.606
 5481SOL    HW217343   4.351   1.680   4.515
 5482SOL     OW17344   3.701   4.655   1.630
 5482SOL    HW117345   3.638   4.676   1.705
 5482SOL    HW217346   3.795   4.668   1.660
 5483SOL     OW17347   6.821   2.151   5.156
 5483SOL    HW117348   6.730   2.181   5.129
 5483SOL    HW217349   6.878   2.142   5.075
 5484SOL     OW17350   3.822   1.476   3.687
 5484SOL    HW117351   3.763   1.395   3.694
 5484SOL    HW217352   3.888   1.463   3.613
 5485SOL     OW17353   3.873   0.133   4.120
 5485SOL    HW117354   3.929   0.121   4.038
 5485SOL    HW217355   3.853   0.044   4.161
 5486SOL     OW17356   1.918   6.261   5.391
 5486SOL    HW117357   1.851   6.206   5.340
 5486SOL    HW217358   2.001   6.208   5.405
 5487SOL     OW17359   5.888   2.896   6.517
 5487SOL    HW117360   5.948   2.913   6.596
 5487SOL    HW217361   5.824   2.822   6.540
 5488SOL     OW17362   6.192   0.255   1.378
 5488SOL    HW117363   6.156   0.348   1.379
 5488SOL    HW217364   6.157   0.207   1.297
 5489SOL     OW17365   0.568   4.323   1.671
 5489SOL    HW117366   0.480   4.327   1.717
 5489SOL    HW217367   0.598   4.227   1.664
 5490SOL     OW17368   3.218   0.016   1.436
 5490SOL    HW117369   3.191   6.976   1.508
 5490SOL    HW217370   3.261   6.992   1.361
 5491SOL     OW17371   1.551   4.130   0.909
 5491SOL    HW117372   1.601   4.159   0.991
 5491SOL    HW217373   1.459   4.100   0.935
 5492SOL     OW17374   0.193   3.111   5.915
 5492SOL    HW117375   0.169   3.154   6.002
 5492SOL    HW217376   0.277   3.057   5.927
 5493SOL     OW17377   3.225   3.954   4.260
 5493SOL    HW117378   3.202   4.003   4.176
 5493SOL    HW217379   3.181   3.864   4.260
 5494SOL     OW17380   0.063   2.842   6.045
 5494SOL    HW117381   0.001   2.764   6.054
 5494SOL    HW217382   0.037   2.897   5.965
 5495SOL     OW17383   3.684   1.450   1.484
 5495SOL    HW117384   3.759   1.452   1.418
 5495SOL    HW217385   3.619   1.523   1.462
 5496SOL     OW17386   3.497   1.154   3.723
 5496SOL    HW117387   3.403   1.149   3.688
 5496SOL    HW217388   3.495   1.166   3.822
 5497SOL     OW17389   0.179   2.004   5.082
 5497SOL    HW117390   0.276   2.003   5.108
 5497SOL    HW217391   0.133   1.925   5.121
 5498SOL     OW17392   6.612   5.992   1.101
 5498SOL    HW117393   6.546   6.039   1.042
 5498SOL    HW217394   6.680   6.058   1.133
 5499SOL     OW17395   0.530   0.766   5.041
 5499SOL    HW117396   0.467   0.788   5.115
 5499SOL    HW217397   0.486   0.701   4.979
 5500SOL     OW17398   1.095   0.601   0.749
 5500SOL    HW117399   1.169   0.668   0.739
 5500SOL    HW217400   1.008   0.649   0.760
 5501SOL     OW17401   3.451   1.065   0.399
 5501SOL    HW117402   3.384   1.131   0.365
 5501SOL    HW217403   3.501   1.025   0.323
 5502SOL     OW17404   5.438   3.807   0.057
 5502SOL    HW117405   5.404   3.850   6.998
 5502SOL    HW217406   5.402   3.714   0.063
 5503SOL     OW17407   0.056   4.527   2.315
 5503SOL    HW117408   0.033   4.611   2.363
 5503SOL    HW217409   0.155   4.521   2.304
 5504SOL     OW17410   4.170   1.419   5.549
 5504SOL    HW117411   4.101   1.491   5.543
 5504SOL    HW217412   4.242   1.437   5.481
 5505SOL     OW17413   2.139   5.118   4.205
 5505SOL    HW117414   2.165   5.146   4.298
 5505SOL    HW217415   2.218   5.129   4.144
 5506SOL     OW17416   1.077   2.943   0.385
 5506SOL    HW117417   1.020   2.986   0.314
 5506SOL    HW217418   1.035   2.957   0.475
 5507SOL     OW17419   3.675   1.326   4.675
 5507SOL    HW117420   3.650   1.384   4.753
 5507SOL    HW217421   3.638   1.365   4.591
 5508SOL     OW17422   1.852   1.159   0.423
 5508SOL    HW117423   1.815   1.199   0.340
 5508SOL    HW217424   1.785   1.095   0.462
 5509SOL     OW17425   0.405   6.569   6.713
 5509SOL    HW117426   0.481   6.564   6.648
 5509SOL    HW217427   0.325   6.523   6.675
 5510SOL     OW17428   4.894   5.632   0.085
 5510SOL    HW117429   4.932   5.714   0.127
 5510SOL    HW217430   4.968   5.568   0.064
 5511SOL     OW17431   1.902   0.835   3.600
 5511SOL    HW117432   1.843   0.799   3.672
 5511SOL    HW217433   1.874   0.798   3.511
 5512SOL     OW17434   5.159   2.502   1.196
 5512SOL    HW117435   5.081   2.439   1.196
 5512SOL    HW217436   5.203   2.501   1.106
 5513SOL     OW17437   4.333   4.686   5.780
 5513SOL    HW117438   4.387   4.630   5.843
 5513SOL    HW217439   4.340   4.782   5.805
 5514SOL     OW17440   3.951   0.048   3.675
 5514SOL    HW117441   4.040   0.088   3.695
 5514SOL    HW217442   3.937   6.993   3.734
 5515SOL     OW17443   0.957   5.864   1.979
 5515SOL    HW117444   0.887   5.794   1.962
 5515SOL    HW217445   1.041   5.820   2.010
 5516SOL     OW17446   1.850   4.135   6.355
 5516SOL    HW117447   1.760   4.095   6.335
 5516SOL    HW217448   1.854   4.160   6.452
 5517SOL     OW17449   2.271   3.075   1.852
 5517SOL    HW117450   2.336   3.024   1.797
 5517SOL    HW217451   2.313   3.161   1.883
 5518SOL     OW17452   5.800   6.209   6.552
 5518SOL    HW117453   5.846   6.298   6.549
 5518SOL    HW217454   5.711   6.215   6.507
 5519SOL     OW17455   5.632   3.855   3.228
 5519SOL    HW117456   5.538   3.851   3.196
 5519SOL    HW217457   5.647   3.940   3.279
 5520SOL     OW17458   6.489   0.245   2.500
 5520SOL    HW117459   6.396   0.264   2.531
 5520SOL    HW217460   6.486   0.180   2.424
 5521SOL     OW17461   5.542   6.424   1.808
 5521SOL    HW117462   5.495   6.410   1.721
 5521SOL    HW217463   5.619   6.360   1.814
 5522SOL     OW17464   6.079   5.026   0.972
 5522SOL    HW117465   6.151   5.012   1.040
 5522SOL    HW217466   6.119   5.019   0.880
 5523SOL     OW17467   3.488   0.997   1.986
 5523SOL    HW117468   3.544   1.065   1.940
 5523SOL    HW217469   3.531   0.907   1.978
 5524SOL     OW17470   5.133   0.539   4.443
 5524SOL    HW117471   5.114   0.614   4.380
 5524SOL    HW217472   5.230   0.517   4.440
 5525SOL     OW17473   0.265   1.964   0.784
 5525SOL    HW117474   0.222   2.046   0.820
 5525SOL    HW217475   0.304   1.910   0.859
 5526SOL     OW17476   4.804   5.948   3.530
 5526SOL    HW117477   4.772   5.865   3.575
 5526SOL    HW217478   4.733   5.982   3.468
 5527SOL     OW17479   5.077   3.345   3.983
 5527SOL    HW117480   5.128   3.300   4.055
 5527SOL    HW217481   5.109   3.313   3.894
 5528SOL     OW17482   1.419   0.748   6.865
 5528SOL    HW117483   1.438   0.808   6.943
 5528SOL    HW217484   1.401   0.655   6.898
 5529SOL     OW17485   2.943   6.680   3.499
 5529SOL    HW117486   2.987   6.591   3.484
 5529SOL    HW217487   3.012   6.747   3.525
 5530SOL     OW17488   5.838   2.230   1.160
 5530SOL    HW117489   5.798   2.300   1.101
 5530SOL    HW217490   5.777   2.151   1.163
 5531SOL     OW17491   3.207   3.594   1.908
 5531SOL    HW117492   3.286   3.642   1.871
 5531SOL    HW217493   3.236   3.515   1.961
 5532SOL     OW17494   1.094   3.365   1.172
 5532SOL    HW117495   1.158   3.435   1.204
 5532SOL    HW217496   1.097   3.286   1.234
 5533SOL     OW17497   3.675   1.967   2.923
 5533SOL    HW117498   3.708   1.881   2.884
 5533SOL    HW217499   3.617   2.014   2.856
 5534SOL     OW17500   0.442   1.539   6.564
 5534SOL    HW117501   0.421   1.609   6.495
 5534SOL    HW217502   0.360   1.483   6.580
 5535SOL     OW17503   0.686   2.832   3.134
 5535SOL    HW117504   0.633   2.749   3.117
 5535SOL    HW217505   0.643   2.910   3.089
 5536SOL     OW17506   3.247   1.011   4.369
 5536SOL    HW117507   3.308   1.060   4.430
 5536SOL    HW217508   3.230   1.066   4.287
 5537SOL     OW17509   2.716   0.955   2.721
 5537SOL    HW117510   2.667   1.030   2.766
 5537SOL    HW217511   2.664   0.925   2.640
 5538SOL     OW17512   2.357   5.997   5.425
 5538SOL    HW117513   2.436   6.057   5.439
 5538SOL    HW217514   2.340   5.944   5.508
 5539SOL     OW17515   1.142   3.601   1.541
 5539SOL    HW117516   1.056   3.601   1.489
 5539SOL    HW217517   1.140   3.526   1.608
 5540SOL     OW17518   4.517   4.760   3.623
 5540SOL    HW117519   4.494   4.731   3.716
 5540SOL    HW217520   4.556   4.683   3.573
 5541SOL     OW17521   5.526   6.883   6.225
 5541SOL    HW117522   5.584   6.950   6.271
 5541SOL    HW217523   5.435   6.920   6.212
 5542SOL     OW17524   4.890   3.538   5.985
 5542SOL    HW117525   4.902   3.515   6.081
 5542SOL    HW217526   4.975   3.519   5.935
 5543SOL     OW17527   3.515   5.188   5.770
 5543SOL    HW117528   3.468   5.131   5.702
 5543SOL    HW217529   3.561   5.129   5.837
 5544SOL     OW17530   4.789   5.718   6.340
 5544SOL    HW117531   4.693   5.694   6.358
 5544SOL    HW217532   4.815   5.686   6.249
 5545SOL     OW17533   4.614   1.453   1.980
 5545SOL    HW117534   4.677   1.501   2.040
 5545SOL    HW217535   4.523   1.450   2.022
 5546SOL     OW17536   0.400   5.186   4.701
 5546SOL    HW117537   0.340   5.263   4.680
 5546SOL    HW217538   0.494   5.209   4.676
 5547SOL     OW17539   2.486   6.412   5.340
 5547SOL    HW117540   2.567   6.426   5.284
 5547SOL    HW217541   2.427   6.344   5.298
 5548SOL     OW17542   6.372   2.090   4.775
 5548SOL    HW117543   6.386   2.189   4.773
 5548SOL    HW217544   6.285   2.069   4.819
 5549SOL     OW17545   4.869   4.592   6.424
 5549SOL    HW117546   4.772   4.603   6.401
 5549SOL    HW217547   4.877   4.555   6.516
 5550SOL     OW17548   2.666   5.892   2.154
 5550SOL    HW117549   2.592   5.835   2.117
 5550SOL    HW217550   2.735   5.906   2.084
 5551SOL     OW17551   2.125   0.451   2.973
 5551SOL    HW117552   2.139   0.416   2.880
 5551SOL    HW217553   2.115   0.551   2.970
 5552SOL     OW17554   6.358   0.810   6.741
 5552SOL    HW117555   6.302   0.842   6.818
 5552SOL    HW217556   6.306   0.743   6.687
 5553SOL     OW17557   4.237   6.074   6.893
 5553SOL    HW117558   4.272   6.015   6.965
 5553SOL    HW217559   4.217   6.165   6.931
 5554SOL     OW17560   3.298   1.531   5.714
 5554SOL    HW117561   3.372   1.573   5.661
 5554SOL    HW217562   3.297   1.570   5.806
 5555SOL     OW17563   0.499   4.547   3.980
 5555SOL    HW117564   0.461   4.549   4.072
 5555SOL    HW217565   0.593   4.583   3.981
 5556SOL     OW17566   0.459   2.735   4.093
 5556SOL    HW117567   0.386   2.690   4.041
 5556SOL    HW217568   0.423   2.764   4.182
 5557SOL     OW17569   3.304   5.710   2.884
 5557SOL    HW117570   3.378   5.773   2.862
 5557SOL    HW217571   3.264   5.675   2.800
 5558SOL     OW17572   5.150   3.350   6.400
 5558SOL    HW117573   5.051   3.338   6.402
 5558SOL    HW217574   5.175   3.425   6.461
 5559SOL     OW17575   2.220   6.913   1.945
 5559SOL    HW117576   2.174   6.953   2.025
 5559SOL    HW217577   2.159   6.919   1.866
 5560SOL     OW17578   0.473   6.820   3.538
 5560SOL    HW117579   0.489   6.918   3.542
 5560SOL    HW217580   0.388   6.802   3.489
 5561SOL     OW17581   2.493   2.167   3.872
 5561SOL    HW117582   2.487   2.075   3.833
 5561SOL    HW217583   2.587   2.185   3.901
 5562SOL     OW17584   2.687   2.609   0.158
 5562SOL    HW117585   2.635   2.664   0.224
 5562SOL    HW217586   2.776   2.585   0.197
 5563SOL     OW17587   4.689   6.495   2.596
 5563SOL    HW117588   4.789   6.503   2.593
 5563SOL    HW217589   4.663   6.429   2.666
 5564SOL     OW17590   4.546   1.705   1.852
 5564SOL    HW117591   4.581   1.755   1.773
 5564SOL    HW217592   4.605   1.628   1.872
 5565SOL     OW17593   4.943   1.607   6.829
 5565SOL    HW117594   5.009   1.561   6.769
 5565SOL    HW217595   4.899   1.681   6.779
 5566SOL     OW17596   1.778   5.396   0.752
 5566SOL    HW117597   1.816   5.306   0.729
 5566SOL    HW217598   1.702   5.385   0.815
 5567SOL     OW17599   0.993   4.535   2.177
 5567SOL    HW117600   1.008   4.630   2.152
 5567SOL    HW217601   0.899   4.508   2.155
 5568SOL     OW17602   5.083   2.426   2.648
 5568SOL    HW117603   5.011   2.400   2.713
 5568SOL    HW217604   5.070   2.520   2.619
 5569SOL     OW17605   3.578   1.838   1.694
 5569SOL    HW117606   3.493   1.853   1.744
 5569SOL    HW217607   3.627   1.761   1.735
 5570SOL     OW17608   5.836   4.347   4.634
 5570SOL    HW117609   5.862   4.443   4.629
 5570SOL    HW217610   5.918   4.292   4.654
 5571SOL     OW17611   0.461   0.030   0.066
 5571SOL    HW117612   0.477   7.019   6.999
 5571SOL    HW217613   0.505   6.995   0.134
 5572SOL     OW17614   2.054   2.998   6.242
 5572SOL    HW117615   2.108   2.938   6.300
 5572SOL    HW217616   1.958   2.973   6.248
 5573SOL     OW17617   1.958   2.998   0.103
 5573SOL    HW117618   1.865   2.966   0.123
 5573SOL    HW217619   1.969   3.005   0.003
 5574SOL     OW17620   6.729   1.010   3.954
 5574SOL    HW117621   6.715   1.107   3.937
 5574SOL    HW217622   6.743   0.961   3.868
 5575SOL     OW17623   0.935   1.198   1.842
 5575SOL    HW117624   0.836   1.211   1.833
 5575SOL    HW217625   0.961   1.109   1.804
 5576SOL     OW17626   6.482   6.009   1.976
 5576SOL    HW117627   6.467   6.103   1.944
 5576SOL    HW217628   6.573   5.979   1.947
 5577SOL     OW17629   2.758   2.832   6.167
 5577SOL    HW117630   2.772   2.745   6.119
 5577SOL    HW217631   2.847   2.873   6.188
 5578SOL     OW17632   4.328   3.375   0.676
 5578SOL    HW117633   4.414   3.348   0.633
 5578SOL    HW217634   4.341   3.388   0.774
 5579SOL     OW17635   6.445   3.646   6.851
 5579SOL    HW117636   6.408   3.664   6.760
 5579SOL    HW217637   6.517   3.712   6.870
 5580SOL     OW17638   4.809   1.804   6.679
 5580SOL    HW117639   4.719   1.796   6.636
 5580SOL    HW217640   4.819   1.895   6.719
 5581SOL     OW17641   2.724   0.048   0.929
 5581SOL    HW117642   2.643   0.044   0.871
 5581SOL    HW217643   2.722   0.132   0.984
 5582SOL     OW17644   3.420   3.144   3.726
 5582SOL    HW117645   3.434   3.233   3.768
 5582SOL    HW217646   3.329   3.140   3.685
 5583SOL     OW17647   3.769   6.679   2.662
 5583SOL    HW117648   3.844   6.623   2.696
 5583SOL    HW217649   3.721   6.630   2.589
 5584SOL     OW17650   5.714   4.039   4.220
 5584SOL    HW117651   5.640   4.053   4.286
 5584SOL    HW217652   5.731   3.941   4.209
 5585SOL     OW17653   4.918   0.838   3.382
 5585SOL    HW117654   4.973   0.805   3.459
 5585SOL    HW217655   4.936   0.782   3.302
 5586SOL     OW17656   1.251   2.537   0.216
 5586SOL    HW117657   1.276   2.449   0.255
 5586SOL    HW217658   1.290   2.611   0.271
 5587SOL     OW17659   4.513   6.744   2.126
 5587SOL    HW117660   4.610   6.754   2.147
 5587SOL    HW217661   4.463   6.720   2.210
 5588SOL     OW17662   0.997   6.824   4.392
 5588SOL    HW117663   0.902   6.826   4.360
 5588SOL    HW217664   1.006   6.757   4.465
 5589SOL     OW17665   5.193   3.034   6.620
 5589SOL    HW117666   5.139   3.083   6.689
 5589SOL    HW217667   5.260   3.096   6.579
 5590SOL     OW17668   0.001   5.594   2.939
 5590SOL    HW117669   6.980   5.640   3.014
 5590SOL    HW217670   6.972   5.606   2.855
 5591SOL     OW17671   5.372   0.726   6.406
 5591SOL    HW117672   5.298   0.789   6.427
 5591SOL    HW217673   5.448   0.775   6.364
 5592SOL     OW17674   2.411   4.906   2.621
 5592SOL    HW117675   2.430   4.997   2.584
 5592SOL    HW217676   2.313   4.894   2.630
 5593SOL     OW17677   0.325   2.822   5.454
 5593SOL    HW117678   0.324   2.876   5.369
 5593SOL    HW217679   0.401   2.853   5.511
 5594SOL     OW17680   2.671   1.000   6.703
 5594SOL    HW117681   2.608   0.972   6.776
 5594SOL    HW217682   2.701   1.094   6.719
 5595SOL     OW17683   6.023   0.907   5.250
 5595SOL    HW117684   6.028   0.807   5.254
 5595SOL    HW217685   6.064   0.940   5.165
 5596SOL     OW17686   5.038   0.223   3.029
 5596SOL    HW117687   5.053   0.156   3.102
 5596SOL    HW217688   5.115   0.288   3.029
 5597SOL     OW17689   5.391   2.363   5.152
 5597SOL    HW117690   5.427   2.443   5.199
 5597SOL    HW217691   5.425   2.280   5.197
 5598SOL     OW17692   5.290   2.505   3.772
 5598SOL    HW117693   5.376   2.456   3.759
 5598SOL    HW217694   5.216   2.455   3.727
 5599SOL     OW17695   6.167   4.142   2.327
 5599SOL    HW117696   6.245   4.201   2.308
 5599SOL    HW217697   6.197   4.064   2.383
 5600SOL     OW17698   2.454   0.284   2.232
 5600SOL    HW117699   2.446   0.344   2.152
 5600SOL    HW217700   2.507   0.203   2.207
 5601SOL     OW17701   4.508   2.251   5.927
 5601SOL    HW117702   4.599   2.250   5.886
 5601SOL    HW217703   4.441   2.278   5.858
 5602SOL     OW17704   6.774   1.032   3.047
 5602SOL    HW117705   6.872   1.032   3.032
 5602SOL    HW217706   6.753   1.080   3.132
 5603SOL     OW17707   4.617   2.396   5.113
 5603SOL    HW117708   4.672   2.339   5.175
 5603SOL    HW217709   4.667   2.409   5.027
 5604SOL     OW17710   1.260   1.872   4.415
 5604SOL    HW117711   1.291   1.810   4.488
 5604SOL    HW217712   1.282   1.833   4.326
 5605SOL     OW17713   1.175   6.934   5.082
 5605SOL    HW117714   1.271   6.908   5.069
 5605SOL    HW217715   1.153   7.010   5.021
 5606SOL     OW17716   4.365   1.150   0.533
 5606SOL    HW117717   4.430   1.077   0.555
 5606SOL    HW217718   4.384   1.229   0.592
 5607SOL     OW17719   6.035   2.141   3.508
 5607SOL    HW117720   5.950   2.089   3.497
 5607SOL    HW217721   6.086   2.141   3.422
 5608SOL     OW17722   6.170   1.138   3.113
 5608SOL    HW117723   6.208   1.069   3.175
 5608SOL    HW217724   6.243   1.196   3.079
 5609SOL     OW17725   4.664   6.172   0.295
 5609SOL    HW117726   4.603   6.171   0.374
 5609SOL    HW217727   4.651   6.088   0.242
 5610SOL     OW17728   5.605   3.640   1.200
 5610SOL    HW117729   5.531   3.573   1.213
 5610SOL    HW217730   5.573   3.730   1.231
 5611SOL     OW17731   0.877   5.228   2.151
 5611SOL    HW117732   0.797   5.191   2.104
 5611SOL    HW217733   0.878   5.195   2.246
 5612SOL     OW17734   3.180   2.710   0.743
 5612SOL    HW117735   3.083   2.712   0.768
 5612SOL    HW217736   3.200   2.625   0.693
 5613SOL     OW17737   6.741   4.480   4.964
 5613SOL    HW117738   6.806   4.535   5.015
 5613SOL    HW217739   6.676   4.539   4.918
 5614SOL     OW17740   6.311   2.213   4.500
 5614SOL    HW117741   6.357   2.270   4.432
 5614SOL    HW217742   6.375   2.193   4.575
 5615SOL     OW17743   0.093   1.438   2.716
 5615SOL    HW117744   0.122   1.342   2.715
 5615SOL    HW217745   0.094   1.473   2.809
 5616SOL     OW17746   2.529   2.175   5.022
 5616SOL    HW117747   2.517   2.193   5.119
 5616SOL    HW217748   2.559   2.259   4.976
 5617SOL     OW17749   1.623   4.472   4.608
 5617SOL    HW117750   1.546   4.498   4.549
 5617SOL    HW217751   1.653   4.380   4.583
 5618SOL     OW17752   6.583   5.243   3.118
 5618SOL    HW117753   6.650   5.170   3.132
 5618SOL    HW217754   6.508   5.232   3.183
 5619SOL     OW17755   3.501   2.870   3.635
 5619SOL    HW117756   3.600   2.876   3.621
 5619SOL    HW217757   3.472   2.944   3.695
 5620SOL     OW17758   4.828   3.991   5.696
 5620SOL    HW117759   4.751   3.936   5.727
 5620SOL    HW217760   4.847   3.971   5.600
 5621SOL     OW17761   1.058   3.097   6.626
 5621SOL    HW117762   1.079   3.023   6.562
 5621SOL    HW217763   1.120   3.090   6.705
 5622SOL     OW17764   4.460   6.628   5.194
 5622SOL    HW117765   4.448   6.571   5.275
 5622SOL    HW217766   4.435   6.576   5.113
 5623SOL     OW17767   4.680   6.824   5.218
 5623SOL    HW117768   4.665   6.858   5.125
 5623SOL    HW217769   4.616   6.750   5.237
 5624SOL     OW17770   0.820   5.150   3.668
 5624SOL    HW117771   0.721   5.135   3.662
 5624SOL    HW217772   0.843   5.233   3.616
 5625SOL     OW17773   0.756   4.953   4.893
 5625SOL    HW117774   0.724   4.877   4.949
 5625SOL    HW217775   0.737   4.935   4.797
 5626SOL     OW17776   2.304   4.700   4.543
 5626SOL    HW117777   2.262   4.777   4.590
 5626SOL    HW217778   2.372   4.657   4.603
 5627SOL     OW17779   6.667   5.886   6.332
 5627SOL    HW117780   6.627   5.963   6.383
 5627SOL    HW217781   6.636   5.890   6.237
 5628SOL     OW17782   3.071   2.934   1.517
 5628SOL    HW117783   3.120   2.934   1.429
 5628SOL    HW217784   3.074   2.842   1.556
 5629SOL     OW17785   4.000   3.189   1.518
 5629SOL    HW117786   4.013   3.118   1.587
 5629SOL    HW217787   3.985   3.146   1.429
 5630SOL     OW17788   1.669   3.929   6.087
 5630SOL    HW117789   1.768   3.915   6.085
 5630SOL    HW217790   1.644   3.977   6.171
 5631SOL     OW17791   5.297   1.114   1.430
 5631SOL    HW117792   5.305   1.072   1.520
 5631SOL    HW217793   5.379   1.095   1.376
 5632SOL     OW17794   4.828   1.615   5.838
 5632SOL    HW117795   4.849   1.672   5.918
 5632SOL    HW217796   4.737   1.640   5.803
 5633SOL     OW17797   6.930   5.104   4.884
 5633SOL    HW117798   6.834   5.114   4.860
 5633SOL    HW217799   6.986   5.113   4.802
 5634SOL     OW17800   1.654   4.890   3.844
 5634SOL    HW117801   1.670   4.880   3.746
 5634SOL    HW217802   1.580   4.956   3.859
 5635SOL     OW17803   2.798   6.461   6.732
 5635SOL    HW117804   2.748   6.457   6.645
 5635SOL    HW217805   2.896   6.467   6.713
 5636SOL     OW17806   5.523   0.855   5.505
 5636SOL    HW117807   5.621   0.850   5.523
 5636SOL    HW217808   5.484   0.934   5.554
 5637SOL     OW17809   5.190   0.306   3.887
 5637SOL    HW117810   5.206   0.215   3.925
 5637SOL    HW217811   5.093   0.330   3.895
 5638SOL     OW17812   5.819   5.597   0.958
 5638SOL    HW117813   5.916   5.576   0.954
 5638SOL    HW217814   5.788   5.631   0.869
 5639SOL     OW17815   1.226   0.777   1.810
 5639SOL    HW117816   1.315   0.761   1.853
 5639SOL    HW217817   1.168   0.697   1.823
 5640SOL     OW17818   2.836   6.998   2.267
 5640SOL    HW117819   2.770   6.975   2.339
 5640SOL    HW217820   2.833   6.928   2.196
 5641SOL     OW17821   0.452   4.238   6.367
 5641SOL    HW117822   0.352   4.229   6.363
 5641SOL    HW217823   0.477   4.306   6.436
 5642SOL     OW17824   1.289   5.126   5.846
 5642SOL    HW117825   1.333   5.097   5.761
 5642SOL    HW217826   1.252   5.046   5.893
 5643SOL     OW17827   3.258   0.702   5.460
 5643SOL    HW117828   3.275   0.785   5.407
 5643SOL    HW217829   3.341   0.675   5.509
 5644SOL     OW17830   4.138   0.628   3.989
 5644SOL    HW117831   4.202   0.704   3.976
 5644SOL    HW217832   4.079   0.647   4.068
 5645SOL     OW17833   6.706   4.407   3.219
 5645SOL    HW117834   6.625   4.417   3.276
 5645SOL    HW217835   6.680   4.419   3.123
 5646SOL     OW17836   2.136   5.232   3.476
 5646SOL    HW117837   2.037   5.247   3.474
 5646SOL    HW217838   2.178   5.272   3.395
 5647SOL     OW17839   6.097   6.839   6.884
 5647SOL    HW117840   6.191   6.805   6.883
 5647SOL    HW217841   6.035   6.763   6.903
 5648SOL     OW17842   1.615   1.418   2.639
 5648SOL    HW117843   1.578   1.396   2.548
 5648SOL    HW217844   1.698   1.472   2.629
 5649SOL     OW17845   0.591   6.615   6.059
 5649SOL    HW117846   0.677   6.634   6.106
 5649SOL    HW217847   0.515   6.644   6.117
 5650SOL     OW17848   0.513   5.778   1.569
 5650SOL    HW117849   0.465   5.860   1.537
 5650SOL    HW217850   0.477   5.698   1.521
 5651SOL     OW17851   0.278   1.195   2.061
 5651SOL    HW117852   0.243   1.281   2.024
 5651SOL    HW217853   0.329   1.147   1.989
 5652SOL     OW17854   5.818   6.596   1.600
 5652SOL    HW117855   5.837   6.564   1.693
 5652SOL    HW217856   5.766   6.681   1.604
 5653SOL     OW17857   0.270   6.761   6.552
 5653SOL    HW117858   0.286   6.854   6.517
 5653SOL    HW217859   0.353   6.707   6.540
 5654SOL     OW17860   6.534   6.296   5.915
 5654SOL    HW117861   6.585   6.215   5.944
 5654SOL    HW217862   6.576   6.377   5.955
 5655SOL     OW17863   1.247   3.439   4.516
 5655SOL    HW117864   1.248   3.530   4.474
 5655SOL    HW217865   1.201   3.375   4.454
 5656SOL     OW17866   1.978   4.348   0.353
 5656SOL    HW117867   2.026   4.262   0.370
 5656SOL    HW217868   2.026   4.422   0.400
 5657SOL     OW17869   5.423   0.434   1.020
 5657SOL    HW117870   5.334   0.477   1.036
 5657SOL    HW217871   5.458   0.396   1.106
 5658SOL     OW17872   3.317   5.981   5.940
 5658SOL    HW117873   3.298   6.034   5.858
 5658SOL    HW217874   3.401   5.929   5.928
 5659SOL     OW17875   3.395   4.117   3.311
 5659SOL    HW117876   3.365   4.210   3.293
 5659SOL    HW217877   3.359   4.055   3.241
 5660SOL     OW17878   5.702   0.039   5.541
 5660SOL    HW117879   5.602   0.039   5.548
 5660SOL    HW217880   5.732   6.977   5.500
 5661SOL     OW17881   0.414   4.299   6.077
 5661SOL    HW117882   0.503   4.289   6.031
 5661SOL    HW217883   0.426   4.287   6.175
 5662SOL     OW17884   2.957   5.371   3.610
 5662SOL    HW117885   2.995   5.451   3.657
 5662SOL    HW217886   2.874   5.398   3.561
 5663SOL     OW17887   1.994   3.968   7.012
 5663SOL    HW117888   2.040   4.046   6.970
 5663SOL    HW217889   1.921   4.000   0.048
 5664SOL     OW17890   6.884   4.215   4.277
 5664SOL    HW117891   6.791   4.183   4.294
 5664SOL    HW217892   6.940   4.200   4.359
 5665SOL     OW17893   1.926   1.709   0.146
 5665SOL    HW117894   1.868   1.665   0.215
 5665SOL    HW217895   1.924   1.808   0.160
 5666SOL     OW17896   5.543   6.105   0.990
 5666SOL    HW117897   5.528   6.008   0.971
 5666SOL    HW217898   5.641   6.126   0.982
 5667SOL     OW17899   1.466   3.982   3.625
 5667SOL    HW117900   1.413   4.048   3.678
 5667SOL    HW217901   1.549   4.026   3.591
 5668SOL     OW17902   5.496   1.795   5.725
 5668SOL    HW117903   5.518   1.706   5.684
 5668SOL    HW217904   5.462   1.781   5.818
 5669SOL     OW17905   0.333   2.847   6.606
 5669SOL    HW117906   0.352   2.754   6.575
 5669SOL    HW217907   0.412   2.905   6.588
 5670SOL     OW17908   0.185   2.929   3.830
 5670SOL    HW117909   0.105   2.964   3.782
 5670SOL    HW217910   0.158   2.851   3.887
 5671SOL     OW17911   0.724   6.814   6.359
 5671SOL    HW117912   0.642   6.757   6.362
 5671SOL    HW217913   0.783   6.783   6.285
 5672SOL     OW17914   4.506   4.321   6.726
 5672SOL    HW117915   4.485   4.255   6.654
 5672SOL    HW217916   4.502   4.414   6.688
 5673SOL     OW17917   0.941   5.996   1.714
 5673SOL    HW117918   0.853   6.022   1.675
 5673SOL    HW217919   0.926   5.953   1.803
 5674SOL     OW17920   6.644   4.139   3.910
 5674SOL    HW117921   6.740   4.156   3.932
 5674SOL    HW217922   6.585   4.188   3.975
 5675SOL     OW17923   4.600   1.998   6.314
 5675SOL    HW117924   4.601   1.979   6.216
 5675SOL    HW217925   4.547   2.081   6.331
 5676SOL     OW17926   1.910   1.979   2.019
 5676SOL    HW117927   1.841   1.971   2.091
 5676SOL    HW217928   1.973   2.054   2.041
 5677SOL     OW17929   0.665   2.620   2.857
 5677SOL    HW117930   0.667   2.587   2.952
 5677SOL    HW217931   0.570   2.628   2.826
 5678SOL     OW17932   2.272   6.372   3.006
 5678SOL    HW117933   2.350   6.406   2.953
 5678SOL    HW217934   2.303   6.347   3.098
 5679SOL     OW17935   1.276   0.327   3.182
 5679SOL    HW117936   1.339   0.261   3.223
 5679SOL    HW217937   1.317   0.418   3.182
 5680SOL     OW17938   1.420   5.487   0.537
 5680SOL    HW117939   1.355   5.480   0.614
 5680SOL    HW217940   1.509   5.515   0.572
 5681SOL     OW17941   0.499   3.598   6.671
 5681SOL    HW117942   0.480   3.662   6.597
 5681SOL    HW217943   0.466   3.635   6.758
 5682SOL     OW17944   2.114   4.901   5.227
 5682SOL    HW117945   2.211   4.923   5.221
 5682SOL    HW217946   2.083   4.864   5.140
 5683SOL     OW17947   3.634   1.324   0.258
 5683SOL    HW117948   3.668   1.251   0.317
 5683SOL    HW217949   3.701   1.342   0.185
 5684SOL     OW17950   3.703   3.023   4.724
 5684SOL    HW117951   3.730   3.088   4.653
 5684SOL    HW217952   3.763   3.032   4.803
 5685SOL     OW17953   1.485   3.457   2.045
 5685SOL    HW117954   1.531   3.419   2.125
 5685SOL    HW217955   1.430   3.386   2.001
 5686SOL     OW17956   2.907   6.934   6.340
 5686SOL    HW117957   2.842   6.861   6.358
 5686SOL    HW217958   2.879   6.986   6.259
 5687SOL     OW17959   0.484   3.636   5.240
 5687SOL    HW117960   0.516   3.706   5.176
 5687SOL    HW217961   0.412   3.674   5.298
 5688SOL     OW17962   6.614   1.929   0.098
 5688SOL    HW117963   6.550   1.875   0.043
 5688SOL    HW217964   6.589   1.922   0.194
 5689SOL     OW17965   4.393   0.502   0.204
 5689SOL    HW117966   4.370   0.463   0.293
 5689SOL    HW217967   4.404   0.601   0.212
 5690SOL     OW17968   2.445   6.531   0.567
 5690SOL    HW117969   2.508   6.585   0.623
 5690SOL    HW217970   2.431   6.442   0.609
 5691SOL     OW17971   2.729   6.207   1.901
 5691SOL    HW117972   2.677   6.288   1.877
 5691SOL    HW217973   2.808   6.199   1.840
 5692SOL     OW17974   6.815   3.495   5.645
 5692SOL    HW117975   6.876   3.462   5.718
 5692SOL    HW217976   6.743   3.428   5.629
 5693SOL     OW17977   6.171   2.617   2.691
 5693SOL    HW117978   6.190   2.698   2.635
 5693SOL    HW217979   6.093   2.568   2.652
 5694SOL     OW17980   0.991   1.727   3.601
 5694SOL    HW117981   0.940   1.653   3.644
 5694SOL    HW217982   1.055   1.766   3.668
 5695SOL     OW17983   1.253   2.633   3.234
 5695SOL    HW117984   1.299   2.714   3.273
 5695SOL    HW217985   1.311   2.593   3.164
 5696SOL     OW17986   1.179   0.339   2.909
 5696SOL    HW117987   1.212   0.343   3.003
 5696SOL    HW217988   1.135   0.425   2.885
 5697SOL     OW17989   6.219   2.016   0.940
 5697SOL    HW117990   6.255   1.932   0.979
 5697SOL    HW217991   6.180   2.073   1.012
 5698SOL     OW17992   0.318   3.332   2.352
 5698SOL    HW117993   0.407   3.359   2.391
 5698SOL    HW217994   0.313   3.233   2.346
 5699SOL     OW17995   6.212   2.250   3.249
 5699SOL    HW117996   6.278   2.277   3.179
 5699SOL    HW217997   6.162   2.330   3.281
 5700SOL     OW17998   6.694   6.577   4.589
 5700SOL    HW117999   6.728   6.543   4.502
 5700SOL    HW218000   6.692   6.677   4.587
 5701SOL     OW18001   1.193   6.161   3.253
 5701SOL    HW118002   1.218   6.129   3.162
 5701SOL    HW218003   1.117   6.226   3.246
 5702SOL     OW18004   1.471   0.329   5.272
 5702SOL    HW118005   1.442   0.244   5.317
 5702SOL    HW218006   1.497   0.309   5.177
 5703SOL     OW18007   5.431   4.234   1.247
 5703SOL    HW118008   5.417   4.268   1.340
 5703SOL    HW218009   5.527   4.241   1.222
 5704SOL     OW18010   4.485   5.414   2.266
 5704SOL    HW118011   4.435   5.416   2.180
 5704SOL    HW218012   4.541   5.497   2.274
 5705SOL     OW18013   5.014   1.221   0.596
 5705SOL    HW118014   4.973   1.234   0.686
 5705SOL    HW218015   5.114   1.219   0.605
 5706SOL     OW18016   0.886   1.864   0.454
 5706SOL    HW118017   0.884   1.779   0.506
 5706SOL    HW218018   0.846   1.850   0.364
 5707SOL     OW18019   0.412   0.203   0.465
 5707SOL    HW118020   0.479   0.269   0.430
 5707SOL    HW218021   0.458   0.117   0.487
 5708SOL     OW18022   5.076   6.572   1.114
 5708SOL    HW118023   5.106   6.531   1.028
 5708SOL    HW218024   5.025   6.656   1.094
 5709SOL     OW18025   0.947   0.291   3.500
 5709SOL    HW118026   0.859   0.249   3.521
 5709SOL    HW218027   0.985   0.250   3.417
 5710SOL     OW18028   2.896   3.250   6.305
 5710SOL    HW118029   2.853   3.181   6.364
 5710SOL    HW218030   2.825   3.312   6.270
 5711SOL     OW18031   4.192   0.629   2.792
 5711SOL    HW118032   4.232   0.581   2.870
 5711SOL    HW218033   4.262   0.639   2.720
 5712SOL     OW18034   0.698   5.559   6.230
 5712SOL    HW118035   0.711   5.647   6.275
 5712SOL    HW218036   0.786   5.516   6.214
 5713SOL     OW18037   1.135   2.276   1.637
 5713SOL    HW118038   1.067   2.221   1.589
 5713SOL    HW218039   1.197   2.216   1.687
 5714SOL     OW18040   0.487   6.052   6.706
 5714SOL    HW118041   0.431   6.005   6.774
 5714SOL    HW218042   0.501   6.147   6.734
 5715SOL     OW18043   1.133   6.652   3.527
 5715SOL    HW118044   1.048   6.637   3.576
 5715SOL    HW218045   1.115   6.655   3.429
 5716SOL     OW18046   1.642   4.629   6.912
 5716SOL    HW118047   1.617   4.592   7.002
 5716SOL    HW218048   1.736   4.663   6.916
 5717SOL     OW18049   2.074   6.135   0.757
 5717SOL    HW118050   2.117   6.046   0.765
 5717SOL    HW218051   2.064   6.160   0.660
 5718SOL     OW18052   0.990   3.670   6.202
 5718SOL    HW118053   1.069   3.610   6.196
 5718SOL    HW218054   0.908   3.615   6.218
 5719SOL     OW18055   2.105   1.380   5.958
 5719SOL    HW118056   2.091   1.425   5.869
 5719SOL    HW218057   2.018   1.377   6.007
 5720SOL     OW18058   0.940   4.908   4.191
 5720SOL    HW118059   1.022   4.863   4.227
 5720SOL    HW218060   0.956   4.936   4.096
 5721SOL     OW18061   0.231   3.708   0.770
 5721SOL    HW118062   0.222   3.749   0.861
 5721SOL    HW218063   0.148   3.657   0.748
 5722SOL     OW18064   6.075   1.936   4.986
 5722SOL    HW118065   6.172   1.913   4.989
 5722SOL    HW218066   6.045   1.940   4.890
 5723SOL     OW18067   4.265   3.941   0.260
 5723SOL    HW118068   4.165   3.946   0.260
 5723SOL    HW218069   4.295   3.879   0.187
 5724SOL     OW18070   3.954   2.674   5.351
 5724SOL    HW118071   3.897   2.688   5.270
 5724SOL    HW218072   4.031   2.615   5.327
 5725SOL     OW18073   6.153   5.663   4.043
 5725SOL    HW118074   6.219   5.598   4.005
 5725SOL    HW218075   6.124   5.726   3.971
 5726SOL     OW18076   6.288   3.838   3.922
 5726SOL    HW118077   6.343   3.911   3.963
 5726SOL    HW218078   6.220   3.807   3.988
 5727SOL     OW18079   1.089   2.501   4.114
 5727SOL    HW118080   1.068   2.417   4.163
 5727SOL    HW218081   1.038   2.577   4.155
 5728SOL     OW18082   4.667   1.249   6.767
 5728SOL    HW118083   4.684   1.171   6.708
 5728SOL    HW218084   4.572   1.279   6.757
 5729SOL     OW18085   0.640   1.428   0.178
 5729SOL    HW118086   0.655   1.365   0.102
 5729SOL    HW218087   0.612   1.377   0.260
 5730SOL     OW18088   4.442   5.305   5.740
 5730SOL    HW118089   4.351   5.264   5.733
 5730SOL    HW218090   4.461   5.357   5.657
 5731SOL     OW18091   1.824   6.384   4.097
 5731SOL    HW118092   1.908   6.415   4.142
 5731SOL    HW218093   1.810   6.436   4.013
 5732SOL     OW18094   6.781   4.898   5.694
 5732SOL    HW118095   6.711   4.832   5.723
 5732SOL    HW218096   6.751   4.943   5.610
 5733SOL     OW18097   2.900   0.365   5.599
 5733SOL    HW118098   2.946   0.402   5.680
 5733SOL    HW218099   2.836   0.294   5.626
 5734SOL     OW18100   1.215   6.105   6.157
 5734SOL    HW118101   1.305   6.127   6.196
 5734SOL    HW218102   1.206   6.006   6.147
 5735SOL     OW18103   4.054   1.383   2.206
 5735SOL    HW118104   4.141   1.431   2.193
 5735SOL    HW218105   4.053   1.339   2.296
 5736SOL     OW18106   5.833   4.126   1.170
 5736SOL    HW118107   5.854   4.175   1.085
 5736SOL    HW218108   5.761   4.059   1.152
 5737SOL     OW18109   5.602   5.874   6.990
 5737SOL    HW118110   5.658   5.799   6.955
 5737SOL    HW218111   5.508   5.841   7.001
 5738SOL     OW18112   3.248   2.571   6.725
 5738SOL    HW118113   3.152   2.580   6.700
 5738SOL    HW218114   3.257   2.510   6.804
 5739SOL     OW18115   0.887   6.218   5.531
 5739SOL    HW118116   0.831   6.301   5.531
 5739SOL    HW218117   0.951   6.221   5.455
 5740SOL     OW18118   4.124   4.406   1.034
 5740SOL    HW118119   4.137   4.488   0.978
 5740SOL    HW218120   4.178   4.331   0.996
 5741SOL     OW18121   6.751   3.981   4.614
 5741SOL    HW118122   6.700   3.976   4.700
 5741SOL    HW218123   6.828   3.916   4.618
 5742SOL     OW18124   4.559   6.019   2.237
 5742SOL    HW118125   4.471   5.992   2.276
 5742SOL    HW218126   4.592   5.947   2.176
 5743SOL     OW18127   2.096   6.011   5.687
 5743SOL    HW118128   2.044   6.041   5.767
 5743SOL    HW218129   2.033   5.978   5.616
 5744SOL     OW18130   4.804   1.532   1.340
 5744SOL    HW118131   4.866   1.500   1.412
 5744SOL    HW218132   4.857   1.553   1.258
 5745SOL     OW18133   1.931   1.184   3.229
 5745SOL    HW118134   1.945   1.141   3.319
 5745SOL    HW218135   2.013   1.172   3.174
 5746SOL     OW18136   4.826   0.290   1.998
 5746SOL    HW118137   4.900   0.266   2.060
 5746SOL    HW218138   4.752   0.223   2.006
 5747SOL     OW18139   1.269   5.501   2.029
 5747SOL    HW118140   1.363   5.533   2.020
 5747SOL    HW218141   1.246   5.441   1.952
 5748SOL     OW18142   1.169   0.317   1.329
 5748SOL    HW118143   1.256   0.275   1.358
 5748SOL    HW218144   1.145   0.283   1.238
 5749SOL     OW18145   1.336   6.347   4.866
 5749SOL    HW118146   1.412   6.392   4.914
 5749SOL    HW218147   1.275   6.305   4.933
 5750SOL     OW18148   6.240   5.999   4.818
 5750SOL    HW118149   6.215   5.902   4.820
 5750SOL    HW218150   6.198   6.042   4.738
 5751SOL     OW18151   2.283   2.833   4.817
 5751SOL    HW118152   2.375   2.795   4.806
 5751SOL    HW218153   2.287   2.917   4.871
 5752SOL     OW18154   5.329   0.277   0.260
 5752SOL    HW118155   5.250   0.319   0.217
 5752SOL    HW218156   5.311   0.264   0.358
 5753SOL     OW18157   3.872   4.050   4.190
 5753SOL    HW118158   3.817   3.995   4.253
 5753SOL    HW218159   3.880   4.143   4.226
 5754SOL     OW18160   0.027   5.712   1.981
 5754SOL    HW118161   6.963   5.672   1.958
 5754SOL    HW218162   0.025   5.746   2.075
 5755SOL     OW18163   1.883   2.271   6.694
 5755SOL    HW118164   1.846   2.350   6.743
 5755SOL    HW218165   1.868   2.188   6.748
 5756SOL     OW18166   6.833   0.147   2.789
 5756SOL    HW118167   6.923   0.171   2.824
 5756SOL    HW218168   6.789   0.083   2.852
 5757SOL     OW18169   0.270   5.622   3.052
 5757SOL    HW118170   0.331   5.545   3.029
 5757SOL    HW218171   0.178   5.602   3.017
 5758SOL     OW18172   2.556   1.489   3.763
 5758SOL    HW118173   2.563   1.456   3.857
 5758SOL    HW218174   2.615   1.568   3.750
 5759SOL     OW18175   4.866   0.726   6.703
 5759SOL    HW118176   4.870   0.626   6.705
 5759SOL    HW218177   4.955   0.763   6.732
 5760SOL     OW18178   6.701   2.683   0.967
 5760SOL    HW118179   6.757   2.743   1.025
 5760SOL    HW218180   6.686   2.596   1.014
 5761SOL     OW18181   6.046   5.110   6.117
 5761SOL    HW118182   5.959   5.062   6.108
 5761SOL    HW218183   6.121   5.043   6.116
 5762SOL     OW18184   5.127   3.936   1.131
 5762SOL    HW118185   5.069   3.863   1.097
 5762SOL    HW218186   5.172   3.981   1.054
 5763SOL     OW18187   6.662   5.780   0.571
 5763SOL    HW118188   6.617   5.779   0.482
 5763SOL    HW218189   6.605   5.732   0.638
 5764SOL     OW18190   5.451   4.764   5.163
 5764SOL    HW118191   5.471   4.672   5.195
 5764SOL    HW218192   5.535   4.818   5.160
 5765SOL     OW18193   6.445   2.801   1.131
 5765SOL    HW118194   6.484   2.848   1.052
 5765SOL    HW218195   6.360   2.757   1.104
 5766SOL     OW18196   1.746   1.618   5.911
 5766SOL    HW118197   1.821   1.683   5.903
 5766SOL    HW218198   1.666   1.664   5.949
 5767SOL     OW18199   2.122   0.531   0.746
 5767SOL    HW118200   2.124   0.586   0.829
 5767SOL    HW218201   2.036   0.480   0.742
 5768SOL     OW18202   1.056   6.336   4.218
 5768SOL    HW118203   1.116   6.414   4.198
 5768SOL    HW218204   0.961   6.364   4.206
 5769SOL     OW18205   2.182   5.427   4.207
 5769SOL    HW118206   2.178   5.353   4.274
 5769SOL    HW218207   2.160   5.390   4.116
 5770SOL     OW18208   6.488   6.043   6.496
 5770SOL    HW118209   6.423   5.972   6.467
 5770SOL    HW218210   6.456   6.084   6.582
 5771SOL     OW18211   0.849   0.052   4.518
 5771SOL    HW118212   0.758   0.086   4.495
 5771SOL    HW218213   0.874   7.002   4.456
 5772SOL     OW18214   5.648   0.821   1.886
 5772SOL    HW118215   5.593   0.898   1.918
 5772SOL    HW218216   5.649   0.750   1.956
 5773SOL     OW18217   3.993   0.641   3.350
 5773SOL    HW118218   3.902   0.667   3.381
 5773SOL    HW218219   3.985   0.586   3.267
 5774SOL     OW18220   3.103   6.442   4.005
 5774SOL    HW118221   3.053   6.355   4.005
 5774SOL    HW218222   3.144   6.457   3.915
 5775SOL     OW18223   1.472   0.642   2.360
 5775SOL    HW118224   1.469   0.667   2.457
 5775SOL    HW218225   1.551   0.583   2.343
 5776SOL     OW18226   0.181   0.819   4.546
 5776SOL    HW118227   0.168   0.720   4.553
 5776SOL    HW218228   0.267   0.838   4.498
 5777SOL     OW18229   6.656   0.686   4.780
 5777SOL    HW118230   6.687   0.656   4.871
 5777SOL    HW218231   6.728   0.668   4.713
 5778SOL     OW18232   1.350   0.458   0.457
 5778SOL    HW118233   1.345   0.392   0.532
 5778SOL    HW218234   1.439   0.504   0.460
 5779SOL     OW18235   4.072   2.625   0.750
 5779SOL    HW118236   4.085   2.608   0.652
 5779SOL    HW218237   4.047   2.721   0.765
 5780SOL     OW18238   6.550   5.983   4.176
 5780SOL    HW118239   6.468   5.970   4.120
 5780SOL    HW218240   6.552   5.914   4.248
 5781SOL     OW18241   6.569   5.382   4.548
 5781SOL    HW118242   6.566   5.283   4.563
 5781SOL    HW218243   6.549   5.401   4.452
 5782SOL     OW18244   1.126   1.437   0.797
 5782SOL    HW118245   1.116   1.507   0.726
 5782SOL    HW218246   1.050   1.446   0.862
 5783SOL     OW18247   1.268   0.385   1.788
 5783SOL    HW118248   1.348   0.433   1.822
 5783SOL    HW218249   1.186   0.441   1.801
 5784SOL     OW18250   6.739   5.671   6.466
 5784SOL    HW118251   6.698   5.670   6.557
 5784SOL    HW218252   6.716   5.757   6.420
 5785SOL     OW18253   2.554   1.615   0.598
 5785SOL    HW118254   2.612   1.696   0.610
 5785SOL    HW218255   2.458   1.642   0.596
 5786SOL     OW18256   1.301   3.800   0.267
 5786SOL    HW118257   1.360   3.742   0.211
 5786SOL    HW218258   1.357   3.857   0.328
 5787SOL     OW18259   3.499   2.098   4.843
 5787SOL    HW118260   3.508   2.084   4.744
 5787SOL    HW218261   3.402   2.108   4.866
 5788SOL     OW18262   2.909   1.207   1.131
 5788SOL    HW118263   2.816   1.173   1.148
 5788SOL    HW218264   2.905   1.305   1.110
 5789SOL     OW18265   3.329   4.732   6.621
 5789SOL    HW118266   3.425   4.763   6.625
 5789SOL    HW218267   3.279   4.789   6.556
 5790SOL     OW18268   1.129   4.800   4.357
 5790SOL    HW118269   1.106   4.710   4.396
 5790SOL    HW218270   1.227   4.817   4.368
 5791SOL     OW18271   3.358   1.399   2.882
 5791SOL    HW118272   3.335   1.395   2.980
 5791SOL    HW218273   3.278   1.374   2.828
 5792SOL     OW18274   6.203   3.105   2.659
 5792SOL    HW118275   6.147   3.033   2.700
 5792SOL    HW218276   6.263   3.066   2.589
 5793SOL     OW18277   4.787   1.150   3.667
 5793SOL    HW118278   4.767   1.112   3.577
 5793SOL    HW218279   4.702   1.179   3.711
 5794SOL     OW18280   2.243   0.740   0.074
 5794SOL    HW118281   2.211   0.827   0.036
 5794SOL    HW218282   2.249   0.671   0.002
 5795SOL     OW18283   6.378   6.996   6.551
 5795SOL    HW118284   6.312   0.008   6.617
 5795SOL    HW218285   6.468   6.989   6.594
 5796SOL     OW18286   4.976   1.393   6.170
 5796SOL    HW118287   5.062   1.352   6.202
 5796SOL    HW218288   4.991   1.489   6.149
 5797SOL     OW18289   5.036   2.503   6.632
 5797SOL    HW118290   5.045   2.464   6.540
 5797SOL    HW218291   5.104   2.576   6.644
 5798SOL     OW18292   1.047   4.963   5.031
 5798SOL    HW118293   0.949   4.984   5.040
 5798SOL    HW218294   1.061   4.908   4.949
 5799SOL     OW18295   0.298   0.664   3.443
 5799SOL    HW118296   0.382   0.610   3.441
 5799SOL    HW218297   0.224   0.611   3.484
 5800SOL     OW18298   6.310   6.430   2.038
 5800SOL    HW118299   6.234   6.367   2.056
 5800SOL    HW218300   6.392   6.378   2.014
 5801SOL     OW18301   1.969   2.454   3.612
 5801SOL    HW118302   1.984   2.458   3.711
 5801SOL    HW218303   2.015   2.372   3.575
 5802SOL     OW18304   0.457   3.862   2.360
 5802SOL    HW118305   0.487   3.804   2.284
 5802SOL    HW218306   0.431   3.804   2.437
 5803SOL     OW18307   2.534   5.552   1.910
 5803SOL    HW118308   2.490   5.599   1.986
 5803SOL    HW218309   2.634   5.562   1.917
 5804SOL     OW18310   0.209   6.166   3.825
 5804SOL    HW118311   0.145   6.223   3.774
 5804SOL    HW218312   0.301   6.206   3.818
 5805SOL     OW18313   2.318   3.183   0.212
 5805SOL    HW118314   2.383   3.235   0.267
 5805SOL    HW218315   2.233   3.170   0.264
 5806SOL     OW18316   6.670   5.189   5.192
 5806SOL    HW118317   6.610   5.269   5.195
 5806SOL    HW218318   6.730   5.194   5.112
 5807SOL     OW18319   0.729   3.787   1.572
 5807SOL    HW118320   0.734   3.695   1.611
 5807SOL    HW218321   0.819   3.830   1.579
 5808SOL     OW18322   6.425   5.698   4.849
 5808SOL    HW118323   6.472   5.659   4.770
 5808SOL    HW218324   6.492   5.734   4.914
 5809SOL     OW18325   5.522   2.191   4.483
 5809SOL    HW118326   5.464   2.130   4.536
 5809SOL    HW218327   5.583   2.137   4.424
 5810SOL     OW18328   3.855   1.708   4.602
 5810SOL    HW118329   3.882   1.612   4.603
 5810SOL    HW218330   3.858   1.744   4.696
 5811SOL     OW18331   3.094   0.941   5.105
 5811SOL    HW118332   3.101   1.005   5.028
 5811SOL    HW218333   3.172   0.955   5.166
 5812SOL     OW18334   6.475   2.653   4.105
 5812SOL    HW118335   6.569   2.664   4.139
 5812SOL    HW218336   6.477   2.599   4.021
 5813SOL     OW18337   1.615   1.622   1.043
 5813SOL    HW118338   1.655   1.539   1.081
 5813SOL    HW218339   1.687   1.690   1.029
 5814SOL     OW18340   6.527   4.153   2.524
 5814SOL    HW118341   6.530   4.086   2.599
 5814SOL    HW218342   6.579   4.117   2.446
 5815SOL     OW18343   3.995   1.928   4.515
 5815SOL    HW118344   3.951   1.844   4.546
 5815SOL    HW218345   3.925   1.997   4.495
 5816SOL     OW18346   4.633   5.249   0.295
 5816SOL    HW118347   4.668   5.342   0.285
 5816SOL    HW218348   4.550   5.238   0.240
 5817SOL     OW18349   5.648   3.657   5.606
 5817SOL    HW118350   5.721   3.589   5.614
 5817SOL    HW218351   5.566   3.623   5.651
 5818SOL     OW18352   6.804   5.851   4.837
 5818SOL    HW118353   6.724   5.868   4.895
 5818SOL    HW218354   6.858   5.776   4.876
 5819SOL     OW18355   3.814   6.700   6.582
 5819SOL    HW118356   3.782   6.794   6.595
 5819SOL    HW218357   3.860   6.692   6.494
 5820SOL     OW18358   4.743   5.271   3.607
 5820SOL    HW118359   4.662   5.277   3.549
 5820SOL    HW218360   4.765   5.361   3.643
 5821SOL     OW18361   0.102   6.390   1.199
 5821SOL    HW118362   0.117   6.362   1.104
 5821SOL    HW218363   0.033   6.463   1.201
 5822SOL     OW18364   1.803   2.430   1.238
 5822SOL    HW118365   1.817   2.459   1.333
 5822SOL    HW218366   1.825   2.506   1.177
 5823SOL     OW18367   1.755   0.317   5.394
 5823SOL    HW118368   1.702   0.368   5.462
 5823SOL    HW218369   1.702   0.310   5.309
 5824SOL     OW18370   6.771   5.831   2.151
 5824SOL    HW118371   6.683   5.845   2.196
 5824SOL    HW218372   6.768   5.870   2.059
 5825SOL     OW18373   0.211   1.784   5.505
 5825SOL    HW118374   0.111   1.779   5.500
 5825SOL    HW218375   0.244   1.713   5.567
 5826SOL     OW18376   0.223   4.768   6.135
 5826SOL    HW118377   0.148   4.760   6.201
 5826SOL    HW218378   0.248   4.678   6.101
 5827SOL     OW18379   2.084   3.912   4.813
 5827SOL    HW118380   2.055   4.006   4.795
 5827SOL    HW218381   2.158   3.912   4.879
 5828SOL     OW18382   6.613   1.721   1.548
 5828SOL    HW118383   6.638   1.815   1.525
 5828SOL    HW218384   6.530   1.721   1.603
 5829SOL     OW18385   0.985   0.643   3.197
 5829SOL    HW118386   1.041   0.580   3.252
 5829SOL    HW218387   1.025   0.653   3.106
 5830SOL     OW18388   5.067   6.315   5.728
 5830SOL    HW118389   5.009   6.384   5.772
 5830SOL    HW218390   5.019   6.228   5.726
 5831SOL     OW18391   1.310   1.611   5.558
 5831SOL    HW118392   1.362   1.585   5.640
 5831SOL    HW218393   1.268   1.530   5.518
 5832SOL     OW18394   2.461   4.690   6.920
 5832SOL    HW118395   2.384   4.642   6.877
 5832SOL    HW218396   2.538   4.626   6.930
 5833SOL     OW18397   3.570   3.868   4.836
 5833SOL    HW118398   3.520   3.942   4.793
 5833SOL    HW218399   3.638   3.905   4.899
 5834SOL     OW18400   0.044   2.734   0.270
 5834SOL    HW118401   0.010   2.682   0.192
 5834SOL    HW218402   0.141   2.754   0.258
 5835SOL     OW18403   5.087   3.142   3.446
 5835SOL    HW118404   5.187   3.136   3.456
 5835SOL    HW218405   5.064   3.216   3.384
 5836SOL     OW18406   2.507   6.754   1.994
 5836SOL    HW118407   2.432   6.803   2.040
 5836SOL    HW218408   2.477   6.726   1.903
 5837SOL     OW18409   3.938   3.910   6.124
 5837SOL    HW118410   3.842   3.905   6.095
 5837SOL    HW218411   3.991   3.959   6.055
 5838SOL     OW18412   2.662   1.867   0.632
 5838SOL    HW118413   2.760   1.856   0.645
 5838SOL    HW218414   2.641   1.962   0.610
 5839SOL     OW18415   0.817   2.037   2.601
 5839SOL    HW118416   0.867   2.120   2.625
 5839SOL    HW218417   0.776   2.047   2.510
 5840SOL     OW18418   0.321   5.558   6.425
 5840SOL    HW118419   0.228   5.530   6.449
 5840SOL    HW218420   0.382   5.478   6.426
 5841SOL     OW18421   4.858   1.908   2.272
 5841SOL    HW118422   4.935   1.956   2.314
 5841SOL    HW218423   4.878   1.892   2.175
 5842SOL     OW18424   4.530   2.985   1.381
 5842SOL    HW118425   4.498   3.073   1.346
 5842SOL    HW218426   4.629   2.980   1.373
 5843SOL     OW18427   1.331   4.120   3.190
 5843SOL    HW118428   1.278   4.038   3.211
 5843SOL    HW218429   1.382   4.148   3.271
 5844SOL     OW18430   1.970   6.169   5.912
 5844SOL    HW118431   1.971   6.269   5.909
 5844SOL    HW218432   2.052   6.136   5.959
 5845SOL     OW18433   0.716   0.336   2.790
 5845SOL    HW118434   0.799   0.292   2.757
 5845SOL    HW218435   0.711   0.329   2.889
 5846SOL     OW18436   6.747   2.801   4.491
 5846SOL    HW118437   6.743   2.901   4.493
 5846SOL    HW218438   6.718   2.769   4.401
 5847SOL     OW18439   2.805   2.399   1.431
 5847SOL    HW118440   2.785   2.481   1.485
 5847SOL    HW218441   2.722   2.346   1.418
 5848SOL     OW18442   1.653   6.237   2.796
 5848SOL    HW118443   1.686   6.178   2.722
 5848SOL    HW218444   1.728   6.259   2.858
 5849SOL     OW18445   0.630   0.767   6.055
 5849SOL    HW118446   0.602   0.705   6.128
 5849SOL    HW218447   0.667   0.851   6.095
 5850SOL     OW18448   6.763   3.495   2.138
 5850SOL    HW118449   6.762   3.565   2.209
 5850SOL    HW218450   6.742   3.536   2.050
 5851SOL     OW18451   4.918   3.884   2.875
 5851SOL    HW118452   4.977   3.876   2.794
 5851SOL    HW218453   4.903   3.792   2.913
 5852SOL     OW18454   6.105   5.831   3.151
 5852SOL    HW118455   6.029   5.803   3.092
 5852SOL    HW218456   6.090   5.924   3.183
 5853SOL     OW18457   3.552   5.822   4.091
 5853SOL    HW118458   3.512   5.903   4.049
 5853SOL    HW218459   3.646   5.809   4.058
 5854SOL     OW18460   4.587   4.371   6.111
 5854SOL    HW118461   4.685   4.371   6.130
 5854SOL    HW218462   4.570   4.414   6.022
 5855SOL     OW18463   0.706   1.703   4.441
 5855SOL    HW118464   0.650   1.628   4.406
 5855SOL    HW218465   0.735   1.682   4.534
 5856SOL     OW18466   2.248   5.857   3.744
 5856SOL    HW118467   2.156   5.854   3.782
 5856SOL    HW218468   2.243   5.851   3.644
 5857SOL     OW18469   6.231   1.956   5.983
 5857SOL    HW118470   6.258   1.903   6.063
 5857SOL    HW218471   6.312   1.999   5.943
 5858SOL     OW18472   2.677   1.802   2.267
 5858SOL    HW118473   2.603   1.869   2.262
 5858SOL    HW218474   2.739   1.814   2.189
 5859SOL     OW18475   5.835   6.238   1.227
 5859SOL    HW118476   5.931   6.212   1.223
 5859SOL    HW218477   5.786   6.176   1.288
 5860SOL     OW18478   0.662   3.518   1.614
 5860SOL    HW118479   0.749   3.480   1.646
 5860SOL    HW218480   0.587   3.481   1.668
 5861SOL     OW18481   4.268   1.839   4.577
 5861SOL    HW118482   4.197   1.875   4.517
 5861SOL    HW218483   4.245   1.860   4.672
 5862SOL     OW18484   5.933   5.195   1.351
 5862SOL    HW118485   5.889   5.147   1.427
 5862SOL    HW218486   6.032   5.182   1.357
 5863SOL     OW18487   3.574   1.942   5.258
 5863SOL    HW118488   3.476   1.930   5.270
 5863SOL    HW218489   3.598   2.039   5.267
 5864SOL     OW18490   4.159   3.694   1.860
 5864SOL    HW118491   4.194   3.615   1.810
 5864SOL    HW218492   4.135   3.667   1.953
 5865SOL     OW18493   6.045   0.248   4.695
 5865SOL    HW118494   6.074   0.217   4.786
 5865SOL    HW218495   6.107   0.211   4.626
 5866SOL     OW18496   4.262   4.699   6.911
 5866SOL    HW118497   4.241   4.658   6.822
 5866SOL    HW218498   4.193   4.671   6.978
 5867SOL     OW18499   2.034   3.459   0.538
 5867SOL    HW118500   2.040   3.437   0.440
 5867SOL    HW218501   1.939   3.480   0.561
 5868SOL     OW18502   0.838   1.925   5.496
 5868SOL    HW118503   0.933   1.922   5.466
 5868SOL    HW218504   0.777   1.931   5.417
 5869SOL     OW18505   1.418   6.200   3.410
 5869SOL    HW118506   1.460   6.114   3.438
 5869SOL    HW218507   1.356   6.184   3.334
 5870SOL     OW18508   5.214   5.758   4.545
 5870SOL    HW118509   5.129   5.811   4.546
 5870SOL    HW218510   5.224   5.710   4.632
 5871SOL     OW18511   3.793   2.669   1.390
 5871SOL    HW118512   3.815   2.664   1.292
 5871SOL    HW218513   3.790   2.576   1.428
 5872SOL     OW18514   4.151   6.352   1.082
 5872SOL    HW118515   4.106   6.292   1.148
 5872SOL    HW218516   4.081   6.392   1.021
 5873SOL     OW18517   3.141   2.042   1.607
 5873SOL    HW118518   3.153   2.070   1.511
 5873SOL    HW218519   3.079   2.107   1.653
 5874SOL     OW18520   2.966   3.789   6.419
 5874SOL    HW118521   3.050   3.764   6.468
 5874SOL    HW218522   2.991   3.824   6.328
 5875SOL     OW18523   4.257   0.729   6.894
 5875SOL    HW118524   4.314   0.795   6.943
 5875SOL    HW218525   4.283   0.636   6.920
 5876SOL     OW18526   3.522   3.778   0.867
 5876SOL    HW118527   3.426   3.769   0.843
 5876SOL    HW218528   3.532   3.836   0.948
 5877SOL     OW18529   0.192   0.971   0.986
 5877SOL    HW118530   0.110   0.943   1.036
 5877SOL    HW218531   0.250   0.891   0.969
 5878SOL     OW18532   6.180   5.148   4.070
 5878SOL    HW118533   6.126   5.068   4.046
 5878SOL    HW218534   6.250   5.123   4.138
 5879SOL     OW18535   2.093   3.891   6.738
 5879SOL    HW118536   2.169   3.930   6.789
 5879SOL    HW218537   2.090   3.792   6.753
 5880SOL     OW18538   5.391   4.330   6.463
 5880SOL    HW118539   5.328   4.267   6.510
 5880SOL    HW218540   5.408   4.297   6.371
 5881SOL     OW18541   0.754   6.466   2.528
 5881SOL    HW118542   0.710   6.383   2.492
 5881SOL    HW218543   0.853   6.455   2.525
 5882SOL     OW18544   0.065   5.516   6.514
 5882SOL    HW118545   0.039   5.421   6.495
 5882SOL    HW218546   0.042   5.538   6.609
 5883SOL     OW18547   0.471   1.836   6.719
 5883SOL    HW118548   0.417   1.757   6.693
 5883SOL    HW218549   0.419   1.920   6.702
 5884SOL     OW18550   4.747   1.416   3.906
 5884SOL    HW118551   4.840   1.389   3.931
 5884SOL    HW218552   4.695   1.334   3.882
 5885SOL     OW18553   7.007   5.831   2.259
 5885SOL    HW118554   6.911   5.840   2.232
 5885SOL    HW218555   0.018   5.920   2.286
 5886SOL     OW18556   0.464   2.059   3.657
 5886SOL    HW118557   0.418   2.148   3.653
 5886SOL    HW218558   0.500   2.045   3.749
 5887SOL     OW18559   2.223   2.782   1.553
 5887SOL    HW118560   2.261   2.696   1.517
 5887SOL    HW218561   2.192   2.768   1.647
 5888SOL     OW18562   1.518   0.511   1.150
 5888SOL    HW118563   1.478   0.542   1.236
 5888SOL    HW218564   1.617   0.523   1.152
 5889SOL     OW18565   0.017   1.036   0.368
 5889SOL    HW118566   6.998   1.011   0.455
 5889SOL    HW218567   6.982   1.011   0.292
 5890SOL     OW18568   1.832   1.066   2.671
 5890SOL    HW118569   1.783   1.049   2.585
 5890SOL    HW218570   1.878   1.154   2.665
 5891SOL     OW18571   3.292   4.226   6.990
 5891SOL    HW118572   3.311   4.164   6.914
 5891SOL    HW218573   3.331   4.188   0.050
 5892SOL     OW18574   0.978   5.417   1.930
 5892SOL    HW118575   0.968   5.381   1.837
 5892SOL    HW218576   0.965   5.343   1.996
 5893SOL     OW18577   1.819   4.194   2.831
 5893SOL    HW118578   1.854   4.244   2.910
 5893SOL    HW218579   1.777   4.108   2.862
 5894SOL     OW18580   0.461   5.564   4.823
 5894SOL    HW118581   0.415   5.563   4.912
 5894SOL    HW218582   0.554   5.530   4.833
 5895SOL     OW18583   5.124   3.587   3.850
 5895SOL    HW118584   5.131   3.507   3.910
 5895SOL    HW218585   5.162   3.667   3.897
 5896SOL     OW18586   4.195   1.628   1.529
 5896SOL    HW118587   4.238   1.646   1.618
 5896SOL    HW218588   4.120   1.562   1.542
 5897SOL     OW18589   4.066   0.754   1.802
 5897SOL    HW118590   4.050   0.746   1.703
 5897SOL    HW218591   4.139   0.692   1.829
 5898SOL     OW18592   2.569   0.780   4.890
 5898SOL    HW118593   2.639   0.836   4.846
 5898SOL    HW218594   2.605   0.743   4.976
 5899SOL     OW18595   6.401   5.467   6.891
 5899SOL    HW118596   6.339   5.540   6.919
 5899SOL    HW218597   6.495   5.495   6.910
 5900SOL     OW18598   6.495   4.683   3.629
 5900SOL    HW118599   6.463   4.588   3.632
 5900SOL    HW218600   6.556   4.700   3.706
 5901SOL     OW18601   3.666   0.477   0.693
 5901SOL    HW118602   3.692   0.550   0.756
 5901SOL    HW218603   3.580   0.501   0.647
 5902SOL     OW18604   6.316   3.140   5.490
 5902SOL    HW118605   6.235   3.090   5.522
 5902SOL    HW218606   6.308   3.156   5.392
 5903SOL     OW18607   4.881   4.325   5.884
 5903SOL    HW118608   4.866   4.357   5.977
 5903SOL    HW218609   4.815   4.368   5.823
 5904SOL     OW18610   1.477   5.025   0.881
 5904SOL    HW118611   1.539   5.091   0.924
 5904SOL    HW218612   1.417   4.986   0.951
 5905SOL     OW18613   6.157   0.507   4.031
 5905SOL    HW118614   6.091   0.480   4.101
 5905SOL    HW218615   6.238   0.449   4.037
 5906SOL     OW18616   4.138   1.986   3.688
 5906SOL    HW118617   4.154   1.890   3.712
 5906SOL    HW218618   4.108   2.036   3.770
 5907SOL     OW18619   0.919   5.972   0.435
 5907SOL    HW118620   0.840   6.026   0.464
 5907SOL    HW218621   0.906   5.877   0.462
 5908SOL     OW18622   6.380   3.145   0.669
 5908SOL    HW118623   6.410   3.155   0.574
 5908SOL    HW218624   6.448   3.091   0.719
 5909SOL     OW18625   6.742   4.865   6.756
 5909SOL    HW118626   6.707   4.922   6.830
 5909SOL    HW218627   6.830   4.901   6.725
 5910SOL     OW18628   0.319   4.377   2.278
 5910SOL    HW118629   0.305   4.408   2.184
 5910SOL    HW218630   0.303   4.279   2.283
 5911SOL     OW18631   6.536   4.373   6.594
 5911SOL    HW118632   6.526   4.318   6.511
 5911SOL    HW218633   6.447   4.381   6.640
 5912SOL     OW18634   5.824   3.051   6.283
 5912SOL    HW118635   5.901   3.024   6.224
 5912SOL    HW218636   5.828   2.999   6.368
 5913SOL     OW18637   3.964   3.652   6.652
 5913SOL    HW118638   3.998   3.719   6.719
 5913SOL    HW218639   4.003   3.562   6.674
 5914SOL     OW18640   2.343   5.365   6.557
 5914SOL    HW118641   2.332   5.302   6.479
 5914SOL    HW218642   2.382   5.316   6.634
 5915SOL     OW18643   5.784   4.540   1.521
 5915SOL    HW118644   5.827   4.456   1.490
 5915SOL    HW218645   5.698   4.554   1.472
 5916SOL     OW18646   4.302   5.739   4.952
 5916SOL    HW118647   4.386   5.732   5.006
 5916SOL    HW218648   4.226   5.762   5.013
 5917SOL     OW18649   3.836   3.687   3.567
 5917SOL    HW118650   3.813   3.630   3.646
 5917SOL    HW218651   3.893   3.763   3.596
 5918SOL     OW18652   1.909   3.081   5.508
 5918SOL    HW118653   2.006   3.102   5.516
 5918SOL    HW218654   1.879   3.093   5.414
 5919SOL     OW18655   4.183   2.968   0.861
 5919SOL    HW118656   4.108   2.911   0.897
 5919SOL    HW218657   4.256   2.973   0.928
 5920SOL     OW18658   3.653   0.401   0.163
 5920SOL    HW118659   3.597   0.388   0.081
 5920SOL    HW218660   3.645   0.496   0.194
 5921SOL     OW18661   4.112   5.416   5.893
 5921SOL    HW118662   4.179   5.421   5.967
 5921SOL    HW218663   4.151   5.454   5.810
 5922SOL     OW18664   6.632   5.509   3.234
 5922SOL    HW118665   6.686   5.571   3.177
 5922SOL    HW218666   6.604   5.430   3.180
 5923SOL     OW18667   5.628   0.938   1.039
 5923SOL    HW118668   5.595   0.973   0.951
 5923SOL    HW218669   5.727   0.930   1.037
 5924SOL     OW18670   7.010   1.325   3.771
 5924SOL    HW118671   0.034   1.333   3.858
 5924SOL    HW218672   6.993   1.229   3.751
 5925SOL     OW18673   3.875   5.380   1.951
 5925SOL    HW118674   3.830   5.291   1.948
 5925SOL    HW218675   3.819   5.447   1.902
 5926SOL     OW18676   3.769   5.341   1.559
 5926SOL    HW118677   3.700   5.341   1.631
 5926SOL    HW218678   3.727   5.317   1.472
 5927SOL     OW18679   1.544   4.347   3.040
 5927SOL    HW118680   1.594   4.335   3.126
 5927SOL    HW218681   1.518   4.257   3.004
 5928SOL     OW18682   3.456   0.264   0.750
 5928SOL    HW118683   3.425   0.312   0.668
 5928SOL    HW218684   3.488   0.330   0.818
 5929SOL     OW18685   0.319   6.499   6.271
 5929SOL    HW118686   0.393   6.460   6.326
 5929SOL    HW218687   0.232   6.459   6.298
 5930SOL     OW18688   6.754   2.607   3.455
 5930SOL    HW118689   6.726   2.665   3.377
 5930SOL    HW218690   6.851   2.587   3.448
 5931SOL     OW18691   0.163   5.192   3.697
 5931SOL    HW118692   0.133   5.111   3.646
 5931SOL    HW218693   0.132   5.274   3.649
 5932SOL     OW18694   2.024   6.960   0.494
 5932SOL    HW118695   2.065   7.005   0.574
 5932SOL    HW218696   2.069   6.872   0.480
 5933SOL     OW18697   0.274   6.437   4.035
 5933SOL    HW118698   0.320   6.445   3.946
 5933SOL    HW218699   0.342   6.425   4.107
 5934SOL     OW18700   4.084   3.727   4.374
 5934SOL    HW118701   4.077   3.817   4.419
 5934SOL    HW218702   4.067   3.655   4.441
 5935SOL     OW18703   4.495   3.783   5.791
 5935SOL    HW118704   4.572   3.755   5.848
 5935SOL    HW218705   4.466   3.706   5.734
 5936SOL     OW18706   4.052   3.445   1.049
 5936SOL    HW118707   4.023   3.438   0.953
 5936SOL    HW218708   3.972   3.460   1.107
 5937SOL     OW18709   0.650   4.900   2.774
 5937SOL    HW118710   0.589   4.957   2.830
 5937SOL    HW218711   0.608   4.811   2.758
 5938SOL     OW18712   0.813   5.197   4.118
 5938SOL    HW118713   0.823   5.281   4.171
 5938SOL    HW218714   0.861   5.122   4.164
 5939SOL     OW18715   2.938   6.859   3.138
 5939SOL    HW118716   2.900   6.908   3.059
 5939SOL    HW218717   2.942   6.921   3.216
 5940SOL     OW18718   4.713   5.566   0.974
 5940SOL    HW118719   4.629   5.560   0.920
 5940SOL    HW218720   4.702   5.634   1.047
 5941SOL     OW18721   5.657   3.374   1.730
 5941SOL    HW118722   5.680   3.462   1.771
 5941SOL    HW218723   5.613   3.315   1.798
 5942SOL     OW18724   5.490   2.696   0.231
 5942SOL    HW118725   5.428   2.633   0.182
 5942SOL    HW218726   5.525   2.764   0.167
 5943SOL     OW18727   3.963   5.450   6.964
 5943SOL    HW118728   3.909   5.376   7.004
 5943SOL    HW218729   4.033   5.411   6.904
 5944SOL     OW18730   6.480   2.704   1.547
 5944SOL    HW118731   6.386   2.714   1.514
 5944SOL    HW218732   6.542   2.698   1.469
 5945SOL     OW18733   6.159   5.042   5.340
 5945SOL    HW118734   6.214   4.992   5.407
 5945SOL    HW218735   6.204   5.128   5.317
 5946SOL     OW18736   3.558   3.665   5.546
 5946SOL    HW118737   3.541   3.719   5.464
 5946SOL    HW218738   3.529   3.716   5.627
 5947SOL     OW18739   3.783   3.812   1.918
 5947SOL    HW118740   3.863   3.870   1.933
 5947SOL    HW218741   3.701   3.858   1.954
 5948SOL     OW18742   4.092   5.325   2.887
 5948SOL    HW118743   3.999   5.292   2.905
 5948SOL    HW218744   4.152   5.297   2.961
 5949SOL     OW18745   4.675   3.393   1.574
 5949SOL    HW118746   4.706   3.477   1.617
 5949SOL    HW218747   4.629   3.414   1.487
 5950SOL     OW18748   4.418   2.612   5.538
 5950SOL    HW118749   4.507   2.623   5.492
 5950SOL    HW218750   4.433   2.592   5.635
 5951SOL     OW18751   0.429   5.841   4.801
 5951SOL    HW118752   0.512   5.893   4.783
 5951SOL    HW218753   0.450   5.744   4.806
 5952SOL     OW18754   5.367   4.690   4.312
 5952SOL    HW118755   5.363   4.606   4.366
 5952SOL    HW218756   5.336   4.672   4.219
 5953SOL     OW18757   6.080   2.779   5.131
 5953SOL    HW118758   6.038   2.795   5.220
 5953SOL    HW218759   6.107   2.866   5.090
 5954SOL     OW18760   0.674   4.506   5.538
 5954SOL    HW118761   0.672   4.466   5.446
 5954SOL    HW218762   0.746   4.462   5.592
 5955SOL     OW18763   5.437   5.579   2.559
 5955SOL    HW118764   5.391   5.491   2.563
 5955SOL    HW218765   5.381   5.648   2.606
 5956SOL     OW18766   3.963   1.215   6.020
 5956SOL    HW118767   3.939   1.125   5.985
 5956SOL    HW218768   4.062   1.222   6.030
 5957SOL     OW18769   3.857   0.894   5.504
 5957SOL    HW118770   3.865   0.796   5.489
 5957SOL    HW218771   3.773   0.928   5.461
 5958SOL     OW18772   6.370   6.127   2.474
 5958SOL    HW118773   6.404   6.163   2.387
 5958SOL    HW218774   6.271   6.119   2.471
 5959SOL     OW18775   3.982   2.204   5.445
 5959SOL    HW118776   3.951   2.113   5.419
 5959SOL    HW218777   3.943   2.230   5.533
 5960SOL     OW18778   3.922   5.393   4.246
 5960SOL    HW118779   3.898   5.355   4.157
 5960SOL    HW218780   3.896   5.330   4.319
 5961SOL     OW18781   5.181   1.030   3.452
 5961SOL    HW118782   5.115   1.034   3.377
 5961SOL    HW218783   5.269   1.066   3.421
 5962SOL     OW18784   4.770   6.189   1.054
 5962SOL    HW118785   4.810   6.254   0.989
 5962SOL    HW218786   4.761   6.099   1.010
 5963SOL     OW18787   3.402   3.201   5.242
 5963SOL    HW118788   3.350   3.132   5.292
 5963SOL    HW218789   3.487   3.161   5.208
 5964SOL     OW18790   7.000   5.444   5.590
 5964SOL    HW118791   6.972   5.481   5.679
 5964SOL    HW218792   0.076   5.448   5.583
 5965SOL     OW18793   1.101   2.077   6.966
 5965SOL    HW118794   1.126   2.084   0.038
 5965SOL    HW218795   1.003   2.091   6.956
 5966SOL     OW18796   2.416   5.831   5.157
 5966SOL    HW118797   2.318   5.828   5.141
 5966SOL    HW218798   2.434   5.846   5.254
 5967SOL     OW18799   4.158   6.334   6.992
 5967SOL    HW118800   4.091   6.369   0.033
 5967SOL    HW218801   4.249   6.335   0.010
 5968SOL     OW18802   5.077   0.922   1.292
 5968SOL    HW118803   4.988   0.883   1.267
 5968SOL    HW218804   5.063   1.000   1.353
 5969SOL     OW18805   0.351   0.390   0.090
 5969SOL    HW118806   0.274   0.402   0.152
 5969SOL    HW218807   0.381   0.480   0.057
 5970SOL     OW18808   0.918   4.496   2.724
 5970SOL    HW118809   0.818   4.494   2.714
 5970SOL    HW218810   0.944   4.574   2.780
 5971SOL     OW18811   0.897   0.846   2.178
 5971SOL    HW118812   0.826   0.902   2.136
 5971SOL    HW218813   0.915   0.879   2.271
 5972SOL     OW18814   5.294   5.974   0.035
 5972SOL    HW118815   5.307   5.901   6.993
 5972SOL    HW218816   5.217   6.032   0.007
 5973SOL     OW18817   2.188   2.985   2.369
 5973SOL    HW118818   2.248   2.906   2.356
 5973SOL    HW218819   2.216   3.059   2.307
 5974SOL     OW18820   5.770   4.786   6.304
 5974SOL    HW118821   5.846   4.804   6.241
 5974SOL    HW218822   5.709   4.718   6.263
 5975SOL     OW18823   3.643   1.641   0.567
 5975SOL    HW118824   3.696   1.564   0.601
 5975SOL    HW218825   3.640   1.638   0.467
 5976SOL     OW18826   2.966   3.176   5.183
 5976SOL    HW118827   2.912   3.152   5.103
 5976SOL    HW218828   3.062   3.183   5.157
 5977SOL     OW18829   2.718   5.961   0.067
 5977SOL    HW118830   2.784   5.898   0.109
 5977SOL    HW218831   2.708   5.939   6.995
 5978SOL     OW18832   5.471   5.673   2.988
 5978SOL    HW118833   5.382   5.631   2.968
 5978SOL    HW218834   5.506   5.638   3.075
 5979SOL     OW18835   6.199   0.117   2.874
 5979SOL    HW118836   6.152   0.200   2.903
 5979SOL    HW218837   6.156   0.038   2.918
 5980SOL     OW18838   3.791   3.496   0.619
 5980SOL    HW118839   3.731   3.531   0.547
 5980SOL    HW218840   3.786   3.556   0.699
 5981SOL     OW18841   5.862   1.448   1.796
 5981SOL    HW118842   5.873   1.362   1.846
 5981SOL    HW218843   5.828   1.428   1.704
 5982SOL     OW18844   6.453   2.882   1.789
 5982SOL    HW118845   6.355   2.904   1.798
 5982SOL    HW218846   6.464   2.811   1.720
 5983SOL     OW18847   1.657   1.208   4.627
 5983SOL    HW118848   1.661   1.299   4.669
 5983SOL    HW218849   1.739   1.156   4.650
 5984SOL     OW18850   6.484   6.159   4.998
 5984SOL    HW118851   6.457   6.171   4.902
 5984SOL    HW218852   6.517   6.246   5.034
 5985SOL     OW18853   0.059   2.964   4.254
 5985SOL    HW118854   0.101   2.888   4.305
 5985SOL    HW218855   0.120   2.993   4.181
 5986SOL     OW18856   3.204   3.218   5.033
 5986SOL    HW118857   3.271   3.220   5.108
 5986SOL    HW218858   3.207   3.305   4.984
 5987SOL     OW18859   4.065   0.180   4.867
 5987SOL    HW118860   4.131   0.255   4.867
 5987SOL    HW218861   4.079   0.123   4.787
 5988SOL     OW18862   5.124   6.825   5.426
 5988SOL    HW118863   5.105   6.921   5.449
 5988SOL    HW218864   5.059   6.794   5.356
 5989SOL     OW18865   2.882   6.205   0.139
 5989SOL    HW118866   2.819   6.264   0.189
 5989SOL    HW218867   2.834   6.121   0.112
 5990SOL     OW18868   3.951   4.520   0.604
 5990SOL    HW118869   3.981   4.440   0.656
 5990SOL    HW218870   3.972   4.506   0.507
 5991SOL     OW18871   3.408   5.557   6.580
 5991SOL    HW118872   3.478   5.516   6.521
 5991SOL    HW218873   3.428   5.654   6.593
 5992SOL     OW18874   3.514   0.431   3.060
 5992SOL    HW118875   3.513   0.478   3.148
 5992SOL    HW218876   3.489   0.335   3.074
 5993SOL     OW18877   2.825   6.154   6.022
 5993SOL    HW118878   2.895   6.151   6.094
 5993SOL    HW218879   2.788   6.247   6.016
 5994SOL     OW18880   6.423   2.439   2.315
 5994SOL    HW118881   6.416   2.421   2.216
 5994SOL    HW218882   6.346   2.395   2.362
 5995SOL     OW18883   5.856   4.580   2.938
 5995SOL    HW118884   5.870   4.488   2.975
 5995SOL    HW218885   5.933   4.603   2.877
 5996SOL     OW18886   1.255   6.506   0.359
 5996SOL    HW118887   1.277   6.408   0.354
 5996SOL    HW218888   1.330   6.555   0.403
 5997SOL     OW18889   0.603   5.838   2.594
 5997SOL    HW118890   0.533   5.766   2.598
 5997SOL    HW218891   0.581   5.909   2.661
 5998SOL     OW18892   6.126   2.245   2.755
 5998SOL    HW118893   6.085   2.308   2.689
 5998SOL    HW218894   6.058   2.178   2.784
 5999SOL     OW18895   1.655   1.744   2.360
 5999SOL    HW118896   1.638   1.645   2.362
 5999SOL    HW218897   1.579   1.791   2.406
 6000SOL     OW18898   4.080   6.636   1.393
 6000SOL    HW118899   4.165   6.677   1.426
 6000SOL    HW218900   4.035   6.699   1.329
 6001SOL     OW18901   0.604   3.731   6.911
 6001SOL    HW118902   0.661   3.672   6.968
 6001SOL    HW218903   0.656   3.758   6.830
 6002SOL     OW18904   6.257   0.220   0.988
 6002SOL    HW118905   6.230   0.316   0.992
 6002SOL    HW218906   6.317   0.205   0.910
 6003SOL     OW18907   6.918   2.143   3.551
 6003SOL    HW118908   6.822   2.137   3.523
 6003SOL    HW218909   6.933   2.229   3.599
 6004SOL     OW18910   0.430   4.254   3.476
 6004SOL    HW118911   0.509   4.298   3.434
 6004SOL    HW218912   0.348   4.278   3.424
 6005SOL     OW18913   5.061   5.256   4.628
 6005SOL    HW118914   5.030   5.170   4.586
 6005SOL    HW218915   5.149   5.283   4.589
 6006SOL     OW18916   2.892   0.520   6.697
 6006SOL    HW118917   2.851   0.456   6.762
 6006SOL    HW218918   2.841   0.606   6.699
 6007SOL     OW18919   5.054   3.620   5.209
 6007SOL    HW118920   4.987   3.647   5.140
 6007SOL    HW218921   5.008   3.597   5.294
 6008SOL     OW18922   1.502   4.982   5.345
 6008SOL    HW118923   1.581   5.043   5.345
 6008SOL    HW218924   1.483   4.952   5.252
 6009SOL     OW18925   3.639   0.910   4.002
 6009SOL    HW118926   3.595   0.826   3.970
 6009SOL    HW218927   3.720   0.928   3.946
 6010SOL     OW18928   1.935   4.186   3.664
 6010SOL    HW118929   2.023   4.155   3.700
 6010SOL    HW218930   1.913   4.276   3.703
 6011SOL     OW18931   5.225   3.173   3.127
 6011SOL    HW118932   5.227   3.233   3.047
 6011SOL    HW218933   5.155   3.103   3.114
 6012SOL     OW18934   5.070   1.144   6.841
 6012SOL    HW118935   5.154   1.154   6.789
 6012SOL    HW218936   5.006   1.216   6.815
 6013SOL     OW18937   5.364   2.849   3.417
 6013SOL    HW118938   5.387   2.839   3.321
 6013SOL    HW218939   5.303   2.774   3.445
 6014SOL     OW18940   4.300   3.796   1.262
 6014SOL    HW118941   4.254   3.707   1.260
 6014SOL    HW218942   4.397   3.783   1.279
 6015SOL     OW18943   5.892   2.536   4.532
 6015SOL    HW118944   5.805   2.519   4.487
 6015SOL    HW218945   5.967   2.510   4.471
 6016SOL     OW18946   6.498   1.597   5.956
 6016SOL    HW118947   6.499   1.650   5.872
 6016SOL    HW218948   6.523   1.656   6.033
 6017SOL     OW18949   0.169   4.196   2.677
 6017SOL    HW118950   0.131   4.163   2.764
 6017SOL    HW218951   0.110   4.269   2.642
 6018SOL     OW18952   2.710   0.475   6.196
 6018SOL    HW118953   2.744   0.509   6.283
 6018SOL    HW218954   2.613   0.499   6.186
 6019SOL     OW18955   6.764   1.784   4.096
 6019SOL    HW118956   6.737   1.846   4.023
 6019SOL    HW218957   6.705   1.797   4.175
 6020SOL     OW18958   2.087   5.468   1.425
 6020SOL    HW118959   2.086   5.371   1.400
 6020SOL    HW218960   2.176   5.490   1.465
 6021SOL     OW18961   4.425   0.797   2.491
 6021SOL    HW118962   4.454   0.764   2.402
 6021SOL    HW218963   4.505   0.824   2.545
 6022SOL     OW18964   4.466   2.142   3.849
 6022SOL    HW118965   4.512   2.145   3.938
 6022SOL    HW218966   4.386   2.202   3.851
 6023SOL     OW18967   6.450   0.337   2.125
 6023SOL    HW118968   6.362   0.323   2.080
 6023SOL    HW218969   6.445   0.416   2.186
 6024SOL     OW18970   0.886   4.883   2.925
 6024SOL    HW118971   0.859   4.966   2.973
 6024SOL    HW218972   0.844   4.881   2.834
 6025SOL     OW18973   3.773   1.650   2.821
 6025SOL    HW118974   3.764   1.619   2.916
 6025SOL    HW218975   3.843   1.596   2.775
 6026SOL     OW18976   0.023   4.062   5.235
 6026SOL    HW118977   6.965   4.009   5.255
 6026SOL    HW218978   0.033   4.072   5.136
 6027SOL     OW18979   1.586   4.024   6.340
 6027SOL    HW118980   1.520   4.098   6.329
 6027SOL    HW218981   1.542   3.947   6.386
 6028SOL     OW18982   1.020   4.324   0.190
 6028SOL    HW118983   0.928   4.330   0.227
 6028SOL    HW218984   1.071   4.407   0.212
 6029SOL     OW18985   2.397   6.113   4.898
 6029SOL    HW118986   2.446   6.026   4.907
 6029SOL    HW218987   2.317   6.100   4.840
 6030SOL     OW18988   4.076   6.110   2.590
 6030SOL    HW118989   3.999   6.126   2.652
 6030SOL    HW218990   4.061   6.159   2.504
 6031SOL     OW18991   3.531   5.212   2.913
 6031SOL    HW118992   3.533   5.305   2.878
 6031SOL    HW218993   3.508   5.213   3.010
 6032SOL     OW18994   2.559   4.598   3.227
 6032SOL    HW118995   2.637   4.655   3.200
 6032SOL    HW218996   2.477   4.654   3.232
 6033SOL     OW18997   2.895   1.356   2.779
 6033SOL    HW118998   2.885   1.270   2.730
 6033SOL    HW218999   2.880   1.432   2.716
 6034SOL     OW19000   0.523   5.585   4.245
 6034SOL    HW119001   0.429   5.616   4.257
 6034SOL    HW219002   0.574   5.597   4.331
 6035SOL     OW19003   6.634   0.698   2.796
 6035SOL    HW119004   6.709   0.730   2.854
 6035SOL    HW219005   6.659   0.611   2.755
 6036SOL     OW19006   6.521   5.841   4.403
 6036SOL    HW119007   6.432   5.798   4.416
 6036SOL    HW219008   6.552   5.880   4.489
 6037SOL     OW19009   4.629   4.795   6.428
 6037SOL    HW119010   4.650   4.824   6.335
 6037SOL    HW219011   4.701   4.824   6.490
 6038SOL     OW19012   1.309   2.738   6.077
 6038SOL    HW119013   1.323   2.784   5.989
 6038SOL    HW219014   1.375   2.664   6.086
 6039SOL     OW19015   3.219   2.997   2.347
 6039SOL    HW119016   3.172   3.085   2.346
 6039SOL    HW219017   3.151   2.924   2.356
 6040SOL     OW19018   0.601   2.105   6.205
 6040SOL    HW119019   0.587   2.095   6.303
 6040SOL    HW219020   0.578   2.198   6.177
 6041SOL     OW19021   2.119   0.421   5.072
 6041SOL    HW119022   2.096   0.513   5.103
 6041SOL    HW219023   2.069   0.354   5.127
 6042SOL     OW19024   5.410   6.039   2.303
 6042SOL    HW119025   5.425   5.942   2.324
 6042SOL    HW219026   5.491   6.091   2.330
 6043SOL     OW19027   1.056   4.633   6.279
 6043SOL    HW119028   0.967   4.588   6.285
 6043SOL    HW219029   1.044   4.732   6.277
 6044SOL     OW19030   1.421   1.809   1.627
 6044SOL    HW119031   1.464   1.838   1.712
 6044SOL    HW219032   1.347   1.744   1.648
 6045SOL     OW19033   6.660   4.896   1.405
 6045SOL    HW119034   6.635   4.993   1.396
 6045SOL    HW219035   6.757   4.885   1.382
 6046SOL     OW19036   3.395   1.779   6.596
 6046SOL    HW119037   3.433   1.750   6.507
 6046SOL    HW219038   3.439   1.864   6.624
 6047SOL     OW19039   5.739   2.494   2.267
 6047SOL    HW119040   5.648   2.515   2.232
 6047SOL    HW219041   5.758   2.396   2.254
 6048SOL     OW19042   4.715   5.628   4.141
 6048SOL    HW119043   4.744   5.721   4.118
 6048SOL    HW219044   4.643   5.599   4.078
 6049SOL     OW19045   5.924   2.942   5.868
 6049SOL    HW119046   6.021   2.963   5.852
 6049SOL    HW219047   5.867   3.002   5.812
 6050SOL     OW19048   2.929   5.176   4.375
 6050SOL    HW119049   2.981   5.222   4.447
 6050SOL    HW219050   2.929   5.232   4.292
 6051SOL     OW19051   2.754   1.583   4.742
 6051SOL    HW119052   2.723   1.544   4.656
 6051SOL    HW219053   2.842   1.630   4.728
 6052SOL     OW19054   6.247   0.126   0.543
 6052SOL    HW119055   6.159   0.102   0.503
 6052SOL    HW219056   6.308   0.047   0.542
 6053SOL     OW19057   3.486   0.978   6.486
 6053SOL    HW119058   3.477   0.930   6.399
 6053SOL    HW219059   3.501   1.076   6.469
 6054SOL     OW19060   2.985   3.919   0.287
 6054SOL    HW119061   3.080   3.948   0.278
 6054SOL    HW219062   2.950   3.944   0.377
 6055SOL     OW19063   4.920   1.190   5.454
 6055SOL    HW119064   4.843   1.146   5.408
 6055SOL    HW219065   4.901   1.196   5.552
 6056SOL     OW19066   4.712   2.722   4.743
 6056SOL    HW119067   4.756   2.796   4.692
 6056SOL    HW219068   4.671   2.657   4.679
 6057SOL     OW19069   4.958   2.451   4.379
 6057SOL    HW119070   4.981   2.500   4.463
 6057SOL    HW219071   4.932   2.517   4.309
 6058SOL     OW19072   4.614   2.659   1.482
 6058SOL    HW119073   4.674   2.717   1.427
 6058SOL    HW219074   4.649   2.566   1.482
 6059SOL     OW19075   5.285   4.871   4.982
 6059SOL    HW119076   5.330   4.873   4.893
 6059SOL    HW219077   5.346   4.826   5.048
 6060SOL     OW19078   3.616   4.165   6.243
 6060SOL    HW119079   3.532   4.211   6.213
 6060SOL    HW219080   3.625   4.078   6.195
 6061SOL     OW19081   3.684   2.203   1.632
 6061SOL    HW119082   3.678   2.264   1.711
 6061SOL    HW219083   3.751   2.131   1.652
 6062SOL     OW19084   2.027   1.681   4.640
 6062SOL    HW119085   1.940   1.718   4.608
 6062SOL    HW219086   2.100   1.708   4.577
 6063SOL     OW19087   3.695   1.699   6.634
 6063SOL    HW119088   3.669   1.642   6.556
 6063SOL    HW219089   3.670   1.652   6.719
 6064SOL     OW19090   2.354   5.772   1.202
 6064SOL    HW119091   2.388   5.688   1.245
 6064SOL    HW219092   2.273   5.804   1.251
 6065SOL     OW19093   5.784   6.847   2.338
 6065SOL    HW119094   5.834   6.895   2.409
 6065SOL    HW219095   5.848   6.799   2.278
 6066SOL     OW19096   5.090   2.271   6.440
 6066SOL    HW119097   4.995   2.278   6.469
 6066SOL    HW219098   5.094   2.250   6.342
 6067SOL     OW19099   5.364   1.686   5.927
 6067SOL    HW119100   5.374   1.604   5.871
 6067SOL    HW219101   5.268   1.714   5.928
 6068SOL     OW19102   5.866   3.208   4.560
 6068SOL    HW119103   5.809   3.266   4.502
 6068SOL    HW219104   5.857   3.238   4.655
 6069SOL     OW19105   6.679   3.311   4.712
 6069SOL    HW119106   6.597   3.368   4.713
 6069SOL    HW219107   6.717   3.306   4.804
 6070SOL     OW19108   2.338   2.142   0.706
 6070SOL    HW119109   2.416   2.099   0.660
 6070SOL    HW219110   2.256   2.087   0.690
 6071SOL     OW19111   5.940   4.901   4.656
 6071SOL    HW119112   5.932   4.998   4.679
 6071SOL    HW219113   5.937   4.847   4.740
 6072SOL     OW19114   0.177   6.487   1.617
 6072SOL    HW119115   0.212   6.576   1.588
 6072SOL    HW219116   0.142   6.493   1.710
 6073SOL     OW19117   6.543   4.225   0.567
 6073SOL    HW119118   6.465   4.226   0.504
 6073SOL    HW219119   6.510   4.212   0.660
 6074SOL     OW19120   1.153   6.107   4.369
 6074SOL    HW119121   1.231   6.082   4.312
 6074SOL    HW219122   1.112   6.192   4.334
 6075SOL     OW19123   0.203   1.777   6.646
 6075SOL    HW119124   0.188   1.722   6.564
 6075SOL    HW219125   0.232   1.869   6.619
 6076SOL     OW19126   1.784   5.943   4.422
 6076SOL    HW119127   1.788   6.012   4.350
 6076SOL    HW219128   1.803   5.853   4.382
 6077SOL     OW19129   5.425   6.024   1.728
 6077SOL    HW119130   5.332   6.049   1.752
 6077SOL    HW219131   5.480   6.016   1.811
 6078SOL     OW19132   3.913   5.107   1.107
 6078SOL    HW119133   3.956   5.096   1.017
 6078SOL    HW219134   3.898   5.204   1.125
 6079SOL     OW19135   3.344   2.924   6.428
 6079SOL    HW119136   3.338   2.999   6.362
 6079SOL    HW219137   3.432   2.928   6.475
 6080SOL     OW19138   7.022   0.248   1.698
 6080SOL    HW119139   0.067   0.186   1.736
 6080SOL    HW219140   0.040   0.334   1.671
 6081SOL     OW19141   6.303   3.187   4.599
 6081SOL    HW119142   6.255   3.172   4.686
 6081SOL    HW219143   6.331   3.099   4.561
 6082SOL     OW19144   2.420   1.950   3.571
 6082SOL    HW119145   2.512   1.919   3.548
 6082SOL    HW219146   2.390   1.906   3.656
 6083SOL     OW19147   0.584   4.739   0.075
 6083SOL    HW119148   0.500   4.688   0.055
 6083SOL    HW219149   0.663   4.688   0.043
 6084SOL     OW19150   0.269   5.796   3.647
 6084SOL    HW119151   0.187   5.840   3.610
 6084SOL    HW219152   0.304   5.730   3.581
 6085SOL     OW19153   0.955   4.076   0.379
 6085SOL    HW119154   0.856   4.066   0.363
 6085SOL    HW219155   1.004   4.058   0.294
 6086SOL     OW19156   3.612   1.014   5.980
 6086SOL    HW119157   3.711   1.031   5.974
 6086SOL    HW219158   3.562   1.090   5.939
 6087SOL     OW19159   4.329   5.932   0.428
 6087SOL    HW119160   4.342   5.833   0.419
 6087SOL    HW219161   4.241   5.951   0.471
 6088SOL     OW19162   5.621   6.281   4.479
 6088SOL    HW119163   5.668   6.330   4.406
 6088SOL    HW219164   5.599   6.188   4.449
 6089SOL     OW19165   6.410   3.249   1.078
 6089SOL    HW119166   6.494   3.289   1.043
 6089SOL    HW219167   6.432   3.181   1.149
 6090SOL     OW19168   2.308   6.287   5.153
 6090SOL    HW119169   2.319   6.237   5.067
 6090SOL    HW219170   2.214   6.279   5.185
 6091SOL     OW19171   1.633   1.705   2.053
 6091SOL    HW119172   1.621   1.754   2.139
 6091SOL    HW219173   1.727   1.672   2.047
 6092SOL     OW19174   3.430   0.157   3.150
 6092SOL    HW119175   3.380   0.123   3.071
 6092SOL    HW219176   3.368   0.166   3.228
 6093SOL     OW19177   1.768   3.133   2.505
 6093SOL    HW119178   1.761   3.228   2.533
 6093SOL    HW219179   1.685   3.083   2.532
 6094SOL     OW19180   3.767   0.853   1.514
 6094SOL    HW119181   3.750   0.944   1.476
 6094SOL    HW219182   3.706   0.838   1.592
 6095SOL     OW19183   4.329   3.509   6.831
 6095SOL    HW119184   4.395   3.575   6.794
 6095SOL    HW219185   4.289   3.545   6.915
 6096SOL     OW19186   6.042   0.567   3.791
 6096SOL    HW119187   6.076   0.493   3.733
 6096SOL    HW219188   6.095   0.570   3.875
 6097SOL     OW19189   2.138   0.394   2.133
 6097SOL    HW119190   2.218   0.394   2.073
 6097SOL    HW219191   2.165   0.425   2.224
 6098SOL     OW19192   1.266   2.489   6.603
 6098SOL    HW119193   1.226   2.417   6.661
 6098SOL    HW219194   1.335   2.449   6.543
 6099SOL     OW19195   6.910   5.971   0.715
 6099SOL    HW119196   6.958   5.946   0.631
 6099SOL    HW219197   6.819   6.006   0.693
 6100SOL     OW19198   5.291   3.641   0.378
 6100SOL    HW119199   5.309   3.554   0.334
 6100SOL    HW219200   5.214   3.632   0.441
 6101SOL     OW19201   5.900   1.950   4.464
 6101SOL    HW119202   5.956   1.896   4.401
 6101SOL    HW219203   5.923   2.047   4.456
 6102SOL     OW19204   3.101   6.432   3.483
 6102SOL    HW119205   3.172   6.374   3.525
 6102SOL    HW219206   3.080   6.397   3.392
 6103SOL     OW19207   0.365   2.255   2.788
 6103SOL    HW119208   0.297   2.182   2.796
 6103SOL    HW219209   0.373   2.283   2.693
 6104SOL     OW19210   5.658   1.231   5.352
 6104SOL    HW119211   5.743   1.206   5.398
 6104SOL    HW219212   5.588   1.251   5.421
 6105SOL     OW19213   1.555   0.757   5.442
 6105SOL    HW119214   1.479   0.696   5.421
 6105SOL    HW219215   1.585   0.802   5.358
 6106SOL     OW19216   1.935   4.085   5.662
 6106SOL    HW119217   1.906   4.042   5.748
 6106SOL    HW219218   1.931   4.018   5.588
 6107SOL     OW19219   2.483   4.580   4.386
 6107SOL    HW119220   2.417   4.641   4.429
 6107SOL    HW219221   2.444   4.488   4.380
 6108SOL     OW19222   0.853   2.518   2.125
 6108SOL    HW119223   0.889   2.604   2.164
 6108SOL    HW219224   0.807   2.538   2.039
 6109SOL     OW19225   5.057   3.072   6.294
 6109SOL    HW119226   5.078   2.984   6.337
 6109SOL    HW219227   5.120   3.141   6.330
 6110SOL     OW19228   4.167   3.319   0.076
 6110SOL    HW119229   4.265   3.300   0.085
 6110SOL    HW219230   4.130   3.345   0.165
 6111SOL     OW19231   2.222   4.166   2.192
 6111SOL    HW119232   2.160   4.090   2.176
 6111SOL    HW219233   2.287   4.142   2.264
 6112SOL     OW19234   3.197   0.009   2.948
 6112SOL    HW119235   3.162   0.051   3.032
 6112SOL    HW219236   3.245   6.948   2.971
 6113SOL     OW19237   1.420   1.096   6.053
 6113SOL    HW119238   1.335   1.050   6.081
 6113SOL    HW219239   1.499   1.044   6.086
 6114SOL     OW19240   5.237   5.095   1.330
 6114SOL    HW119241   5.178   5.037   1.387
 6114SOL    HW219242   5.214   5.081   1.234
 6115SOL     OW19243   4.790   0.259   3.611
 6115SOL    HW119244   4.831   0.221   3.694
 6115SOL    HW219245   4.699   0.220   3.598
 6116SOL     OW19246   2.664   0.173   0.651
 6116SOL    HW119247   2.623   0.138   0.735
 6116SOL    HW219248   2.679   0.272   0.660
 6117SOL     OW19249   0.003   0.537   5.914
 6117SOL    HW119250   0.050   0.476   5.977
 6117SOL    HW219251   6.972   0.483   5.850
 6118SOL     OW19252   6.079   0.173   1.807
 6118SOL    HW119253   5.981   0.154   1.797
 6118SOL    HW219254   6.129   0.130   1.731
 6119SOL     OW19255   0.826   3.689   5.650
 6119SOL    HW119256   0.827   3.660   5.554
 6119SOL    HW219257   0.877   3.775   5.660
 6120SOL     OW19258   4.253   7.023   4.063
 6120SOL    HW119259   4.310   0.018   4.144
 6120SOL    HW219260   4.312   6.990   3.989
 6121SOL     OW19261   0.888   3.255   5.050
 6121SOL    HW119262   0.977   3.289   5.019
 6121SOL    HW219263   0.817   3.286   4.986
 6122SOL     OW19264   3.505   6.979   1.760
 6122SOL    HW119265   3.544   6.906   1.816
 6122SOL    HW219266   3.544   0.042   1.788
 6123SOL     OW19267   6.281   0.630   6.344
 6123SOL    HW119268   6.254   0.638   6.440
 6123SOL    HW219269   6.269   0.535   6.314
 6124SOL     OW19270   2.383   1.033   6.694
 6124SOL    HW119271   2.412   1.129   6.696
 6124SOL    HW219272   2.329   1.016   6.611
 6125SOL     OW19273   2.096   5.713   6.928
 6125SOL    HW119274   2.145   5.800   6.937
 6125SOL    HW219275   1.998   5.731   6.931
 6126SOL     OW19276   0.012   6.834   4.342
 6126SOL    HW119277   6.995   6.783   4.417
 6126SOL    HW219278   7.002   6.800   4.255
 6127SOL     OW19279   3.119   6.980   2.241
 6127SOL    HW119280   3.028   7.020   2.231
 6127SOL    HW219281   3.126   6.937   2.331
 6128SOL     OW19282   6.673   3.147   0.311
 6128SOL    HW119283   6.601   3.211   0.338
 6128SOL    HW219284   6.631   3.063   0.276
 6129SOL     OW19285   6.610   3.719   2.865
 6129SOL    HW119286   6.519   3.680   2.877
 6129SOL    HW219287   6.659   3.716   2.953
 6130SOL     OW19288   6.584   2.169   3.828
 6130SOL    HW119289   6.642   2.089   3.813
 6130SOL    HW219290   6.547   2.201   3.741
 6131SOL     OW19291   6.977   1.728   5.571
 6131SOL    HW119292   6.929   1.667   5.509
 6131SOL    HW219293   6.936   1.819   5.568
 6132SOL     OW19294   4.935   1.305   0.362
 6132SOL    HW119295   4.973   1.273   0.449
 6132SOL    HW219296   4.901   1.226   0.310
 6133SOL     OW19297   1.209   2.456   2.494
 6133SOL    HW119298   1.124   2.487   2.536
 6133SOL    HW219299   1.285   2.470   2.557
 6134SOL     OW19300   4.195   4.435   6.536
 6134SOL    HW119301   4.264   4.419   6.465
 6134SOL    HW219302   4.123   4.366   6.529
 6135SOL     OW19303   0.568   6.899   2.022
 6135SOL    HW119304   0.547   6.863   2.113
 6135SOL    HW219305   0.641   6.966   2.029
 6136SOL     OW19306   0.925   2.976   2.063
 6136SOL    HW119307   0.913   3.063   2.110
 6136SOL    HW219308   0.838   2.948   2.022
 6137SOL     OW19309   5.546   2.432   3.712
 6137SOL    HW119310   5.642   2.405   3.711
 6137SOL    HW219311   5.520   2.464   3.621
 6138SOL     OW19312   4.889   6.375   1.955
 6138SOL    HW119313   4.851   6.360   2.046
 6138SOL    HW219314   4.880   6.471   1.930
 6139SOL     OW19315   1.923   1.733   5.359
 6139SOL    HW119316   1.877   1.771   5.439
 6139SOL    HW219317   2.016   1.769   5.353
 6140SOL     OW19318   0.502   6.465   1.845
 6140SOL    HW119319   0.422   6.451   1.904
 6140SOL    HW219320   0.545   6.552   1.869
 6141SOL     OW19321   6.117   5.268   6.590
 6141SOL    HW119322   6.029   5.271   6.543
 6141SOL    HW219323   6.103   5.246   6.686
 6142SOL     OW19324   0.189   5.247   0.921
 6142SOL    HW119325   0.198   5.211   1.014
 6142SOL    HW219326   0.104   5.299   0.913
 6143SOL     OW19327   6.605   4.628   0.420
 6143SOL    HW119328   6.664   4.662   0.347
 6143SOL    HW219329   6.514   4.670   0.410
 6144SOL     OW19330   6.793   5.073   3.190
 6144SOL    HW119331   6.783   4.985   3.236
 6144SOL    HW219332   6.759   5.146   3.249
 6145SOL     OW19333   4.445   5.687   3.567
 6145SOL    HW119334   4.540   5.702   3.593
 6145SOL    HW219335   4.410   5.607   3.616
 6146SOL     OW19336   3.243   0.166   3.723
 6146SOL    HW119337   3.256   0.111   3.805
 6146SOL    HW219338   3.207   0.108   3.649
 6147SOL     OW19339   1.353   3.776   4.608
 6147SOL    HW119340   1.290   3.797   4.683
 6147SOL    HW219341   1.443   3.814   4.630
 6148SOL     OW19342   6.889   0.629   4.625
 6148SOL    HW119343   6.903   0.631   4.526
 6148SOL    HW219344   6.900   0.536   4.659
 6149SOL     OW19345   3.343   5.089   1.226
 6149SOL    HW119346   3.329   5.112   1.323
 6149SOL    HW219347   3.366   4.993   1.218
 6150SOL     OW19348   4.215   4.681   6.653
 6150SOL    HW119349   4.188   4.599   6.602
 6150SOL    HW219350   4.171   4.761   6.613
 6151SOL     OW19351   5.924   3.975   5.351
 6151SOL    HW119352   5.857   3.972   5.425
 6151SOL    HW219353   6.017   3.968   5.389
 6152SOL     OW19354   5.964   5.736   5.108
 6152SOL    HW119355   5.916   5.812   5.063
 6152SOL    HW219356   6.038   5.771   5.165
 6153SOL     OW19357   5.241   3.900   1.983
 6153SOL    HW119358   5.189   3.938   1.906
 6153SOL    HW219359   5.236   3.800   1.979
 6154SOL     OW19360   5.703   1.380   2.691
 6154SOL    HW119361   5.663   1.326   2.617
 6154SOL    HW219362   5.631   1.407   2.755
 6155SOL     OW19363   1.711   2.549   4.584
 6155SOL    HW119364   1.735   2.533   4.680
 6155SOL    HW219365   1.795   2.547   4.528
 6156SOL     OW19366   4.568   4.855   2.018
 6156SOL    HW119367   4.574   4.850   1.919
 6156SOL    HW219368   4.652   4.818   2.058
 6157SOL     OW19369   1.132   1.231   4.544
 6157SOL    HW119370   1.089   1.141   4.531
 6157SOL    HW219371   1.063   1.296   4.576
 6158SOL     OW19372   4.442   0.895   5.998
 6158SOL    HW119373   4.472   0.909   6.093
 6158SOL    HW219374   4.342   0.896   5.994
 6159SOL     OW19375   5.072   1.831   1.758
 6159SOL    HW119376   5.157   1.883   1.769
 6159SOL    HW219377   5.029   1.819   1.847
 6160SOL     OW19378   4.660   0.252   6.060
 6160SOL    HW119379   4.672   0.181   5.991
 6160SOL    HW219380   4.732   0.321   6.049
 6161SOL     OW19381   5.085   1.268   4.403
 6161SOL    HW119382   5.138   1.260   4.487
 6161SOL    HW219383   5.039   1.357   4.400
 6162SOL     OW19384   1.186   6.460   3.811
 6162SOL    HW119385   1.204   6.467   3.713
 6162SOL    HW219386   1.271   6.435   3.859
 6163SOL     OW19387   5.754   6.059   1.426
 6163SOL    HW119388   5.817   5.993   1.385
 6163SOL    HW219389   5.779   6.073   1.522
 6164SOL     OW19390   3.133   2.317   1.737
 6164SOL    HW119391   3.144   2.336   1.639
 6164SOL    HW219392   3.064   2.378   1.775
 6165SOL     OW19393   4.598   0.452   6.420
 6165SOL    HW119394   4.691   0.438   6.387
 6165SOL    HW219395   4.596   0.526   6.486
 6166SOL     OW19396   4.424   1.377   6.776
 6166SOL    HW119397   4.413   1.476   6.782
 6166SOL    HW219398   4.358   1.340   6.711
 6167SOL     OW19399   0.746   3.915   3.483
 6167SOL    HW119400   0.736   4.010   3.455
 6167SOL    HW219401   0.657   3.869   3.480
 6168SOL     OW19402   1.174   3.426   0.674
 6168SOL    HW119403   1.222   3.496   0.621
 6168SOL    HW219404   1.113   3.375   0.614
 6169SOL     OW19405   1.897   3.152   1.566
 6169SOL    HW119406   1.799   3.135   1.570
 6169SOL    HW219407   1.943   3.101   1.638
 6170SOL     OW19408   1.037   3.535   5.377
 6170SOL    HW119409   0.960   3.597   5.363
 6170SOL    HW219410   1.007   3.441   5.360
 6171SOL     OW19411   0.365   2.670   0.553
 6171SOL    HW119412   0.413   2.667   0.640
 6171SOL    HW219413   0.291   2.738   0.557
 6172SOL     OW19414   1.772   2.787   2.269
 6172SOL    HW119415   1.772   2.884   2.294
 6172SOL    HW219416   1.849   2.769   2.207
 6173SOL     OW19417   0.000   5.349   2.454
 6173SOL    HW119418   0.066   5.293   2.503
 6173SOL    HW219419   0.048   5.427   2.412
 6174SOL     OW19420   5.062   6.254   3.963
 6174SOL    HW119421   5.099   6.291   3.878
 6174SOL    HW219422   4.962   6.252   3.958
 6175SOL     OW19423   3.851   1.050   3.860
 6175SOL    HW119424   3.864   0.985   3.786
 6175SOL    HW219425   3.879   1.141   3.829
 6176SOL     OW19426   5.367   4.441   5.645
 6176SOL    HW119427   5.454   4.425   5.691
 6176SOL    HW219428   5.309   4.499   5.703
 6177SOL     OW19429   5.738   1.896   1.540
 6177SOL    HW119430   5.701   1.847   1.618
 6177SOL    HW219431   5.671   1.962   1.506
 6178SOL     OW19432   5.330   5.068   1.942
 6178SOL    HW119433   5.280   4.988   1.976
 6178SOL    HW219434   5.280   5.108   1.865
 6179SOL     OW19435   6.597   4.159   3.611
 6179SOL    HW119436   6.634   4.140   3.702
 6179SOL    HW219437   6.529   4.232   3.618
 6180SOL     OW19438   2.641   4.803   0.972
 6180SOL    HW119439   2.681   4.847   0.891
 6180SOL    HW219440   2.711   4.793   1.042
 6181SOL     OW19441   4.773   6.059   5.938
 6181SOL    HW119442   4.778   6.111   6.023
 6181SOL    HW219443   4.856   6.072   5.884
 6182SOL     OW19444   4.429   2.845   5.861
 6182SOL    HW119445   4.428   2.752   5.824
 6182SOL    HW219446   4.357   2.898   5.817
 6183SOL     OW19447   1.596   2.294   3.740
 6183SOL    HW119448   1.634   2.284   3.832
 6183SOL    HW219449   1.642   2.368   3.692
 6184SOL     OW19450   2.974   6.317   6.406
 6184SOL    HW119451   3.020   6.404   6.421
 6184SOL    HW219452   3.028   6.260   6.344
 6185SOL     OW19453   6.985   3.659   6.590
 6185SOL    HW119454   6.993   3.561   6.573
 6185SOL    HW219455   6.979   3.676   6.688
 6186SOL     OW19456   6.445   1.418   0.407
 6186SOL    HW119457   6.453   1.500   0.465
 6186SOL    HW219458   6.531   1.403   0.359
 6187SOL     OW19459   5.360   3.692   4.408
 6187SOL    HW119460   5.329   3.613   4.356
 6187SOL    HW219461   5.456   3.680   4.433
 6188SOL     OW19462   1.491   1.335   6.094
 6188SOL    HW119463   1.475   1.361   6.189
 6188SOL    HW219464   1.471   1.238   6.082
 6189SOL     OW19465   4.118   5.386   2.523
 6189SOL    HW119466   4.071   5.429   2.445
 6189SOL    HW219467   4.051   5.360   2.592
 6190SOL     OW19468   0.492   3.980   5.146
 6190SOL    HW119469   0.434   3.978   5.064
 6190SOL    HW219470   0.545   4.065   5.146
 6191SOL     OW19471   2.931   2.524   6.695
 6191SOL    HW119472   2.836   2.509   6.720
 6191SOL    HW219473   2.936   2.556   6.601
 6192SOL     OW19474   2.449   2.037   6.379
 6192SOL    HW119475   2.399   2.108   6.328
 6192SOL    HW219476   2.498   2.080   6.455
 6193SOL     OW19477   4.915   6.252   1.737
 6193SOL    HW119478   4.934   6.303   1.821
 6193SOL    HW219479   4.862   6.310   1.675
 6194SOL     OW19480   6.991   0.520   6.685
 6194SOL    HW119481   0.048   0.486   6.637
 6194SOL    HW219482   6.931   0.566   6.620
 6195SOL     OW19483   4.747   5.357   4.458
 6195SOL    HW119484   4.730   5.316   4.368
 6195SOL    HW219485   4.682   5.320   4.524
 6196SOL     OW19486   5.023   4.396   1.902
 6196SOL    HW119487   4.937   4.346   1.903
 6196SOL    HW219488   5.058   4.406   1.996
 6197SOL     OW19489   2.293   5.994   1.565
 6197SOL    HW119490   2.306   6.083   1.522
 6197SOL    HW219491   2.238   5.936   1.505
 6198SOL     OW19492   4.322   0.231   0.906
 6198SOL    HW119493   4.257   0.281   0.962
 6198SOL    HW219494   4.413   0.238   0.947
 6199SOL     OW19495   0.533   0.938   0.422
 6199SOL    HW119496   0.528   0.866   0.352
 6199SOL    HW219497   0.444   0.947   0.467
 6200SOL     OW19498   0.819   1.575   5.724
 6200SOL    HW119499   0.771   1.627   5.794
 6200SOL    HW219500   0.907   1.618   5.704
 6201SOL     OW19501   0.689   3.160   5.656
 6201SOL    HW119502   0.709   3.247   5.612
 6201SOL    HW219503   0.592   3.155   5.678
 6202SOL     OW19504   4.884   1.134   1.701
 6202SOL    HW119505   4.844   1.224   1.720
 6202SOL    HW219506   4.828   1.063   1.743
 6203SOL     OW19507   6.121   6.044   2.031
 6203SOL    HW119508   6.184   6.017   2.103
 6203SOL    HW219509   6.065   6.120   2.062
 6204SOL     OW19510   0.956   5.877   4.758
 6204SOL    HW119511   1.022   5.942   4.719
 6204SOL    HW219512   1.005   5.803   4.804
 6205SOL     OW19513   6.502   5.313   1.905
 6205SOL    HW119514   6.511   5.239   1.972
 6205SOL    HW219515   6.416   5.303   1.855
 6206SOL     OW19516   5.942   1.488   2.276
 6206SOL    HW119517   5.935   1.414   2.208
 6206SOL    HW219518   6.034   1.487   2.316
 6207SOL     OW19519   1.905   5.944   5.505
 6207SOL    HW119520   1.978   5.973   5.443
 6207SOL    HW219521   1.816   5.951   5.459
 6208SOL     OW19522   3.799   2.425   5.333
 6208SOL    HW119523   3.797   2.525   5.336
 6208SOL    HW219524   3.839   2.390   5.418
 6209SOL     OW19525   2.888   5.707   6.884
 6209SOL    HW119526   2.959   5.682   6.819
 6209SOL    HW219527   2.798   5.680   6.848
 6210SOL     OW19528   4.765   4.129   2.950
 6210SOL    HW119529   4.734   4.094   3.038
 6210SOL    HW219530   4.824   4.061   2.906
 6211SOL     OW19531   2.601   6.266   5.731
 6211SOL    HW119532   2.578   6.188   5.789
 6211SOL    HW219533   2.684   6.310   5.765
 6212SOL     OW19534   2.719   4.750   4.455
 6212SOL    HW119535   2.632   4.700   4.457
 6212SOL    HW219536   2.770   4.723   4.374
 6213SOL     OW19537   5.001   6.904   6.732
 6213SOL    HW119538   4.940   6.981   6.753
 6213SOL    HW219539   5.060   6.929   6.655
 6214SOL     OW19540   5.374   5.607   5.261
 6214SOL    HW119541   5.356   5.578   5.167
 6214SOL    HW219542   5.320   5.552   5.325
 6215SOL     OW19543   3.744   2.773   6.775
 6215SOL    HW119544   3.657   2.732   6.747
 6215SOL    HW219545   3.726   2.860   6.821
 6216SOL     OW19546   6.291   2.819   2.553
 6216SOL    HW119547   6.319   2.792   2.460
 6216SOL    HW219548   6.370   2.815   2.614
 6217SOL     OW19549   0.958   4.157   2.731
 6217SOL    HW119550   0.931   4.248   2.701
 6217SOL    HW219551   1.056   4.155   2.751
 6218SOL     OW19552   3.745   6.845   7.023
 6218SOL    HW119553   3.672   6.777   0.010
 6218SOL    HW219554   3.833   6.798   7.010
 6219SOL     OW19555   0.902   1.369   4.617
 6219SOL    HW119556   0.894   1.325   4.707
 6219SOL    HW219557   0.872   1.464   4.623
 6220SOL     OW19558   3.045   1.568   5.393
 6220SOL    HW119559   3.104   1.624   5.335
 6220SOL    HW219560   3.032   1.614   5.481
 6221SOL     OW19561   5.667   0.652   6.600
 6221SOL    HW119562   5.703   0.559   6.605
 6221SOL    HW219563   5.581   0.651   6.549
 6222SOL     OW19564   1.245   0.334   2.159
 6222SOL    HW119565   1.171   0.355   2.095
 6222SOL    HW219566   1.307   0.267   2.117
 6223SOL     OW19567   1.378   5.128   2.940
 6223SOL    HW119568   1.384   5.039   2.986
 6223SOL    HW219569   1.464   5.177   2.952
 6224SOL     OW19570   4.282   1.220   6.259
 6224SOL    HW119571   4.241   1.150   6.317
 6224SOL    HW219572   4.286   1.187   6.165
 6225SOL     OW19573   3.492   2.574   6.617
 6225SOL    HW119574   3.490   2.632   6.535
 6225SOL    HW219575   3.401   2.571   6.658
 6226SOL     OW19576   1.304   1.756   4.172
 6226SOL    HW119577   1.362   1.675   4.186
 6226SOL    HW219578   1.221   1.729   4.124
 6227SOL     OW19579   3.715   5.200   5.521
 6227SOL    HW119580   3.814   5.203   5.536
 6227SOL    HW219581   3.668   5.217   5.608
 6228SOL     OW19582   0.594   2.881   2.502
 6228SOL    HW119583   0.580   2.941   2.424
 6228SOL    HW219584   0.537   2.799   2.492
 6229SOL     OW19585   0.956   3.019   5.384
 6229SOL    HW119586   0.966   2.928   5.345
 6229SOL    HW219587   0.992   3.019   5.478
 6230SOL     OW19588   1.017   1.993   3.550
 6230SOL    HW119589   0.995   1.899   3.523
 6230SOL    HW219590   1.075   2.035   3.480
 6231SOL     OW19591   5.882   4.942   0.344
 6231SOL    HW119592   5.925   5.026   0.313
 6231SOL    HW219593   5.811   4.915   0.279
 6232SOL     OW19594   6.637   1.653   7.021
 6232SOL    HW119595   6.656   1.726   0.062
 6232SOL    HW219596   6.596   1.575   0.045
 6233SOL     OW19597   5.841   2.351   1.824
 6233SOL    HW119598   5.843   2.421   1.753
 6233SOL    HW219599   5.891   2.270   1.793
 6234SOL     OW19600   6.706   0.164   5.423
 6234SOL    HW119601   6.679   0.149   5.328
 6234SOL    HW219602   6.750   0.253   5.431
 6235SOL     OW19603   0.256   0.416   1.401
 6235SOL    HW119604   0.355   0.403   1.415
 6235SOL    HW219605   0.218   0.334   1.358
 6236SOL     OW19606   0.199   4.261   0.890
 6236SOL    HW119607   0.292   4.226   0.883
 6236SOL    HW219608   0.137   4.204   0.837
 6237SOL     OW19609   3.231   0.314   0.289
 6237SOL    HW119610   3.260   0.236   0.232
 6237SOL    HW219611   3.131   0.317   0.292
 6238SOL     OW19612   4.934   6.441   2.843
 6238SOL    HW119613   4.994   6.371   2.882
 6238SOL    HW219614   4.969   6.469   2.754
 6239SOL     OW19615   3.776   1.091   1.393
 6239SOL    HW119616   3.851   1.099   1.328
 6239SOL    HW219617   3.689   1.108   1.347
 6240SOL     OW19618   3.031   3.842   5.342
 6240SOL    HW119619   3.008   3.872   5.249
 6240SOL    HW219620   3.130   3.829   5.348
 6241SOL     OW19621   3.433   0.521   3.312
 6241SOL    HW119622   3.336   0.498   3.304
 6241SOL    HW219623   3.460   0.517   3.408
 6242SOL     OW19624   3.469   6.912   3.114
 6242SOL    HW119625   3.509   6.846   3.177
 6242SOL    HW219626   3.486   7.005   3.147
 6243SOL     OW19627   6.762   6.719   5.660
 6243SOL    HW119628   6.698   6.677   5.596
 6243SOL    HW219629   6.714   6.787   5.716
 6244SOL     OW19630   5.443   3.668   3.761
 6244SOL    HW119631   5.438   3.727   3.681
 6244SOL    HW219632   5.370   3.692   3.825
 6245SOL     OW19633   1.692   4.343   1.801
 6245SOL    HW119634   1.666   4.266   1.743
 6245SOL    HW219635   1.650   4.333   1.891
 6246SOL     OW19636   1.073   1.285   4.990
 6246SOL    HW119637   1.137   1.359   5.009
 6246SOL    HW219638   1.119   1.197   5.000
 6247SOL     OW19639   1.580   6.307   3.635
 6247SOL    HW119640   1.546   6.213   3.633
 6247SOL    HW219641   1.506   6.371   3.617
 6248SOL     OW19642   3.771   3.975   0.225
 6248SOL    HW119643   3.704   3.917   0.273
 6248SOL    HW219644   3.830   4.020   0.292
 6249SOL     OW19645   6.897   2.767   0.784
 6249SOL    HW119646   6.826   2.733   0.845
 6249SOL    HW219647   6.866   2.851   0.739
 6250SOL     OW19648   6.376   6.865   1.036
 6250SOL    HW119649   6.392   6.935   0.967
 6250SOL    HW219650   6.390   6.903   1.127
 6251SOL     OW19651   4.322   6.425   4.679
 6251SOL    HW119652   4.234   6.436   4.633
 6251SOL    HW219653   4.343   6.328   4.689
 6252SOL     OW19654   2.325   4.443   6.446
 6252SOL    HW119655   2.408   4.461   6.498
 6252SOL    HW219656   2.319   4.346   6.424
 6253SOL     OW19657   2.555   4.796   3.863
 6253SOL    HW119658   2.484   4.846   3.813
 6253SOL    HW219659   2.639   4.849   3.864
 6254SOL     OW19660   6.026   0.296   0.801
 6254SOL    HW119661   5.946   0.235   0.804
 6254SOL    HW219662   6.109   0.242   0.815
 6255SOL     OW19663   2.772   1.537   0.989
 6255SOL    HW119664   2.843   1.532   1.059
 6255SOL    HW219665   2.749   1.633   0.973
 6256SOL     OW19666   3.975   5.291   2.199
 6256SOL    HW119667   3.934   5.302   2.109
 6256SOL    HW219668   4.066   5.332   2.200
 6257SOL     OW19669   4.215   3.000   0.156
 6257SOL    HW119670   4.276   3.075   0.133
 6257SOL    HW219671   4.128   3.037   0.190
 6258SOL     OW19672   3.010   6.471   4.897
 6258SOL    HW119673   3.051   6.562   4.906
 6258SOL    HW219674   3.007   6.426   4.986
 6259SOL     OW19675   2.209   0.639   6.272
 6259SOL    HW119676   2.174   0.725   6.236
 6259SOL    HW219677   2.133   0.581   6.300
 6260SOL     OW19678   3.545   6.659   0.075
 6260SOL    HW119679   3.506   6.668   0.166
 6260SOL    HW219680   3.603   6.578   0.071
 6261SOL     OW19681   4.689   6.939   0.526
 6261SOL    HW119682   4.685   6.877   0.448
 6261SOL    HW219683   4.626   6.906   0.597
 6262SOL     OW19684   1.771   6.159   2.280
 6262SOL    HW119685   1.812   6.187   2.193
 6262SOL    HW219686   1.801   6.221   2.352
 6263SOL     OW19687   1.045   6.646   4.938
 6263SOL    HW119688   1.145   6.656   4.941
 6263SOL    HW219689   1.007   6.714   4.875
 6264SOL     OW19690   1.989   0.512   1.414
 6264SOL    HW119691   2.011   0.609   1.426
 6264SOL    HW219692   2.002   0.464   1.501
 6265SOL     OW19693   4.568   3.411   0.541
 6265SOL    HW119694   4.540   3.379   0.450
 6265SOL    HW219695   4.570   3.511   0.543
 6266SOL     OW19696   4.363   0.189   3.150
 6266SOL    HW119697   4.314   0.233   3.226
 6266SOL    HW219698   4.297   0.158   3.082
 6267SOL     OW19699   2.194   6.972   5.145
 6267SOL    HW119700   2.286   7.011   5.143
 6267SOL    HW219701   2.153   6.976   5.054
 6268SOL     OW19702   2.759   0.878   1.863
 6268SOL    HW119703   2.834   0.877   1.929
 6268SOL    HW219704   2.774   0.806   1.796
 6269SOL     OW19705   6.127   7.006   2.505
 6269SOL    HW119706   6.157   0.065   2.552
 6269SOL    HW219707   6.186   6.989   2.426
 6270SOL     OW19708   0.059   0.032   0.210
 6270SOL    HW119709   0.116   0.019   0.292
 6270SOL    HW219710   0.117   0.066   0.135
 6271SOL     OW19711   6.385   2.501   5.596
 6271SOL    HW119712   6.396   2.511   5.497
 6271SOL    HW219713   6.369   2.405   5.618
 6272SOL     OW19714   0.668   1.731   0.060
 6272SOL    HW119715   0.669   1.636   0.092
 6272SOL    HW219716   0.576   1.768   0.070
 6273SOL     OW19717   0.283   5.649   2.598
 6273SOL    HW119718   0.224   5.583   2.645
 6273SOL    HW219719   0.248   5.741   2.613
 6274SOL     OW19720   3.048   0.075   4.712
 6274SOL    HW119721   3.097   0.138   4.652
 6274SOL    HW219722   2.949   0.089   4.701
 6275SOL     OW19723   1.765   6.187   0.200
 6275SOL    HW119724   1.696   6.124   0.164
 6275SOL    HW219725   1.852   6.139   0.210
 6276SOL     OW19726   3.203   5.397   3.473
 6276SOL    HW119727   3.214   5.324   3.405
 6276SOL    HW219728   3.116   5.385   3.521
 6277SOL     OW19729   4.909   2.368   1.049
 6277SOL    HW119730   4.845   2.326   1.114
 6277SOL    HW219731   4.871   2.455   1.017
 6278SOL     OW19732   3.677   0.838   4.912
 6278SOL    HW119733   3.679   0.807   5.007
 6278SOL    HW219734   3.733   0.777   4.856
 6279SOL     OW19735   3.902   5.950   0.479
 6279SOL    HW119736   3.976   5.983   0.537
 6279SOL    HW219737   3.878   6.020   0.412
 6280SOL     OW19738   0.171   1.121   6.548
 6280SOL    HW119739   0.253   1.178   6.548
 6280SOL    HW219740   0.192   1.033   6.505
 6281SOL     OW19741   7.005   4.990   4.282
 6281SOL    HW119742   6.955   4.926   4.223
 6281SOL    HW219743   0.068   5.012   4.240
 6282SOL     OW19744   5.924   3.239   4.849
 6282SOL    HW119745   5.953   3.333   4.866
 6282SOL    HW219746   5.832   3.225   4.886
 6283SOL     OW19747   0.833   4.050   4.432
 6283SOL    HW119748   0.853   4.006   4.519
 6283SOL    HW219749   0.734   4.048   4.416
 6284SOL     OW19750   1.256   5.605   6.328
 6284SOL    HW119751   1.338   5.571   6.281
 6284SOL    HW219752   1.243   5.554   6.413
 6285SOL     OW19753   0.857   3.408   3.097
 6285SOL    HW119754   0.928   3.391   3.030
 6285SOL    HW219755   0.897   3.448   3.180
 6286SOL     OW19756   0.422   3.637   4.535
 6286SOL    HW119757   0.371   3.609   4.454
 6286SOL    HW219758   0.520   3.628   4.517
 6287SOL     OW19759   3.316   4.982   5.363
 6287SOL    HW119760   3.391   5.045   5.346
 6287SOL    HW219761   3.249   4.989   5.289
 6288SOL     OW19762   5.437   4.821   1.422
 6288SOL    HW119763   5.460   4.843   1.328
 6288SOL    HW219764   5.458   4.899   1.481
 6289SOL     OW19765   2.061   4.401   6.985
 6289SOL    HW119766   2.086   4.310   6.951
 6289SOL    HW219767   1.979   4.394   0.018
 6290SOL     OW19768   5.880   5.666   6.418
 6290SOL    HW119769   5.813   5.722   6.370
 6290SOL    HW219770   5.942   5.624   6.351
 6291SOL     OW19771   3.606   3.825   3.539
 6291SOL    HW119772   3.680   3.777   3.587
 6291SOL    HW219773   3.557   3.759   3.482
 6292SOL     OW19774   2.502   2.212   5.340
 6292SOL    HW119775   2.601   2.198   5.342
 6292SOL    HW219776   2.481   2.295   5.288
 6293SOL     OW19777   4.810   1.672   0.744
 6293SOL    HW119778   4.887   1.679   0.680
 6293SOL    HW219779   4.805   1.755   0.799
 6294SOL     OW19780   4.283   0.306   3.575
 6294SOL    HW119781   4.302   0.353   3.488
 6294SOL    HW219782   4.300   0.370   3.650
 6295SOL     OW19783   5.330   4.763   4.725
 6295SOL    HW119784   5.293   4.821   4.652
 6295SOL    HW219785   5.412   4.716   4.693
 6296SOL     OW19786   6.931   4.172   5.777
 6296SOL    HW119787   6.997   4.167   5.852
 6296SOL    HW219788   6.980   4.172   5.690
 6297SOL     OW19789   6.289   0.456   5.123
 6297SOL    HW119790   6.299   0.388   5.196
 6297SOL    HW219791   6.200   0.500   5.130
 6298SOL     OW19792   0.330   3.411   6.233
 6298SOL    HW119793   0.407   3.457   6.276
 6298SOL    HW219794   0.309   3.455   6.146
 6299SOL     OW19795   5.495   2.619   1.869
 6299SOL    HW119796   5.399   2.646   1.870
 6299SOL    HW219797   5.541   2.660   1.790
 6300SOL     OW19798   6.193   0.819   6.961
 6300SOL    HW119799   6.100   0.839   6.991
 6300SOL    HW219800   6.210   0.721   6.967
 6301SOL     OW19801   2.939   6.107   6.759
 6301SOL    HW119802   2.860   6.157   6.796
 6301SOL    HW219803   2.911   6.052   6.681
 6302SOL     OW19804   1.836   1.816   5.078
 6302SOL    HW119805   1.858   1.761   5.159
 6302SOL    HW219806   1.901   1.795   5.005
 6303SOL     OW19807   0.050   6.738   6.175
 6303SOL    HW119808   0.109   6.687   6.113
 6303SOL    HW219809   0.089   6.829   6.191
 6304SOL     OW19810   3.252   1.584   3.122
 6304SOL    HW119811   3.156   1.605   3.100
 6304SOL    HW219812   3.312   1.649   3.075
 6305SOL     OW19813   5.958   6.207   0.505
 6305SOL    HW119814   5.911   6.220   0.418
 6305SOL    HW219815   5.981   6.296   0.545
 6306SOL     OW19816   0.127   3.999   4.055
 6306SOL    HW119817   0.120   4.096   4.081
 6306SOL    HW219818   0.161   3.992   3.962
 6307SOL     OW19819   3.087   3.055   4.149
 6307SOL    HW119820   3.072   3.011   4.060
 6307SOL    HW219821   3.139   2.992   4.208
 6308SOL     OW19822   1.051   2.191   5.336
 6308SOL    HW119823   1.084   2.113   5.388
 6308SOL    HW219824   1.080   2.181   5.240
 6309SOL     OW19825   0.210   0.120   4.763
 6309SOL    HW119826   0.165   0.207   4.747
 6309SOL    HW219827   0.297   0.118   4.714
 6310SOL     OW19828   2.256   6.365   2.397
 6310SOL    HW119829   2.255   6.316   2.484
 6310SOL    HW219830   2.163   6.387   2.369
 6311SOL     OW19831   4.916   2.056   5.650
 6311SOL    HW119832   4.930   2.047   5.748
 6311SOL    HW219833   4.883   1.969   5.613
 6312SOL     OW19834   0.542   6.681   5.800
 6312SOL    HW119835   0.545   6.651   5.896
 6312SOL    HW219836   0.480   6.622   5.748
 6313SOL     OW19837   6.357   6.454   3.206
 6313SOL    HW119838   6.296   6.432   3.130
 6313SOL    HW219839   6.310   6.517   3.269
 6314SOL     OW19840   3.089   6.641   2.353
 6314SOL    HW119841   3.109   6.736   2.379
 6314SOL    HW219842   2.992   6.623   2.366
 6315SOL     OW19843   3.296   1.602   4.988
 6315SOL    HW119844   3.369   1.669   4.998
 6315SOL    HW219845   3.211   1.648   4.964
 6316SOL     OW19846   4.467   2.007   5.506
 6316SOL    HW119847   4.477   1.909   5.489
 6316SOL    HW219848   4.521   2.058   5.439
 6317SOL     OW19849   4.834   3.911   1.993
 6317SOL    HW119850   4.881   3.980   2.048
 6317SOL    HW219851   4.809   3.834   2.052
 6318SOL     OW19852   4.434   0.354   6.151
 6318SOL    HW119853   4.368   0.395   6.089
 6318SOL    HW219854   4.511   0.318   6.099
 6319SOL     OW19855   6.559   2.144   5.075
 6319SOL    HW119856   6.474   2.194   5.091
 6319SOL    HW219857   6.577   2.140   4.977
 6320SOL     OW19858   6.977   6.491   5.098
 6320SOL    HW119859   6.981   6.499   5.197
 6320SOL    HW219860   6.950   6.397   5.074
 6321SOL     OW19861   5.261   2.931   0.382
 6321SOL    HW119862   5.271   2.953   0.479
 6321SOL    HW219863   5.206   2.848   0.372
 6322SOL     OW19864   2.895   2.734   0.524
 6322SOL    HW119865   2.914   2.639   0.501
 6322SOL    HW219866   2.804   2.741   0.566
 6323SOL     OW19867   1.576   1.946   1.426
 6323SOL    HW119868   1.518   1.889   1.484
 6323SOL    HW219869   1.528   1.968   1.341
 6324SOL     OW19870   4.226   1.262   0.314
 6324SOL    HW119871   4.281   1.207   0.377
 6324SOL    HW219872   4.132   1.266   0.347
 6325SOL     OW19873   1.785   3.121   2.860
 6325SOL    HW119874   1.865   3.161   2.815
 6325SOL    HW219875   1.715   3.190   2.872
 6326SOL     OW19876   5.850   5.071   0.090
 6326SOL    HW119877   5.809   5.144   0.034
 6326SOL    HW219878   5.949   5.084   0.093
 6327SOL     OW19879   0.287   1.820   3.633
 6327SOL    HW119880   0.346   1.900   3.640
 6327SOL    HW219881   0.192   1.848   3.629
 6328SOL     OW19882   4.527   3.677   6.753
 6328SOL    HW119883   4.517   3.654   6.656
 6328SOL    HW219884   4.572   3.765   6.762
 6329SOL     OW19885   1.552   2.713   5.135
 6329SOL    HW119886   1.595   2.760   5.212
 6329SOL    HW219887   1.598   2.740   5.050
 6330SOL     OW19888   5.647   6.792   1.659
 6330SOL    HW119889   5.718   6.860   1.678
 6330SOL    HW219890   5.578   6.833   1.600
 6331SOL     OW19891   6.918   3.782   4.651
 6331SOL    HW119892   6.916   3.705   4.587
 6331SOL    HW219893   6.913   3.747   4.745
 6332SOL     OW19894   0.933   2.748   1.130
 6332SOL    HW119895   1.003   2.812   1.097
 6332SOL    HW219896   0.972   2.657   1.141
 6333SOL     OW19897   4.584   0.433   5.439
 6333SOL    HW119898   4.659   0.466   5.496
 6333SOL    HW219899   4.613   0.352   5.389
 6334SOL     OW19900   2.978   1.416   2.187
 6334SOL    HW119901   2.973   1.413   2.287
 6334SOL    HW219902   3.029   1.498   2.159
 6335SOL     OW19903   4.338   0.430   0.462
 6335SOL    HW119904   4.336   0.331   0.477
 6335SOL    HW219905   4.376   0.475   0.543
 6336SOL     OW19906   0.660   2.190   6.698
 6336SOL    HW119907   0.677   2.230   6.789
 6336SOL    HW219908   0.669   2.261   6.628
 6337SOL     OW19909   4.047   5.047   4.578
 6337SOL    HW119910   4.138   5.024   4.612
 6337SOL    HW219911   3.978   5.017   4.644
 6338SOL     OW19912   2.620   2.470   4.519
 6338SOL    HW119913   2.668   2.552   4.552
 6338SOL    HW219914   2.560   2.435   4.591
 6339SOL     OW19915   0.762   3.266   4.447
 6339SOL    HW119916   0.822   3.325   4.393
 6339SOL    HW219917   0.734   3.187   4.391
 6340SOL     OW19918   2.465   3.816   1.473
 6340SOL    HW119919   2.552   3.863   1.459
 6340SOL    HW219920   2.445   3.809   1.570
 6341SOL     OW19921   6.679   3.767   4.431
 6341SOL    HW119922   6.709   3.819   4.511
 6341SOL    HW219923   6.759   3.726   4.386
 6342SOL     OW19924   3.343   1.100   0.701
 6342SOL    HW119925   3.294   1.019   0.671
 6342SOL    HW219926   3.280   1.161   0.750
 6343SOL     OW19927   3.858   0.400   0.315
 6343SOL    HW119928   3.911   0.319   0.289
 6343SOL    HW219929   3.773   0.401   0.262
 6344SOL     OW19930   5.327   1.739   4.467
 6344SOL    HW119931   5.352   1.822   4.518
 6344SOL    HW219932   5.341   1.659   4.525
 6345SOL     OW19933   4.846   3.159   1.569
 6345SOL    HW119934   4.933   3.177   1.523
 6345SOL    HW219935   4.779   3.228   1.542
 6346SOL     OW19936   0.301   5.503   5.034
 6346SOL    HW119937   0.333   5.496   5.129
 6346SOL    HW219938   0.202   5.486   5.031
 6347SOL     OW19939   1.999   1.466   1.143
 6347SOL    HW119940   2.058   1.528   1.194
 6347SOL    HW219941   2.049   1.383   1.120
 6348SOL     OW19942   0.822   2.813   6.293
 6348SOL    HW119943   0.763   2.757   6.352
 6348SOL    HW219944   0.766   2.880   6.245
 6349SOL     OW19945   1.996   0.898   0.741
 6349SOL    HW119946   2.005   0.841   0.659
 6349SOL    HW219947   2.081   0.894   0.794
 6350SOL     OW19948   0.519   5.146   4.107
 6350SOL    HW119949   0.615   5.173   4.103
 6350SOL    HW219950   0.473   5.172   4.022
 6351SOL     OW19951   6.224   3.622   3.392
 6351SOL    HW119952   6.317   3.609   3.426
 6351SOL    HW219953   6.187   3.535   3.360
 6352SOL     OW19954   2.228   0.423   4.793
 6352SOL    HW119955   2.195   0.431   4.887
 6352SOL    HW219956   2.296   0.494   4.776
 6353SOL     OW19957   1.510   6.104   6.780
 6353SOL    HW119958   1.605   6.126   6.756
 6353SOL    HW219959   1.494   6.006   6.766
 6354SOL     OW19960   3.714   6.061   2.515
 6354SOL    HW119961   3.727   5.965   2.489
 6354SOL    HW219962   3.770   6.081   2.595
 6355SOL     OW19963   2.953   5.503   0.039
 6355SOL    HW119964   2.924   5.570   6.995
 6355SOL    HW219965   3.052   5.491   0.034
 6356SOL     OW19966   5.747   4.588   0.577
 6356SOL    HW119967   5.828   4.621   0.529
 6356SOL    HW219968   5.693   4.531   0.515
 6357SOL     OW19969   5.778   3.117   2.239
 6357SOL    HW119970   5.822   3.117   2.149
 6357SOL    HW219971   5.764   3.023   2.270
 6358SOL     OW19972   0.580   2.054   6.464
 6358SOL    HW119973   0.516   2.111   6.517
 6358SOL    HW219974   0.661   2.036   6.519
 6359SOL     OW19975   5.946   6.554   0.579
 6359SOL    HW119976   5.934   6.549   0.480
 6359SOL    HW219977   5.879   6.618   0.618
 6360SOL     OW19978   0.883   3.380   4.733
 6360SOL    HW119979   0.886   3.281   4.736
 6360SOL    HW219980   0.976   3.417   4.744
 6361SOL     OW19981   1.124   0.865   0.954
 6361SOL    HW119982   1.145   0.937   1.020
 6361SOL    HW219983   1.181   0.876   0.873
 6362SOL     OW19984   0.958   5.910   6.380
 6362SOL    HW119985   0.878   5.856   6.353
 6362SOL    HW219986   1.014   5.930   6.299
 6363SOL     OW19987   3.132   5.467   4.137
 6363SOL    HW119988   3.213   5.512   4.176
 6363SOL    HW219989   3.049   5.514   4.170
 6364SOL     OW19990   2.803   2.783   5.729
 6364SOL    HW119991   2.779   2.865   5.780
 6364SOL    HW219992   2.747   2.777   5.647
 6365SOL     OW19993   5.527   6.380   3.883
 6365SOL    HW119994   5.517   6.444   3.807
 6365SOL    HW219995   5.463   6.305   3.871
 6366SOL     OW19996   0.571   6.108   5.737
 6366SOL    HW119997   0.625   6.132   5.656
 6366SOL    HW219998   0.474   6.114   5.715
 6367SOL     OW19999   3.430   2.141   3.066
 6367SOL    HW120000   3.444   2.124   2.968
 6367SOL    HW220001   3.336   2.169   3.082
 6368SOL     OW20002   4.151   4.799   4.466
 6368SOL    HW120003   4.086   4.839   4.530
 6368SOL    HW220004   4.216   4.869   4.435
 6369SOL     OW20005   1.616   0.574   4.358
 6369SOL    HW120006   1.648   0.668   4.362
 6369SOL    HW220007   1.624   0.531   4.448
 6370SOL     OW20008   4.948   4.250   3.349
 6370SOL    HW120009   4.870   4.216   3.295
 6370SOL    HW220010   4.996   4.173   3.391
 6371SOL     OW20011   5.391   4.206   2.431
 6371SOL    HW120012   5.414   4.130   2.491
 6371SOL    HW220013   5.379   4.289   2.486
 6372SOL     OW20014   1.113   0.694   2.208
 6372SOL    HW120015   1.039   0.760   2.209
 6372SOL    HW220016   1.111   0.640   2.292
 6373SOL     OW20017   5.475   4.471   2.950
 6373SOL    HW120018   5.398   4.524   2.915
 6373SOL    HW220019   5.471   4.378   2.914
 6374SOL     OW20020   4.569   3.280   1.183
 6374SOL    HW120021   4.479   3.253   1.148
 6374SOL    HW220022   4.634   3.281   1.107
 6375SOL     OW20023   0.090   2.788   2.209
 6375SOL    HW120024   7.018   2.807   2.191
 6375SOL    HW220025   0.099   2.743   2.298
 6376SOL     OW20026   4.127   1.981   6.507
 6376SOL    HW120027   4.030   1.970   6.533
 6376SOL    HW220028   4.171   1.891   6.506
 6377SOL     OW20029   6.855   1.539   5.416
 6377SOL    HW120030   6.794   1.584   5.350
 6377SOL    HW220031   6.880   1.449   5.382
 6378SOL     OW20032   5.902   4.857   3.587
 6378SOL    HW120033   5.956   4.888   3.509
 6378SOL    HW220034   5.905   4.757   3.591
 6379SOL     OW20035   0.329   4.454   5.859
 6379SOL    HW120036   0.243   4.482   5.900
 6379SOL    HW220037   0.370   4.380   5.913
 6380SOL     OW20038   0.114   2.223   4.602
 6380SOL    HW120039   0.078   2.261   4.517
 6380SOL    HW220040   0.168   2.141   4.581
 6381SOL     OW20041   4.613   3.189   0.921
 6381SOL    HW120042   4.641   3.177   0.826
 6381SOL    HW220043   4.536   3.129   0.941
 6382SOL     OW20044   3.002   2.074   0.595
 6382SOL    HW120045   3.077   2.133   0.565
 6382SOL    HW220046   2.934   2.129   0.644
 6383SOL     OW20047   2.310   2.742   2.395
 6383SOL    HW120048   2.368   2.739   2.476
 6383SOL    HW220049   2.326   2.661   2.338
 6384SOL     OW20050   6.009   3.255   2.795
 6384SOL    HW120051   6.083   3.234   2.732
 6384SOL    HW220052   6.038   3.238   2.889
 6385SOL     OW20053   6.566   4.089   2.815
 6385SOL    HW120054   6.580   4.062   2.911
 6385SOL    HW220055   6.506   4.169   2.812
 6386SOL     OW20056   2.247   3.258   6.985
 6386SOL    HW120057   2.315   3.221   6.922
 6386SOL    HW220058   2.272   3.233   0.054
 6387SOL     OW20059   6.209   1.816   0.049
 6387SOL    HW120060   6.221   1.732   7.021
 6387SOL    HW220061   6.279   1.883   0.021
 6388SOL     OW20062   5.287   5.787   1.702
 6388SOL    HW120063   5.356   5.859   1.696
 6388SOL    HW220064   5.215   5.803   1.634
 6389SOL     OW20065   1.123   6.843   0.756
 6389SOL    HW120066   1.139   6.932   0.715
 6389SOL    HW220067   1.210   6.795   0.768
 6390SOL     OW20068   6.403   0.131   5.550
 6390SOL    HW120069   6.393   0.229   5.566
 6390SOL    HW220070   6.488   0.114   5.501
 6391SOL     OW20071   1.599   0.976   6.177
 6391SOL    HW120072   1.639   1.017   6.259
 6391SOL    HW220073   1.649   0.893   6.153
 6392SOL     OW20074   3.055   5.539   3.174
 6392SOL    HW120075   3.146   5.542   3.133
 6392SOL    HW220076   3.057   5.586   3.263
 6393SOL     OW20077   6.403   5.757   1.738
 6393SOL    HW120078   6.461   5.822   1.688
 6393SOL    HW220079   6.391   5.788   1.832
 6394SOL     OW20080   2.075   5.789   0.847
 6394SOL    HW120081   2.052   5.771   0.943
 6394SOL    HW220082   2.014   5.737   0.788
 6395SOL     OW20083   6.638   3.270   2.197
 6395SOL    HW120084   6.585   3.303   2.275
 6395SOL    HW220085   6.689   3.346   2.156
 6396SOL     OW20086   6.638   3.494   6.305
 6396SOL    HW120087   6.696   3.575   6.310
 6396SOL    HW220088   6.632   3.464   6.209
 6397SOL     OW20089   5.934   1.330   2.059
 6397SOL    HW120090   5.886   1.253   2.017
 6397SOL    HW220091   6.031   1.326   2.035
 6398SOL     OW20092   2.022   6.964   1.726
 6398SOL    HW120093   1.951   6.962   1.656
 6398SOL    HW220094   2.107   6.926   1.689
 6399SOL     OW20095   1.525   0.467   6.500
 6399SOL    HW120096   1.574   0.486   6.414
 6399SOL    HW220097   1.511   0.369   6.509
 6400SOL     OW20098   1.811   4.966   2.390
 6400SOL    HW120099   1.891   4.968   2.449
 6400SOL    HW220100   1.830   5.018   2.306
 6401SOL     OW20101   5.775   4.977   3.298
 6401SOL    HW120102   5.746   4.882   3.311
 6401SOL    HW220103   5.872   4.985   3.320
 6402SOL     OW20104   2.154   3.082   3.919
 6402SOL    HW120105   2.218   3.076   3.842
 6402SOL    HW220106   2.155   2.997   3.970
 6403SOL     OW20107   6.137   5.879   5.552
 6403SOL    HW120108   6.215   5.817   5.554
 6403SOL    HW220109   6.157   5.959   5.608
 6404SOL     OW20110   4.712   1.128   2.459
 6404SOL    HW120111   4.661   1.108   2.376
 6404SOL    HW220112   4.697   1.223   2.487
 6405SOL     OW20113   4.449   0.750   4.591
 6405SOL    HW120114   4.466   0.835   4.540
 6405SOL    HW220115   4.494   0.755   4.680
 6406SOL     OW20116   0.946   2.769   2.235
 6406SOL    HW120117   0.902   2.768   2.325
 6406SOL    HW220118   0.914   2.849   2.184
 6407SOL     OW20119   2.343   0.091   4.573
 6407SOL    HW120120   2.409   0.045   4.513
 6407SOL    HW220121   2.266   0.029   4.590
 6408SOL     OW20122   5.520   1.049   1.255
 6408SOL    HW120123   5.594   1.045   1.323
 6408SOL    HW220124   5.541   0.987   1.180
 6409SOL     OW20125   7.018   4.704   3.141
 6409SOL    HW120126   0.069   4.768   3.126
 6409SOL    HW220127   0.002   4.628   3.078
 6410SOL     OW20128   1.748   0.862   5.864
 6410SOL    HW120129   1.738   0.934   5.795
 6410SOL    HW220130   1.788   0.901   5.947
 6411SOL     OW20131   0.855   2.780   2.506
 6411SOL    HW120132   0.761   2.812   2.518
 6411SOL    HW220133   0.919   2.850   2.537
 6412SOL     OW20134   1.969   0.580   6.035
 6412SOL    HW120135   2.057   0.624   6.025
 6412SOL    HW220136   1.949   0.568   6.133
 6413SOL     OW20137   3.672   4.952   3.996
 6413SOL    HW120138   3.695   4.937   3.900
 6413SOL    HW220139   3.586   5.002   4.002
 6414SOL     OW20140   5.434   0.485   6.525
 6414SOL    HW120141   5.392   0.568   6.489
 6414SOL    HW220142   5.415   0.477   6.623
 6415SOL     OW20143   1.482   3.270   4.096
 6415SOL    HW120144   1.561   3.300   4.041
 6415SOL    HW220145   1.446   3.348   4.147
 6416SOL     OW20146   2.217   6.784   6.059
 6416SOL    HW120147   2.246   6.819   5.970
 6416SOL    HW220148   2.117   6.779   6.062
 6417SOL     OW20149   5.443   3.189   0.503
 6417SOL    HW120150   5.531   3.221   0.538
 6417SOL    HW220151   5.435   3.091   0.519
 6418SOL     OW20152   5.047   4.065   2.606
 6418SOL    HW120153   5.103   4.110   2.675
 6418SOL    HW220154   5.056   3.966   2.614
 6419SOL     OW20155   1.194   5.635   3.207
 6419SOL    HW120156   1.234   5.725   3.228
 6419SOL    HW220157   1.267   5.568   3.200
 6420SOL     OW20158   2.393   0.986   4.060
 6420SOL    HW120159   2.307   1.025   4.027
 6420SOL    HW220160   2.397   0.889   4.036
 6421SOL     OW20161   4.112   0.506   1.282
 6421SOL    HW120162   4.018   0.513   1.251
 6421SOL    HW220163   4.116   0.453   1.366
 6422SOL     OW20164   6.352   1.826   5.061
 6422SOL    HW120165   6.328   1.780   5.147
 6422SOL    HW220166   6.430   1.886   5.077
 6423SOL     OW20167   4.950   5.181   4.915
 6423SOL    HW120168   4.909   5.209   4.829
 6423SOL    HW220169   4.989   5.090   4.906
 6424SOL     OW20170   1.107   4.177   4.981
 6424SOL    HW120171   1.042   4.253   4.980
 6424SOL    HW220172   1.122   4.145   4.887
 6425SOL     OW20173   6.791   5.760   3.357
 6425SOL    HW120174   6.713   5.747   3.418
 6425SOL    HW220175   6.874   5.771   3.412
 6426SOL     OW20176   6.110   5.588   3.569
 6426SOL    HW120177   6.071   5.504   3.604
 6426SOL    HW220178   6.208   5.575   3.549
 6427SOL     OW20179   2.969   3.638   3.412
 6427SOL    HW120180   3.061   3.676   3.415
 6427SOL    HW220181   2.915   3.677   3.487
 6428SOL     OW20182   6.065   3.371   0.381
 6428SOL    HW120183   6.028   3.339   0.468
 6428SOL    HW220184   6.165   3.372   0.385
 6429SOL     OW20185   0.109   1.075   5.702
 6429SOL    HW120186   0.161   1.125   5.771
 6429SOL    HW220187   0.086   1.136   5.626
 6430SOL     OW20188   6.492   1.226   4.230
 6430SOL    HW120189   6.477   1.138   4.276
 6430SOL    HW220190   6.492   1.212   4.131
 6431SOL     OW20191   4.530   6.406   3.285
 6431SOL    HW120192   4.445   6.360   3.260
 6431SOL    HW220193   4.608   6.350   3.257
 6432SOL     OW20194   4.004   4.588   5.919
 6432SOL    HW120195   4.035   4.604   5.825
 6432SOL    HW220196   4.079   4.552   5.974
 6433SOL     OW20197   3.070   4.885   6.766
 6433SOL    HW120198   3.109   4.797   6.794
 6433SOL    HW220199   2.972   4.874   6.751
 6434SOL     OW20200   2.980   0.374   6.425
 6434SOL    HW120201   2.909   0.310   6.454
 6434SOL    HW220202   3.068   0.346   6.462
 6435SOL     OW20203   6.039   6.856   0.567
 6435SOL    HW120204   6.090   6.770   0.556
 6435SOL    HW220205   6.073   6.904   0.647
 6436SOL     OW20206   1.378   3.476   3.148
 6436SOL    HW120207   1.409   3.383   3.127
 6436SOL    HW220208   1.279   3.481   3.138
 6437SOL     OW20209   1.649   2.481   0.549
 6437SOL    HW120210   1.676   2.504   0.642
 6437SOL    HW220211   1.577   2.412   0.551
 6438SOL     OW20212   0.377   4.992   6.185
 6438SOL    HW120213   0.304   4.935   6.149
 6438SOL    HW220214   0.337   5.068   6.237
 6439SOL     OW20215   5.191   0.606   2.518
 6439SOL    HW120216   5.152   0.520   2.550
 6439SOL    HW220217   5.259   0.588   2.447
 6440SOL     OW20218   3.090   1.110   5.541
 6440SOL    HW120219   3.054   1.128   5.633
 6440SOL    HW220220   3.046   1.171   5.475
 6441SOL     OW20221   0.350   0.893   1.562
 6441SOL    HW120222   0.309   0.814   1.608
 6441SOL    HW220223   0.449   0.883   1.562
 6442SOL     OW20224   3.001   1.701   4.711
 6442SOL    HW120225   3.049   1.624   4.669
 6442SOL    HW220226   3.015   1.700   4.810
 6443SOL     OW20227   3.270   3.089   5.736
 6443SOL    HW120228   3.247   2.996   5.705
 6443SOL    HW220229   3.188   3.135   5.768
 6444SOL     OW20230   6.084   2.475   4.335
 6444SOL    HW120231   6.167   2.479   4.391
 6444SOL    HW220232   6.103   2.422   4.252
 6445SOL     OW20233   3.829   3.352   3.303
 6445SOL    HW120234   3.748   3.317   3.351
 6445SOL    HW220235   3.819   3.451   3.289
 6446SOL     OW20236   0.325   1.529   0.262
 6446SOL    HW120237   0.350   1.486   0.175
 6446SOL    HW220238   0.265   1.607   0.245
 6447SOL     OW20239   0.016   4.395   2.574
 6447SOL    HW120240   0.029   4.403   2.475
 6447SOL    HW220241   6.943   4.382   2.594
 6448SOL     OW20242   5.704   4.831   1.541
 6448SOL    HW120243   5.630   4.844   1.474
 6448SOL    HW220244   5.737   4.737   1.536
 6449SOL     OW20245   3.142   5.457   1.748
 6449SOL    HW120246   3.072   5.476   1.678
 6449SOL    HW220247   3.233   5.474   1.709
 6450SOL     OW20248   1.322   3.452   0.112
 6450SOL    HW120249   1.394   3.435   0.044
 6450SOL    HW220250   1.251   3.509   0.071
 6451SOL     OW20251   2.064   0.953   5.579
 6451SOL    HW120252   1.976   0.909   5.562
 6451SOL    HW220253   2.099   0.923   5.668
 6452SOL     OW20254   4.755   4.176   2.362
 6452SOL    HW120255   4.738   4.096   2.419
 6452SOL    HW220256   4.797   4.148   2.276
 6453SOL     OW20257   2.542   0.661   1.588
 6453SOL    HW120258   2.631   0.642   1.629
 6453SOL    HW220259   2.545   0.751   1.543
 6454SOL     OW20260   0.806   0.952   2.834
 6454SOL    HW120261   0.714   0.988   2.850
 6454SOL    HW220262   0.855   1.014   2.773
 6455SOL     OW20263   6.988   3.023   3.660
 6455SOL    HW120264   6.914   2.956   3.662
 6455SOL    HW220265   7.023   3.032   3.566
 6456SOL     OW20266   1.279   0.611   3.620
 6456SOL    HW120267   1.297   0.557   3.702
 6456SOL    HW220268   1.322   0.701   3.630
 6457SOL     OW20269   5.451   0.367   1.761
 6457SOL    HW120270   5.403   0.285   1.791
 6457SOL    HW220271   5.406   0.448   1.800
 6458SOL     OW20272   1.487   5.109   4.310
 6458SOL    HW120273   1.492   5.189   4.251
 6458SOL    HW220274   1.578   5.088   4.346
 6459SOL     OW20275   6.298   3.178   2.288
 6459SOL    HW120276   6.255   3.098   2.247
 6459SOL    HW220277   6.366   3.149   2.355
 6460SOL     OW20278   6.005   5.863   6.170
 6460SOL    HW120279   6.040   5.769   6.163
 6460SOL    HW220280   6.050   5.910   6.245
 6461SOL     OW20281   3.019   4.408   6.700
 6461SOL    HW120282   3.116   4.432   6.699
 6461SOL    HW220283   3.010   4.310   6.720
 6462SOL     OW20284   1.116   2.860   4.609
 6462SOL    HW120285   1.054   2.925   4.566
 6462SOL    HW220286   1.210   2.881   4.581
 6463SOL     OW20287   5.404   0.599   0.557
 6463SOL    HW120288   5.433   0.564   0.467
 6463SOL    HW220289   5.421   0.528   0.626
 6464SOL     OW20290   1.895   5.705   5.049
 6464SOL    HW120291   1.949   5.660   4.978
 6464SOL    HW220292   1.916   5.664   5.138
 6465SOL     OW20293   0.254   3.002   3.076
 6465SOL    HW120294   0.274   3.080   3.017
 6465SOL    HW220295   0.297   3.016   3.166
 6466SOL     OW20296   6.121   0.947   6.416
 6466SOL    HW120297   6.081   0.884   6.483
 6466SOL    HW220298   6.081   1.038   6.429
 6467SOL     OW20299   3.741   0.217   1.271
 6467SOL    HW120300   3.801   0.265   1.207
 6467SOL    HW220301   3.649   0.214   1.233
 6468SOL     OW20302   3.600   6.790   1.925
 6468SOL    HW120303   3.582   6.692   1.924
 6468SOL    HW220304   3.538   6.835   1.990
 6469SOL     OW20305   3.888   2.171   3.507
 6469SOL    HW120306   3.809   2.183   3.447
 6469SOL    HW220307   3.858   2.131   3.594
 6470SOL     OW20308   6.192   2.801   0.981
 6470SOL    HW120309   6.202   2.900   0.986
 6470SOL    HW220310   6.098   2.776   1.006
 6471SOL     OW20311   0.653   6.389   5.471
 6471SOL    HW120312   0.709   6.466   5.502
 6471SOL    HW220313   0.557   6.410   5.486
 6472SOL     OW20314   6.548   5.864   2.858
 6472SOL    HW120315   6.602   5.912   2.927
 6472SOL    HW220316   6.452   5.860   2.887
 6473SOL     OW20317   2.249   1.413   4.795
 6473SOL    HW120318   2.306   1.460   4.862
 6473SOL    HW220319   2.210   1.330   4.837
 6474SOL     OW20320   4.691   5.892   5.494
 6474SOL    HW120321   4.614   5.909   5.432
 6474SOL    HW220322   4.769   5.949   5.468
 6475SOL     OW20323   5.758   4.425   3.933
 6475SOL    HW120324   5.727   4.383   4.019
 6475SOL    HW220325   5.784   4.520   3.950
 6476SOL     OW20326   5.057   2.885   0.100
 6476SOL    HW120327   5.118   2.897   0.022
 6476SOL    HW220328   5.058   2.789   0.128
 6477SOL     OW20329   6.416   5.460   0.579
 6477SOL    HW120330   6.462   5.515   0.647
 6477SOL    HW220331   6.461   5.371   0.572
 6478SOL     OW20332   2.880   6.516   2.641
 6478SOL    HW120333   2.829   6.447   2.589
 6478SOL    HW220334   2.837   6.606   2.628
 6479SOL     OW20335   3.849   5.771   4.383
 6479SOL    HW120336   3.816   5.715   4.460
 6479SOL    HW220337   3.904   5.714   4.322
 6480SOL     OW20338   2.521   0.956   6.958
 6480SOL    HW120339   2.509   0.865   6.999
 6480SOL    HW220340   2.440   0.978   6.903
 6481SOL     OW20341   3.430   2.447   1.724
 6481SOL    HW120342   3.351   2.404   1.767
 6481SOL    HW220343   3.512   2.427   1.779
 6482SOL     OW20344   6.234   1.945   6.427
 6482SOL    HW120345   6.251   1.918   6.522
 6482SOL    HW220346   6.289   2.027   6.406
 6483SOL     OW20347   7.010   6.800   3.063
 6483SOL    HW120348   6.912   6.821   3.065
 6483SOL    HW220349   0.018   6.783   3.156
 6484SOL     OW20350   2.889   1.136   2.626
 6484SOL    HW120351   2.988   1.130   2.613
 6484SOL    HW220352   2.853   1.047   2.656
 6485SOL     OW20353   2.058   5.442   3.938
 6485SOL    HW120354   2.044   5.541   3.941
 6485SOL    HW220355   2.149   5.423   3.903
 6486SOL     OW20356   1.062   4.951   2.278
 6486SOL    HW120357   0.985   4.988   2.329
 6486SOL    HW220358   1.145   4.957   2.333
 6487SOL     OW20359   1.297   6.598   5.560
 6487SOL    HW120360   1.286   6.651   5.476
 6487SOL    HW220361   1.248   6.512   5.552
 6488SOL     OW20362   4.122   5.535   4.550
 6488SOL    HW120363   4.158   5.623   4.520
 6488SOL    HW220364   4.157   5.514   4.641
 6489SOL     OW20365   3.667   3.658   6.200
 6489SOL    HW120366   3.673   3.579   6.140
 6489SOL    HW220367   3.734   3.649   6.274
 6490SOL     OW20368   3.400   0.837   6.267
 6490SOL    HW120369   3.413   0.799   6.175
 6490SOL    HW220370   3.307   0.873   6.276
 6491SOL     OW20371   3.254   0.313   1.400
 6491SOL    HW120372   3.259   0.214   1.414
 6491SOL    HW220373   3.237   0.358   1.488
 6492SOL     OW20374   3.772   3.815   5.341
 6492SOL    HW120375   3.802   3.764   5.421
 6492SOL    HW220376   3.811   3.907   5.343
 6493SOL     OW20377   1.458   4.326   6.723
 6493SOL    HW120378   1.398   4.384   6.667
 6493SOL    HW220379   1.553   4.349   6.704
 6494SOL     OW20380   0.068   6.903   2.678
 6494SOL    HW120381   0.028   6.983   2.634
 6494SOL    HW220382   0.070   6.827   2.613
 6495SOL     OW20383   7.005   0.975   4.611
 6495SOL    HW120384   6.948   0.981   4.529
 6495SOL    HW220385   0.054   0.909   4.596
 6496SOL     OW20386   5.569   0.647   2.617
 6496SOL    HW120387   5.654   0.629   2.567
 6496SOL    HW220388   5.523   0.560   2.635
 6497SOL     OW20389   0.485   0.707   1.328
 6497SOL    HW120390   0.515   0.727   1.422
 6497SOL    HW220391   0.550   0.645   1.284
 6498SOL     OW20392   0.773   3.560   4.589
 6498SOL    HW120393   0.829   3.556   4.507
 6498SOL    HW220394   0.816   3.506   4.661
 6499SOL     OW20395   5.349   3.805   5.434
 6499SOL    HW120396   5.393   3.738   5.374
 6499SOL    HW220397   5.319   3.760   5.518
 6500SOL     OW20398   0.059   4.066   3.448
 6500SOL    HW120399   0.095   3.978   3.416
 6500SOL    HW220400   7.000   4.088   3.398
 6501SOL     OW20401   6.725   1.396   0.807
 6501SOL    HW120402   6.670   1.330   0.756
 6501SOL    HW220403   6.739   1.478   0.752
 6502SOL     OW20404   0.195   3.923   2.120
 6502SOL    HW120405   0.168   3.844   2.175
 6502SOL    HW220406   0.292   3.943   2.137
 6503SOL     OW20407   5.572   0.930   3.825
 6503SOL    HW120408   5.517   0.998   3.778
 6503SOL    HW220409   5.668   0.942   3.800
 6504SOL     OW20410   3.321   6.563   5.928
 6504SOL    HW120411   3.236   6.601   5.966
 6504SOL    HW220412   3.381   6.533   6.002
 6505SOL     OW20413   5.544   6.204   6.440
 6505SOL    HW120414   5.501   6.256   6.513
 6505SOL    HW220415   5.564   6.264   6.363
 6506SOL     OW20416   0.060   3.112   3.397
 6506SOL    HW120417   7.006   3.124   3.336
 6506SOL    HW220418   0.128   3.053   3.353
 6507SOL     OW20419   2.435   5.965   6.443
 6507SOL    HW120420   2.344   5.988   6.477
 6507SOL    HW220421   2.428   5.893   6.374
 6508SOL     OW20422   1.971   0.483   3.255
 6508SOL    HW120423   1.972   0.503   3.353
 6508SOL    HW220424   2.052   0.428   3.231
 6509SOL     OW20425   4.660   2.153   4.604
 6509SOL    HW120426   4.701   2.062   4.610
 6509SOL    HW220427   4.658   2.195   4.694
 6510SOL     OW20428   6.112   4.712   6.915
 6510SOL    HW120429   6.119   4.705   7.014
 6510SOL    HW220430   6.135   4.805   6.886
 6511SOL     OW20431   4.279   1.127   4.812
 6511SOL    HW120432   4.299   1.036   4.849
 6511SOL    HW220433   4.347   1.192   4.846
 6512SOL     OW20434   3.588   6.847   2.247
 6512SOL    HW120435   3.625   6.922   2.301
 6512SOL    HW220436   3.661   6.804   2.194
 6513SOL     OW20437   2.335   5.526   3.554
 6513SOL    HW120438   2.289   5.503   3.640
 6513SOL    HW220439   2.283   5.596   3.506
 6514SOL     OW20440   5.464   1.323   4.211
 6514SOL    HW120441   5.488   1.327   4.308
 6514SOL    HW220442   5.409   1.404   4.188
 6515SOL     OW20443   1.668   3.211   3.396
 6515SOL    HW120444   1.757   3.187   3.356
 6515SOL    HW220445   1.637   3.298   3.356
 6516SOL     OW20446   0.349   3.193   1.254
 6516SOL    HW120447   0.429   3.198   1.314
 6516SOL    HW220448   0.354   3.109   1.199
 6517SOL     OW20449   6.749   1.859   2.086
 6517SOL    HW120450   6.662   1.906   2.076
 6517SOL    HW220451   6.733   1.761   2.096
 6518SOL     OW20452   0.552   0.376   1.401
 6518SOL    HW120453   0.621   0.404   1.335
 6518SOL    HW220454   0.589   0.383   1.494
 6519SOL     OW20455   0.484   1.470   2.790
 6519SOL    HW120456   0.477   1.545   2.725
 6519SOL    HW220457   0.407   1.473   2.853
 6520SOL     OW20458   0.210   4.913   0.279
 6520SOL    HW120459   0.246   4.913   0.372
 6520SOL    HW220460   0.221   4.822   0.239
 6521SOL     OW20461   1.930   2.942   4.529
 6521SOL    HW120462   1.962   2.847   4.537
 6521SOL    HW220463   1.965   2.995   4.606
 6522SOL     OW20464   2.930   4.805   5.844
 6522SOL    HW120465   3.015   4.751   5.840
 6522SOL    HW220466   2.909   4.839   5.752
 6523SOL     OW20467   3.987   0.579   6.848
 6523SOL    HW120468   4.006   0.562   6.945
 6523SOL    HW220469   4.052   0.646   6.813
 6524SOL     OW20470   2.647   3.267   1.247
 6524SOL    HW120471   2.687   3.231   1.331
 6524SOL    HW220472   2.549   3.282   1.260
 6525SOL     OW20473   2.048   4.718   2.927
 6525SOL    HW120474   2.026   4.624   2.901
 6525SOL    HW220475   2.014   4.735   3.019
 6526SOL     OW20476   0.869   0.329   1.715
 6526SOL    HW120477   0.778   0.371   1.711
 6526SOL    HW220478   0.887   0.298   1.809
 6527SOL     OW20479   6.649   2.153   6.854
 6527SOL    HW120480   6.563   2.118   6.817
 6527SOL    HW220481   6.644   2.157   6.953
 6528SOL     OW20482   5.903   1.151   5.444
 6528SOL    HW120483   5.896   1.177   5.540
 6528SOL    HW220484   5.976   1.203   5.400
 6529SOL     OW20485   2.244   0.526   2.345
 6529SOL    HW120486   2.338   0.553   2.367
 6529SOL    HW220487   2.208   0.468   2.417
 6530SOL     OW20488   0.022   2.126   1.229
 6530SOL    HW120489   6.971   2.128   1.295
 6530SOL    HW220490   0.083   2.203   1.246
 6531SOL     OW20491   4.898   3.359   5.027
 6531SOL    HW120492   4.864   3.331   5.117
 6531SOL    HW220493   4.894   3.459   5.020
 6532SOL     OW20494   1.053   1.290   1.029
 6532SOL    HW120495   1.113   1.342   1.090
 6532SOL    HW220496   1.103   1.267   0.945
 6533SOL     OW20497   3.927   6.122   0.283
 6533SOL    HW120498   4.002   6.184   0.260
 6533SOL    HW220499   3.880   6.094   0.200
 6534SOL     OW20500   5.077   5.073   1.602
 6534SOL    HW120501   5.000   5.136   1.606
 6534SOL    HW220502   5.159   5.116   1.641
 6535SOL     OW20503   6.878   4.507   4.343
 6535SOL    HW120504   6.884   4.407   4.338
 6535SOL    HW220505   6.818   4.534   4.417
 6536SOL     OW20506   0.494   2.044   4.983
 6536SOL    HW120507   0.500   1.947   5.008
 6536SOL    HW220508   0.576   2.071   4.934
 6537SOL     OW20509   0.060   4.446   6.473
 6537SOL    HW120510   6.988   4.428   6.491
 6537SOL    HW220511   0.080   4.542   6.490
 6538SOL     OW20512   1.793   3.857   5.775
 6538SOL    HW120513   1.839   3.775   5.741
 6538SOL    HW220514   1.760   3.840   5.868
 6539SOL     OW20515   5.074   0.905   6.969
 6539SOL    HW120516   5.068   1.002   6.946
 6539SOL    HW220517   4.984   0.871   6.998
 6540SOL     OW20518   3.723   2.862   6.223
 6540SOL    HW120519   3.798   2.845   6.286
 6540SOL    HW220520   3.684   2.953   6.241
 6541SOL     OW20521   5.052   1.511   5.108
 6541SOL    HW120522   5.074   1.467   5.195
 6541SOL    HW220523   5.075   1.608   5.113
 6542SOL     OW20524   0.665   2.828   3.815
 6542SOL    HW120525   0.620   2.836   3.904
 6542SOL    HW220526   0.692   2.733   3.800
 6543SOL     OW20527   4.396   3.037   5.414
 6543SOL    HW120528   4.365   2.952   5.371
 6543SOL    HW220529   4.368   3.115   5.360
 6544SOL     OW20530   1.332   6.810   3.621
 6544SOL    HW120531   1.279   6.894   3.613
 6544SOL    HW220532   1.277   6.732   3.591
 6545SOL     OW20533   4.299   0.640   0.866
 6545SOL    HW120534   4.341   0.712   0.811
 6545SOL    HW220535   4.314   0.658   0.963
 6546SOL     OW20536   2.610   4.140   6.033
 6546SOL    HW120537   2.636   4.118   5.939
 6546SOL    HW220538   2.514   4.169   6.035
 6547SOL     OW20539   4.712   1.070   6.576
 6547SOL    HW120540   4.700   1.114   6.487
 6547SOL    HW220541   4.729   0.972   6.562
 6548SOL     OW20542   1.336   3.875   1.237
 6548SOL    HW120543   1.361   3.864   1.141
 6548SOL    HW220544   1.416   3.904   1.290
 6549SOL     OW20545   4.507   0.857   2.073
 6549SOL    HW120546   4.424   0.888   2.028
 6549SOL    HW220547   4.500   0.760   2.095
 6550SOL     OW20548   0.067   6.642   4.545
 6550SOL    HW120549   0.128   6.711   4.585
 6550SOL    HW220550   0.020   6.593   4.619
 6551SOL     OW20551   1.986   3.546   2.003
 6551SOL    HW120552   2.072   3.494   1.998
 6551SOL    HW220553   1.961   3.577   1.911
 6552SOL     OW20554   1.680   0.414   0.347
 6552SOL    HW120555   1.679   0.344   0.418
 6552SOL    HW220556   1.749   0.483   0.369
 6553SOL     OW20557   0.082   2.206   3.113
 6553SOL    HW120558   0.127   2.266   3.180
 6553SOL    HW220559   0.023   2.141   3.160
 6554SOL     OW20560   1.481   7.011   4.330
 6554SOL    HW120561   1.386   6.981   4.330
 6554SOL    HW220562   1.491   0.067   4.389
 6555SOL     OW20563   4.855   2.117   3.029
 6555SOL    HW120564   4.931   2.090   2.971
 6555SOL    HW220565   4.801   2.036   3.054
 6556SOL     OW20566   5.902   4.577   3.530
 6556SOL    HW120567   5.918   4.488   3.573
 6556SOL    HW220568   5.982   4.603   3.476
 6557SOL     OW20569   2.439   0.492   3.026
 6557SOL    HW120570   2.455   0.587   3.054
 6557SOL    HW220571   2.349   0.485   2.983
 6558SOL     OW20572   6.711   5.023   6.978
 6558SOL    HW120573   6.673   4.936   7.010
 6558SOL    HW220574   6.755   5.070   0.030
 6559SOL     OW20575   0.826   3.884   0.129
 6559SOL    HW120576   0.728   3.886   0.111
 6559SOL    HW220577   0.876   3.877   0.042
 6560SOL     OW20578   3.957   4.675   1.764
 6560SOL    HW120579   4.048   4.673   1.805
 6560SOL    HW220580   3.923   4.769   1.765
 6561SOL     OW20581   3.459   4.283   1.230
 6561SOL    HW120582   3.457   4.184   1.227
 6561SOL    HW220583   3.438   4.320   1.140
 6562SOL     OW20584   5.975   1.927   1.306
 6562SOL    HW120585   5.882   1.920   1.270
 6562SOL    HW220586   5.979   1.885   1.397
 6563SOL     OW20587   5.164   5.429   6.275
 6563SOL    HW120588   5.202   5.520   6.259
 6563SOL    HW220589   5.119   5.428   6.364
 6564SOL     OW20590   6.326   3.873   2.402
 6564SOL    HW120591   6.281   3.791   2.368
 6564SOL    HW220592   6.373   3.852   2.488
 6565SOL     OW20593   6.043   0.941   2.672
 6565SOL    HW120594   6.113   0.870   2.669
 6565SOL    HW220595   6.041   0.983   2.763
 6566SOL     OW20596   4.195   6.657   2.219
 6566SOL    HW120597   4.160   6.696   2.304
 6566SOL    HW220598   4.119   6.618   2.166
 6567SOL     OW20599   4.976   0.725   2.446
 6567SOL    HW120600   4.971   0.824   2.435
 6567SOL    HW220601   5.065   0.700   2.484
 6568SOL     OW20602   3.413   1.708   4.117
 6568SOL    HW120603   3.413   1.684   4.214
 6568SOL    HW220604   3.318   1.719   4.086
 6569SOL     OW20605   2.900   2.952   0.375
 6569SOL    HW120606   2.898   2.876   0.440
 6569SOL    HW220607   2.993   2.987   0.368
 6570SOL     OW20608   2.866   0.848   2.356
 6570SOL    HW120609   2.964   0.850   2.378
 6570SOL    HW220610   2.831   0.941   2.355
 6571SOL     OW20611   2.884   4.930   2.302
 6571SOL    HW120612   2.948   4.966   2.235
 6571SOL    HW220613   2.831   4.855   2.261
 6572SOL     OW20614   0.054   4.159   4.484
 6572SOL    HW120615   0.075   4.063   4.501
 6572SOL    HW220616   0.136   4.214   4.503
 6573SOL     OW20617   0.485   1.969   2.670
 6573SOL    HW120618   0.584   1.980   2.673
 6573SOL    HW220619   0.452   1.935   2.758
 6574SOL     OW20620   2.276   5.637   3.045
 6574SOL    HW120621   2.226   5.721   3.026
 6574SOL    HW220622   2.220   5.577   3.101
 6575SOL     OW20623   0.831   0.105   3.984
 6575SOL    HW120624   0.760   0.100   3.913
 6575SOL    HW220625   0.864   0.013   4.004
 6576SOL     OW20626   2.667   6.326   0.257
 6576SOL    HW120627   2.680   6.277   0.344
 6576SOL    HW220628   2.643   6.421   0.276
 6577SOL     OW20629   1.332   1.757   3.275
 6577SOL    HW120630   1.241   1.718   3.288
 6577SOL    HW220631   1.352   1.821   3.349
 6578SOL     OW20632   0.567   6.193   2.600
 6578SOL    HW120633   0.581   6.122   2.669
 6578SOL    HW220634   0.601   6.160   2.511
 6579SOL     OW20635   0.163   3.363   3.360
 6579SOL    HW120636   0.086   3.426   3.358
 6579SOL    HW220637   0.129   3.269   3.369
 6580SOL     OW20638   0.573   1.662   0.368
 6580SOL    HW120639   0.534   1.588   0.313
 6580SOL    HW220640   0.501   1.725   0.397
 6581SOL     OW20641   2.392   0.609   0.689
 6581SOL    HW120642   2.298   0.577   0.697
 6581SOL    HW220643   2.421   0.604   0.593
 6582SOL     OW20644   6.887   1.214   3.481
 6582SOL    HW120645   6.839   1.275   3.544
 6582SOL    HW220646   6.890   1.256   3.390
 6583SOL     OW20647   5.044   6.927   6.085
 6583SOL    HW120648   5.020   6.834   6.058
 6583SOL    HW220649   5.044   6.986   6.005
 6584SOL     OW20650   4.785   2.411   0.670
 6584SOL    HW120651   4.811   2.338   0.734
 6584SOL    HW220652   4.779   2.374   0.577
 6585SOL     OW20653   6.126   5.613   0.218
 6585SOL    HW120654   6.163   5.666   0.295
 6585SOL    HW220655   6.038   5.574   0.244
 6586SOL     OW20656   5.708   1.188   5.884
 6586SOL    HW120657   5.626   1.138   5.912
 6586SOL    HW220658   5.785   1.162   5.942
 6587SOL     OW20659   1.728   5.003   5.544
 6587SOL    HW120660   1.784   4.935   5.497
 6587SOL    HW220661   1.739   4.991   5.643
 6588SOL     OW20662   0.565   2.794   1.589
 6588SOL    HW120663   0.467   2.814   1.601
 6588SOL    HW220664   0.603   2.854   1.519
 6589SOL     OW20665   4.562   0.215   1.640
 6589SOL    HW120666   4.623   0.145   1.676
 6589SOL    HW220667   4.606   0.263   1.564
 6590SOL     OW20668   7.016   1.034   6.730
 6590SOL    HW120669   0.044   1.066   6.651
 6590SOL    HW220670   0.039   1.057   6.814
 6591SOL     OW20671   5.943   5.799   3.571
 6591SOL    HW120672   5.890   5.821   3.489
 6591SOL    HW220673   6.010   5.728   3.549
 6592SOL     OW20674   5.341   6.944   3.119
 6592SOL    HW120675   5.249   6.975   3.095
 6592SOL    HW220676   5.359   6.965   3.215
 6593SOL     OW20677   2.651   2.297   2.781
 6593SOL    HW120678   2.730   2.266   2.729
 6593SOL    HW220679   2.602   2.218   2.818
 6594SOL     OW20680   3.788   1.253   6.391
 6594SOL    HW120681   3.700   1.237   6.434
 6594SOL    HW220682   3.774   1.275   6.294
 6595SOL     OW20683   1.781   4.159   6.912
 6595SOL    HW120684   1.877   4.188   6.906
 6595SOL    HW220685   1.766   4.081   6.851
 6596SOL     OW20686   3.712   6.833   4.119
 6596SOL    HW120687   3.696   6.754   4.060
 6596SOL    HW220688   3.729   6.802   4.213
 6597SOL     OW20689   1.090   5.633   0.940
 6597SOL    HW120690   1.105   5.672   1.031
 6597SOL    HW220691   1.081   5.707   0.873
 6598SOL     OW20692   1.928   4.422   3.790
 6598SOL    HW120693   1.954   4.390   3.881
 6598SOL    HW220694   1.923   4.522   3.790
 6599SOL     OW20695   4.576   6.300   6.333
 6599SOL    HW120696   4.572   6.348   6.245
 6599SOL    HW220697   4.502   6.333   6.391
 6600SOL     OW20698   3.574   6.553   5.503
 6600SOL    HW120699   3.489   6.502   5.517
 6600SOL    HW220700   3.633   6.502   5.440
 6601SOL     OW20701   1.470   2.273   5.202
 6601SOL    HW120702   1.468   2.310   5.109
 6601SOL    HW220703   1.381   2.290   5.246
 6602SOL     OW20704   1.827   0.844   1.605
 6602SOL    HW120705   1.745   0.793   1.633
 6602SOL    HW220706   1.838   0.839   1.506
 6603SOL     OW20707   0.337   3.066   3.323
 6603SOL    HW120708   0.421   3.104   3.283
 6603SOL    HW220709   0.352   3.046   3.420
 6604SOL     OW20710   1.384   6.793   1.590
 6604SOL    HW120711   1.319   6.744   1.532
 6604SOL    HW220712   1.411   6.735   1.667
 6605SOL     OW20713   5.667   5.695   1.776
 6605SOL    HW120714   5.730   5.717   1.701
 6605SOL    HW220715   5.648   5.778   1.827
 6606SOL     OW20716   6.719   5.565   2.206
 6606SOL    HW120717   6.729   5.638   2.273
 6606SOL    HW220718   6.747   5.598   2.116
 6607SOL     OW20719   1.176   4.613   3.223
 6607SOL    HW120720   1.189   4.556   3.142
 6607SOL    HW220721   1.121   4.563   3.290
 6608SOL     OW20722   6.327   7.011   6.988
 6608SOL    HW120723   6.408   6.961   6.956
 6608SOL    HW220724   6.255   6.945   7.012
 6609SOL     OW20725   5.500   0.954   0.131
 6609SOL    HW120726   5.472   0.864   0.098
 6609SOL    HW220727   5.419   1.004   0.162
 6610SOL     OW20728   2.010   6.533   6.574
 6610SOL    HW120729   2.088   6.470   6.575
 6610SOL    HW220730   1.991   6.560   6.480
 6611SOL     OW20731   5.023   3.009   3.085
 6611SOL    HW120732   4.978   3.046   3.166
 6611SOL    HW220733   4.962   2.944   3.040
 6612SOL     OW20734   6.283   1.785   6.215
 6612SOL    HW120735   6.261   1.847   6.290
 6612SOL    HW220736   6.342   1.712   6.248
 6613SOL     OW20737   6.343   6.625   5.496
 6613SOL    HW120738   6.341   6.545   5.555
 6613SOL    HW220739   6.413   6.689   5.528
 6614SOL     OW20740   4.729   5.045   6.879
 6614SOL    HW120741   4.763   5.065   6.971
 6614SOL    HW220742   4.729   4.946   6.864
 6615SOL     OW20743   1.562   5.997   1.276
 6615SOL    HW120744   1.561   5.911   1.326
 6615SOL    HW220745   1.545   5.980   1.179
 6616SOL     OW20746   4.351   0.107   6.442
 6616SOL    HW120747   4.430   0.150   6.398
 6616SOL    HW220748   4.374   0.082   6.536
 6617SOL     OW20749   4.596   5.626   3.323
 6617SOL    HW120750   4.560   5.643   3.231
 6617SOL    HW220751   4.537   5.672   3.390
 6618SOL     OW20752   1.604   2.261   2.321
 6618SOL    HW120753   1.613   2.231   2.416
 6618SOL    HW220754   1.538   2.336   2.315
 6619SOL     OW20755   5.620   6.818   3.649
 6619SOL    HW120756   5.548   6.868   3.698
 6619SOL    HW220757   5.589   6.725   3.631
 6620SOL     OW20758   2.042   2.706   5.390
 6620SOL    HW120759   1.974   2.712   5.464
 6620SOL    HW220760   2.097   2.624   5.403
 6621SOL     OW20761   3.549   3.441   5.689
 6621SOL    HW120762   3.541   3.526   5.637
 6621SOL    HW220763   3.515   3.364   5.635
 6622SOL     OW20764   5.957   5.831   1.960
 6622SOL    HW120765   6.010   5.907   1.996
 6622SOL    HW220766   5.859   5.848   1.974
 6623SOL     OW20767   3.485   2.851   4.812
 6623SOL    HW120768   3.541   2.771   4.831
 6623SOL    HW220769   3.543   2.925   4.778
 6624SOL     OW20770   0.085   4.530   5.441
 6624SOL    HW120771   0.075   4.441   5.485
 6624SOL    HW220772   0.182   4.552   5.432
 6625SOL     OW20773   5.151   2.325   5.304
 6625SOL    HW120774   5.163   2.423   5.323
 6625SOL    HW220775   5.233   2.289   5.260
 6626SOL     OW20776   3.250   6.670   5.604
 6626SOL    HW120777   3.172   6.711   5.651
 6626SOL    HW220778   3.334   6.689   5.656
 6627SOL     OW20779   1.748   6.578   4.734
 6627SOL    HW120780   1.672   6.568   4.799
 6627SOL    HW220781   1.780   6.673   4.735
 6628SOL     OW20782   6.206   4.795   4.885
 6628SOL    HW120783   6.202   4.698   4.862
 6628SOL    HW220784   6.202   4.807   4.984
 6629SOL     OW20785   4.726   6.578   6.495
 6629SOL    HW120786   4.658   6.527   6.547
 6629SOL    HW220787   4.686   6.662   6.460
 6630SOL     OW20788   3.717   1.817   1.359
 6630SOL    HW120789   3.710   1.916   1.370
 6630SOL    HW220790   3.749   1.796   1.266
 6631SOL     OW20791   2.324   5.658   3.975
 6631SOL    HW120792   2.265   5.735   3.951
 6631SOL    HW220793   2.310   5.635   4.072
 6632SOL     OW20794   0.846   0.854   1.047
 6632SOL    HW120795   0.934   0.819   1.015
 6632SOL    HW220796   0.861   0.942   1.093
 6633SOL     OW20797   2.299   5.197   6.323
 6633SOL    HW120798   2.371   5.207   6.254
 6633SOL    HW220799   2.287   5.100   6.344
 6634SOL     OW20800   4.922   1.407   4.645
 6634SOL    HW120801   4.919   1.312   4.613
 6634SOL    HW220802   4.978   1.413   4.727
 6635SOL     OW20803   4.768   4.388   3.028
 6635SOL    HW120804   4.864   4.388   3.002
 6635SOL    HW220805   4.738   4.294   3.047
 6636SOL     OW20806   4.651   1.641   6.874
 6636SOL    HW120807   4.747   1.658   6.850
 6636SOL    HW220808   4.646   1.609   6.968
 6637SOL     OW20809   0.913   0.070   6.972
 6637SOL    HW120810   0.995   0.097   7.022
 6637SOL    HW220811   0.872   0.151   6.930
 6638SOL     OW20812   3.099   3.354   3.334
 6638SOL    HW120813   3.004   3.371   3.308
 6638SOL    HW220814   3.109   3.364   3.433
 6639SOL     OW20815   4.933   4.533   6.705
 6639SOL    HW120816   4.878   4.458   6.739
 6639SOL    HW220817   5.029   4.507   6.705
 6640SOL     OW20818   6.429   1.667   4.803
 6640SOL    HW120819   6.360   1.686   4.732
 6640SOL    HW220820   6.405   1.716   4.886
 6641SOL     OW20821   2.913   1.471   0.009
 6641SOL    HW120822   2.876   1.520   0.088
 6641SOL    HW220823   2.880   1.377   0.010
 6642SOL     OW20824   2.646   5.917   6.641
 6642SOL    HW120825   2.654   6.003   6.692
 6642SOL    HW220826   2.585   5.930   6.563
 6643SOL     OW20827   4.909   6.573   0.163
 6643SOL    HW120828   4.883   6.491   0.214
 6643SOL    HW220829   4.964   6.547   0.084
 6644SOL     OW20830   2.973   5.912   1.463
 6644SOL    HW120831   2.953   5.985   1.399
 6644SOL    HW220832   3.061   5.930   1.508
 6645SOL     OW20833   5.865   3.679   1.104
 6645SOL    HW120834   5.788   3.644   1.158
 6645SOL    HW220835   5.932   3.605   1.090
 6646SOL     OW20836   4.246   1.213   5.227
 6646SOL    HW120837   4.198   1.181   5.308
 6646SOL    HW220838   4.343   1.229   5.249
 6647SOL     OW20839   4.570   0.338   1.378
 6647SOL    HW120840   4.543   0.428   1.411
 6647SOL    HW220841   4.489   0.285   1.354
 6648SOL     OW20842   3.724   6.664   3.888
 6648SOL    HW120843   3.761   6.575   3.862
 6648SOL    HW220844   3.645   6.685   3.831
 6649SOL     OW20845   5.916   1.636   6.640
 6649SOL    HW120846   6.001   1.688   6.638
 6649SOL    HW220847   5.870   1.645   6.551
 6650SOL     OW20848   3.907   1.462   6.105
 6650SOL    HW120849   3.960   1.517   6.040
 6650SOL    HW220850   3.921   1.365   6.086
 6651SOL     OW20851   1.877   0.483   5.813
 6651SOL    HW120852   1.952   0.499   5.749
 6651SOL    HW220853   1.903   0.516   5.904
 6652SOL     OW20854   0.389   4.106   6.773
 6652SOL    HW120855   0.474   4.136   6.815
 6652SOL    HW220856   0.323   4.082   6.844
 6653SOL     OW20857   3.906   4.342   1.620
 6653SOL    HW120858   3.877   4.283   1.695
 6653SOL    HW220859   3.845   4.421   1.613
 6654SOL     OW20860   1.903   5.500   1.771
 6654SOL    HW120861   1.863   5.589   1.750
 6654SOL    HW220862   1.992   5.513   1.815
 6655SOL     OW20863   0.578   6.855   3.809
 6655SOL    HW120864   0.531   6.808   3.735
 6655SOL    HW220865   0.540   6.826   3.897
 6656SOL     OW20866   5.878   2.228   3.073
 6656SOL    HW120867   5.802   2.176   3.111
 6656SOL    HW220868   5.872   2.323   3.102
 6657SOL     OW20869   5.664   4.290   5.524
 6657SOL    HW120870   5.614   4.357   5.469
 6657SOL    HW220871   5.601   4.217   5.551
 6658SOL     OW20872   4.926   1.172   4.951
 6658SOL    HW120873   4.908   1.128   5.039
 6658SOL    HW220874   4.839   1.193   4.906
 6659SOL     OW20875   2.461   2.873   0.865
 6659SOL    HW120876   2.455   2.966   0.828
 6659SOL    HW220877   2.435   2.808   0.794
 6660SOL     OW20878   1.937   4.821   1.267
 6660SOL    HW120879   1.855   4.819   1.324
 6660SOL    HW220880   1.979   4.730   1.265
 6661SOL     OW20881   1.539   0.586   5.087
 6661SOL    HW120882   1.544   0.601   4.988
 6661SOL    HW220883   1.461   0.529   5.109
 6662SOL     OW20884   1.183   0.700   0.400
 6662SOL    HW120885   1.087   0.707   0.424
 6662SOL    HW220886   1.219   0.613   0.432
 6663SOL     OW20887   6.543   6.461   4.794
 6663SOL    HW120888   6.496   6.384   4.749
 6663SOL    HW220889   6.602   6.508   4.728
 6664SOL     OW20890   2.363   6.778   0.361
 6664SOL    HW120891   2.356   6.797   0.264
 6664SOL    HW220892   2.391   6.861   0.410
 6665SOL     OW20893   1.513   6.002   4.453
 6665SOL    HW120894   1.608   5.970   4.447
 6665SOL    HW220895   1.463   5.945   4.518
 6666SOL     OW20896   6.222   6.284   6.357
 6666SOL    HW120897   6.172   6.202   6.387
 6666SOL    HW220898   6.157   6.357   6.340
 6667SOL     OW20899   6.738   6.498   6.007
 6667SOL    HW120900   6.830   6.465   5.985
 6667SOL    HW220901   6.737   6.598   6.010
 6668SOL     OW20902   6.910   6.191   0.927
 6668SOL    HW120903   6.865   6.187   1.017
 6668SOL    HW220904   6.933   6.098   0.898
 6669SOL     OW20905   2.823   2.202   1.809
 6669SOL    HW120906   2.784   2.239   1.725
 6669SOL    HW220907   2.830   2.274   1.877
 6670SOL     OW20908   3.348   1.478   5.369
 6670SOL    HW120909   3.407   1.492   5.448
 6670SOL    HW220910   3.322   1.567   5.331
 6671SOL     OW20911   4.470   6.500   0.377
 6671SOL    HW120912   4.414   6.424   0.408
 6671SOL    HW220913   4.566   6.473   0.376
 6672SOL     OW20914   6.540   2.663   6.977
 6672SOL    HW120915   6.462   2.724   6.991
 6672SOL    HW220916   6.519   2.599   6.903
 6673SOL     OW20917   4.911   4.443   3.624
 6673SOL    HW120918   4.992   4.402   3.668
 6673SOL    HW220919   4.828   4.400   3.661
 6674SOL     OW20920   0.616   3.507   0.261
 6674SOL    HW120921   0.691   3.555   0.214
 6674SOL    HW220922   0.534   3.511   0.205
 6675SOL     OW20923   6.047   3.548   0.677
 6675SOL    HW120924   6.010   3.459   0.649
 6675SOL    HW220925   5.992   3.621   0.637
 6676SOL     OW20926   0.441   3.420   5.014
 6676SOL    HW120927   0.454   3.516   5.039
 6676SOL    HW220928   0.356   3.385   5.056
 6677SOL     OW20929   0.960   1.735   5.991
 6677SOL    HW120930   0.865   1.703   5.994
 6677SOL    HW220931   0.997   1.722   5.899
 6678SOL     OW20932   3.643   3.759   0.360
 6678SOL    HW120933   3.601   3.669   0.365
 6678SOL    HW220934   3.628   3.808   0.446
 6679SOL     OW20935   3.318   0.748   4.311
 6679SOL    HW120936   3.340   0.703   4.397
 6679SOL    HW220937   3.304   0.846   4.326
 6680SOL     OW20938   4.599   6.798   6.418
 6680SOL    HW120939   4.626   6.884   6.375
 6680SOL    HW220940   4.502   6.803   6.443
 6681SOL     OW20941   4.622   5.332   0.633
 6681SOL    HW120942   4.700   5.370   0.584
 6681SOL    HW220943   4.566   5.278   0.570
 6682SOL     OW20944   2.244   4.735   0.998
 6682SOL    HW120945   2.164   4.752   0.940
 6682SOL    HW220946   2.251   4.807   1.066
 6683SOL     OW20947   5.982   3.241   5.261
 6683SOL    HW120948   6.077   3.272   5.267
 6683SOL    HW220949   5.972   3.181   5.181
 6684SOL     OW20950   3.640   6.395   2.099
 6684SOL    HW120951   3.726   6.423   2.056
 6684SOL    HW220952   3.572   6.467   2.086
 6685SOL     OW20953   5.258   2.841   6.219
 6685SOL    HW120954   5.220   2.777   6.152
 6685SOL    HW220955   5.293   2.922   6.172
 6686SOL     OW20956   5.053   5.400   4.024
 6686SOL    HW120957   4.987   5.393   4.098
 6686SOL    HW220958   5.033   5.482   3.969
 6687SOL     OW20959   0.819   3.176   1.820
 6687SOL    HW120960   0.785   3.095   1.774
 6687SOL    HW220961   0.915   3.189   1.797
 6688SOL     OW20962   5.376   4.330   1.511
 6688SOL    HW120963   5.319   4.346   1.591
 6688SOL    HW220964   5.438   4.253   1.530
 6689SOL     OW20965   4.021   3.633   6.178
 6689SOL    HW120966   3.934   3.678   6.200
 6689SOL    HW220967   4.062   3.677   6.098
 6690SOL     OW20968   0.063   0.064   1.129
 6690SOL    HW120969   0.040   0.093   1.222
 6690SOL    HW220970   0.139   7.024   1.132
 6691SOL     OW20971   2.568   0.705   2.119
 6691SOL    HW120972   2.605   0.797   2.109
 6691SOL    HW220973   2.468   0.710   2.130
 6692SOL     OW20974   4.041   3.873   3.650
 6692SOL    HW120975   4.080   3.859   3.741
 6692SOL    HW220976   3.969   3.943   3.656
 6693SOL     OW20977   3.629   2.213   5.257
 6693SOL    HW120978   3.688   2.294   5.261
 6693SOL    HW220979   3.539   2.236   5.292
 6694SOL     OW20980   4.149   5.773   1.493
 6694SOL    HW120981   4.156   5.694   1.555
 6694SOL    HW220982   4.106   5.744   1.408
 6695SOL     OW20983   3.097   2.258   0.175
 6695SOL    HW120984   3.130   2.316   0.100
 6695SOL    HW220985   3.015   2.299   0.214
 6696SOL     OW20986   3.334   2.943   4.234
 6696SOL    HW120987   3.358   2.912   4.142
 6696SOL    HW220988   3.409   2.922   4.297
 6697SOL     OW20989   4.629   1.701   3.244
 6697SOL    HW120990   4.666   1.611   3.219
 6697SOL    HW220991   4.529   1.698   3.238
 6698SOL     OW20992   3.352   2.031   0.809
 6698SOL    HW120993   3.345   1.931   0.803
 6698SOL    HW220994   3.448   2.056   0.823
 6699SOL     OW20995   2.608   5.856   5.757
 6699SOL    HW120996   2.601   5.916   5.837
 6699SOL    HW220997   2.667   5.779   5.779
 6700SOL     OW20998   6.967   1.337   1.538
 6700SOL    HW120999   6.930   1.426   1.566
 6700SOL    HW221000   0.032   1.351   1.494
 6701SOL     OW21001   5.633   5.238   1.477
 6701SOL    HW121002   5.713   5.186   1.507
 6701SOL    HW221003   5.639   5.331   1.513
 6702SOL     OW21004   2.968   2.278   1.224
 6702SOL    HW121005   3.010   2.200   1.271
 6702SOL    HW221006   2.911   2.328   1.289
 6703SOL     OW21007   5.970   0.512   0.632
 6703SOL    HW121008   5.914   0.477   0.557
 6703SOL    HW221009   6.015   0.435   0.678
 6704SOL     OW21010   3.864   2.098   3.056
 6704SOL    HW121011   3.793   2.047   3.007
 6704SOL    HW221012   3.822   2.142   3.136
 6705SOL     OW21013   6.058   3.560   1.722
 6705SOL    HW121014   6.099   3.625   1.659
 6705SOL    HW221015   6.067   3.467   1.685
 6706SOL     OW21016   1.408   5.140   1.501
 6706SOL    HW121017   1.378   5.084   1.579
 6706SOL    HW221018   1.344   5.128   1.425
 6707SOL     OW21019   5.965   6.828   3.355
 6707SOL    HW121020   5.919   6.886   3.422
 6707SOL    HW221021   6.055   6.866   3.333
 6708SOL     OW21022   6.370   4.831   0.589
 6708SOL    HW121023   6.347   4.909   0.531
 6708SOL    HW221024   6.308   4.755   0.569
 6709SOL     OW21025   1.655   6.598   2.363
 6709SOL    HW121026   1.713   6.542   2.303
 6709SOL    HW221027   1.652   6.557   2.454
 6710SOL     OW21028   3.960   1.338   6.608
 6710SOL    HW121029   3.929   1.255   6.655
 6710SOL    HW221030   3.902   1.355   6.528
 6711SOL     OW21031   5.025   6.445   5.315
 6711SOL    HW121032   5.099   6.381   5.297
 6711SOL    HW221033   5.052   6.537   5.287
 6712SOL     OW21034   5.636   3.954   0.836
 6712SOL    HW121035   5.616   3.906   0.750
 6712SOL    HW221036   5.724   3.923   0.871
 6713SOL     OW21037   2.495   0.592   2.459
 6713SOL    HW121038   2.469   0.552   2.548
 6713SOL    HW221039   2.582   0.551   2.429
 6714SOL     OW21040   6.478   0.863   5.939
 6714SOL    HW121041   6.462   0.961   5.943
 6714SOL    HW221042   6.409   0.816   5.994
 6715SOL     OW21043   1.040   0.346   0.646
 6715SOL    HW121044   0.952   0.326   0.689
 6715SOL    HW221045   1.080   0.427   0.689
 6716SOL     OW21046   0.170   5.470   1.973
 6716SOL    HW121047   0.116   5.553   1.987
 6716SOL    HW221048   0.264   5.486   2.001
 6717SOL     OW21049   3.676   2.972   6.941
 6717SOL    HW121050   3.723   3.025   6.870
 6717SOL    HW221051   3.683   3.020   0.003
 6718SOL     OW21052   5.274   0.823   0.752
 6718SOL    HW121053   5.184   0.842   0.790
 6718SOL    HW221054   5.301   0.729   0.776
 6719SOL     OW21055   2.902   6.690   0.359
 6719SOL    HW121056   2.908   6.756   0.434
 6719SOL    HW221057   2.949   6.606   0.384
 6720SOL     OW21058   1.845   0.072   4.573
 6720SOL    HW121059   1.910   0.129   4.622
 6720SOL    HW221060   1.886   0.040   4.488
 6721SOL     OW21061   6.455   6.553   0.210
 6721SOL    HW121062   6.381   6.517   0.267
 6721SOL    HW221063   6.542   6.513   0.240
 6722SOL     OW21064   6.625   3.041   1.496
 6722SOL    HW121065   6.593   3.108   1.564
 6722SOL    HW221066   6.662   2.961   1.543
 6723SOL     OW21067   1.759   6.891   4.749
 6723SOL    HW121068   1.791   6.968   4.692
 6723SOL    HW221069   1.781   6.910   4.844
 6724SOL     OW21070   2.232   3.395   6.135
 6724SOL    HW121071   2.135   3.387   6.157
 6724SOL    HW221072   2.257   3.325   6.068
 6725SOL     OW21073   0.323   3.503   1.637
 6725SOL    HW121074   0.360   3.583   1.589
 6725SOL    HW221075   0.227   3.491   1.614
 6726SOL     OW21076   1.088   2.530   4.968
 6726SOL    HW121077   1.082   2.538   4.868
 6726SOL    HW221078   1.012   2.581   5.009
 6727SOL     OW21079   0.475   4.613   5.679
 6727SOL    HW121080   0.567   4.588   5.649
 6727SOL    HW221081   0.440   4.542   5.740
 6728SOL     OW21082   3.920   2.156   2.187
 6728SOL    HW121083   3.854   2.216   2.142
 6728SOL    HW221084   3.872   2.080   2.230
 6729SOL     OW21085   6.011   0.751   1.533
 6729SOL    HW121086   6.073   0.789   1.602
 6729SOL    HW221087   5.934   0.814   1.520
 6730SOL     OW21088   1.757   6.762   1.374
 6730SOL    HW121089   1.664   6.737   1.346
 6730SOL    HW221090   1.821   6.742   1.300
 6731SOL     OW21091   1.218   6.504   1.003
 6731SOL    HW121092   1.283   6.553   0.945
 6731SOL    HW221093   1.258   6.416   1.030
 6732SOL     OW21094   5.875   4.370   5.195
 6732SOL    HW121095   5.810   4.434   5.237
 6732SOL    HW221096   5.928   4.326   5.267
 6733SOL     OW21097   3.407   5.534   6.054
 6733SOL    HW121098   3.445   5.443   6.067
 6733SOL    HW221099   3.454   5.599   6.115
 6734SOL     OW21100   5.957   2.133   4.141
 6734SOL    HW121101   5.921   2.039   4.142
 6734SOL    HW221102   5.884   2.196   4.115
 6735SOL     OW21103   6.355   4.138   4.981
 6735SOL    HW121104   6.410   4.212   4.942
 6735SOL    HW221105   6.299   4.175   5.055
 6736SOL     OW21106   3.015   3.848   6.975
 6736SOL    HW121107   2.955   3.821   6.900
 6736SOL    HW221108   3.012   3.778   0.023
 6737SOL     OW21109   1.659   2.983   1.140
 6737SOL    HW121110   1.754   2.987   1.171
 6737SOL    HW221111   1.627   3.075   1.117
 6738SOL     OW21112   1.686   5.791   3.393
 6738SOL    HW121113   1.601   5.843   3.402
 6738SOL    HW221114   1.671   5.697   3.424
 6739SOL     OW21115   4.763   5.989   4.528
 6739SOL    HW121116   4.690   5.952   4.585
 6739SOL    HW221117   4.723   6.049   4.458
 6740SOL     OW21118   0.469   0.297   5.118
 6740SOL    HW121119   0.418   0.230   5.063
 6740SOL    HW221120   0.552   0.253   5.154
 6741SOL     OW21121   4.488   1.983   5.839
 6741SOL    HW121122   4.554   2.052   5.871
 6741SOL    HW221123   4.506   1.962   5.743
 6742SOL     OW21124   5.380   6.080   3.366
 6742SOL    HW121125   5.451   6.012   3.386
 6742SOL    HW221126   5.292   6.045   3.397
 6743SOL     OW21127   4.430   4.192   6.473
 6743SOL    HW121128   4.368   4.113   6.473
 6743SOL    HW221129   4.398   4.259   6.407
 6744SOL     OW21130   6.099   4.031   6.225
 6744SOL    HW121131   6.089   4.083   6.310
 6744SOL    HW221132   6.189   3.987   6.225
 6745SOL     OW21133   0.117   6.860   3.713
 6745SOL    HW121134   0.031   6.859   3.764
 6745SOL    HW221135   0.100   6.889   3.619
 6746SOL     OW21136   0.982   1.008   4.134
 6746SOL    HW121137   0.957   1.081   4.070
 6746SOL    HW221138   0.990   0.921   4.084
 6747SOL     OW21139   5.317   1.326   5.046
 6747SOL    HW121140   5.258   1.386   4.992
 6747SOL    HW221141   5.272   1.303   5.132
 6748SOL     OW21142   2.939   2.017   3.749
 6748SOL    HW121143   3.032   2.022   3.786
 6748SOL    HW221144   2.933   1.939   3.687
 6749SOL     OW21145   3.645   4.523   0.632
 6749SOL    HW121146   3.674   4.430   0.608
 6749SOL    HW221147   3.722   4.586   0.622
 6750SOL     OW21148   3.466   1.740   4.406
 6750SOL    HW121149   3.405   1.819   4.414
 6750SOL    HW221150   3.469   1.692   4.494
 6751SOL     OW21151   4.854   0.048   2.900
 6751SOL    HW121152   4.830   0.101   2.819
 6751SOL    HW221153   4.923   0.098   2.953
 6752SOL     OW21154   1.517   0.546   2.956
 6752SOL    HW121155   1.612   0.570   2.937
 6752SOL    HW221156   1.470   0.524   2.871
 6753SOL     OW21157   2.894   1.142   6.214
 6753SOL    HW121158   2.797   1.146   6.190
 6753SOL    HW221159   2.950   1.150   6.132
 6754SOL     OW21160   6.931   1.869   0.877
 6754SOL    HW121161   6.875   1.864   0.960
 6754SOL    HW221162   0.003   1.863   0.902
 6755SOL     OW21163   3.940   1.061   2.274
 6755SOL    HW121164   3.947   1.060   2.373
 6755SOL    HW221165   3.870   0.995   2.245
 6756SOL     OW21166   3.949   5.679   5.394
 6756SOL    HW121167   3.940   5.665   5.493
 6756SOL    HW221168   3.956   5.591   5.348
 6757SOL     OW21169   3.703   2.342   0.775
 6757SOL    HW121170   3.769   2.367   0.847
 6757SOL    HW221171   3.614   2.381   0.798
 6758SOL     OW21172   6.213   2.313   2.425
 6758SOL    HW121173   6.186   2.223   2.392
 6758SOL    HW221174   6.136   2.355   2.474
 6759SOL     OW21175   1.496   4.042   4.161
 6759SOL    HW121176   1.514   4.140   4.172
 6759SOL    HW221177   1.415   4.030   4.103
 6760SOL     OW21178   6.855   4.219   2.393
 6760SOL    HW121179   6.839   4.259   2.303
 6760SOL    HW221180   6.946   4.177   2.395
 6761SOL     OW21181   6.822   2.550   5.537
 6761SOL    HW121182   6.752   2.579   5.603
 6761SOL    HW221183   6.777   2.513   5.456
 6762SOL     OW21184   0.708   4.706   4.708
 6762SOL    HW121185   0.621   4.671   4.743
 6762SOL    HW221186   0.775   4.709   4.782
 6763SOL     OW21187   0.156   5.500   3.379
 6763SOL    HW121188   0.085   5.430   3.382
 6763SOL    HW221189   0.127   5.579   3.433
 6764SOL     OW21190   1.867   5.752   1.120
 6764SOL    HW121191   1.883   5.841   1.162
 6764SOL    HW221192   1.770   5.731   1.123
 6765SOL     OW21193   5.463   4.894   3.865
 6765SOL    HW121194   5.429   4.930   3.951
 6765SOL    HW221195   5.542   4.947   3.834
 6766SOL     OW21196   5.193   6.483   5.981
 6766SOL    HW121197   5.246   6.422   6.039
 6766SOL    HW221198   5.166   6.434   5.897
 6767SOL     OW21199   2.416   1.557   1.010
 6767SOL    HW121200   2.356   1.637   1.011
 6767SOL    HW221201   2.510   1.586   0.990
 6768SOL     OW21202   1.221   6.406   4.617
 6768SOL    HW121203   1.245   6.329   4.558
 6768SOL    HW221204   1.248   6.385   4.712
 6769SOL     OW21205   2.405   0.481   5.820
 6769SOL    HW121206   2.338   0.478   5.894
 6769SOL    HW221207   2.427   0.388   5.790
 6770SOL     OW21208   5.619   1.373   3.343
 6770SOL    HW121209   5.548   1.413   3.401
 6770SOL    HW221210   5.577   1.339   3.259
 6771SOL     OW21211   3.633   1.371   2.901
 6771SOL    HW121212   3.634   1.358   3.000
 6771SOL    HW221213   3.550   1.421   2.875
 6772SOL     OW21214   4.484   2.544   2.856
 6772SOL    HW121215   4.531   2.457   2.842
 6772SOL    HW221216   4.416   2.558   2.784
 6773SOL     OW21217   0.041   5.645   1.475
 6773SOL    HW121218   6.968   5.668   1.480
 6773SOL    HW221219   0.093   5.708   1.533
 6774SOL     OW21220   1.001   3.728   4.953
 6774SOL    HW121221   1.022   3.793   5.026
 6774SOL    HW221222   0.919   3.676   4.978
 6775SOL     OW21223   2.626   2.257   2.086
 6775SOL    HW121224   2.562   2.271   2.011
 6775SOL    HW221225   2.718   2.281   2.056
 6776SOL     OW21226   4.688   3.841   0.052
 6776SOL    HW121227   4.751   3.844   6.998
 6776SOL    HW221228   4.702   3.923   0.108
 6777SOL     OW21229   5.027   4.709   0.544
 6777SOL    HW121230   5.008   4.807   0.534
 6777SOL    HW221231   5.123   4.692   0.523
 6778SOL     OW21232   6.241   5.521   2.002
 6778SOL    HW121233   6.142   5.515   2.000
 6778SOL    HW221234   6.269   5.616   2.015
 6779SOL     OW21235   5.574   5.899   5.970
 6779SOL    HW121236   5.630   5.881   5.889
 6779SOL    HW221237   5.504   5.966   5.947
 6780SOL     OW21238   2.080   2.488   2.398
 6780SOL    HW121239   1.985   2.459   2.386
 6780SOL    HW221240   2.092   2.523   2.491
 6781SOL     OW21241   7.018   2.334   4.384
 6781SOL    HW121242   6.931   2.285   4.392
 6781SOL    HW221243   7.012   2.419   4.437
 6782SOL     OW21244   0.563   0.717   2.932
 6782SOL    HW121245   0.635   0.756   2.990
 6782SOL    HW221246   0.602   0.693   2.843
 6783SOL     OW21247   6.360   0.963   5.695
 6783SOL    HW121248   6.417   0.987   5.616
 6783SOL    HW221249   6.416   0.963   5.778
 6784SOL     OW21250   1.604   3.254   1.042
 6784SOL    HW121251   1.557   3.327   0.993
 6784SOL    HW221252   1.702   3.271   1.043
 6785SOL     OW21253   6.141   5.606   4.927
 6785SOL    HW121254   6.080   5.597   5.006
 6785SOL    HW221255   6.227   5.649   4.955
 6786SOL     OW21256   1.727   2.112   0.740
 6786SOL    HW121257   1.779   2.196   0.754
 6786SOL    HW221258   1.777   2.050   0.680
 6787SOL     OW21259   2.579   2.328   0.121
 6787SOL    HW121260   2.486   2.358   0.146
 6787SOL    HW221261   2.646   2.393   0.158
 6788SOL     OW21262   1.442   4.397   1.253
 6788SOL    HW121263   1.415   4.303   1.275
 6788SOL    HW221264   1.399   4.424   1.167
 6789SOL     OW21265   0.634   5.061   3.165
 6789SOL    HW121266   0.566   5.069   3.239
 6789SOL    HW221267   0.690   5.144   3.162
 6790SOL     OW21268   0.684   3.967   0.441
 6790SOL    HW121269   0.614   3.901   0.414
 6790SOL    HW221270   0.771   3.919   0.456
 6791SOL     OW21271   3.995   1.920   1.977
 6791SOL    HW121272   3.896   1.924   1.993
 6791SOL    HW221273   4.043   1.938   2.063
 6792SOL     OW21274   6.124   6.922   4.478
 6792SOL    HW121275   6.076   6.837   4.499
 6792SOL    HW221276   6.118   6.939   4.380
 6793SOL     OW21277   2.285   1.305   0.607
 6793SOL    HW121278   2.372   1.331   0.564
 6793SOL    HW221279   2.210   1.327   0.545
 6794SOL     OW21280   5.168   0.726   5.620
 6794SOL    HW121281   5.095   0.707   5.684
 6794SOL    HW221282   5.250   0.676   5.647
 6795SOL     OW21283   1.727   6.464   0.735
 6795SOL    HW121284   1.760   6.385   0.684
 6795SOL    HW221285   1.645   6.500   0.691
 6796SOL     OW21286   6.069   0.763   3.044
 6796SOL    HW121287   5.981   0.787   3.085
 6796SOL    HW221288   6.054   0.732   2.950
 6797SOL     OW21289   6.973   2.672   1.965
 6797SOL    HW121290   0.024   2.630   1.914
 6797SOL    HW221291   7.004   2.696   2.057
 6798SOL     OW21292   5.740   6.260   1.857
 6798SOL    HW121293   5.789   6.346   1.870
 6798SOL    HW221294   5.731   6.213   1.945
 6799SOL     OW21295   0.112   0.196   2.169
 6799SOL    HW121296   0.049   0.119   2.165
 6799SOL    HW221297   0.084   0.266   2.103
 6800SOL     OW21298   2.129   2.817   1.899
 6800SOL    HW121299   2.163   2.912   1.895
 6800SOL    HW221300   2.198   2.756   1.859
 6801SOL     OW21301   0.754   0.039   2.941
 6801SOL    HW121302   0.795   6.973   2.938
 6801SOL    HW221303   0.809   0.099   2.999
 6802SOL     OW21304   3.789   5.852   1.614
 6802SOL    HW121305   3.811   5.755   1.606
 6802SOL    HW221306   3.700   5.863   1.658
 6803SOL     OW21307   4.149   3.598   5.542
 6803SOL    HW121308   4.071   3.654   5.571
 6803SOL    HW221309   4.233   3.635   5.582
 6804SOL     OW21310   3.412   5.096   4.015
 6804SOL    HW121311   3.385   5.020   3.956
 6804SOL    HW221312   3.346   5.107   4.089
 6805SOL     OW21313   0.559   4.858   6.698
 6805SOL    HW121314   0.643   4.821   6.738
 6805SOL    HW221315   0.553   4.832   6.602
 6806SOL     OW21316   6.843   0.520   3.131
 6806SOL    HW121317   6.798   0.537   3.219
 6806SOL    HW221318   6.873   0.607   3.092
 6807SOL     OW21319   3.155   3.732   1.253
 6807SOL    HW121320   3.138   3.827   1.279
 6807SOL    HW221321   3.253   3.714   1.254
 6808SOL     OW21322   6.883   2.225   6.099
 6808SOL    HW121323   6.902   2.261   6.008
 6808SOL    HW221324   6.909   2.128   6.102
 6809SOL     OW21325   0.574   3.179   1.434
 6809SOL    HW121326   0.532   3.189   1.525
 6809SOL    HW221327   0.662   3.132   1.444
 6810SOL     OW21328   1.839   1.139   2.251
 6810SOL    HW121329   1.825   1.131   2.152
 6810SOL    HW221330   1.781   1.073   2.298
 6811SOL     OW21331   5.425   3.528   1.864
 6811SOL    HW121332   5.460   3.577   1.943
 6811SOL    HW221333   5.456   3.433   1.865
 6812SOL     OW21334   3.329   3.592   4.382
 6812SOL    HW121335   3.319   3.492   4.390
 6812SOL    HW221336   3.357   3.630   4.470
 6813SOL     OW21337   5.301   3.609   3.397
 6813SOL    HW121338   5.331   3.529   3.449
 6813SOL    HW221339   5.340   3.606   3.305
 6814SOL     OW21340   3.649   1.858   6.196
 6814SOL    HW121341   3.554   1.880   6.172
 6814SOL    HW221342   3.695   1.817   6.117
 6815SOL     OW21343   3.643   6.073   0.826
 6815SOL    HW121344   3.594   6.149   0.783
 6815SOL    HW221345   3.610   6.060   0.919
 6816SOL     OW21346   6.658   0.699   6.061
 6816SOL    HW121347   6.603   0.756   6.001
 6816SOL    HW221348   6.755   0.705   6.034
 6817SOL     OW21349   2.445   2.459   2.644
 6817SOL    HW121350   2.403   2.390   2.584
 6817SOL    HW221351   2.525   2.420   2.689
 6818SOL     OW21352   2.437   6.426   1.439
 6818SOL    HW121353   2.521   6.481   1.438
 6818SOL    HW221354   2.459   6.332   1.414
 6819SOL     OW21355   3.922   1.826   3.184
 6819SOL    HW121356   4.007   1.805   3.136
 6819SOL    HW221357   3.889   1.916   3.156
 6820SOL     OW21358   1.932   6.491   1.484
 6820SOL    HW121359   2.026   6.523   1.474
 6820SOL    HW221360   1.906   6.440   1.403
 6821SOL     OW21361   3.957   2.192   5.097
 6821SOL    HW121362   4.025   2.125   5.066
 6821SOL    HW221363   3.868   2.171   5.057
 6822SOL     OW21364   5.643   2.172   5.791
 6822SOL    HW121365   5.707   2.231   5.841
 6822SOL    HW221366   5.573   2.229   5.747
 6823SOL     OW21367   5.127   3.480   5.652
 6823SOL    HW121368   5.091   3.423   5.579
 6823SOL    HW221369   5.097   3.575   5.639
 6824SOL     OW21370   1.406   1.765   0.303
 6824SOL    HW121371   1.315   1.805   0.307
 6824SOL    HW221372   1.452   1.778   0.391
 6825SOL     OW21373   5.687   0.399   0.899
 6825SOL    HW121374   5.598   0.424   0.939
 6825SOL    HW221375   5.760   0.421   0.964
 6826SOL     OW21376   2.158   3.205   3.557
 6826SOL    HW121377   2.180   3.201   3.459
 6826SOL    HW221378   2.187   3.121   3.601
 6827SOL     OW21379   4.361   4.920   6.484
 6827SOL    HW121380   4.454   4.890   6.467
 6827SOL    HW221381   4.345   4.924   6.583
 6828SOL     OW21382   3.217   0.978   1.905
 6828SOL    HW121383   3.169   1.061   1.936
 6828SOL    HW221384   3.313   0.983   1.932
 6829SOL     OW21385   5.114   5.715   4.794
 6829SOL    HW121386   5.096   5.810   4.769
 6829SOL    HW221387   5.037   5.680   4.848
 6830SOL     OW21388   4.983   0.571   3.244
 6830SOL    HW121389   4.931   0.515   3.180
 6830SOL    HW221390   4.981   0.530   3.335
 6831SOL     OW21391   1.403   0.444   6.907
 6831SOL    HW121392   1.316   0.397   6.923
 6831SOL    HW221393   1.461   0.435   6.988
 6832SOL     OW21394   2.830   4.440   0.974
 6832SOL    HW121395   2.854   4.346   0.998
 6832SOL    HW221396   2.914   4.492   0.959
 6833SOL     OW21397   3.355   4.757   6.168
 6833SOL    HW121398   3.353   4.719   6.261
 6833SOL    HW221399   3.375   4.684   6.103
 6834SOL     OW21400   4.965   6.951   0.621
 6834SOL    HW121401   4.869   6.932   0.602
 6834SOL    HW221402   5.006   7.001   0.544
 6835SOL     OW21403   4.122   0.740   4.725
 6835SOL    HW121404   4.184   0.667   4.698
 6835SOL    HW221405   4.108   0.802   4.648
 6836SOL     OW21406   2.695   4.631   0.525
 6836SOL    HW121407   2.652   4.659   0.439
 6836SOL    HW221408   2.628   4.581   0.581
 6837SOL     OW21409   0.482   1.972   2.390
 6837SOL    HW121410   0.494   1.991   2.488
 6837SOL    HW221411   0.563   2.004   2.341
 6838SOL     OW21412   3.401   6.289   0.032
 6838SOL    HW121413   3.432   6.195   0.046
 6838SOL    HW221414   3.301   6.290   0.026
 6839SOL     OW21415   5.972   1.125   6.161
 6839SOL    HW121416   6.018   1.172   6.237
 6839SOL    HW221417   5.885   1.088   6.193
 6840SOL     OW21418   3.431   0.641   4.537
 6840SOL    HW121419   3.340   0.600   4.548
 6840SOL    HW221420   3.497   0.590   4.591
 6841SOL     OW21421   4.677   4.519   0.150
 6841SOL    HW121422   4.659   4.613   0.119
 6841SOL    HW221423   4.762   4.516   0.202
 6842SOL     OW21424   2.740   3.849   0.774
 6842SOL    HW121425   2.676   3.802   0.713
 6842SOL    HW221426   2.690   3.881   0.855
 6843SOL     OW21427   6.107   6.550   1.508
 6843SOL    HW121428   6.136   6.460   1.475
 6843SOL    HW221429   6.008   6.552   1.519
 6844SOL     OW21430   4.673   0.688   3.459
 6844SOL    HW121431   4.720   0.659   3.542
 6844SOL    HW221432   4.735   0.745   3.404
 6845SOL     OW21433   6.363   4.495   3.847
 6845SOL    HW121434   6.427   4.567   3.875
 6845SOL    HW221435   6.269   4.527   3.860
 6846SOL     OW21436   3.949   3.286   0.792
 6846SOL    HW121437   3.991   3.222   0.728
 6846SOL    HW221438   3.876   3.337   0.746
 6847SOL     OW21439   0.352   3.819   4.157
 6847SOL    HW121440   0.409   3.801   4.077
 6847SOL    HW221441   0.308   3.908   4.148
 6848SOL     OW21442   4.439   6.544   3.896
 6848SOL    HW121443   4.382   6.537   3.977
 6848SOL    HW221444   4.405   6.619   3.838
 6849SOL     OW21445   4.171   4.856   5.062
 6849SOL    HW121446   4.162   4.783   5.130
 6849SOL    HW221447   4.088   4.912   5.062
 6850SOL     OW21448   5.959   4.451   2.324
 6850SOL    HW121449   5.961   4.352   2.307
 6850SOL    HW221450   5.925   4.498   2.243
 6851SOL     OW21451   0.969   2.501   3.012
 6851SOL    HW121452   0.986   2.588   2.966
 6851SOL    HW221453   0.904   2.447   2.958
 6852SOL     OW21454   2.782   4.938   0.487
 6852SOL    HW121455   2.753   4.981   0.401
 6852SOL    HW221456   2.735   4.849   0.497
 6853SOL     OW21457   6.714   4.352   0.418
 6853SOL    HW121458   6.650   4.309   0.482
 6853SOL    HW221459   6.669   4.429   0.373
 6854SOL     OW21460   4.831   2.108   6.422
 6854SOL    HW121461   4.835   2.130   6.520
 6854SOL    HW221462   4.735   2.097   6.395
 6855SOL     OW21463   4.170   5.549   3.337
 6855SOL    HW121464   4.202   5.459   3.368
 6855SOL    HW221465   4.221   5.577   3.256
 6856SOL     OW21466   5.591   3.043   5.388
 6856SOL    HW121467   5.638   3.071   5.304
 6856SOL    HW221468   5.546   3.122   5.429
 6857SOL     OW21469   3.008   2.850   6.935
 6857SOL    HW121470   3.027   2.752   6.944
 6857SOL    HW221471   3.047   2.883   6.849
 6858SOL     OW21472   4.012   3.649   3.167
 6858SOL    HW121473   3.917   3.623   3.189
 6858SOL    HW221474   4.056   3.684   3.249
 6859SOL     OW21475   0.054   1.593   1.050
 6859SOL    HW121476   0.125   1.539   1.096
 6859SOL    HW221477   0.043   1.681   1.096
 6860SOL     OW21478   6.846   4.886   1.015
 6860SOL    HW121479   6.937   4.905   0.977
 6860SOL    HW221480   6.854   4.869   1.113
 6861SOL     OW21481   4.422   5.234   0.093
 6861SOL    HW121482   4.442   5.294   0.015
 6861SOL    HW221483   4.323   5.231   0.107
 6862SOL     OW21484   1.219   5.159   6.182
 6862SOL    HW121485   1.244   5.082   6.123
 6862SOL    HW221486   1.141   5.207   6.142
 6863SOL     OW21487   5.732   6.555   6.253
 6863SOL    HW121488   5.760   6.603   6.336
 6863SOL    HW221489   5.802   6.566   6.183
 6864SOL     OW21490   2.532   5.264   4.454
 6864SOL    HW121491   2.592   5.312   4.390
 6864SOL    HW221492   2.440   5.303   4.448
 6865SOL     OW21493   1.374   6.132   3.885
 6865SOL    HW121494   1.282   6.102   3.908
 6865SOL    HW221495   1.399   6.211   3.942
 6866SOL     OW21496   6.136   5.095   3.802
 6866SOL    HW121497   6.184   5.057   3.723
 6866SOL    HW221498   6.118   5.022   3.868
 6867SOL     OW21499   2.251   4.225   1.602
 6867SOL    HW121500   2.184   4.197   1.671
 6867SOL    HW221501   2.341   4.237   1.645
 6868SOL     OW21502   1.012   5.278   6.038
 6868SOL    HW121503   1.043   5.358   5.986
 6868SOL    HW221504   0.944   5.307   6.106
 6869SOL     OW21505   5.850   0.891   5.818
 6869SOL    HW121506   5.828   0.890   5.720
 6869SOL    HW221507   5.765   0.898   5.870
 6870SOL     OW21508   0.747   4.997   1.684
 6870SOL    HW121509   0.690   5.040   1.614
 6870SOL    HW221510   0.760   4.900   1.661
 6871SOL     OW21511   6.266   4.193   3.415
 6871SOL    HW121512   6.293   4.221   3.323
 6871SOL    HW221513   6.248   4.094   3.416
 6872SOL     OW21514   0.204   2.323   1.214
 6872SOL    HW121515   0.286   2.365   1.253
 6872SOL    HW221516   0.228   2.281   1.126
 6873SOL     OW21517   6.419   3.727   4.382
 6873SOL    HW121518   6.402   3.817   4.342
 6873SOL    HW221519   6.517   3.708   4.381
 6874SOL     OW21520   6.902   5.636   2.695
 6874SOL    HW121521   6.965   5.704   2.656
 6874SOL    HW221522   6.862   5.582   2.622
 6875SOL     OW21523   2.902   2.205   2.648
 6875SOL    HW121524   2.898   2.277   2.579
 6875SOL    HW221525   2.899   2.116   2.603
 6876SOL     OW21526   3.505   6.767   3.718
 6876SOL    HW121527   3.572   6.805   3.654
 6876SOL    HW221528   3.430   6.831   3.731
 6877SOL     OW21529   2.642   4.120   0.606
 6877SOL    HW121530   2.560   4.125   0.662
 6877SOL    HW221531   2.706   4.054   0.645
 6878SOL     OW21532   3.371   1.160   4.630
 6878SOL    HW121533   3.411   1.251   4.617
 6878SOL    HW221534   3.440   1.098   4.665
 6879SOL     OW21535   0.866   2.431   0.790
 6879SOL    HW121536   0.888   2.526   0.766
 6879SOL    HW221537   0.919   2.404   0.871
 6880SOL     OW21538   1.969   5.486   4.852
 6880SOL    HW121539   1.965   5.454   4.757
 6880SOL    HW221540   1.902   5.436   4.907
 6881SOL     OW21541   1.616   4.784   0.859
 6881SOL    HW121542   1.713   4.787   0.881
 6881SOL    HW221543   1.576   4.875   0.869
 6882SOL     OW21544   2.703   0.556   0.267
 6882SOL    HW121545   2.800   0.563   0.247
 6882SOL    HW221546   2.652   0.621   0.209
 6883SOL     OW21547   4.726   1.470   6.612
 6883SOL    HW121548   4.765   1.426   6.531
 6883SOL    HW221549   4.732   1.407   6.690
 6884SOL     OW21550   1.864   4.333   3.398
 6884SOL    HW121551   1.890   4.279   3.478
 6884SOL    HW221552   1.789   4.288   3.350
 6885SOL     OW21553   4.125   5.095   4.158
 6885SOL    HW121554   4.157   5.150   4.080
 6885SOL    HW221555   4.195   5.095   4.229
 6886SOL     OW21556   6.865   1.266   4.312
 6886SOL    HW121557   6.805   1.306   4.243
 6886SOL    HW221558   6.836   1.172   4.330
 6887SOL     OW21559   5.233   5.682   6.203
 6887SOL    HW121560   5.189   5.772   6.207
 6887SOL    HW221561   5.327   5.690   6.236
 6888SOL     OW21562   5.498   5.862   6.614
 6888SOL    HW121563   5.545   5.913   6.541
 6888SOL    HW221564   5.552   5.865   6.698
 6889SOL     OW21565   2.125   2.423   5.033
 6889SOL    HW121566   2.134   2.386   4.941
 6889SOL    HW221567   2.030   2.416   5.063
 6890SOL     OW21568   4.397   6.501   1.727
 6890SOL    HW121569   4.425   6.503   1.823
 6890SOL    HW221570   4.414   6.590   1.686
 6891SOL     OW21571   2.447   4.398   3.373
 6891SOL    HW121572   2.501   4.364   3.450
 6891SOL    HW221573   2.488   4.482   3.339
 6892SOL     OW21574   3.271   2.174   3.575
 6892SOL    HW121575   3.257   2.241   3.648
 6892SOL    HW221576   3.359   2.129   3.588
 6893SOL     OW21577   4.523   4.655   6.852
 6893SOL    HW121578   4.535   4.642   6.754
 6893SOL    HW221579   4.430   4.685   6.871
 6894SOL     OW21580   6.256   4.741   1.041
 6894SOL    HW121581   6.187   4.692   0.988
 6894SOL    HW221582   6.332   4.766   0.981
 6895SOL     OW21583   3.531   4.843   0.418
 6895SOL    HW121584   3.598   4.778   0.383
 6895SOL    HW221585   3.523   4.832   0.517
 6896SOL     OW21586   2.109   6.691   4.411
 6896SOL    HW121587   2.111   6.614   4.347
 6896SOL    HW221588   2.200   6.703   4.451
 6897SOL     OW21589   4.802   3.421   5.624
 6897SOL    HW121590   4.886   3.384   5.584
 6897SOL    HW221591   4.723   3.387   5.574
 6898SOL     OW21592   4.358   1.466   2.065
 6898SOL    HW121593   4.343   1.549   2.118
 6898SOL    HW221594   4.302   1.469   1.982
 6899SOL     OW21595   5.036   6.104   1.520
 6899SOL    HW121596   5.000   6.151   1.439
 6899SOL    HW221597   5.003   6.150   1.603
 6900SOL     OW21598   6.168   5.891   5.252
 6900SOL    HW121599   6.169   5.978   5.202
 6900SOL    HW221600   6.142   5.907   5.347
 6901SOL     OW21601   6.754   6.360   6.256
 6901SOL    HW121602   6.737   6.415   6.174
 6901SOL    HW221603   6.666   6.336   6.299
 6902SOL     OW21604   5.646   5.924   6.407
 6902SOL    HW121605   5.685   5.882   6.325
 6902SOL    HW221606   5.653   6.024   6.399
 6903SOL     OW21607   2.753   5.142   4.790
 6903SOL    HW121608   2.663   5.130   4.834
 6903SOL    HW221609   2.748   5.113   4.695
 6904SOL     OW21610   6.159   1.137   4.866
 6904SOL    HW121611   6.218   1.216   4.847
 6904SOL    HW221612   6.196   1.085   4.943
 6905SOL     OW21613   6.032   6.479   6.288
 6905SOL    HW121614   6.017   6.550   6.356
 6905SOL    HW221615   6.073   6.519   6.206
 6906SOL     OW21616   4.332   1.352   4.171
 6906SOL    HW121617   4.338   1.375   4.074
 6906SOL    HW221618   4.261   1.408   4.214
 6907SOL     OW21619   4.953   2.669   1.624
 6907SOL    HW121620   4.969   2.669   1.723
 6907SOL    HW221621   4.891   2.744   1.600
 6908SOL     OW21622   0.680   5.298   6.556
 6908SOL    HW121623   0.745   5.362   6.596
 6908SOL    HW221624   0.666   5.222   6.620
 6909SOL     OW21625   5.114   4.343   1.424
 6909SOL    HW121626   5.211   4.352   1.447
 6909SOL    HW221627   5.060   4.400   1.486
 6910SOL     OW21628   0.600   2.473   3.348
 6910SOL    HW121629   0.688   2.427   3.331
 6910SOL    HW221630   0.584   2.541   3.277
 6911SOL     OW21631   4.132   6.054   3.887
 6911SOL    HW121632   4.231   6.069   3.890
 6911SOL    HW221633   4.114   5.958   3.866
 6912SOL     OW21634   3.935   3.914   6.383
 6912SOL    HW121635   3.938   3.906   6.283
 6912SOL    HW221636   3.956   3.826   6.424
 6913SOL     OW21637   5.455   6.074   4.045
 6913SOL    HW121638   5.448   5.987   4.094
 6913SOL    HW221639   5.371   6.127   4.059
 6914SOL     OW21640   5.848   3.813   3.962
 6914SOL    HW121641   5.759   3.789   3.923
 6914SOL    HW221642   5.842   3.904   4.004
 6915SOL     OW21643   5.973   2.577   2.378
 6915SOL    HW121644   5.889   2.553   2.328
 6915SOL    HW221645   6.052   2.559   2.320
 6916SOL     OW21646   6.123   2.119   0.261
 6916SOL    HW121647   6.060   2.063   0.207
 6916SOL    HW221648   6.176   2.060   0.321
 6917SOL     OW21649   3.387   6.779   1.355
 6917SOL    HW121650   3.420   6.748   1.444
 6917SOL    HW221651   3.462   6.781   1.290
 6918SOL     OW21652   0.433   2.785   4.359
 6918SOL    HW121653   0.495   2.726   4.412
 6918SOL    HW221654   0.467   2.879   4.362
 6919SOL     OW21655   6.621   5.784   3.580
 6919SOL    HW121656   6.567   5.709   3.617
 6919SOL    HW221657   6.651   5.844   3.655
 6920SOL     OW21658   4.301   6.080   5.534
 6920SOL    HW121659   4.392   6.096   5.571
 6920SOL    HW221660   4.284   5.982   5.526
 6921SOL     OW21661   5.116   5.346   3.666
 6921SOL    HW121662   5.087   5.343   3.570
 6921SOL    HW221663   5.216   5.353   3.670
 6922SOL     OW21664   1.835   6.412   5.046
 6922SOL    HW121665   1.927   6.446   5.026
 6922SOL    HW221666   1.832   6.377   5.140
 6923SOL     OW21667   4.877   5.621   3.355
 6923SOL    HW121668   4.900   5.524   3.365
 6923SOL    HW221669   4.778   5.633   3.361
 6924SOL     OW21670   2.559   3.938   6.539
 6924SOL    HW121671   2.639   3.976   6.586
 6924SOL    HW221672   2.589   3.884   6.461
 6925SOL     OW21673   4.803   6.157   3.766
 6925SOL    HW121674   4.768   6.210   3.689
 6925SOL    HW221675   4.797   6.211   3.850
 6926SOL     OW21676   3.402   2.592   1.103
 6926SOL    HW121677   3.464   2.625   1.175
 6926SOL    HW221678   3.333   2.533   1.144
 6927SOL     OW21679   4.006   2.885   6.052
 6927SOL    HW121680   4.010   2.825   6.131
 6927SOL    HW221681   3.926   2.945   6.060
 6928SOL     OW21682   5.752   5.732   0.722
 6928SOL    HW121683   5.698   5.677   0.659
 6928SOL    HW221684   5.769   5.822   0.681
 6929SOL     OW21685   5.488   5.503   1.311
 6929SOL    HW121686   5.421   5.433   1.337
 6929SOL    HW221687   5.483   5.579   1.376
 6930SOL     OW21688   0.836   0.529   2.492
 6930SOL    HW121689   0.855   0.432   2.504
 6930SOL    HW221690   0.793   0.544   2.403
 6931SOL     OW21691   2.060   0.927   2.312
 6931SOL    HW121692   2.011   1.013   2.325
 6931SOL    HW221693   2.057   0.901   2.215
 6932SOL     OW21694   4.495   6.142   0.493
 6932SOL    HW121695   4.486   6.196   0.576
 6932SOL    HW221696   4.429   6.066   0.495
 6933SOL     OW21697   3.239   6.029   5.010
 6933SOL    HW121698   3.309   6.095   5.036
 6933SOL    HW221699   3.161   6.037   5.072
 6934SOL     OW21700   4.929   3.513   6.244
 6934SOL    HW121701   4.899   3.423   6.276
 6934SOL    HW221702   4.885   3.584   6.299
 6935SOL     OW21703   4.772   5.249   2.445
 6935SOL    HW121704   4.708   5.186   2.400
 6935SOL    HW221705   4.720   5.321   2.491
 6936SOL     OW21706   5.854   1.446   3.022
 6936SOL    HW121707   5.808   1.517   3.075
 6936SOL    HW221708   5.893   1.378   3.084
 6937SOL     OW21709   6.472   6.219   0.124
 6937SOL    HW121710   6.549   6.217   0.060
 6937SOL    HW221711   6.484   6.295   0.188
 6938SOL     OW21712   5.436   3.026   4.948
 6938SOL    HW121713   5.346   3.018   4.904
 6938SOL    HW221714   5.501   2.967   4.901
 6939SOL     OW21715   1.333   5.037   1.742
 6939SOL    HW121716   1.258   4.984   1.780
 6939SOL    HW221717   1.417   4.984   1.747
 6940SOL     OW21718   3.873   0.769   6.174
 6940SOL    HW121719   3.856   0.846   6.235
 6940SOL    HW221720   3.900   0.689   6.228
 6941SOL     OW21721   3.485   3.929   1.723
 6941SOL    HW121722   3.519   3.942   1.816
 6941SOL    HW221723   3.386   3.944   1.722
 6942SOL     OW21724   6.096   0.100   1.179
 6942SOL    HW121725   6.080   0.008   1.145
 6942SOL    HW221726   6.161   0.147   1.120
 6943SOL     OW21727   3.547   5.786   0.013
 6943SOL    HW121728   3.602   5.728   0.074
 6943SOL    HW221729   3.554   5.752   6.944
 6944SOL     OW21730   0.766   4.150   6.586
 6944SOL    HW121731   0.692   4.089   6.557
 6944SOL    HW221732   0.766   4.157   6.686
 6945SOL     OW21733   6.154   1.100   6.708
 6945SOL    HW121734   6.187   1.050   6.789
 6945SOL    HW221735   6.070   1.056   6.674
 6946SOL     OW21736   4.491   6.827   0.676
 6946SOL    HW121737   4.415   6.761   0.675
 6946SOL    HW221738   4.468   6.902   0.738
 6947SOL     OW21739   2.967   5.830   6.498
 6947SOL    HW121740   2.918   5.762   6.444
 6947SOL    HW221741   2.917   5.916   6.497
 6948SOL     OW21742   0.474   0.589   0.770
 6948SOL    HW121743   0.530   0.629   0.698
 6948SOL    HW221744   0.433   0.503   0.738
 6949SOL     OW21745   3.776   6.948   3.053
 6949SOL    HW121746   3.744   6.856   3.075
 6949SOL    HW221747   3.730   6.981   2.971
 6950SOL     OW21748   1.672   2.174   4.463
 6950SOL    HW121749   1.769   2.197   4.471
 6950SOL    HW221750   1.662   2.078   4.438
 6951SOL     OW21751   6.522   5.601   5.940
 6951SOL    HW121752   6.432   5.636   5.966
 6951SOL    HW221753   6.542   5.518   5.991
 6952SOL     OW21754   0.622   6.193   3.072
 6952SOL    HW121755   0.542   6.214   3.128
 6952SOL    HW221756   0.681   6.128   3.121
 6953SOL     OW21757   4.261   6.626   1.038
 6953SOL    HW121758   4.195   6.554   1.060
 6953SOL    HW221759   4.250   6.702   1.102
 6954SOL     OW21760   0.092   3.789   2.603
 6954SOL    HW121761   0.168   3.778   2.667
 6954SOL    HW221762   0.006   3.782   2.653
 6955SOL     OW21763   6.052   0.441   2.178
 6955SOL    HW121764   6.029   0.514   2.114
 6955SOL    HW221765   6.093   0.365   2.128
 6956SOL     OW21766   5.530   6.066   3.731
 6956SOL    HW121767   5.629   6.051   3.737
 6956SOL    HW221768   5.486   6.022   3.809
 6957SOL     OW21769   6.456   4.756   0.830
 6957SOL    HW121770   6.468   4.657   0.836
 6957SOL    HW221771   6.421   4.781   0.740
 6958SOL     OW21772   3.860   3.108   4.324
 6958SOL    HW121773   3.899   3.175   4.261
 6958SOL    HW221774   3.837   3.025   4.273
 6959SOL     OW21775   1.699   2.611   4.275
 6959SOL    HW121776   1.650   2.567   4.351
 6959SOL    HW221777   1.681   2.709   4.276
 6960SOL     OW21778   2.173   4.510   1.503
 6960SOL    HW121779   2.197   4.413   1.502
 6960SOL    HW221780   2.129   4.534   1.417
 6961SOL     OW21781   5.877   1.453   4.088
 6961SOL    HW121782   5.973   1.472   4.070
 6961SOL    HW221783   5.830   1.538   4.112
 6962SOL     OW21784   5.295   5.923   2.070
 6962SOL    HW121785   5.357   5.848   2.048
 6962SOL    HW221786   5.321   5.963   2.158
 6963SOL     OW21787   5.267   6.122   0.895
 6963SOL    HW121788   5.199   6.101   0.965
 6963SOL    HW221789   5.358   6.126   0.937
 6964SOL     OW21790   3.170   1.286   5.205
 6964SOL    HW121791   3.220   1.364   5.242
 6964SOL    HW221792   3.227   1.240   5.137
 6965SOL     OW21793   0.862   1.527   0.879
 6965SOL    HW121794   0.794   1.455   0.862
 6965SOL    HW221795   0.841   1.607   0.823
 6966SOL     OW21796   1.076   2.117   3.300
 6966SOL    HW121797   1.034   2.048   3.241
 6966SOL    HW221798   1.104   2.196   3.245
 6967SOL     OW21799   2.308   0.827   5.415
 6967SOL    HW121800   2.227   0.848   5.470
 6967SOL    HW221801   2.299   0.871   5.326
 6968SOL     OW21802   3.719   6.928   2.795
 6968SOL    HW121803   3.771   6.847   2.769
 6968SOL    HW221804   3.623   6.904   2.808
 6969SOL     OW21805   3.536   2.678   1.628
 6969SOL    HW121806   3.633   2.670   1.650
 6969SOL    HW221807   3.490   2.592   1.650
 6970SOL     OW21808   4.418   4.440   5.449
 6970SOL    HW121809   4.358   4.366   5.479
 6970SOL    HW221810   4.441   4.499   5.527
 6971SOL     OW21811   6.608   4.190   1.276
 6971SOL    HW121812   6.586   4.188   1.178
 6971SOL    HW221813   6.660   4.108   1.300
 6972SOL     OW21814   5.589   4.495   3.188
 6972SOL    HW121815   5.653   4.420   3.206
 6972SOL    HW221816   5.550   4.484   3.096
 6973SOL     OW21817   1.144   2.872   3.967
 6973SOL    HW121818   1.060   2.856   3.914
 6973SOL    HW221819   1.193   2.950   3.929
 6974SOL     OW21820   2.866   3.497   3.209
 6974SOL    HW121821   2.890   3.553   3.288
 6974SOL    HW221822   2.796   3.544   3.155
 6975SOL     OW21823   1.724   6.435   6.313
 6975SOL    HW121824   1.670   6.450   6.230
 6975SOL    HW221825   1.694   6.498   6.385
 6976SOL     OW21826   5.661   5.310   5.175
 6976SOL    HW121827   5.704   5.399   5.160
 6976SOL    HW221828   5.580   5.301   5.117
 6977SOL     OW21829   3.871   2.965   1.683
 6977SOL    HW121830   3.868   2.975   1.782
 6977SOL    HW221831   3.825   3.044   1.641
 6978SOL     OW21832   5.958   1.642   1.989
 6978SOL    HW121833   5.907   1.572   1.939
 6978SOL    HW221834   5.939   1.634   2.086
 6979SOL     OW21835   1.041   4.525   1.297
 6979SOL    HW121836   1.048   4.462   1.374
 6979SOL    HW221837   1.012   4.476   1.216
 6980SOL     OW21838   1.935   0.584   4.172
 6980SOL    HW121839   1.887   0.497   4.175
 6980SOL    HW221840   1.997   0.585   4.094
 6981SOL     OW21841   3.722   2.747   5.836
 6981SOL    HW121842   3.720   2.846   5.847
 6981SOL    HW221843   3.629   2.710   5.845
 6982SOL     OW21844   1.367   0.853   4.713
 6982SOL    HW121845   1.350   0.949   4.692
 6982SOL    HW221846   1.283   0.811   4.748
 6983SOL     OW21847   3.202   2.015   3.888
 6983SOL    HW121848   3.292   2.038   3.851
 6983SOL    HW221849   3.189   1.916   3.887
 6984SOL     OW21850   2.030   1.653   3.391
 6984SOL    HW121851   2.116   1.698   3.369
 6984SOL    HW221852   1.964   1.721   3.424
 6985SOL     OW21853   5.879   5.462   1.468
 6985SOL    HW121854   5.894   5.380   1.413
 6985SOL    HW221855   5.878   5.437   1.565
 6986SOL     OW21856   2.488   0.036   5.896
 6986SOL    HW121857   2.481   0.069   5.990
 6986SOL    HW221858   2.469   0.112   5.833
 6987SOL     OW21859   6.129   1.192   5.937
 6987SOL    HW121860   6.191   1.268   5.955
 6987SOL    HW221861   6.056   1.192   6.006
 6988SOL     OW21862   0.438   7.009   5.546
 6988SOL    HW121863   0.501   6.983   5.620
 6988SOL    HW221864   0.462   0.076   5.513
 6989SOL     OW21865   0.840   3.750   3.277
 6989SOL    HW121866   0.820   3.807   3.356
 6989SOL    HW221867   0.906   3.680   3.302
 6990SOL     OW21868   5.054   2.391   1.571
 6990SOL    HW121869   4.982   2.457   1.594
 6990SOL    HW221870   5.037   2.353   1.481
 6991SOL     OW21871   4.204   4.750   3.110
 6991SOL    HW121872   4.228   4.658   3.080
 6991SOL    HW221873   4.260   4.775   3.190
 6992SOL     OW21874   5.375   6.432   6.196
 6992SOL    HW121875   5.466   6.398   6.171
 6992SOL    HW221876   5.385   6.503   6.266
 6993SOL     OW21877   5.560   0.331   2.985
 6993SOL    HW121878   5.556   0.346   3.084
 6993SOL    HW221879   5.564   0.233   2.966
 6994SOL     OW21880   0.133   2.537   4.221
 6994SOL    HW121881   0.148   2.620   4.274
 6994SOL    HW221882   0.074   2.475   4.273
 6995SOL     OW21883   0.238   4.662   6.484
 6995SOL    HW121884   0.219   4.682   6.580
 6995SOL    HW221885   0.335   4.679   6.465
 6996SOL     OW21886   1.561   6.899   6.903
 6996SOL    HW121887   1.654   6.933   6.887
 6996SOL    HW221888   1.530   6.847   6.824
 6997SOL     OW21889   6.628   6.191   5.307
 6997SOL    HW121890   6.533   6.162   5.314
 6997SOL    HW221891   6.635   6.269   5.245
 6998SOL     OW21892   2.274   0.898   1.633
 6998SOL    HW121893   2.207   0.971   1.624
 6998SOL    HW221894   2.339   0.921   1.705
 6999SOL     OW21895   2.298   1.698   6.891
 6999SOL    HW121896   2.382   1.652   6.865
 6999SOL    HW221897   2.319   1.779   6.946
 7000SOL     OW21898   4.870   0.144   1.124
 7000SOL    HW121899   4.883   0.125   1.221
 7000SOL    HW221900   4.886   0.241   1.107
 7001SOL     OW21901   1.468   3.173   5.551
 7001SOL    HW121902   1.555   3.140   5.588
 7001SOL    HW221903   1.441   3.256   5.599
 7002SOL     OW21904   1.681   5.335   3.766
 7002SOL    HW121905   1.737   5.340   3.683
 7002SOL    HW221906   1.614   5.409   3.766
 7003SOL     OW21907   4.391   5.237   0.467
 7003SOL    HW121908   4.319   5.281   0.520
 7003SOL    HW221909   4.378   5.256   0.370
 7004SOL     OW21910   0.870   5.478   2.289
 7004SOL    HW121911   0.947   5.506   2.346
 7004SOL    HW221912   0.904   5.429   2.209
 7005SOL     OW21913   0.890   6.977   0.882
 7005SOL    HW121914   0.986   6.949   0.886
 7005SOL    HW221915   0.846   6.935   0.802
 7006SOL     OW21916   5.258   5.204   3.943
 7006SOL    HW121917   5.195   5.276   3.973
 7006SOL    HW221918   5.221   5.159   3.861
 7007SOL     OW21919   4.434   0.931   3.966
 7007SOL    HW121920   4.405   0.850   3.915
 7007SOL    HW221921   4.355   0.976   4.007
 7008SOL     OW21922   0.236   4.343   4.527
 7008SOL    HW121923   0.321   4.329   4.476
 7008SOL    HW221924   0.200   4.434   4.509
 7009SOL     OW21925   5.855   6.033   2.295
 7009SOL    HW121926   5.830   5.936   2.291
 7009SOL    HW221927   5.812   6.075   2.375
 7010SOL     OW21928   5.552   4.161   3.915
 7010SOL    HW121929   5.609   4.080   3.931
 7010SOL    HW221930   5.593   4.240   3.961
 7011SOL     OW21931   2.766   6.622   6.949
 7011SOL    HW121932   2.769   6.713   6.907
 7011SOL    HW221933   2.784   6.552   6.879
 7012SOL     OW21934   0.226   1.976   1.951
 7012SOL    HW121935   0.237   2.055   1.891
 7012SOL    HW221936   0.129   1.949   1.953
 7013SOL     OW21937   0.674   0.261   0.381
 7013SOL    HW121938   0.773   0.272   0.377
 7013SOL    HW221939   0.640   0.235   0.290
 7014SOL     OW21940   4.320   3.326   1.038
 7014SOL    HW121941   4.237   3.379   1.056
 7014SOL    HW221942   4.298   3.228   1.041
 7015SOL     OW21943   6.408   4.467   1.710
 7015SOL    HW121944   6.360   4.502   1.791
 7015SOL    HW221945   6.342   4.452   1.636
 7016SOL     OW21946   3.417   4.838   1.243
 7016SOL    HW121947   3.457   4.823   1.334
 7016SOL    HW221948   3.485   4.817   1.173
 7017SOL     OW21949   2.566   5.014   3.118
 7017SOL    HW121950   2.493   4.957   3.081
 7017SOL    HW221951   2.531   5.107   3.133
 7018SOL     OW21952   5.501   2.978   4.285
 7018SOL    HW121953   5.526   3.022   4.371
 7018SOL    HW221954   5.582   2.936   4.244
 7019SOL     OW21955   4.207   4.338   0.679
 7019SOL    HW121956   4.198   4.314   0.582
 7019SOL    HW221957   4.277   4.409   0.690
 7020SOL     OW21958   6.625   4.809   6.316
 7020SOL    HW121959   6.549   4.811   6.381
 7020SOL    HW221960   6.699   4.752   6.353
 7021SOL     OW21961   1.539   1.837   5.655
 7021SOL    HW121962   1.637   1.829   5.641
 7021SOL    HW221963   1.491   1.811   5.571
 7022SOL     OW21964   4.447   6.603   5.620
 7022SOL    HW121965   4.417   6.556   5.537
 7022SOL    HW221966   4.466   6.699   5.599
 7023SOL     OW21967   0.542   2.444   3.613
 7023SOL    HW121968   0.624   2.478   3.659
 7023SOL    HW221969   0.548   2.464   3.515
 7024SOL     OW21970   2.888   3.946   5.105
 7024SOL    HW121971   2.791   3.947   5.127
 7024SOL    HW221972   2.902   3.908   5.014
 7025SOL     OW21973   3.547   0.907   0.640
 7025SOL    HW121974   3.521   0.823   0.593
 7025SOL    HW221975   3.514   0.986   0.588
 7026SOL     OW21976   3.111   2.112   2.233
 7026SOL    HW121977   3.130   2.052   2.310
 7026SOL    HW221978   3.187   2.110   2.168
 7027SOL     OW21979   2.570   5.095   4.217
 7027SOL    HW121980   2.565   5.139   4.306
 7027SOL    HW221981   2.514   5.013   4.217
 7028SOL     OW21982   3.214   1.740   3.915
 7028SOL    HW121983   3.123   1.698   3.914
 7028SOL    HW221984   3.281   1.675   3.879
 7029SOL     OW21985   5.013   4.902   4.908
 7029SOL    HW121986   4.995   4.834   4.838
 7029SOL    HW221987   5.105   4.889   4.946
 7030SOL     OW21988   1.150   0.723   4.783
 7030SOL    HW121989   1.155   0.673   4.870
 7030SOL    HW221990   1.077   0.791   4.788
 7031SOL     OW21991   4.278   5.756   5.688
 7031SOL    HW121992   4.356   5.733   5.629
 7031SOL    HW221993   4.268   5.856   5.692
 7032SOL     OW21994   4.062   1.400   3.965
 7032SOL    HW121995   3.989   1.336   3.990
 7032SOL    HW221996   4.150   1.352   3.963
 7033SOL     OW21997   1.618   2.350   3.287
 7033SOL    HW121998   1.536   2.294   3.295
 7033SOL    HW221999   1.618   2.420   3.358
 7034SOL     OW22000   6.992   0.677   3.421
 7034SOL    HW122001   6.978   0.708   3.515
 7034SOL    HW222002   0.039   0.606   3.420
 7035SOL     OW22003   1.840   6.913   0.714
 7035SOL    HW122004   1.768   6.974   0.682
 7035SOL    HW222005   1.915   6.912   0.648
 7036SOL     OW22006   0.125   0.227   3.245
 7036SOL    HW122007   0.196   0.296   3.259
 7036SOL    HW222008   0.157   0.160   3.177
 7037SOL     OW22009   1.517   0.889   6.511
 7037SOL    HW122010   1.552   0.950   6.440
 7037SOL    HW222011   1.512   0.938   6.598
 7038SOL     OW22012   2.130   3.548   5.315
 7038SOL    HW122013   2.135   3.601   5.230
 7038SOL    HW222014   2.204   3.480   5.316
 7039SOL     OW22015   2.064   5.403   2.333
 7039SOL    HW122016   2.092   5.388   2.428
 7039SOL    HW222017   2.127   5.468   2.289
 7040SOL     OW22018   5.411   2.416   5.631
 7040SOL    HW122019   5.330   2.361   5.651
 7040SOL    HW222020   5.418   2.491   5.697
 7041SOL     OW22021   6.226   1.337   2.002
 7041SOL    HW122022   6.225   1.354   2.101
 7041SOL    HW222023   6.259   1.245   1.984
 7042SOL     OW22024   4.481   5.311   5.108
 7042SOL    HW122025   4.550   5.288   5.177
 7042SOL    HW222026   4.440   5.227   5.072
 7043SOL     OW22027   2.155   4.819   2.702
 7043SOL    HW122028   2.165   4.750   2.630
 7043SOL    HW222029   2.139   4.773   2.789
 7044SOL     OW22030   5.976   4.894   4.366
 7044SOL    HW122031   5.969   4.921   4.462
 7044SOL    HW222032   5.897   4.931   4.316
 7045SOL     OW22033   4.791   5.417   2.805
 7045SOL    HW122034   4.737   5.436   2.723
 7045SOL    HW222035   4.853   5.340   2.788
 7046SOL     OW22036   2.776   0.812   3.584
 7046SOL    HW122037   2.750   0.888   3.524
 7046SOL    HW222038   2.768   0.726   3.534
 7047SOL     OW22039   6.400   0.902   2.384
 7047SOL    HW122040   6.498   0.913   2.372
 7047SOL    HW222041   6.368   0.963   2.457
 7048SOL     OW22042   5.400   0.281   3.611
 7048SOL    HW122043   5.349   0.242   3.688
 7048SOL    HW222044   5.498   0.279   3.632
 7049SOL     OW22045   3.365   1.497   0.684
 7049SOL    HW122046   3.460   1.529   0.683
 7049SOL    HW222047   3.329   1.497   0.591
 7050SOL     OW22048   4.147   3.914   1.669
 7050SOL    HW122049   4.064   3.903   1.614
 7050SOL    HW222050   4.153   3.840   1.736
 7051SOL     OW22051   6.301   6.386   0.894
 7051SOL    HW122052   6.201   6.391   0.905
 7051SOL    HW222053   6.343   6.373   0.984
 7052SOL     OW22054   5.885   1.749   3.430
 7052SOL    HW122055   5.957   1.783   3.369
 7052SOL    HW222056   5.826   1.687   3.379
 7053SOL     OW22057   1.609   2.896   5.342
 7053SOL    HW122058   1.684   2.930   5.285
 7053SOL    HW222059   1.531   2.958   5.335
 7054SOL     OW22060   6.414   6.945   0.493
 7054SOL    HW122061   6.371   6.867   0.539
 7054SOL    HW222062   6.499   6.969   0.540
 7055SOL     OW22063   2.744   6.730   6.456
 7055SOL    HW122064   2.742   6.698   6.362
 7055SOL    HW222065   2.652   6.762   6.482
 7056SOL     OW22066   0.252   4.736   1.432
 7056SOL    HW122067   0.265   4.646   1.474
 7056SOL    HW222068   0.288   4.734   1.339
 7057SOL     OW22069   2.731   4.652   4.107
 7057SOL    HW122070   2.689   4.696   4.027
 7057SOL    HW222071   2.675   4.573   4.134
 7058SOL     OW22072   5.519   4.099   5.150
 7058SOL    HW122073   5.595   4.034   5.157
 7058SOL    HW222074   5.475   4.107   5.240
 7059SOL     OW22075   0.589   1.439   3.622
 7059SOL    HW122076   0.659   1.367   3.618
 7059SOL    HW222077   0.501   1.399   3.647
 7060SOL     OW22078   3.268   6.885   1.829
 7060SOL    HW122079   3.283   6.922   1.920
 7060SOL    HW222080   3.296   6.953   1.761
 7061SOL     OW22081   0.200   3.186   4.056
 7061SOL    HW122082   0.247   3.114   4.004
 7061SOL    HW222083   0.112   3.205   4.013
 7062SOL     OW22084   3.521   1.835   5.937
 7062SOL    HW122085   3.471   1.893   5.873
 7062SOL    HW222086   3.619   1.852   5.929
 7063SOL     OW22087   1.318   6.929   1.857
 7063SOL    HW122088   1.300   6.884   1.769
 7063SOL    HW222089   1.261   6.888   1.928
 7064SOL     OW22090   3.629   2.078   6.876
 7064SOL    HW122091   3.690   2.155   6.858
 7064SOL    HW222092   3.677   2.011   6.933
 7065SOL     OW22093   5.280   3.745   5.926
 7065SOL    HW122094   5.275   3.779   6.020
 7065SOL    HW222095   5.187   3.728   5.892
 7066SOL     OW22096   4.037   0.271   6.666
 7066SOL    HW122097   4.128   0.309   6.683
 7066SOL    HW222098   4.046   0.193   6.604
 7067SOL     OW22099   1.654   2.714   5.549
 7067SOL    HW122100   1.596   2.634   5.565
 7067SOL    HW222101   1.604   2.781   5.494
 7068SOL     OW22102   6.327   4.950   4.668
 7068SOL    HW122103   6.272   4.884   4.617
 7068SOL    HW222104   6.332   4.922   4.764
 7069SOL     OW22105   5.323   2.368   4.471
 7069SOL    HW122106   5.397   2.303   4.487
 7069SOL    HW222107   5.257   2.362   4.546
 7070SOL     OW22108   0.044   6.944   4.915
 7070SOL    HW122109   0.081   6.928   5.006
 7070SOL    HW222110   0.078   0.007   4.880
 7071SOL     OW22111   3.627   6.207   5.638
 7071SOL    HW122112   3.601   6.265   5.715
 7071SOL    HW222113   3.606   6.253   5.552
 7072SOL     OW22114   1.912   5.925   6.845
 7072SOL    HW122115   1.854   5.897   6.921
 7072SOL    HW222116   1.856   5.967   6.774
 7073SOL     OW22117   5.159   0.034   4.000
 7073SOL    HW122118   5.084   0.040   3.935
 7073SOL    HW222119   5.128   7.015   4.084
 7074SOL     OW22120   6.081   2.519   2.100
 7074SOL    HW122121   5.991   2.543   2.063
 7074SOL    HW222122   6.149   2.585   2.068
 7075SOL     OW22123   1.748   4.219   4.914
 7075SOL    HW122124   1.653   4.198   4.890
 7075SOL    HW222125   1.781   4.150   4.980
 7076SOL     OW22126   5.792   2.616   6.706
 7076SOL    HW122127   5.737   2.656   6.632
 7076SOL    HW222128   5.863   2.680   6.733
 7077SOL     OW22129   2.197   4.672   3.836
 7077SOL    HW122130   2.098   4.683   3.826
 7077SOL    HW222131   2.224   4.581   3.805
 7078SOL     OW22132   6.688   6.539   1.929
 7078SOL    HW122133   6.723   6.496   2.013
 7078SOL    HW222134   6.765   6.565   1.871
 7079SOL     OW22135   0.264   6.893   4.447
 7079SOL    HW122136   0.252   6.874   4.544
 7079SOL    HW222137   0.183   6.863   4.397
 7080SOL     OW22138   3.592   1.220   5.106
 7080SOL    HW122139   3.604   1.319   5.117
 7080SOL    HW222140   3.664   1.184   5.046
 7081SOL     OW22141   2.133   6.330   6.980
 7081SOL    HW122142   2.190   6.376   0.025
 7081SOL    HW222143   2.037   6.352   6.996
 7082SOL     OW22144   6.822   4.569   7.011
 7082SOL    HW122145   6.903   4.621   6.982
 7082SOL    HW222146   6.761   4.556   6.932
 7083SOL     OW22147   1.629   0.344   1.390
 7083SOL    HW122148   1.615   0.436   1.353
 7083SOL    HW222149   1.543   0.311   1.430
 7084SOL     OW22150   0.325   5.084   5.348
 7084SOL    HW122151   0.264   5.116   5.420
 7084SOL    HW222152   0.271   5.057   5.268
 7085SOL     OW22153   0.442   1.683   2.625
 7085SOL    HW122154   0.427   1.780   2.646
 7085SOL    HW222155   0.484   1.675   2.535
 7086SOL     OW22156   5.862   0.443   5.976
 7086SOL    HW122157   5.781   0.402   6.017
 7086SOL    HW222158   5.899   0.381   5.906
 7087SOL     OW22159   6.032   3.743   3.198
 7087SOL    HW122160   6.112   3.730   3.256
 7087SOL    HW222161   5.950   3.716   3.248
 7088SOL     OW22162   4.953   2.653   4.112
 7088SOL    HW122163   4.915   2.562   4.099
 7088SOL    HW222164   5.017   2.674   4.039
 7089SOL     OW22165   2.549   2.213   4.647
 7089SOL    HW122166   2.627   2.265   4.681
 7089SOL    HW222167   2.535   2.133   4.705
 7090SOL     OW22168   1.594   1.096   0.553
 7090SOL    HW122169   1.615   1.173   0.613
 7090SOL    HW222170   1.500   1.105   0.520
 7091SOL     OW22171   0.400   2.269   0.941
 7091SOL    HW122172   0.474   2.332   0.965
 7091SOL    HW222173   0.410   2.241   0.846
 7092SOL     OW22174   4.060   2.906   5.513
 7092SOL    HW122175   4.022   2.826   5.560
 7092SOL    HW222176   4.136   2.878   5.455
 7093SOL     OW22177   3.212   4.024   1.947
 7093SOL    HW122178   3.118   3.996   1.967
 7093SOL    HW222179   3.254   4.062   2.029
 7094SOL     OW22180   6.780   5.971   5.366
 7094SOL    HW122181   6.742   6.055   5.327
 7094SOL    HW222182   6.788   5.901   5.295
 7095SOL     OW22183   3.348   4.787   5.715
 7095SOL    HW122184   3.360   4.881   5.682
 7095SOL    HW222185   3.311   4.730   5.642
 7096SOL     OW22186   6.658   0.916   2.336
 7096SOL    HW122187   6.711   0.843   2.379
 7096SOL    HW222188   6.719   0.983   2.295
 7097SOL     OW22189   4.789   0.813   1.605
 7097SOL    HW122190   4.887   0.791   1.609
 7097SOL    HW222191   4.755   0.829   1.698
 7098SOL     OW22192   2.282   5.561   5.177
 7098SOL    HW122193   2.351   5.488   5.172
 7098SOL    HW222194   2.312   5.638   5.121
 7099SOL     OW22195   3.839   1.501   5.335
 7099SOL    HW122196   3.803   1.585   5.296
 7099SOL    HW222197   3.763   1.441   5.360
 7100SOL     OW22198   6.967   3.656   0.280
 7100SOL    HW122199   6.974   3.730   0.213
 7100SOL    HW222200   6.872   3.642   0.305
 7101SOL     OW22201   2.732   1.836   5.370
 7101SOL    HW122202   2.754   1.860   5.465
 7101SOL    HW222203   2.639   1.799   5.366
 7102SOL     OW22204   5.381   0.144   1.086
 7102SOL    HW122205   5.363   0.084   1.164
 7102SOL    HW222206   5.464   0.197   1.103
 7103SOL     OW22207   5.845   5.462   1.730
 7103SOL    HW122208   5.907   5.489   1.804
 7103SOL    HW222209   5.772   5.530   1.721
 7104SOL     OW22210   6.257   3.668   2.699
 7104SOL    HW122211   6.163   3.700   2.690
 7104SOL    HW222212   6.320   3.734   2.657
 7105SOL     OW22213   2.795   3.429   5.253
 7105SOL    HW122214   2.846   3.344   5.240
 7105SOL    HW222215   2.705   3.408   5.291
 7106SOL     OW22216   3.710   3.411   1.935
 7106SOL    HW122217   3.796   3.459   1.952
 7106SOL    HW222218   3.642   3.439   2.002
 7107SOL     OW22219   4.890   0.542   0.699
 7107SOL    HW122220   4.840   0.605   0.758
 7107SOL    HW222221   4.978   0.583   0.674
 7108SOL     OW22222   3.027   5.986   2.757
 7108SOL    HW122223   3.003   5.954   2.666
 7108SOL    HW222224   3.105   6.047   2.752
 7109SOL     OW22225   1.888   6.718   5.267
 7109SOL    HW122226   1.893   6.661   5.350
 7109SOL    HW222227   1.978   6.717   5.222
 7110SOL     OW22228   2.718   5.884   4.426
 7110SOL    HW122229   2.774   5.821   4.480
 7110SOL    HW222230   2.645   5.833   4.381
 7111SOL     OW22231   0.827   2.654   5.109
 7111SOL    HW122232   0.862   2.571   5.153
 7111SOL    HW222233   0.845   2.733   5.168
 7112SOL     OW22234   1.886   5.168   4.231
 7112SOL    HW122235   1.983   5.156   4.211
 7112SOL    HW222236   1.832   5.146   4.149
 7113SOL     OW22237   3.409   4.177   4.481
 7113SOL    HW122238   3.432   4.273   4.463
 7113SOL    HW222239   3.418   4.124   4.396
 7114SOL     OW22240   5.187   5.299   0.672
 7114SOL    HW122241   5.151   5.390   0.696
 7114SOL    HW222242   5.235   5.261   0.751
 7115SOL     OW22243   4.807   3.015   0.092
 7115SOL    HW122244   4.900   2.986   0.114
 7115SOL    HW222245   4.748   2.935   0.083
 7116SOL     OW22246   5.856   4.335   3.068
 7116SOL    HW122247   5.850   4.295   3.160
 7116SOL    HW222248   5.847   4.262   3.000
 7117SOL     OW22249   0.811   5.961   5.198
 7117SOL    HW122250   0.775   5.955   5.292
 7117SOL    HW222251   0.780   6.046   5.156
 7118SOL     OW22252   3.174   5.187   6.421
 7118SOL    HW122253   3.171   5.203   6.322
 7118SOL    HW222254   3.149   5.092   6.440
 7119SOL     OW22255   5.007   1.502   4.054
 7119SOL    HW122256   4.976   1.435   4.120
 7119SOL    HW222257   4.963   1.590   4.072
 7120SOL     OW22258   3.398   2.079   2.122
 7120SOL    HW122259   3.332   2.133   2.070
 7120SOL    HW222260   3.488   2.124   2.117
 7121SOL     OW22261   0.669   0.084   3.752
 7121SOL    HW122262   0.708   0.062   3.662
 7121SOL    HW222263   0.617   0.006   3.786
 7122SOL     OW22264   1.447   0.814   5.869
 7122SOL    HW122265   1.521   0.853   5.924
 7122SOL    HW222266   1.432   0.872   5.788
 7123SOL     OW22267   1.428   4.879   3.480
 7123SOL    HW122268   1.401   4.924   3.395
 7123SOL    HW222269   1.443   4.782   3.464
 7124SOL     OW22270   0.288   2.020   1.566
 7124SOL    HW122271   0.229   2.026   1.647
 7124SOL    HW222272   0.248   1.954   1.502
 7125SOL     OW22273   0.786   0.332   0.754
 7125SOL    HW122274   0.747   0.394   0.685
 7125SOL    HW222275   0.718   0.264   0.779
 7126SOL     OW22276   3.793   5.174   0.340
 7126SOL    HW122277   3.885   5.146   0.370
 7126SOL    HW222278   3.746   5.095   0.299
 7127SOL     OW22279   2.195   5.792   6.390
 7127SOL    HW122280   2.102   5.759   6.374
 7127SOL    HW222281   2.246   5.725   6.443
 7128SOL     OW22282   3.611   4.156   6.736
 7128SOL    HW122283   3.513   4.171   6.751
 7128SOL    HW222284   3.642   4.211   6.659
 7129SOL     OW22285   2.515   1.385   0.490
 7129SOL    HW122286   2.554   1.389   0.398
 7129SOL    HW222287   2.531   1.471   0.538
 7130SOL     OW22288   3.816   5.958   3.749
 7130SOL    HW122289   3.859   5.895   3.684
 7130SOL    HW222290   3.845   5.935   3.842
 7131SOL     OW22291   2.689   0.918   1.499
 7131SOL    HW122292   2.761   0.848   1.493
 7131SOL    HW222293   2.713   0.984   1.570
 7132SOL     OW22294   3.764   4.305   0.380
 7132SOL    HW122295   3.861   4.283   0.366
 7132SOL    HW222296   3.745   4.310   0.478
 7133SOL     OW22297   4.425   4.745   5.249
 7133SOL    HW122298   4.469   4.833   5.236
 7133SOL    HW222299   4.329   4.759   5.274
 7134SOL     OW22300   4.690   6.986   1.772
 7134SOL    HW122301   4.636   7.008   1.853
 7134SOL    HW222302   4.643   6.915   1.719
 7135SOL     OW22303   1.694   2.514   3.582
 7135SOL    HW122304   1.677   2.612   3.575
 7135SOL    HW222305   1.792   2.498   3.593
 7136SOL     OW22306   2.804   1.981   0.259
 7136SOL    HW122307   2.788   1.973   0.161
 7136SOL    HW222308   2.866   1.909   0.289
 7137SOL     OW22309   2.795   1.275   0.499
 7137SOL    HW122310   2.894   1.286   0.511
 7137SOL    HW222311   2.749   1.359   0.526
 7138SOL     OW22312   1.997   1.902   0.445
 7138SOL    HW122313   2.095   1.892   0.428
 7138SOL    HW222314   1.981   1.921   0.542
 7139SOL     OW22315   5.530   4.893   1.846
 7139SOL    HW122316   5.481   4.954   1.908
 7139SOL    HW222317   5.529   4.931   1.754
 7140SOL     OW22318   6.840   4.293   1.015
 7140SOL    HW122319   6.879   4.265   1.103
 7140SOL    HW222320   6.869   4.386   0.994
 7141SOL     OW22321   3.932   6.392   0.710
 7141SOL    HW122322   3.920   6.489   0.730
 7141SOL    HW222323   3.854   6.359   0.658
 7142SOL     OW22324   3.815   6.656   3.123
 7142SOL    HW122325   3.887   6.695   3.181
 7142SOL    HW222326   3.855   6.588   3.062
 7143SOL     OW22327   1.830   3.258   6.920
 7143SOL    HW122328   1.824   3.344   6.870
 7143SOL    HW222329   1.800   3.272   7.014
 7144SOL     OW22330   1.670   1.748   2.718
 7144SOL    HW122331   1.656   1.709   2.809
 7144SOL    HW222332   1.754   1.803   2.718
 7145SOL     OW22333   3.503   0.344   6.345
 7145SOL    HW122334   3.522   0.348   6.247
 7145SOL    HW222335   3.458   0.428   6.374
 7146SOL     OW22336   1.532   0.224   6.727
 7146SOL    HW122337   1.488   0.305   6.767
 7146SOL    HW222338   1.482   0.142   6.755
 7147SOL     OW22339   0.133   6.521   3.042
 7147SOL    HW122340   0.132   6.590   2.970
 7147SOL    HW222341   0.089   6.437   3.010
 7148SOL     OW22342   6.443   6.341   1.143
 7148SOL    HW122343   6.475   6.366   1.234
 7148SOL    HW222344   6.423   6.243   1.140
 7149SOL     OW22345   0.315   6.266   4.273
 7149SOL    HW122346   0.295   6.168   4.267
 7149SOL    HW222347   0.242   6.312   4.324
 7150SOL     OW22348   3.737   3.049   0.786
 7150SOL    HW122349   3.722   2.952   0.768
 7150SOL    HW222350   3.755   3.097   0.699
 7151SOL     OW22351   3.462   6.350   0.668
 7151SOL    HW122352   3.398   6.417   0.630
 7151SOL    HW222353   3.457   6.351   0.768
 7152SOL     OW22354   6.715   0.745   5.302
 7152SOL    HW122355   6.777   0.739   5.224
 7152SOL    HW222356   6.768   0.764   5.385
 7153SOL     OW22357   3.962   5.225   1.699
 7153SOL    HW122358   3.893   5.290   1.664
 7153SOL    HW222359   4.021   5.197   1.623
 7154SOL     OW22360   4.949   6.649   3.486
 7154SOL    HW122361   4.942   6.727   3.424
 7154SOL    HW222362   4.859   6.628   3.524
 7155SOL     OW22363   3.184   3.320   1.038
 7155SOL    HW122364   3.109   3.329   1.104
 7155SOL    HW222365   3.185   3.228   1.000
 7156SOL     OW22366   6.870   3.767   2.704
 7156SOL    HW122367   6.867   3.861   2.668
 7156SOL    HW222368   6.788   3.750   2.758
 7157SOL     OW22369   0.357   4.671   1.179
 7157SOL    HW122370   0.440   4.651   1.231
 7157SOL    HW222371   0.377   4.742   1.111
 7158SOL     OW22372   0.942   0.310   4.286
 7158SOL    HW122373   0.989   0.222   4.274
 7158SOL    HW222374   1.009   0.384   4.287
 7159SOL     OW22375   1.018   4.795   3.662
 7159SOL    HW122376   1.102   4.793   3.716
 7159SOL    HW222377   0.941   4.818   3.722
 7160SOL     OW22378   5.851   0.076   3.114
 7160SOL    HW122379   5.902   0.162   3.105
 7160SOL    HW222380   5.914   7.023   3.109
 7161SOL     OW22381   3.316   4.131   2.927
 7161SOL    HW122382   3.327   4.230   2.930
 7161SOL    HW222383   3.280   4.103   2.838
 7162SOL     OW22384   1.474   5.242   6.134
 7162SOL    HW122385   1.485   5.247   6.035
 7162SOL    HW222386   1.385   5.201   6.156
 7163SOL     OW22387   2.648   0.252   2.535
 7163SOL    HW122388   2.568   0.294   2.577
 7163SOL    HW222389   2.693   0.318   2.476
 7164SOL     OW22390   2.885   0.316   5.227
 7164SOL    HW122391   2.971   0.356   5.195
 7164SOL    HW222392   2.822   0.390   5.252
 7165SOL     OW22393   5.887   6.483   1.839
 7165SOL    HW122394   5.983   6.505   1.855
 7165SOL    HW222395   5.829   6.547   1.888
 7166SOL     OW22396   4.856   1.934   0.842
 7166SOL    HW122397   4.934   1.982   0.802
 7166SOL    HW222398   4.876   1.909   0.937
 7167SOL     OW22399   5.209   3.049   4.636
 7167SOL    HW122400   5.203   3.083   4.542
 7167SOL    HW222401   5.166   3.115   4.697
 7168SOL     OW22402   2.097   2.759   3.819
 7168SOL    HW122403   2.053   2.813   3.747
 7168SOL    HW222404   2.176   2.711   3.780
 7169SOL     OW22405   0.085   3.937   5.651
 7169SOL    HW122406   0.033   3.872   5.707
 7169SOL    HW222407   0.044   3.944   5.560
 7170SOL     OW22408   4.689   6.853   2.313
 7170SOL    HW122409   4.648   6.777   2.363
 7170SOL    HW222410   4.661   6.939   2.355
 7171SOL     OW22411   5.911   4.129   0.606
 7171SOL    HW122412   5.994   4.157   0.654
 7171SOL    HW222413   5.920   4.035   0.575
 7172SOL     OW22414   2.069   7.008   4.894
 7172SOL    HW122415   2.024   0.066   4.860
 7172SOL    HW222416   2.122   6.966   4.821
 7173SOL     OW22417   6.324   4.195   6.904
 7173SOL    HW122418   6.388   4.201   6.980
 7173SOL    HW222419   6.270   4.111   6.913
 7174SOL     OW22420   1.093   3.794   0.922
 7174SOL    HW122421   1.048   3.815   0.836
 7174SOL    HW222422   1.025   3.790   0.995
 7175SOL     OW22423   5.903   3.044   5.068
 7175SOL    HW122424   5.817   3.080   5.030
 7175SOL    HW222425   5.944   2.981   5.002
 7176SOL     OW22426   0.012   1.354   3.279
 7176SOL    HW122427   6.999   1.354   3.187
 7176SOL    HW222428   0.032   1.448   3.307
 7177SOL     OW22429   1.227   4.705   5.051
 7177SOL    HW122430   1.238   4.656   4.964
 7177SOL    HW222431   1.138   4.750   5.052
 7178SOL     OW22432   6.876   2.002   5.566
 7178SOL    HW122433   6.974   2.017   5.575
 7178SOL    HW222434   6.830   2.088   5.546
 7179SOL     OW22435   1.713   3.524   4.912
 7179SOL    HW122436   1.681   3.618   4.901
 7179SOL    HW222437   1.805   3.525   4.951
 7180SOL     OW22438   2.318   4.712   0.242
 7180SOL    HW122439   2.279   4.682   0.329
 7180SOL    HW222440   2.245   4.739   0.180
 7181SOL     OW22441   2.304   0.307   0.339
 7181SOL    HW122442   2.264   0.389   0.380
 7181SOL    HW222443   2.385   0.280   0.391
 7182SOL     OW22444   0.059   3.806   4.283
 7182SOL    HW122445   0.100   3.828   4.372
 7182SOL    HW222446   0.080   3.879   4.218
 7183SOL     OW22447   1.794   5.858   1.551
 7183SOL    HW122448   1.695   5.865   1.567
 7183SOL    HW222449   1.819   5.762   1.542
 7184SOL     OW22450   6.838   1.474   4.089
 7184SOL    HW122451   6.931   1.439   4.076
 7184SOL    HW222452   6.841   1.574   4.096
 7185SOL     OW22453   5.274   1.021   5.290
 7185SOL    HW122454   5.233   1.048   5.377
 7185SOL    HW222455   5.367   1.056   5.285
 7186SOL     OW22456   6.451   1.797   2.030
 7186SOL    HW122457   6.387   1.747   2.088
 7186SOL    HW222458   6.402   1.835   1.951
 7187SOL     OW22459   3.041   4.145   5.225
 7187SOL    HW122460   2.979   4.095   5.165
 7187SOL    HW222461   2.999   4.155   5.315
 7188SOL     OW22462   5.071   6.641   6.579
 7188SOL    HW122463   5.011   6.713   6.613
 7188SOL    HW222464   5.033   6.551   6.603
 7189SOL     OW22465   6.564   1.305   5.497
 7189SOL    HW122466   6.590   1.255   5.580
 7189SOL    HW222467   6.636   1.296   5.429
 7190SOL     OW22468   6.605   5.319   1.660
 7190SOL    HW122469   6.524   5.338   1.604
 7190SOL    HW222470   6.580   5.320   1.757
 7191SOL     OW22471   1.544   4.923   2.506
 7191SOL    HW122472   1.474   4.899   2.438
 7191SOL    HW222473   1.626   4.956   2.459
 7192SOL     OW22474   1.885   4.443   5.969
 7192SOL    HW122475   1.890   4.350   6.007
 7192SOL    HW222476   1.916   4.441   5.873
 7193SOL     OW22477   1.681   2.366   2.052
 7193SOL    HW122478   1.621   2.360   2.132
 7193SOL    HW222479   1.682   2.277   2.005
 7194SOL     OW22480   1.996   2.651   0.742
 7194SOL    HW122481   1.912   2.689   0.703
 7194SOL    HW222482   2.060   2.725   0.760
 7195SOL     OW22483   0.298   4.196   0.233
 7195SOL    HW122484   0.236   4.273   0.218
 7195SOL    HW222485   0.380   4.228   0.282
 7196SOL     OW22486   2.174   3.689   1.650
 7196SOL    HW122487   2.256   3.734   1.687
 7196SOL    HW222488   2.201   3.609   1.598
 7197SOL     OW22489   0.692   2.948   5.460
 7197SOL    HW122490   0.695   2.998   5.547
 7197SOL    HW222491   0.785   2.932   5.428
 7198SOL     OW22492   0.359   1.058   0.642
 7198SOL    HW122493   0.351   1.137   0.702
 7198SOL    HW222494   0.272   1.042   0.595
 7199SOL     OW22495   0.989   7.015   2.250
 7199SOL    HW122496   1.000   0.080   2.293
 7199SOL    HW222497   1.016   6.944   2.316
 7200SOL     OW22498   2.016   2.698   6.815
 7200SOL    HW122499   2.006   2.748   6.729
 7200SOL    HW222500   2.076   2.749   6.876
 7201SOL     OW22501   0.804   6.241   3.858
 7201SOL    HW122502   0.847   6.166   3.908
 7201SOL    HW222503   0.820   6.327   3.906
 7202SOL     OW22504   4.364   6.760   6.726
 7202SOL    HW122505   4.295   6.714   6.782
 7202SOL    HW222506   4.341   6.857   6.718
 7203SOL     OW22507   6.894   0.968   1.176
 7203SOL    HW122508   6.854   0.925   1.256
 7203SOL    HW222509   6.917   1.063   1.197
 7204SOL     OW22510   0.385   1.228   6.115
 7204SOL    HW122511   0.358   1.225   6.019
 7204SOL    HW222512   0.364   1.141   6.158
 7205SOL     OW22513   1.534   3.952   5.069
 7205SOL    HW122514   1.620   3.907   5.048
 7205SOL    HW222515   1.462   3.919   5.008
 7206SOL     OW22516   1.195   0.132   2.388
 7206SOL    HW122517   1.222   0.071   2.462
 7206SOL    HW222518   1.220   0.226   2.412
 7207SOL     OW22519   3.414   0.371   3.854
 7207SOL    HW122520   3.383   0.307   3.784
 7207SOL    HW222521   3.428   0.461   3.812
 7208SOL     OW22522   4.160   0.174   3.809
 7208SOL    HW122523   4.226   0.217   3.747
 7208SOL    HW222524   4.156   0.226   3.894
 7209SOL     OW22525   2.693   3.200   1.719
 7209SOL    HW122526   2.769   3.137   1.701
 7209SOL    HW222527   2.730   3.287   1.755
 7210SOL     OW22528   3.977   0.948   2.597
 7210SOL    HW122529   3.953   0.958   2.694
 7210SOL    HW222530   3.899   0.911   2.547
 7211SOL     OW22531   1.704   6.147   4.890
 7211SOL    HW122532   1.743   6.215   4.952
 7211SOL    HW222533   1.610   6.125   4.919
 7212SOL     OW22534   0.437   6.108   5.112
 7212SOL    HW122535   0.379   6.028   5.125
 7212SOL    HW222536   0.436   6.164   5.194
 7213SOL     OW22537   4.123   6.415   6.333
 7213SOL    HW122538   4.117   6.341   6.266
 7213SOL    HW222539   4.184   6.387   6.407
 7214SOL     OW22540   6.764   0.332   4.629
 7214SOL    HW122541   6.822   0.283   4.564
 7214SOL    HW222542   6.801   0.323   4.721
 7215SOL     OW22543   6.701   3.499   3.836
 7215SOL    HW122544   6.746   3.501   3.747
 7215SOL    HW222545   6.639   3.421   3.840
 7216SOL     OW22546   3.301   0.066   0.836
 7216SOL    HW122547   3.305   0.049   0.934
 7216SOL    HW222548   3.378   0.125   0.809
 7217SOL     OW22549   1.775   3.959   3.153
 7217SOL    HW122550   1.760   3.882   3.216
 7217SOL    HW222551   1.873   3.974   3.142
 7218SOL     OW22552   6.333   2.897   4.015
 7218SOL    HW122553   6.234   2.900   4.031
 7218SOL    HW222554   6.371   2.817   4.061
 7219SOL     OW22555   3.727   0.225   3.186
 7219SOL    HW122556   3.642   0.184   3.153
 7219SOL    HW222557   3.739   0.204   3.283
 7220SOL     OW22558   6.871   4.284   4.624
 7220SOL    HW122559   6.929   4.244   4.553
 7220SOL    HW222560   6.843   4.213   4.688
 7221SOL     OW22561   3.398   5.579   4.612
 7221SOL    HW122562   3.399   5.534   4.523
 7221SOL    HW222563   3.410   5.511   4.684
 7222SOL     OW22564   6.243   6.639   3.482
 7222SOL    HW122565   6.222   6.551   3.524
 7222SOL    HW222566   6.269   6.704   3.553
 7223SOL     OW22567   3.470   1.322   1.087
 7223SOL    HW122568   3.490   1.420   1.098
 7223SOL    HW222569   3.372   1.308   1.079
 7224SOL     OW22570   5.273   1.936   4.048
 7224SOL    HW122571   5.214   1.983   4.113
 7224SOL    HW222572   5.219   1.909   3.968
 7225SOL     OW22573   1.348   6.146   0.521
 7225SOL    HW122574   1.336   6.162   0.619
 7225SOL    HW222575   1.405   6.218   0.482
 7226SOL     OW22576   5.740   0.303   1.786
 7226SOL    HW122577   5.647   0.329   1.762
 7226SOL    HW222578   5.781   0.374   1.843
 7227SOL     OW22579   3.135   2.052   1.322
 7227SOL    HW122580   3.051   1.999   1.325
 7227SOL    HW222581   3.193   2.019   1.247
 7228SOL     OW22582   0.938   2.262   2.710
 7228SOL    HW122583   0.942   2.354   2.671
 7228SOL    HW222584   1.026   2.239   2.751
 7229SOL     OW22585   0.939   5.950   5.973
 7229SOL    HW122586   0.939   5.972   5.875
 7229SOL    HW222587   1.027   5.910   5.998
 7230SOL     OW22588   3.681   5.187   5.140
 7230SOL    HW122589   3.671   5.137   5.054
 7230SOL    HW222590   3.597   5.176   5.195
 7231SOL     OW22591   4.016   0.494   6.327
 7231SOL    HW122592   3.933   0.438   6.328
 7231SOL    HW222593   4.089   0.446   6.376
 7232SOL     OW22594   5.120   5.861   2.523
 7232SOL    HW122595   5.099   5.845   2.619
 7232SOL    HW222596   5.143   5.957   2.508
 7233SOL     OW22597   1.421   1.270   3.812
 7233SOL    HW122598   1.365   1.329   3.754
 7233SOL    HW222599   1.470   1.203   3.756
 7234SOL     OW22600   5.108   2.321   3.558
 7234SOL    HW122601   5.095   2.274   3.645
 7234SOL    HW222602   5.171   2.268   3.500
 7235SOL     OW22603   6.964   4.800   2.501
 7235SOL    HW122604   6.947   4.892   2.467
 7235SOL    HW222605   6.878   4.749   2.505
 7236SOL     OW22606   2.678   2.036   1.508
 7236SOL    HW122607   2.697   1.974   1.583
 7236SOL    HW222608   2.740   2.016   1.432
 7237SOL     OW22609   3.965   0.223   4.521
 7237SOL    HW122610   4.023   0.253   4.445
 7237SOL    HW222611   3.970   0.124   4.530
 7238SOL     OW22612   4.285   2.131   0.112
 7238SOL    HW122613   4.380   2.160   0.119
 7238SOL    HW222614   4.225   2.211   0.125
 7239SOL     OW22615   1.050   1.982   2.308
 7239SOL    HW122616   1.146   1.954   2.305
 7239SOL    HW222617   1.030   2.042   2.230
 7240SOL     OW22618   1.192   0.966   6.140
 7240SOL    HW122619   1.098   0.985   6.112
 7240SOL    HW222620   1.200   0.976   6.240
 7241SOL     OW22621   2.035   0.277   1.283
 7241SOL    HW122622   2.127   0.250   1.310
 7241SOL    HW222623   2.014   0.367   1.321
 7242SOL     OW22624   6.685   5.726   6.767
 7242SOL    HW122625   6.770   5.764   6.803
 7242SOL    HW222626   6.608   5.786   6.789
 7243SOL     OW22627   6.546   3.957   6.420
 7243SOL    HW122628   6.570   3.871   6.465
 7243SOL    HW222629   6.629   4.010   6.406
 7244SOL     OW22630   6.723   0.594   2.114
 7244SOL    HW122631   6.754   0.549   2.198
 7244SOL    HW222632   6.624   0.602   2.114
 7245SOL     OW22633   1.838   2.991   5.209
 7245SOL    HW122634   1.933   2.992   5.177
 7245SOL    HW222635   1.787   3.064   5.163
 7246SOL     OW22636   0.565   0.260   3.932
 7246SOL    HW122637   0.606   0.200   3.863
 7246SOL    HW222638   0.465   0.254   3.926
 7247SOL     OW22639   2.549   1.243   4.383
 7247SOL    HW122640   2.618   1.300   4.339
 7247SOL    HW222641   2.555   1.150   4.348
 7248SOL     OW22642   2.632   1.262   3.352
 7248SOL    HW122643   2.634   1.265   3.452
 7248SOL    HW222644   2.600   1.350   3.317
 7249SOL     OW22645   6.185   5.151   2.387
 7249SOL    HW122646   6.274   5.144   2.433
 7249SOL    HW222647   6.195   5.207   2.305
 7250SOL     OW22648   5.502   6.233   5.899
 7250SOL    HW122649   5.575   6.194   5.842
 7250SOL    HW222650   5.529   6.324   5.930
 7251SOL     OW22651   0.319   6.252   5.437
 7251SOL    HW122652   0.328   6.165   5.389
 7251SOL    HW222653   0.285   6.236   5.530
 7252SOL     OW22654   4.049   3.100   2.070
 7252SOL    HW122655   4.122   3.031   2.068
 7252SOL    HW222656   4.016   3.110   2.164
 7253SOL     OW22657   1.578   5.858   6.980
 7253SOL    HW122658   1.509   5.803   0.001
 7253SOL    HW222659   1.570   5.847   6.881
 7254SOL     OW22660   4.917   4.779   4.683
 7254SOL    HW122661   4.865   4.741   4.606
 7254SOL    HW222662   4.948   4.872   4.660
 7255SOL     OW22663   3.934   4.074   0.453
 7255SOL    HW122664   3.987   3.990   0.442
 7255SOL    HW222665   3.950   4.111   0.545
 7256SOL     OW22666   3.089   5.616   4.699
 7256SOL    HW122667   3.093   5.583   4.605
 7256SOL    HW222668   3.124   5.710   4.703
 7257SOL     OW22669   5.727   1.619   3.213
 7257SOL    HW122670   5.706   1.530   3.255
 7257SOL    HW222671   5.642   1.668   3.195
 7258SOL     OW22672   4.963   1.759   2.595
 7258SOL    HW122673   4.994   1.807   2.678
 7258SOL    HW222674   5.019   1.788   2.518
 7259SOL     OW22675   2.297   4.006   0.988
 7259SOL    HW122676   2.230   3.991   1.061
 7259SOL    HW222677   2.363   3.932   0.989
 7260SOL     OW22678   4.359   1.567   1.258
 7260SOL    HW122679   4.442   1.593   1.306
 7260SOL    HW222680   4.282   1.565   1.322
 7261SOL     OW22681   1.487   3.139   1.399
 7261SOL    HW122682   1.566   3.097   1.443
 7261SOL    HW222683   1.509   3.234   1.375
 7262SOL     OW22684   5.241   2.637   6.478
 7262SOL    HW122685   5.173   2.710   6.473
 7262SOL    HW222686   5.234   2.579   6.397
 7263SOL     OW22687   1.106   0.106   0.118
 7263SOL    HW122688   1.063   0.016   0.129
 7263SOL    HW222689   1.196   0.105   0.162
 7264SOL     OW22690   5.161   1.990   6.659
 7264SOL    HW122691   5.161   1.956   6.753
 7264SOL    HW222692   5.091   2.061   6.649
 7265SOL     OW22693   5.877   5.097   5.500
 7265SOL    HW122694   5.972   5.088   5.471
 7265SOL    HW222695   5.867   5.178   5.558
 7266SOL     OW22696   5.377   6.238   2.006
 7266SOL    HW122697   5.281   6.218   2.029
 7266SOL    HW222698   5.380   6.319   1.948
 7267SOL     OW22699   6.575   6.385   5.111
 7267SOL    HW122700   6.632   6.453   5.064
 7267SOL    HW222701   6.498   6.431   5.154
 7268SOL     OW22702   6.096   5.331   3.662
 7268SOL    HW122703   6.099   5.231   3.666
 7268SOL    HW222704   6.063   5.366   3.750
 7269SOL     OW22705   0.181   6.421   6.622
 7269SOL    HW122706   0.093   6.436   6.577
 7269SOL    HW222707   0.207   6.324   6.613
 7270SOL     OW22708   1.468   3.493   5.469
 7270SOL    HW122709   1.410   3.568   5.498
 7270SOL    HW222710   1.497   3.507   5.375
 7271SOL     OW22711   0.513   6.228   3.508
 7271SOL    HW122712   0.535   6.317   3.468
 7271SOL    HW222713   0.416   6.224   3.531
 7272SOL     OW22714   6.136   5.274   2.671
 7272SOL    HW122715   6.051   5.254   2.720
 7272SOL    HW222716   6.149   5.205   2.599
 7273SOL     OW22717   6.494   4.827   1.811
 7273SOL    HW122718   6.421   4.890   1.784
 7273SOL    HW222719   6.582   4.865   1.783
 7274SOL     OW22720   0.234   5.145   6.364
 7274SOL    HW122721   0.302   5.217   6.378
 7274SOL    HW222722   0.142   5.182   6.382
 7275SOL     OW22723   0.138   6.203   2.323
 7275SOL    HW122724   0.229   6.161   2.325
 7275SOL    HW222725   0.142   6.293   2.367
 7276SOL     OW22726   3.882   1.031   3.366
 7276SOL    HW122727   3.981   1.044   3.356
 7276SOL    HW222728   3.846   1.096   3.434
 7277SOL     OW22729   4.133   0.948   4.066
 7277SOL    HW122730   4.134   0.962   3.967
 7277SOL    HW222731   4.077   1.018   4.109
 7278SOL     OW22732   3.422   2.684   1.377
 7278SOL    HW122733   3.408   2.587   1.395
 7278SOL    HW222734   3.489   2.721   1.442
 7279SOL     OW22735   4.390   4.037   5.896
 7279SOL    HW122736   4.361   4.048   5.800
 7279SOL    HW222737   4.353   3.951   5.932
 7280SOL     OW22738   0.235   1.553   3.508
 7280SOL    HW122739   0.257   1.524   3.602
 7280SOL    HW222740   0.251   1.651   3.500
 7281SOL     OW22741   1.866   1.122   0.697
 7281SOL    HW122742   1.895   1.027   0.687
 7281SOL    HW222743   1.872   1.168   0.608
 7282SOL     OW22744   5.975   5.566   1.951
 7282SOL    HW122745   5.946   5.535   2.042
 7282SOL    HW222746   5.955   5.663   1.941
 7283SOL     OW22747   4.890   0.400   2.791
 7283SOL    HW122748   4.879   0.439   2.882
 7283SOL    HW222749   4.967   0.337   2.791
 7284SOL     OW22750   0.175   2.589   5.551
 7284SOL    HW122751   0.207   2.508   5.502
 7284SOL    HW222752   0.250   2.655   5.557
 7285SOL     OW22753   5.306   3.357   2.501
 7285SOL    HW122754   5.379   3.392   2.441
 7285SOL    HW222755   5.346   3.326   2.587
 7286SOL     OW22756   1.937   1.005   1.120
 7286SOL    HW122757   1.880   0.937   1.073
 7286SOL    HW222758   1.955   1.081   1.058
 7287SOL     OW22759   0.626   2.706   5.355
 7287SOL    HW122760   0.613   2.802   5.378
 7287SOL    HW222761   0.609   2.692   5.258
 7288SOL     OW22762   1.749   1.374   2.037
 7288SOL    HW122763   1.651   1.354   2.049
 7288SOL    HW222764   1.792   1.300   1.986
 7289SOL     OW22765   5.837   1.841   4.028
 7289SOL    HW122766   5.812   1.863   3.934
 7289SOL    HW222767   5.773   1.773   4.065
 7290SOL     OW22768   3.693   1.939   5.515
 7290SOL    HW122769   3.653   1.917   5.426
 7290SOL    HW222770   3.695   2.038   5.527
 7291SOL     OW22771   0.712   7.003   0.148
 7291SOL    HW122772   0.768   6.986   0.067
 7291SOL    HW222773   0.756   0.047   0.206
 7292SOL     OW22774   3.161   0.378   3.338
 7292SOL    HW122775   3.147   0.442   3.262
 7292SOL    HW222776   3.072   0.345   3.370
 7293SOL     OW22777   1.542   2.059   4.720
 7293SOL    HW122778   1.622   2.118   4.729
 7293SOL    HW222779   1.479   2.099   4.653
 7294SOL     OW22780   2.677   4.555   6.992
 7294SOL    HW122781   2.757   4.608   7.022
 7294SOL    HW222782   2.665   4.477   0.029
 7295SOL     OW22783   6.171   3.708   1.308
 7295SOL    HW122784   6.209   3.693   1.399
 7295SOL    HW222785   6.205   3.637   1.246
 7296SOL     OW22786   3.394   6.305   1.780
 7296SOL    HW122787   3.379   6.211   1.811
 7296SOL    HW222788   3.321   6.331   1.716
 7297SOL     OW22789   3.600   7.023   1.499
 7297SOL    HW122790   3.549   6.990   1.578
 7297SOL    HW222791   3.630   0.093   1.516
 7298SOL     OW22792   4.744   5.034   5.922
 7298SOL    HW122793   4.823   5.082   5.884
 7298SOL    HW222794   4.666   5.043   5.859
 7299SOL     OW22795   1.119   2.529   1.214
 7299SOL    HW122796   1.179   2.600   1.251
 7299SOL    HW222797   1.079   2.476   1.289
 7300SOL     OW22798   0.569   6.794   2.277
 7300SOL    HW122799   0.489   6.763   2.328
 7300SOL    HW222800   0.652   6.769   2.327
 7301SOL     OW22801   5.779   1.616   4.425
 7301SOL    HW122802   5.776   1.531   4.372
 7301SOL    HW222803   5.854   1.611   4.491
 7302SOL     OW22804   0.813   2.410   5.604
 7302SOL    HW122805   0.752   2.333   5.623
 7302SOL    HW222806   0.889   2.409   5.670
 7303SOL     OW22807   4.043   0.975   6.893
 7303SOL    HW122808   4.111   0.902   6.892
 7303SOL    HW222809   4.066   1.042   6.964
 7304SOL     OW22810   2.980   5.547   1.551
 7304SOL    HW122811   2.937   5.615   1.610
 7304SOL    HW222812   2.968   5.573   1.455
 7305SOL     OW22813   5.314   1.224   0.621
 7305SOL    HW122814   5.374   1.270   0.555
 7305SOL    HW222815   5.352   1.235   0.713
 7306SOL     OW22816   4.379   1.623   0.978
 7306SOL    HW122817   4.359   1.603   1.074
 7306SOL    HW222818   4.294   1.621   0.926
 7307SOL     OW22819   2.476   6.693   2.682
 7307SOL    HW122820   2.377   6.685   2.670
 7307SOL    HW222821   2.517   6.722   2.596
 7308SOL     OW22822   6.876   2.939   4.970
 7308SOL    HW122823   6.906   2.886   4.891
 7308SOL    HW222824   6.935   3.019   4.981
 7309SOL     OW22825   4.124   4.986   0.636
 7309SOL    HW122826   4.222   5.006   0.641
 7309SOL    HW222827   4.083   5.038   0.561
 7310SOL     OW22828   2.534   4.116   0.361
 7310SOL    HW122829   2.583   4.101   0.447
 7310SOL    HW222830   2.485   4.203   0.365
 7311SOL     OW22831   1.767   1.919   1.616
 7311SOL    HW122832   1.783   1.823   1.641
 7311SOL    HW222833   1.678   1.927   1.570
 7312SOL     OW22834   1.142   3.286   4.920
 7312SOL    HW122835   1.198   3.354   4.872
 7312SOL    HW222836   1.132   3.204   4.864
 7313SOL     OW22837   2.184   0.909   1.098
 7313SOL    HW122838   2.187   0.826   1.153
 7313SOL    HW222839   2.100   0.959   1.118
 7314SOL     OW22840   0.001   5.253   6.403
 7314SOL    HW122841   6.961   5.230   6.475
 7314SOL    HW222842   6.979   5.251   6.315
 7315SOL     OW22843   6.130   6.029   1.742
 7315SOL    HW122844   6.130   6.029   1.842
 7315SOL    HW222845   6.198   6.095   1.708
 7316SOL     OW22846   3.828   3.629   6.418
 7316SOL    HW122847   3.888   3.643   6.497
 7316SOL    HW222848   3.807   3.531   6.409
 7317SOL     OW22849   4.669   1.610   2.201
 7317SOL    HW122850   4.665   1.706   2.227
 7317SOL    HW222851   4.594   1.560   2.243
 7318SOL     OW22852   2.765   0.532   1.953
 7318SOL    HW122853   2.696   0.569   2.015
 7318SOL    HW222854   2.855   0.564   1.982
 7319SOL     OW22855   6.758   3.499   6.926
 7319SOL    HW122856   6.695   3.575   6.914
 7319SOL    HW222857   6.800   3.504   7.017
 7320SOL     OW22858   1.100   3.614   2.473
 7320SOL    HW122859   1.078   3.689   2.412
 7320SOL    HW222860   1.169   3.644   2.539
 7321SOL     OW22861   1.022   6.613   6.358
 7321SOL    HW122862   1.072   6.526   6.350
 7321SOL    HW222863   1.017   6.640   6.454
 7322SOL     OW22864   7.014   2.882   2.977
 7322SOL    HW122865   6.994   2.973   2.941
 7322SOL    HW222866   0.087   2.874   2.996
 7323SOL     OW22867   2.309   2.795   1.067
 7323SOL    HW122868   2.390   2.810   1.009
 7323SOL    HW222869   2.315   2.854   1.148
 7324SOL     OW22870   5.479   5.977   1.463
 7324SOL    HW122871   5.573   5.995   1.433
 7324SOL    HW222872   5.466   6.016   1.554
 7325SOL     OW22873   2.791   0.587   6.432
 7325SOL    HW122874   2.776   0.675   6.478
 7325SOL    HW222875   2.870   0.541   6.473
 7326SOL     OW22876   2.690   6.411   6.485
 7326SOL    HW122877   2.614   6.365   6.439
 7326SOL    HW222878   2.775   6.366   6.460
 7327SOL     OW22879   6.040   1.815   5.825
 7327SOL    HW122880   5.955   1.867   5.829
 7327SOL    HW222881   6.115   1.869   5.862
 7328SOL     OW22882   3.981   0.559   5.934
 7328SOL    HW122883   4.047   0.612   5.987
 7328SOL    HW222884   4.000   0.461   5.945
 7329SOL     OW22885   0.977   3.435   0.933
 7329SOL    HW122886   1.024   3.430   1.021
 7329SOL    HW222887   1.039   3.403   0.861
 7330SOL     OW22888   1.790   2.814   6.945
 7330SOL    HW122889   1.706   2.839   6.896
 7330SOL    HW222890   1.859   2.785   6.879
 7331SOL     OW22891   5.227   6.025   1.341
 7331SOL    HW122892   5.150   6.010   1.403
 7331SOL    HW222893   5.312   6.022   1.393
 7332SOL     OW22894   3.356   6.054   6.712
 7332SOL    HW122895   3.289   6.047   6.786
 7332SOL    HW222896   3.443   6.016   6.743
 7333SOL     OW22897   6.652   3.213   2.887
 7333SOL    HW122898   6.637   3.257   2.798
 7333SOL    HW222899   6.564   3.195   2.930
 7334SOL     OW22900   1.922   5.765   6.343
 7334SOL    HW122901   1.829   5.791   6.318
 7334SOL    HW222902   1.924   5.669   6.370
 7335SOL     OW22903   0.768   2.831   3.400
 7335SOL    HW122904   0.738   2.818   3.306
 7335SOL    HW222905   0.837   2.762   3.422
 7336SOL     OW22906   1.636   6.767   2.653
 7336SOL    HW122907   1.663   6.823   2.574
 7336SOL    HW222908   1.675   6.676   2.644
 7337SOL     OW22909   0.537   2.976   0.933
 7337SOL    HW122910   0.573   2.886   0.955
 7337SOL    HW222911   0.478   2.970   0.852
 7338SOL     OW22912   4.914   1.554   2.308
 7338SOL    HW122913   4.892   1.555   2.406
 7338SOL    HW222914   4.830   1.568   2.256
 7339SOL     OW22915   5.847   0.844   4.589
 7339SOL    HW122916   5.899   0.873   4.670
 7339SOL    HW222917   5.752   0.873   4.599
 7340SOL     OW22918   3.066   1.262   0.452
 7340SOL    HW122919   3.051   1.182   0.510
 7340SOL    HW222920   3.142   1.245   0.391
 7341SOL     OW22921   0.645   4.284   5.952
 7341SOL    HW122922   0.723   4.347   5.955
 7341SOL    HW222923   0.656   4.223   5.873
 7342SOL     OW22924   6.867   0.928   0.157
 7342SOL    HW122925   6.823   0.965   0.076
 7342SOL    HW222926   6.842   0.832   0.168
 7343SOL     OW22927   6.367   4.710   2.038
 7343SOL    HW122928   6.270   4.734   2.042
 7343SOL    HW222929   6.407   4.748   1.954
 7344SOL     OW22930   0.703   1.025   6.144
 7344SOL    HW122931   0.795   1.062   6.150
 7344SOL    HW222932   0.645   1.068   6.213
 7345SOL     OW22933   4.967   5.037   5.513
 7345SOL    HW122934   4.915   5.122   5.507
 7345SOL    HW222935   5.019   5.024   5.428
 7346SOL     OW22936   4.339   5.128   1.848
 7346SOL    HW122937   4.344   5.106   1.945
 7346SOL    HW222938   4.420   5.092   1.802
 7347SOL     OW22939   0.399   2.559   0.853
 7347SOL    HW122940   0.313   2.507   0.852
 7347SOL    HW222941   0.475   2.498   0.875
 7348SOL     OW22942   1.630   3.811   4.057
 7348SOL    HW122943   1.584   3.896   4.084
 7348SOL    HW222944   1.626   3.800   3.958
 7349SOL     OW22945   4.964   1.774   1.483
 7349SOL    HW122946   4.965   1.677   1.461
 7349SOL    HW222947   4.991   1.787   1.579
 7350SOL     OW22948   1.871   2.848   5.643
 7350SOL    HW122949   1.795   2.793   5.609
 7350SOL    HW222950   1.877   2.933   5.591
 7351SOL     OW22951   5.002   6.730   4.959
 7351SOL    HW122952   5.070   6.659   4.940
 7351SOL    HW222953   5.019   6.809   4.900
 7352SOL     OW22954   2.051   2.300   3.047
 7352SOL    HW122955   1.980   2.263   2.987
 7352SOL    HW222956   2.048   2.252   3.135
 7353SOL     OW22957   0.782   0.561   6.553
 7353SOL    HW122958   0.796   0.660   6.557
 7353SOL    HW222959   0.760   0.534   6.459
 7354SOL     OW22960   6.832   1.631   5.792
 7354SOL    HW122961   6.750   1.600   5.744
 7354SOL    HW222962   6.905   1.649   5.725
 7355SOL     OW22963   2.023   0.602   0.990
 7355SOL    HW122964   1.985   0.512   0.968
 7355SOL    HW222965   1.950   0.669   0.995
 7356SOL     OW22966   4.095   3.905   5.745
 7356SOL    HW122967   4.024   3.835   5.757
 7356SOL    HW222968   4.113   3.917   5.647
 7357SOL     OW22969   4.108   6.756   1.825
 7357SOL    HW122970   4.016   6.793   1.819
 7357SOL    HW222971   4.165   6.816   1.882
 7358SOL     OW22972   6.165   3.235   3.109
 7358SOL    HW122973   6.225   3.316   3.107
 7358SOL    HW222974   6.083   3.257   3.162
 7359SOL     OW22975   2.503   1.718   6.678
 7359SOL    HW122976   2.461   1.743   6.591
 7359SOL    HW222977   2.601   1.740   6.675
 7360SOL     OW22978   2.990   3.860   5.610
 7360SOL    HW122979   2.905   3.814   5.634
 7360SOL    HW222980   3.006   3.852   5.512
 7361SOL     OW22981   4.444   6.955   1.949
 7361SOL    HW122982   4.480   6.875   1.997
 7361SOL    HW222983   4.461   0.012   2.004
 7362SOL     OW22984   1.475   4.854   4.830
 7362SOL    HW122985   1.489   4.949   4.801
 7362SOL    HW222986   1.387   4.821   4.794
 7363SOL     OW22987   4.433   1.998   1.650
 7363SOL    HW122988   4.473   2.075   1.701
 7363SOL    HW222989   4.333   2.003   1.655
 7364SOL     OW22990   4.593   0.640   1.887
 7364SOL    HW122991   4.570   0.695   1.808
 7364SOL    HW222992   4.683   0.598   1.874
 7365SOL     OW22993   0.791   5.620   1.995
 7365SOL    HW122994   0.875   5.566   1.983
 7365SOL    HW222995   0.717   5.561   2.025
 7366SOL     OW22996   2.381   5.638   6.831
 7366SOL    HW122997   2.336   5.612   6.746
 7366SOL    HW222998   2.338   5.720   6.868
 7367SOL     OW22999   5.048   2.211   1.356
 7367SOL    HW123000   5.130   2.161   1.331
 7367SOL    HW223001   4.971   2.147   1.361
 7368SOL     OW23002   3.729   2.999   2.732
 7368SOL    HW123003   3.634   2.993   2.761
 7368SOL    HW223004   3.789   2.975   2.808
 7369SOL     OW23005   4.220   2.713   0.044
 7369SOL    HW123006   4.229   2.807   0.077
 7369SOL    HW223007   4.270   2.651   0.106
 7370SOL     OW23008   2.497   0.479   4.450
 7370SOL    HW123009   2.424   0.513   4.390
 7370SOL    HW223010   2.564   0.428   4.395
 7371SOL     OW23011   1.974   6.451   3.530
 7371SOL    HW123012   1.975   6.542   3.571
 7371SOL    HW223013   1.882   6.432   3.496
 7372SOL     OW23014   4.322   1.223   4.433
 7372SOL    HW123015   4.245   1.214   4.496
 7372SOL    HW223016   4.301   1.292   4.364
 7373SOL     OW23017   6.190   1.856   3.979
 7373SOL    HW123018   6.135   1.880   4.059
 7373SOL    HW223019   6.183   1.757   3.964
 7374SOL     OW23020   2.490   1.660   5.423
 7374SOL    HW123021   2.445   1.683   5.509
 7374SOL    HW223022   2.441   1.585   5.379
 7375SOL     OW23023   2.049   2.583   3.388
 7375SOL    HW123024   2.053   2.546   3.480
 7375SOL    HW223025   2.141   2.589   3.349
 7376SOL     OW23026   2.555   1.107   0.461
 7376SOL    HW123027   2.564   1.192   0.514
 7376SOL    HW223028   2.643   1.060   0.460
 7377SOL     OW23029   5.965   4.690   0.473
 7377SOL    HW123030   6.059   4.658   0.485
 7377SOL    HW223031   5.960   4.743   0.388
 7378SOL     OW23032   0.248   0.863   5.815
 7378SOL    HW123033   0.177   0.909   5.761
 7378SOL    HW223034   0.213   0.844   5.906
 7379SOL     OW23035   3.019   1.715   3.019
 7379SOL    HW123036   2.931   1.667   3.017
 7379SOL    HW223037   3.032   1.765   2.933
 7380SOL     OW23038   6.663   4.589   4.524
 7380SOL    HW123039   6.713   4.622   4.604
 7380SOL    HW223040   6.590   4.653   4.502
 7381SOL     OW23041   4.524   3.938   1.222
 7381SOL    HW123042   4.586   4.014   1.240
 7381SOL    HW223043   4.438   3.973   1.184
 7382SOL     OW23044   6.740   6.210   5.620
 7382SOL    HW123045   6.720   6.126   5.569
 7382SOL    HW223046   6.831   6.243   5.597
 7383SOL     OW23047   1.764   6.754   0.928
 7383SOL    HW123048   1.808   6.809   0.857
 7383SOL    HW223049   1.721   6.814   0.995
 7384SOL     OW23050   6.101   6.722   2.493
 7384SOL    HW123051   6.103   6.716   2.393
 7384SOL    HW223052   6.115   6.817   2.521
 7385SOL     OW23053   3.980   6.105   2.079
 7385SOL    HW123054   4.051   6.053   2.125
 7385SOL    HW223055   3.901   6.115   2.140
 7386SOL     OW23056   0.381   1.997   6.063
 7386SOL    HW123057   0.386   2.082   6.011
 7386SOL    HW223058   0.432   2.006   6.148
 7387SOL     OW23059   5.405   6.503   4.543
 7387SOL    HW123060   5.496   6.473   4.515
 7387SOL    HW223061   5.414   6.578   4.609
 7388SOL     OW23062   0.190   5.019   2.248
 7388SOL    HW123063   0.203   5.110   2.209
 7388SOL    HW223064   0.174   4.953   2.175
 7389SOL     OW23065   6.640   3.737   6.577
 7389SOL    HW123066   6.729   3.768   6.544
 7389SOL    HW223067   6.639   3.638   6.585
 7390SOL     OW23068   1.165   1.843   0.327
 7390SOL    HW123069   1.099   1.857   0.401
 7390SOL    HW223070   1.116   1.825   0.242
 7391SOL     OW23071   4.093   3.780   3.902
 7391SOL    HW123072   4.060   3.770   3.996
 7391SOL    HW223073   4.129   3.692   3.870
 7392SOL     OW23074   2.526   6.286   0.018
 7392SOL    HW123075   2.570   6.291   0.107
 7392SOL    HW223076   2.495   6.378   7.016
 7393SOL     OW23077   6.138   4.231   2.925
 7393SOL    HW123078   6.127   4.215   2.827
 7393SOL    HW223079   6.080   4.167   2.975
 7394SOL     OW23080   2.210   2.946   6.015
 7394SOL    HW123081   2.157   2.964   6.098
 7394SOL    HW223082   2.152   2.960   5.934
 7395SOL     OW23083   1.682   2.707   1.075
 7395SOL    HW123084   1.742   2.670   1.003
 7395SOL    HW223085   1.692   2.806   1.079
 7396SOL     OW23086   1.421   6.708   0.931
 7396SOL    HW123087   1.407   6.807   0.930
 7396SOL    HW223088   1.518   6.687   0.931
 7397SOL     OW23089   4.505   5.247   4.615
 7397SOL    HW123090   4.572   5.264   4.686
 7397SOL    HW223091   4.414   5.235   4.656
 7398SOL     OW23092   2.476   4.613   4.732
 7398SOL    HW123093   2.404   4.641   4.795
 7398SOL    HW223094   2.565   4.625   4.776
 7399SOL     OW23095   0.977   2.723   5.349
 7399SOL    HW123096   1.072   2.711   5.377
 7399SOL    HW223097   0.930   2.635   5.354
 7400SOL     OW23098   3.873   2.418   5.620
 7400SOL    HW123099   3.912   2.366   5.696
 7400SOL    HW223100   3.863   2.514   5.648
 7401SOL     OW23101   1.792   1.794   4.515
 7401SOL    HW123102   1.763   1.874   4.461
 7401SOL    HW223103   1.782   1.814   4.612
 7402SOL     OW23104   2.826   6.053   6.383
 7402SOL    HW123105   2.805   6.017   6.292
 7402SOL    HW223106   2.827   6.153   6.379
 7403SOL     OW23107   2.140   3.720   2.313
 7403SOL    HW123108   2.066   3.733   2.247
 7403SOL    HW223109   2.225   3.700   2.265
 7404SOL     OW23110   2.684   5.430   1.489
 7404SOL    HW123111   2.669   5.367   1.413
 7404SOL    HW223112   2.781   5.435   1.511
 7405SOL     OW23113   3.703   4.936   4.480
 7405SOL    HW123114   3.615   4.944   4.434
 7405SOL    HW223115   3.777   4.947   4.413
 7406SOL     OW23116   0.266   2.511   3.367
 7406SOL    HW123117   0.335   2.441   3.348
 7406SOL    HW223118   0.291   2.560   3.451
 7407SOL     OW23119   1.026   6.850   5.293
 7407SOL    HW123120   1.052   6.892   5.206
 7407SOL    HW223121   1.031   6.750   5.285
 7408SOL     OW23122   3.239   3.754   6.781
 7408SOL    HW123123   3.187   3.812   6.845
 7408SOL    HW223124   3.200   3.763   6.690
 7409SOL     OW23125   5.643   2.247   6.977
 7409SOL    HW123126   5.699   2.193   6.914
 7409SOL    HW223127   5.670   2.343   6.971
 7410SOL     OW23128   0.053   6.910   0.677
 7410SOL    HW123129   0.147   6.891   0.705
 7410SOL    HW223130   7.024   6.936   0.757
 7411SOL     OW23131   2.046   0.042   6.009
 7411SOL    HW123132   2.040   0.096   5.925
 7411SOL    HW223133   1.996   6.981   5.997
 7412SOL     OW23134   5.316   0.477   2.191
 7412SOL    HW123135   5.287   0.487   2.096
 7412SOL    HW223136   5.416   0.477   2.196
 7413SOL     OW23137   5.213   5.933   3.955
 7413SOL    HW123138   5.235   5.911   4.050
 7413SOL    HW223139   5.126   5.984   3.952
 7414SOL     OW23140   0.605   0.788   3.715
 7414SOL    HW123141   0.589   0.702   3.667
 7414SOL    HW223142   0.563   0.863   3.664
 7415SOL     OW23143   1.593   5.090   3.588
 7415SOL    HW123144   1.500   5.066   3.559
 7415SOL    HW223145   1.618   5.178   3.548
 7416SOL     OW23146   1.964   1.318   2.651
 7416SOL    HW123147   1.922   1.408   2.641
 7416SOL    HW223148   2.019   1.316   2.735
 7417SOL     OW23149   1.424   1.362   0.481
 7417SOL    HW123150   1.389   1.272   0.506
 7417SOL    HW223151   1.471   1.402   0.559
 7418SOL     OW23152   2.501   6.053   0.389
 7418SOL    HW123153   2.583   6.100   0.424
 7418SOL    HW223154   2.517   5.955   0.388
 7419SOL     OW23155   6.541   2.988   3.852
 7419SOL    HW123156   6.476   2.942   3.913
 7419SOL    HW223157   6.622   2.931   3.841
 7420SOL     OW23158   0.282   6.956   1.215
 7420SOL    HW123159   0.318   0.021   1.241
 7420SOL    HW223160   0.358   6.893   1.198
 7421SOL     OW23161   4.281   4.728   0.913
 7421SOL    HW123162   4.337   4.686   0.842
 7421SOL    HW223163   4.325   4.813   0.944
 7422SOL     OW23164   0.398   3.573   2.522
 7422SOL    HW123165   0.339   3.508   2.569
 7422SOL    HW223166   0.490   3.533   2.511
 7423SOL     OW23167   5.961   2.703   5.576
 7423SOL    HW123168   5.949   2.648   5.659
 7423SOL    HW223169   6.047   2.754   5.583
 7424SOL     OW23170   6.431   6.513   5.760
 7424SOL    HW123171   6.519   6.540   5.800
 7424SOL    HW223172   6.439   6.421   5.722
 7425SOL     OW23173   4.153   6.183   6.658
 7425SOL    HW123174   4.065   6.230   6.665
 7425SOL    HW223175   4.176   6.144   6.748
 7426SOL     OW23176   3.072   1.680   5.688
 7426SOL    HW123177   3.112   1.589   5.701
 7426SOL    HW223178   3.130   1.733   5.626
 7427SOL     OW23179   4.271   0.892   3.587
 7427SOL    HW123180   4.229   0.808   3.552
 7427SOL    HW223181   4.368   0.892   3.566
 7428SOL     OW23182   4.170   1.872   5.381
 7428SOL    HW123183   4.144   1.879   5.477
 7428SOL    HW223184   4.186   1.964   5.344
 7429SOL     OW23185   0.323   6.629   4.347
 7429SOL    HW123186   0.311   6.716   4.395
 7429SOL    HW223187   0.270   6.558   4.392
 7430SOL     OW23188   1.526   3.510   0.314
 7430SOL    HW123189   1.511   3.447   0.391
 7430SOL    HW223190   1.454   3.496   0.246
 7431SOL     OW23191   1.656   2.790   3.557
 7431SOL    HW123192   1.729   2.819   3.496
 7431SOL    HW223193   1.654   2.849   3.637
 7432SOL     OW23194   0.840   1.075   3.242
 7432SOL    HW123195   0.785   1.134   3.184
 7432SOL    HW223196   0.908   1.131   3.291
 7433SOL     OW23197   4.443   6.188   5.945
 7433SOL    HW123198   4.367   6.253   5.952
 7433SOL    HW223199   4.529   6.234   5.965
 7434SOL     OW23200   4.951   6.054   5.688
 7434SOL    HW123201   4.926   6.056   5.591
 7434SOL    HW223202   4.997   5.968   5.709
 7435SOL     OW23203   3.655   5.532   1.121
 7435SOL    HW123204   3.588   5.599   1.154
 7435SOL    HW223205   3.620   5.489   1.038
 7436SOL     OW23206   5.101   3.761   5.645
 7436SOL    HW123207   5.007   3.791   5.625
 7436SOL    HW223208   5.159   3.841   5.659
 7437SOL     OW23209   1.937   5.953   0.213
 7437SOL    HW123210   1.895   5.894   0.144
 7437SOL    HW223211   2.014   6.002   0.172
 7438SOL     OW23212   1.321   6.004   0.106
 7438SOL    HW123213   1.373   6.006   0.192
 7438SOL    HW223214   1.333   5.915   0.062
 7439SOL     OW23215   1.786   6.491   5.881
 7439SOL    HW123216   1.708   6.465   5.937
 7439SOL    HW223217   1.793   6.429   5.802
 7440SOL     OW23218   0.184   2.801   4.432
 7440SOL    HW123219   0.281   2.795   4.409
 7440SOL    HW223220   0.174   2.832   4.527
 7441SOL     OW23221   5.009   6.598   4.172
 7441SOL    HW123222   5.022   6.580   4.270
 7441SOL    HW223223   5.075   6.667   4.142
 7442SOL     OW23224   6.430   1.122   5.959
 7442SOL    HW123225   6.438   1.192   5.888
 7442SOL    HW223226   6.354   1.144   6.020
 7443SOL     OW23227   6.880   6.205   1.843
 7443SOL    HW123228   6.976   6.233   1.849
 7443SOL    HW223229   6.821   6.283   1.863
 7444SOL     OW23230   5.617   1.975   5.584
 7444SOL    HW123231   5.570   1.912   5.646
 7444SOL    HW223232   5.615   2.067   5.623
 7445SOL     OW23233   3.864   1.130   1.120
 7445SOL    HW123234   3.949   1.169   1.084
 7445SOL    HW223235   3.837   1.052   1.065
 7446SOL     OW23236   6.010   3.438   0.983
 7446SOL    HW123237   6.069   3.363   1.014
 7446SOL    HW223238   6.030   3.458   0.887
 7447SOL     OW23239   6.558   3.068   6.994
 7447SOL    HW123240   6.634   3.106   6.942
 7447SOL    HW223241   6.478   3.061   6.935
 7448SOL     OW23242   6.160   6.802   5.056
 7448SOL    HW123243   6.091   6.768   4.991
 7448SOL    HW223244   6.246   6.753   5.041
 7449SOL     OW23245   0.619   4.094   2.063
 7449SOL    HW123246   0.610   4.184   2.104
 7449SOL    HW223247   0.546   4.080   1.996
 7450SOL     OW23248   5.260   2.480   4.874
 7450SOL    HW123249   5.246   2.441   4.965
 7450SOL    HW223250   5.241   2.411   4.804
 7451SOL     OW23251   6.769   6.546   2.909
 7451SOL    HW123252   6.819   6.464   2.937
 7451SOL    HW223253   6.772   6.613   2.983
 7452SOL     OW23254   6.009   6.687   4.525
 7452SOL    HW123255   5.946   6.642   4.588
 7452SOL    HW223256   6.048   6.620   4.462
 7453SOL     OW23257   4.879   6.529   5.797
 7453SOL    HW123258   4.902   6.555   5.891
 7453SOL    HW223259   4.780   6.519   5.788
 7454SOL     OW23260   1.059   2.321   1.924
 7454SOL    HW123261   0.981   2.365   1.880
 7454SOL    HW223262   1.102   2.258   1.859
 7455SOL     OW23263   6.519   2.811   2.173
 7455SOL    HW123264   6.424   2.793   2.199
 7455SOL    HW223265   6.559   2.728   2.135
 7456SOL     OW23266   1.225   1.152   3.952
 7456SOL    HW123267   1.293   1.171   3.881
 7456SOL    HW223268   1.220   1.231   4.014
 7457SOL     OW23269   3.292   0.542   6.035
 7457SOL    HW123270   3.219   0.609   6.027
 7457SOL    HW223271   3.261   0.465   6.091
 7458SOL     OW23272   1.401   6.184   5.747
 7458SOL    HW123273   1.332   6.125   5.789
 7458SOL    HW223274   1.492   6.146   5.764
 7459SOL     OW23275   4.754   0.335   2.346
 7459SOL    HW123276   4.762   0.350   2.445
 7459SOL    HW223277   4.673   0.280   2.328
 7460SOL     OW23278   1.154   4.959   0.737
 7460SOL    HW123279   1.134   4.967   0.640
 7460SOL    HW223280   1.227   5.023   0.762
 7461SOL     OW23281   5.925   0.703   6.237
 7461SOL    HW123282   5.984   0.770   6.191
 7461SOL    HW223283   5.830   0.716   6.209
 7462SOL     OW23284   1.830   3.980   2.363
 7462SOL    HW123285   1.754   3.926   2.401
 7462SOL    HW223286   1.869   3.931   2.285
 7463SOL     OW23287   3.263   5.103   0.489
 7463SOL    HW123288   3.345   5.157   0.469
 7463SOL    HW223289   3.284   5.006   0.479
 7464SOL     OW23290   5.427   0.038   5.551
 7464SOL    HW123291   5.388   0.127   5.527
 7464SOL    HW223292   5.362   7.012   5.609
 7465SOL     OW23293   1.991   5.439   6.783
 7465SOL    HW123294   2.012   5.425   6.686
 7465SOL    HW223295   2.028   5.527   6.812
 7466SOL     OW23296   0.499   0.961   4.798
 7466SOL    HW123297   0.542   1.036   4.749
 7466SOL    HW223298   0.540   0.874   4.769
 7467SOL     OW23299   0.672   1.356   0.807
 7467SOL    HW123300   0.713   1.281   0.755
 7467SOL    HW223301   0.596   1.394   0.755
 7468SOL     OW23302   5.782   2.827   3.250
 7468SOL    HW123303   5.774   2.756   3.320
 7468SOL    HW223304   5.820   2.910   3.291
 7469SOL     OW23305   6.339   0.277   0.735
 7469SOL    HW123306   6.333   0.374   0.712
 7469SOL    HW223307   6.271   0.226   0.682
 7470SOL     OW23308   6.312   3.927   3.054
 7470SOL    HW123309   6.354   4.017   3.062
 7470SOL    HW223310   6.232   3.922   3.114
 7471SOL     OW23311   5.274   6.871   5.677
 7471SOL    HW123312   5.187   6.856   5.630
 7471SOL    HW223313   5.276   6.817   5.762
 7472SOL     OW23314   5.944   0.161   5.544
 7472SOL    HW123315   5.853   0.118   5.542
 7472SOL    HW223316   5.963   0.202   5.455
 7473SOL     OW23317   5.677   5.656   3.679
 7473SOL    HW123318   5.686   5.735   3.739
 7473SOL    HW223319   5.739   5.666   3.601
 7474SOL     OW23320   0.816   1.546   6.225
 7474SOL    HW123321   0.797   1.609   6.301
 7474SOL    HW223322   0.784   1.587   6.140
 7475SOL     OW23323   4.939   2.726   2.515
 7475SOL    HW123324   4.977   2.812   2.480
 7475SOL    HW223325   4.939   2.658   2.441
 7476SOL     OW23326   3.178   0.382   4.000
 7476SOL    HW123327   3.274   0.376   3.974
 7476SOL    HW223328   3.167   0.455   4.068
 7477SOL     OW23329   0.568   1.417   5.983
 7477SOL    HW123330   0.533   1.339   6.035
 7477SOL    HW223331   0.640   1.386   5.921
 7478SOL     OW23332   5.718   3.943   5.544
 7478SOL    HW123333   5.672   3.854   5.540
 7478SOL    HW223334   5.654   4.012   5.579
 7479SOL     OW23335   4.185   2.248   2.221
 7479SOL    HW123336   4.093   2.221   2.193
 7479SOL    HW223337   4.239   2.273   2.141
 7480SOL     OW23338   1.439   4.437   2.247
 7480SOL    HW123339   1.468   4.386   2.328
 7480SOL    HW223340   1.379   4.512   2.274
 7481SOL     OW23341   6.096   5.571   0.913
 7481SOL    HW123342   6.121   5.644   0.848
 7481SOL    HW223343   6.134   5.592   1.003
 7482SOL     OW23344   4.762   2.586   3.174
 7482SOL    HW123345   4.664   2.597   3.157
 7482SOL    HW223346   4.783   2.488   3.181
 7483SOL     OW23347   4.882   2.936   4.679
 7483SOL    HW123348   4.871   3.023   4.727
 7483SOL    HW223349   4.894   2.953   4.582
 7484SOL     OW23350   1.501   6.816   4.785
 7484SOL    HW123351   1.590   6.844   4.749
 7484SOL    HW223352   1.480   6.867   4.868
 7485SOL     OW23353   3.542   6.950   4.616
 7485SOL    HW123354   3.546   0.014   4.570
 7485SOL    HW223355   3.451   6.937   4.656
 7486SOL     OW23356   1.783   6.220   0.576
 7486SOL    HW123357   1.814   6.136   0.621
 7486SOL    HW223358   1.843   6.240   0.499
 7487SOL     OW23359   1.779   6.965   3.333
 7487SOL    HW123360   1.735   6.982   3.245
 7487SOL    HW223361   1.714   6.919   3.394
 7488SOL     OW23362   2.736   6.165   4.134
 7488SOL    HW123363   2.805   6.201   4.196
 7488SOL    HW223364   2.775   6.089   4.081
 7489SOL     OW23365   5.931   2.325   5.605
 7489SOL    HW123366   5.832   2.344   5.604
 7489SOL    HW223367   5.954   2.267   5.528
 7490SOL     OW23368   1.295   7.011   2.593
 7490SOL    HW123369   1.271   7.017   2.690
 7490SOL    HW223370   1.391   6.986   2.584
 7491SOL     OW23371   5.226   2.747   6.796
 7491SOL    HW123372   5.310   2.693   6.791
 7491SOL    HW223373   5.215   2.800   6.712
 7492SOL     OW23374   1.719   0.330   3.280
 7492SOL    HW123375   1.795   0.391   3.255
 7492SOL    HW223376   1.640   0.386   3.306
 7493SOL     OW23377   0.367   3.328   6.720
 7493SOL    HW123378   0.426   3.408   6.731
 7493SOL    HW223379   0.336   3.296   6.810
 7494SOL     OW23380   5.286   1.811   2.735
 7494SOL    HW123381   5.266   1.713   2.736
 7494SOL    HW223382   5.225   1.857   2.800
 7495SOL     OW23383   1.739   1.924   6.645
 7495SOL    HW123384   1.772   1.977   6.723
 7495SOL    HW223385   1.656   1.873   6.671
 7496SOL     OW23386   6.343   3.557   4.145
 7496SOL    HW123387   6.346   3.628   4.075
 7496SOL    HW223388   6.347   3.599   4.236
 7497SOL     OW23389   2.769   4.580   6.724
 7497SOL    HW123390   2.858   4.535   6.717
 7497SOL    HW223391   2.727   4.557   6.813
 7498SOL     OW23392   3.055   0.583   5.350
 7498SOL    HW123393   3.030   0.645   5.276
 7498SOL    HW223394   3.130   0.623   5.403
 7499SOL     OW23395   3.631   1.206   3.193
 7499SOL    HW123396   3.688   1.144   3.140
 7499SOL    HW223397   3.688   1.277   3.235
 7500SOL     OW23398   3.178   5.885   3.070
 7500SOL    HW123399   3.200   5.811   3.007
 7500SOL    HW223400   3.117   5.951   3.026
 7501SOL     OW23401   5.195   3.696   4.881
 7501SOL    HW123402   5.195   3.704   4.981
 7501SOL    HW223403   5.108   3.658   4.851
 7502SOL     OW23404   3.134   0.583   4.551
 7502SOL    HW123405   3.057   0.560   4.492
 7502SOL    HW223406   3.135   0.681   4.568
 7503SOL     OW23407   1.486   0.016   0.958
 7503SOL    HW123408   1.469   0.114   0.972
 7503SOL    HW223409   1.555   7.009   1.023
 7504SOL     OW23410   0.848   6.540   3.532
 7504SOL    HW123411   0.870   6.462   3.473
 7504SOL    HW223412   0.815   6.615   3.475
 7505SOL     OW23413   1.574   3.053   5.908
 7505SOL    HW123414   1.542   3.106   5.987
 7505SOL    HW223415   1.623   3.114   5.845
 7506SOL     OW23416   5.097   1.468   3.234
 7506SOL    HW123417   5.116   1.444   3.329
 7506SOL    HW223418   5.178   1.451   3.178
 7507SOL     OW23419   6.881   1.544   2.565
 7507SOL    HW123420   6.959   1.515   2.620
 7507SOL    HW223421   6.854   1.470   2.504
 7508SOL     OW23422   1.284   0.029   1.471
 7508SOL    HW123423   1.273   0.002   1.376
 7508SOL    HW223424   1.322   6.978   1.523
 7509SOL     OW23425   6.124   4.203   0.761
 7509SOL    HW123426   6.067   4.205   0.843
 7509SOL    HW223427   6.205   4.147   0.778
 7510SOL     OW23428   3.625   3.447   5.391
 7510SOL    HW123429   3.628   3.527   5.451
 7510SOL    HW223430   3.533   3.438   5.353
 7511SOL     OW23431   2.849   5.973   4.006
 7511SOL    HW123432   2.912   6.039   3.966
 7511SOL    HW223433   2.831   5.900   3.940
 7512SOL     OW23434   2.480   6.799   6.516
 7512SOL    HW123435   2.422   6.761   6.588
 7512SOL    HW223436   2.437   6.783   6.427
 7513SOL     OW23437   1.710   1.093   1.634
 7513SOL    HW123438   1.736   0.997   1.635
 7513SOL    HW223439   1.740   1.136   1.549
 7514SOL     OW23440   2.818   5.602   1.925
 7514SOL    HW123441   2.900   5.547   1.938
 7514SOL    HW223442   2.837   5.677   1.861
 7515SOL     OW23443   6.805   5.405   4.838
 7515SOL    HW123444   6.897   5.439   4.817
 7515SOL    HW223445   6.778   5.436   4.929
 7516SOL     OW23446   6.562   5.952   6.077
 7516SOL    HW123447   6.476   6.003   6.086
 7516SOL    HW223448   6.579   5.931   5.981
 7517SOL     OW23449   0.488   2.219   0.670
 7517SOL    HW123450   0.561   2.267   0.622
 7517SOL    HW223451   0.523   2.133   0.708
 7518SOL     OW23452   4.415   4.943   4.099
 7518SOL    HW123453   4.424   5.030   4.147
 7518SOL    HW223454   4.336   4.893   4.135
 7519SOL     OW23455   0.525   6.521   4.201
 7519SOL    HW123456   0.450   6.575   4.240
 7519SOL    HW223457   0.556   6.455   4.269
 7520SOL     OW23458   2.323   0.127   1.990
 7520SOL    HW123459   2.283   0.039   1.963
 7520SOL    HW223460   2.256   0.180   2.041
 7521SOL     OW23461   4.724   2.947   5.651
 7521SOL    HW123462   4.820   2.948   5.621
 7521SOL    HW223463   4.668   2.903   5.581
 7522SOL     OW23464   1.664   1.365   5.873
 7522SOL    HW123465   1.694   1.460   5.873
 7522SOL    HW223466   1.597   1.351   5.946
 7523SOL     OW23467   5.555   0.209   6.430
 7523SOL    HW123468   5.506   0.160   6.502
 7523SOL    HW223469   5.599   0.290   6.469
 7524SOL     OW23470   1.332   2.574   5.157
 7524SOL    HW123471   1.311   2.575   5.059
 7524SOL    HW223472   1.416   2.626   5.174
 7525SOL     OW23473   3.377   0.576   6.370
 7525SOL    HW123474   3.287   0.556   6.331
 7525SOL    HW223475   3.403   0.670   6.348
 7526SOL     OW23476   3.724   3.337   1.481
 7526SOL    HW123477   3.673   3.303   1.402
 7526SOL    HW223478   3.778   3.263   1.520
 7527SOL     OW23479   3.119   5.671   3.449
 7527SOL    HW123480   3.020   5.674   3.465
 7527SOL    HW223481   3.153   5.579   3.467
 7528SOL     OW23482   6.271   2.043   0.684
 7528SOL    HW123483   6.209   1.991   0.625
 7528SOL    HW223484   6.240   2.036   0.779
 7529SOL     OW23485   5.081   1.589   4.443
 7529SOL    HW123486   5.177   1.604   4.419
 7529SOL    HW223487   5.067   1.611   4.540
 7530SOL     OW23488   0.295   3.049   2.319
 7530SOL    HW123489   0.380   2.997   2.316
 7530SOL    HW223490   0.217   2.986   2.322
 7531SOL     OW23491   5.672   2.986   4.540
 7531SOL    HW123492   5.758   2.941   4.514
 7531SOL    HW223493   5.692   3.066   4.597
 7532SOL     OW23494   4.635   5.958   0.145
 7532SOL    HW123495   4.725   5.949   0.104
 7532SOL    HW223496   4.611   5.873   0.192
 7533SOL     OW23497   3.535   1.218   1.566
 7533SOL    HW123498   3.582   1.303   1.542
 7533SOL    HW223499   3.465   1.198   1.498
 7534SOL     OW23500   3.934   6.293   4.985
 7534SOL    HW123501   3.851   6.258   4.942
 7534SOL    HW223502   3.910   6.339   5.070
 7535SOL     OW23503   1.944   0.682   4.626
 7535SOL    HW123504   1.995   0.706   4.543
 7535SOL    HW223505   1.860   0.634   4.601
 7536SOL     OW23506   5.023   4.674   4.212
 7536SOL    HW123507   4.973   4.747   4.165
 7536SOL    HW223508   5.108   4.711   4.251
 7537SOL     OW23509   2.767   5.953   1.884
 7537SOL    HW123510   2.710   5.935   1.804
 7537SOL    HW223511   2.758   6.049   1.910
 7538SOL     OW23512   2.127   2.610   1.151
 7538SOL    HW123513   2.187   2.687   1.128
 7538SOL    HW223514   2.052   2.605   1.085
 7539SOL     OW23515   1.828   3.597   3.737
 7539SOL    HW123516   1.887   3.573   3.814
 7539SOL    HW223517   1.765   3.521   3.720
 7540SOL     OW23518   3.857   0.659   4.802
 7540SOL    HW123519   3.953   0.685   4.800
 7540SOL    HW223520   3.831   0.618   4.715
 7541SOL     OW23521   0.391   4.334   5.313
 7541SOL    HW123522   0.392   4.431   5.337
 7541SOL    HW223523   0.353   4.281   5.390
 7542SOL     OW23524   1.181   5.106   6.993
 7542SOL    HW123525   1.087   5.104   6.958
 7542SOL    HW223526   1.219   5.198   6.980
 7543SOL     OW23527   3.827   1.219   5.724
 7543SOL    HW123528   3.919   1.186   5.703
 7543SOL    HW223529   3.832   1.296   5.787
 7544SOL     OW23530   6.742   2.403   2.607
 7544SOL    HW123531   6.642   2.399   2.605
 7544SOL    HW223532   6.772   2.443   2.694
 7545SOL     OW23533   0.368   5.346   0.139
 7545SOL    HW123534   0.349   5.290   0.058
 7545SOL    HW223535   0.338   5.440   0.122
 7546SOL     OW23536   3.507   2.066   1.231
 7546SOL    HW123537   3.606   2.077   1.217
 7546SOL    HW223538   3.490   2.037   1.325
 7547SOL     OW23539   5.293   1.759   0.295
 7547SOL    HW123540   5.326   1.685   0.236
 7547SOL    HW223541   5.227   1.815   0.245
 7548SOL     OW23542   4.223   2.261   0.461
 7548SOL    HW123543   4.191   2.324   0.390
 7548SOL    HW223544   4.186   2.289   0.549
 7549SOL     OW23545   3.693   2.689   0.229
 7549SOL    HW123546   3.616   2.733   0.183
 7549SOL    HW223547   3.659   2.618   0.291
 7550SOL     OW23548   1.960   4.809   3.585
 7550SOL    HW123549   2.012   4.883   3.628
 7550SOL    HW223550   1.896   4.848   3.518
 7551SOL     OW23551   5.362   3.156   5.757
 7551SOL    HW123552   5.293   3.128   5.823
 7551SOL    HW223553   5.451   3.116   5.782
 7552SOL     OW23554   1.430   5.974   2.570
 7552SOL    HW123555   1.357   6.024   2.616
 7552SOL    HW223556   1.395   5.887   2.534
 7553SOL     OW23557   3.843   6.396   5.242
 7553SOL    HW123558   3.901   6.466   5.283
 7553SOL    HW223559   3.819   6.327   5.311
 7554SOL     OW23560   5.083   1.237   6.587
 7554SOL    HW123561   5.132   1.302   6.645
 7554SOL    HW223562   5.109   1.144   6.611
 7555SOL     OW23563   2.228   4.917   6.391
 7555SOL    HW123564   2.274   4.863   6.461
 7555SOL    HW223565   2.208   4.860   6.312
 7556SOL     OW23566   2.316   3.124   0.835
 7556SOL    HW123567   2.270   3.161   0.755
 7556SOL    HW223568   2.327   3.195   0.904
 7557SOL     OW23569   5.286   0.563   5.879
 7557SOL    HW123570   5.236   0.480   5.854
 7557SOL    HW223571   5.347   0.588   5.805
 7558SOL     OW23572   2.211   2.510   4.596
 7558SOL    HW123573   2.305   2.522   4.628
 7558SOL    HW223574   2.153   2.580   4.636
 7559SOL     OW23575   4.535   3.706   0.510
 7559SOL    HW123576   4.566   3.696   0.415
 7559SOL    HW223577   4.613   3.723   0.569
 7560SOL     OW23578   4.704   6.830   0.985
 7560SOL    HW123579   4.788   6.816   1.037
 7560SOL    HW223580   4.626   6.798   1.038
 7561SOL     OW23581   0.726   2.974   6.556
 7561SOL    HW123582   0.763   2.978   6.649
 7561SOL    HW223583   0.670   3.055   6.539
 7562SOL     OW23584   0.618   5.541   5.197
 7562SOL    HW123585   0.563   5.622   5.180
 7562SOL    HW223586   0.564   5.459   5.179
 7563SOL     OW23587   2.993   0.174   1.414
 7563SOL    HW123588   3.081   0.127   1.415
 7563SOL    HW223589   2.951   0.163   1.324
 7564SOL     OW23590   3.855   0.303   3.753
 7564SOL    HW123591   3.852   0.298   3.853
 7564SOL    HW223592   3.901   0.222   3.716
 7565SOL     OW23593   5.530   3.051   6.677
 7565SOL    HW123594   5.611   3.101   6.708
 7565SOL    HW223595   5.473   3.110   6.622
 7566SOL     OW23596   6.770   4.794   3.247
 7566SOL    HW123597   6.860   4.777   3.207
 7566SOL    HW223598   6.699   4.762   3.185
 7567SOL     OW23599   1.608   1.706   4.953
 7567SOL    HW123600   1.650   1.776   5.011
 7567SOL    HW223601   1.528   1.744   4.908
 7568SOL     OW23602   5.316   5.179   2.719
 7568SOL    HW123603   5.242   5.113   2.703
 7568SOL    HW223604   5.301   5.260   2.662
 7569SOL     OW23605   3.644   4.993   5.901
 7569SOL    HW123606   3.600   4.974   5.989
 7569SOL    HW223607   3.632   4.914   5.840
 7570SOL     OW23608   5.129   3.989   5.152
 7570SOL    HW123609   5.042   3.947   5.125
 7570SOL    HW223610   5.167   4.039   5.074
 7571SOL     OW23611   4.402   4.666   2.865
 7571SOL    HW123612   4.346   4.675   2.783
 7571SOL    HW223613   4.486   4.616   2.843
 7572SOL     OW23614   4.424   1.071   1.745
 7572SOL    HW123615   4.387   1.058   1.837
 7572SOL    HW223616   4.524   1.075   1.749
 7573SOL     OW23617   0.212   0.136   5.269
 7573SOL    HW123618   0.183   0.045   5.298
 7573SOL    HW223619   0.285   0.128   5.201
 7574SOL     OW23620   4.946   0.831   5.247
 7574SOL    HW123621   5.007   0.873   5.180
 7574SOL    HW223622   4.998   0.765   5.303
 7575SOL     OW23623   5.546   0.866   6.262
 7575SOL    HW123624   5.520   0.839   6.169
 7575SOL    HW223625   5.634   0.912   6.260
 7576SOL     OW23626   5.378   2.942   0.638
 7576SOL    HW123627   5.436   2.889   0.576
 7576SOL    HW223628   5.420   2.944   0.729
 7577SOL     OW23629   0.555   6.984   6.828
 7577SOL    HW123630   0.603   6.993   6.741
 7577SOL    HW223631   0.578   6.897   6.870
 7578SOL     OW23632   3.498   5.162   2.097
 7578SOL    HW123633   3.426   5.101   2.062
 7578SOL    HW223634   3.570   5.170   2.028
 7579SOL     OW23635   0.289   0.934   2.711
 7579SOL    HW123636   0.198   0.894   2.705
 7579SOL    HW223637   0.330   0.936   2.619
 7580SOL     OW23638   0.914   4.046   4.162
 7580SOL    HW123639   0.878   4.051   4.255
 7580SOL    HW223640   0.860   3.981   4.109
 7581SOL     OW23641   7.000   1.975   2.068
 7581SOL    HW123642   6.918   1.918   2.070
 7581SOL    HW223643   0.003   1.997   2.162
 7582SOL     OW23644   3.630   1.272   2.507
 7582SOL    HW123645   3.624   1.186   2.557
 7582SOL    HW223646   3.687   1.261   2.426
 7583SOL     OW23647   5.524   2.709   2.392
 7583SOL    HW123648   5.436   2.744   2.426
 7583SOL    HW223649   5.539   2.616   2.427
 7584SOL     OW23650   3.435   0.654   2.884
 7584SOL    HW123651   3.510   0.710   2.847
 7584SOL    HW223652   3.468   0.604   2.964
 7585SOL     OW23653   1.939   2.610   6.448
 7585SOL    HW123654   1.886   2.593   6.365
 7585SOL    HW223655   1.955   2.708   6.458
 7586SOL     OW23656   2.706   6.878   4.182
 7586SOL    HW123657   2.649   6.798   4.163
 7586SOL    HW223658   2.772   6.891   4.108
 7587SOL     OW23659   2.054   2.042   6.896
 7587SOL    HW123660   2.125   2.025   6.828
 7587SOL    HW223661   2.092   2.030   6.988
 7588SOL     OW23662   1.468   2.565   3.909
 7588SOL    HW123663   1.454   2.596   3.815
 7588SOL    HW223664   1.408   2.487   3.928
 7589SOL     OW23665   0.553   0.174   2.145
 7589SOL    HW123666   0.629   0.114   2.119
 7589SOL    HW223667   0.472   0.119   2.163
 7590SOL     OW23668   3.715   2.476   6.506
 7590SOL    HW123669   3.780   2.472   6.582
 7590SOL    HW223670   3.626   2.506   6.539
 7591SOL     OW23671   6.389   4.110   0.791
 7591SOL    HW123672   6.453   4.142   0.861
 7591SOL    HW223673   6.396   4.010   0.783
 7592SOL     OW23674   6.565   5.897   5.015
 7592SOL    HW123675   6.514   5.834   5.074
 7592SOL    HW223676   6.520   5.986   5.013
 7593SOL     OW23677   6.517   2.649   0.418
 7593SOL    HW123678   6.603   2.614   0.381
 7593SOL    HW223679   6.518   2.641   0.518
 7594SOL     OW23680   1.813   4.687   2.242
 7594SOL    HW123681   1.727   4.722   2.206
 7594SOL    HW223682   1.856   4.756   2.301
 7595SOL     OW23683   6.331   2.743   5.823
 7595SOL    HW123684   6.415   2.771   5.868
 7595SOL    HW223685   6.352   2.697   5.737
 7596SOL     OW23686   3.893   5.808   3.551
 7596SOL    HW123687   3.990   5.782   3.546
 7596SOL    HW223688   3.838   5.736   3.510
 7597SOL     OW23689   1.231   6.689   2.980
 7597SOL    HW123690   1.222   6.591   2.999
 7597SOL    HW223691   1.328   6.711   2.969
 7598SOL     OW23692   6.469   0.713   3.047
 7598SOL    HW123693   6.448   0.796   2.996
 7598SOL    HW223694   6.561   0.682   3.025
 7599SOL     OW23695   5.220   2.105   2.232
 7599SOL    HW123696   5.294   2.166   2.206
 7599SOL    HW223697   5.245   2.054   2.314
 7600SOL     OW23698   1.352   1.416   3.363
 7600SOL    HW123699   1.329   1.420   3.266
 7600SOL    HW223700   1.444   1.379   3.374
 7601SOL     OW23701   2.080   4.781   2.149
 7601SOL    HW123702   2.006   4.714   2.156
 7601SOL    HW223703   2.138   4.759   2.070
 7602SOL     OW23704   2.409   3.687   6.988
 7602SOL    HW123705   2.459   3.767   7.021
 7602SOL    HW223706   2.395   3.696   6.889
 7603SOL     OW23707   1.394   5.818   6.478
 7603SOL    HW123708   1.334   5.847   6.552
 7603SOL    HW223709   1.340   5.769   6.409
 7604SOL     OW23710   1.622   3.368   4.415
 7604SOL    HW123711   1.590   3.459   4.443
 7604SOL    HW223712   1.714   3.375   4.377
 7605SOL     OW23713   0.994   1.089   1.401
 7605SOL    HW123714   1.037   1.177   1.418
 7605SOL    HW223715   0.931   1.097   1.324
 7606SOL     OW23716   6.027   3.784   4.590
 7606SOL    HW123717   6.024   3.690   4.555
 7606SOL    HW223718   5.961   3.793   4.665
 7607SOL     OW23719   3.742   4.991   0.005
 7607SOL    HW123720   3.680   4.994   6.951
 7607SOL    HW223721   3.690   4.999   0.090
 7608SOL     OW23722   3.971   4.108   1.229
 7608SOL    HW123723   3.873   4.128   1.225
 7608SOL    HW223724   3.989   4.041   1.301
 7609SOL     OW23725   1.380   2.953   4.608
 7609SOL    HW123726   1.460   2.897   4.629
 7609SOL    HW223727   1.410   3.045   4.584
 7610SOL     OW23728   3.965   4.531   6.240
 7610SOL    HW123729   3.901   4.455   6.249
 7610SOL    HW223730   4.044   4.501   6.187
 7611SOL     OW23731   5.545   3.918   1.846
 7611SOL    HW123732   5.550   3.834   1.792
 7611SOL    HW223733   5.458   3.921   1.894
 7612SOL     OW23734   4.891   3.219   2.454
 7612SOL    HW123735   4.849   3.134   2.487
 7612SOL    HW223736   4.866   3.233   2.358
 7613SOL     OW23737   0.007   2.224   0.954
 7613SOL    HW123738   6.989   2.161   0.889
 7613SOL    HW223739   6.986   2.216   1.042
 7614SOL     OW23740   5.655   3.392   0.929
 7614SOL    HW123741   5.721   3.462   0.953
 7614SOL    HW223742   5.576   3.398   0.990
 7615SOL     OW23743   4.026   4.963   6.976
 7615SOL    HW123744   4.055   4.999   6.887
 7615SOL    HW223745   3.930   4.985   6.991
 7616SOL     OW23746   6.297   6.416   4.583
 7616SOL    HW123747   6.360   6.339   4.583
 7616SOL    HW223748   6.242   6.414   4.499
 7617SOL     OW23749   3.697   6.221   3.359
 7617SOL    HW123750   3.748   6.135   3.359
 7617SOL    HW223751   3.642   6.227   3.442
 7618SOL     OW23752   6.983   2.567   6.048
 7618SOL    HW123753   0.007   2.538   5.965
 7618SOL    HW223754   6.888   2.589   6.024
 7619SOL     OW23755   6.647   3.050   4.628
 7619SOL    HW123756   6.594   3.045   4.544
 7619SOL    HW223757   6.641   3.142   4.666
 7620SOL     OW23758   4.156   5.589   1.720
 7620SOL    HW123759   4.215   5.657   1.765
 7620SOL    HW223760   4.148   5.509   1.778
 7621SOL     OW23761   6.497   0.853   0.584
 7621SOL    HW123762   6.538   0.866   0.494
 7621SOL    HW223763   6.570   0.839   0.652
 7622SOL     OW23764   3.984   4.891   6.547
 7622SOL    HW123765   3.961   4.946   6.467
 7622SOL    HW223766   3.957   4.796   6.530
 7623SOL     OW23767   5.322   3.408   6.653
 7623SOL    HW123768   5.228   3.428   6.683
 7623SOL    HW223769   5.325   3.315   6.615
 7624SOL     OW23770   6.868   3.910   5.052
 7624SOL    HW123771   6.952   3.894   5.000
 7624SOL    HW223772   6.790   3.913   4.990
 7625SOL     OW23773   4.838   0.802   0.056
 7625SOL    HW123774   4.804   0.893   0.083
 7625SOL    HW223775   4.766   0.754   0.005
 7626SOL     OW23776   6.516   0.234   4.706
 7626SOL    HW123777   6.445   0.291   4.747
 7626SOL    HW223778   6.581   0.291   4.655
 7627SOL     OW23779   4.702   3.227   0.241
 7627SOL    HW123780   4.652   3.171   0.307
 7627SOL    HW223781   4.745   3.168   0.173
 7628SOL     OW23782   3.326   2.805   1.774
 7628SOL    HW123783   3.352   2.810   1.870
 7628SOL    HW223784   3.403   2.771   1.720
 7629SOL     OW23785   0.347   4.774   3.548
 7629SOL    HW123786   0.337   4.693   3.605
 7629SOL    HW223787   0.264   4.829   3.554
 7630SOL     OW23788   0.834   0.362   1.327
 7630SOL    HW123789   0.876   0.280   1.365
 7630SOL    HW223790   0.893   0.441   1.344
 7631SOL     OW23791   0.716   1.867   6.170
 7631SOL    HW123792   0.742   1.827   6.258
 7631SOL    HW223793   0.689   1.962   6.184
 7632SOL     OW23794   5.052   4.259   0.890
 7632SOL    HW123795   5.113   4.275   0.968
 7632SOL    HW223796   4.969   4.214   0.922
 7633SOL     OW23797   5.311   0.190   1.984
 7633SOL    HW123798   5.393   0.213   2.036
 7633SOL    HW223799   5.284   0.095   2.003
 7634SOL     OW23800   1.932   1.687   2.086
 7634SOL    HW123801   1.947   1.666   1.989
 7634SOL    HW223802   1.929   1.602   2.139
 7635SOL     OW23803   3.613   4.835   5.218
 7635SOL    HW123804   3.681   4.857   5.288
 7635SOL    HW223805   3.545   4.772   5.255
 7636SOL     OW23806   1.913   3.169   4.036
 7636SOL    HW123807   1.892   3.073   4.052
 7636SOL    HW223808   2.009   3.179   4.011
 7637SOL     OW23809   2.888   6.378   2.217
 7637SOL    HW123810   2.968   6.336   2.261
 7637SOL    HW223811   2.919   6.435   2.141
 7638SOL     OW23812   2.127   5.851   1.416
 7638SOL    HW123813   2.084   5.895   1.337
 7638SOL    HW223814   2.071   5.774   1.446
 7639SOL     OW23815   0.398   1.782   1.284
 7639SOL    HW123816   0.429   1.875   1.262
 7639SOL    HW223817   0.384   1.731   1.200
 7640SOL     OW23818   2.824   1.811   5.776
 7640SOL    HW123819   2.899   1.760   5.733
 7640SOL    HW223820   2.854   1.847   5.864
 7641SOL     OW23821   1.567   3.978   2.494
 7641SOL    HW123822   1.633   3.962   2.568
 7641SOL    HW223823   1.486   4.024   2.531
 7642SOL     OW23824   3.459   1.748   2.639
 7642SOL    HW123825   3.456   1.650   2.618
 7642SOL    HW223826   3.458   1.761   2.738
 7643SOL     OW23827   4.826   2.315   3.206
 7643SOL    HW123828   4.854   2.236   3.150
 7643SOL    HW223829   4.749   2.289   3.264
 7644SOL     OW23830   4.551   2.412   1.945
 7644SOL    HW123831   4.598   2.425   2.032
 7644SOL    HW223832   4.552   2.498   1.894
 7645SOL     OW23833   5.288   3.725   5.149
 7645SOL    HW123834   5.207   3.693   5.198
 7645SOL    HW223835   5.285   3.825   5.141
 7646SOL     OW23836   1.852   2.852   3.971
 7646SOL    HW123837   1.795   2.771   3.955
 7646SOL    HW223838   1.943   2.837   3.932
 7647SOL     OW23839   0.346   2.306   3.691
 7647SOL    HW123840   0.427   2.350   3.653
 7647SOL    HW223841   0.354   2.303   3.791
 7648SOL     OW23842   2.684   1.565   2.729
 7648SOL    HW123843   2.598   1.535   2.770
 7648SOL    HW223844   2.673   1.571   2.629
 7649SOL     OW23845   0.986   1.048   3.758
 7649SOL    HW123846   1.048   1.025   3.683
 7649SOL    HW223847   1.000   0.984   3.834
 7650SOL     OW23848   5.745   1.547   0.275
 7650SOL    HW123849   5.830   1.507   0.240
 7650SOL    HW223850   5.696   1.479   0.329
 7651SOL     OW23851   2.151   0.429   4.021
 7651SOL    HW123852   2.204   0.440   3.937
 7651SOL    HW223853   2.100   0.343   4.016
 7652SOL     OW23854   6.221   3.193   4.205
 7652SOL    HW123855   6.173   3.145   4.279
 7652SOL    HW223856   6.176   3.172   4.118
 7653SOL     OW23857   0.407   1.862   0.036
 7653SOL    HW123858   0.367   1.797   6.996
 7653SOL    HW223859   0.427   1.947   7.013
 7654SOL     OW23860   4.837   3.152   4.868
 7654SOL    HW123861   4.828   3.240   4.913
 7654SOL    HW223862   4.863   3.082   4.935
 7655SOL     OW23863   4.232   6.850   3.167
 7655SOL    HW123864   4.257   6.944   3.192
 7655SOL    HW223865   4.271   6.787   3.234
 7656SOL     OW23866   4.063   3.847   6.825
 7656SOL    HW123867   4.071   3.931   6.771
 7656SOL    HW223868   3.985   3.856   6.887
 7657SOL     OW23869   1.374   1.936   3.513
 7657SOL    HW123870   1.466   1.907   3.541
 7657SOL    HW223871   1.369   2.036   3.513
 7658SOL     OW23872   2.850   0.409   6.983
 7658SOL    HW123873   2.760   0.450   6.997
 7658SOL    HW223874   2.919   0.481   6.978
 7659SOL     OW23875   5.447   4.328   6.192
 7659SOL    HW123876   5.363   4.296   6.148
 7659SOL    HW223877   5.451   4.428   6.189
 7660SOL     OW23878   0.381   5.671   3.421
 7660SOL    HW123879   0.337   5.591   3.381
 7660SOL    HW223880   0.458   5.700   3.364
 7661SOL     OW23881   5.450   2.171   5.344
 7661SOL    HW123882   5.508   2.228   5.402
 7661SOL    HW223883   5.481   2.076   5.350
 7662SOL     OW23884   1.745   3.238   4.636
 7662SOL    HW123885   1.719   3.296   4.559
 7662SOL    HW223886   1.673   3.241   4.706
 7663SOL     OW23887   6.166   4.609   6.073
 7663SOL    HW123888   6.245   4.559   6.037
 7663SOL    HW223889   6.116   4.549   6.136
 7664SOL     OW23890   4.286   0.935   1.941
 7664SOL    HW123891   4.223   0.861   1.918
 7664SOL    HW223892   4.236   1.009   1.985
 7665SOL     OW23893   5.959   0.949   4.815
 7665SOL    HW123894   5.877   0.986   4.858
 7665SOL    HW223895   6.039   1.001   4.845
 7666SOL     OW23896   0.669   4.696   2.387
 7666SOL    HW123897   0.768   4.706   2.386
 7666SOL    HW223898   0.645   4.600   2.403
 7667SOL     OW23899   4.329   0.106   2.678
 7667SOL    HW123900   4.408   0.072   2.628
 7667SOL    HW223901   4.250   0.046   2.663
 7668SOL     OW23902   3.583   5.016   0.211
 7668SOL    HW123903   3.506   5.053   0.159
 7668SOL    HW223904   3.549   4.960   0.286
 7669SOL     OW23905   4.665   0.942   5.165
 7669SOL    HW123906   4.672   0.936   5.065
 7669SOL    HW223907   4.725   0.875   5.207
 7670SOL     OW23908   0.741   4.442   0.574
 7670SOL    HW123909   0.808   4.440   0.648
 7670SOL    HW223910   0.664   4.384   0.598
 7671SOL     OW23911   3.820   1.699   2.148
 7671SOL    HW123912   3.873   1.770   2.195
 7671SOL    HW223913   3.735   1.739   2.114
 7672SOL     OW23914   0.041   6.294   2.944
 7672SOL    HW123915   6.977   6.280   2.898
 7672SOL    HW223916   0.111   6.239   2.899
 7673SOL     OW23917   1.660   6.253   1.410
 7673SOL    HW123918   1.733   6.271   1.345
 7673SOL    HW223919   1.606   6.175   1.379
 7674SOL     OW23920   4.542   1.460   3.616
 7674SOL    HW123921   4.533   1.379   3.674
 7674SOL    HW223922   4.626   1.508   3.638
 7675SOL     OW23923   6.322   6.864   2.802
 7675SOL    HW123924   6.246   6.884   2.864
 7675SOL    HW223925   6.382   6.943   2.796
 7676SOL     OW23926   2.390   1.654   0.269
 7676SOL    HW123927   2.449   1.574   0.274
 7676SOL    HW223928   2.441   1.732   0.233
 7677SOL     OW23929   0.989   4.339   1.490
 7677SOL    HW123930   1.080   4.339   1.531
 7677SOL    HW223931   0.955   4.246   1.484
 7678SOL     OW23932   2.336   2.806   5.286
 7678SOL    HW123933   2.413   2.859   5.250
 7678SOL    HW223934   2.270   2.790   5.213
 7679SOL     OW23935   3.072   6.630   6.028
 7679SOL    HW123936   3.073   6.569   6.107
 7679SOL    HW223937   2.981   6.630   5.987
 7680SOL     OW23938   1.441   0.281   1.020
 7680SOL    HW123939   1.479   0.357   1.072
 7680SOL    HW223940   1.361   0.244   1.069
 7681SOL     OW23941   2.988   0.623   0.858
 7681SOL    HW123942   2.907   0.655   0.906
 7681SOL    HW223943   2.974   0.528   0.829
 7682SOL     OW23944   3.377   0.165   2.360
 7682SOL    HW123945   3.369   0.115   2.446
 7682SOL    HW223946   3.441   0.242   2.372
 7683SOL     OW23947   6.721   2.324   4.335
 7683SOL    HW123948   6.631   2.295   4.303
 7683SOL    HW223949   6.773   2.363   4.259
 7684SOL     OW23950   4.047   1.756   1.291
 7684SOL    HW123951   4.114   1.728   1.360
 7684SOL    HW223952   3.993   1.833   1.326
 7685SOL     OW23953   2.815   1.395   5.796
 7685SOL    HW123954   2.730   1.419   5.748
 7685SOL    HW223955   2.829   1.459   5.872
 7686SOL     OW23956   0.237   6.511   3.610
 7686SOL    HW123957   0.290   6.535   3.692
 7686SOL    HW223958   0.254   6.579   3.539
 7687SOL     OW23959   6.098   5.249   4.326
 7687SOL    HW123960   6.179   5.261   4.384
 7687SOL    HW223961   6.128   5.234   4.231
 7688SOL     OW23962   0.614   5.845   5.732
 7688SOL    HW123963   0.657   5.792   5.805
 7688SOL    HW223964   0.617   5.942   5.755
 7689SOL     OW23965   5.929   6.495   2.552
 7689SOL    HW123966   5.976   6.583   2.555
 7689SOL    HW223967   5.985   6.425   2.594
 7690SOL     OW23968   6.049   4.724   0.176
 7690SOL    HW123969   6.111   4.785   0.224
 7690SOL    HW223970   5.961   4.770   0.161
 7691SOL     OW23971   4.872   3.856   3.251
 7691SOL    HW123972   4.921   3.861   3.338
 7691SOL    HW223973   4.865   3.760   3.222
 7692SOL     OW23974   0.741   5.959   1.545
 7692SOL    HW123975   0.692   5.876   1.573
 7692SOL    HW223976   0.680   6.016   1.490
 7693SOL     OW23977   3.087   0.156   1.837
 7693SOL    HW123978   3.079   0.057   1.848
 7693SOL    HW223979   3.004   0.192   1.794
 7694SOL     OW23980   5.034   3.878   4.021
 7694SOL    HW123981   4.963   3.810   4.004
 7694SOL    HW223982   5.050   3.932   3.939
 7695SOL     OW23983   4.339   0.140   1.401
 7695SOL    HW123984   4.276   0.121   1.326
 7695SOL    HW223985   4.323   0.074   1.475
 7696SOL     OW23986   0.437   1.455   6.254
 7696SOL    HW123987   0.400   1.377   6.205
 7696SOL    HW223988   0.522   1.429   6.300
 7697SOL     OW23989   2.567   6.944   3.331
 7697SOL    HW123990   2.640   6.876   3.329
 7697SOL    HW223991   2.484   6.904   3.293
 7698SOL     OW23992   5.590   1.608   3.600
 7698SOL    HW123993   5.671   1.666   3.592
 7698SOL    HW223994   5.576   1.583   3.696
 7699SOL     OW23995   3.095   6.188   6.131
 7699SOL    HW123996   3.178   6.136   6.152
 7699SOL    HW223997   3.119   6.284   6.115
 7700SOL     OW23998   5.214   5.541   2.961
 7700SOL    HW123999   5.207   5.456   2.908
 7700SOL    HW224000   5.123   5.565   2.997
 7701SOL     OW24001   6.352   2.183   6.456
 7701SOL    HW124002   6.329   2.265   6.507
 7701SOL    HW224003   6.418   2.206   6.384
 7702SOL     OW24004   4.053   6.035   4.985
 7702SOL    HW124005   4.013   5.995   4.903
 7702SOL    HW224006   4.020   6.129   4.997
 7703SOL     OW24007   5.907   6.375   5.899
 7703SOL    HW124008   5.807   6.368   5.899
 7703SOL    HW224009   5.945   6.304   5.958
 7704SOL     OW24010   5.813   0.452   3.945
 7704SOL    HW124011   5.884   0.422   3.882
 7704SOL    HW224012   5.789   0.547   3.925
 7705SOL     OW24013   2.705   6.261   0.715
 7705SOL    HW124014   2.651   6.177   0.713
 7705SOL    HW224015   2.677   6.317   0.793
 7706SOL     OW24016   3.191   3.773   4.894
 7706SOL    HW124017   3.241   3.834   4.955
 7706SOL    HW224018   3.092   3.786   4.908
 7707SOL     OW24019   0.712   3.846   5.858
 7707SOL    HW124020   0.634   3.905   5.880
 7707SOL    HW224021   0.708   3.820   5.762
 7708SOL     OW24022   0.791   6.560   5.660
 7708SOL    HW124023   0.810   6.622   5.584
 7708SOL    HW224024   0.731   6.605   5.726
 7709SOL     OW24025   6.695   4.591   1.989
 7709SOL    HW124026   6.753   4.642   1.927
 7709SOL    HW224027   6.608   4.569   1.944
 7710SOL     OW24028   3.290   2.740   0.306
 7710SOL    HW124029   3.317   2.776   0.396
 7710SOL    HW224030   3.289   2.815   0.240
 7711SOL     OW24031   5.638   6.107   5.694
 7711SOL    HW124032   5.562   6.052   5.660
 7711SOL    HW224033   5.719   6.093   5.636
 7712SOL     OW24034   6.566   5.142   1.355
 7712SOL    HW124035   6.473   5.148   1.391
 7712SOL    HW224036   6.590   5.229   1.312
 7713SOL     OW24037   1.755   4.432   0.797
 7713SOL    HW124038   1.799   4.504   0.850
 7713SOL    HW224039   1.741   4.463   0.703
 7714SOL     OW24040   0.300   4.212   5.559
 7714SOL    HW124041   0.219   4.155   5.553
 7714SOL    HW224042   0.329   4.219   5.655
 7715SOL     OW24043   3.066   2.596   0.229
 7715SOL    HW124044   3.147   2.630   0.276
 7715SOL    HW224045   3.071   2.621   0.132
 7716SOL     OW24046   0.051   4.691   1.249
 7716SOL    HW124047   0.098   4.685   1.161
 7716SOL    HW224048   0.110   4.741   1.314
 7717SOL     OW24049   1.140   0.739   5.984
 7717SOL    HW124050   1.094   0.670   6.039
 7717SOL    HW224051   1.162   0.819   6.040
 7718SOL     OW24052   6.384   4.360   3.602
 7718SOL    HW124053   6.350   4.386   3.692
 7718SOL    HW224054   6.316   4.303   3.556
 7719SOL     OW24055   0.283   3.972   5.321
 7719SOL    HW124056   0.194   4.010   5.295
 7719SOL    HW224057   0.349   3.990   5.248
 7720SOL     OW24058   6.531   2.869   6.446
 7720SOL    HW124059   6.462   2.875   6.518
 7720SOL    HW224060   6.487   2.883   6.357
 7721SOL     OW24061   0.375   5.114   2.430
 7721SOL    HW124062   0.441   5.039   2.441
 7721SOL    HW224063   0.298   5.083   2.374
 7722SOL     OW24064   1.274   3.828   3.522
 7722SOL    HW124065   1.246   3.869   3.435
 7722SOL    HW224066   1.338   3.889   3.569
 7723SOL     OW24067   4.639   3.140   6.376
 7723SOL    HW124068   4.614   3.044   6.385
 7723SOL    HW224069   4.634   3.167   6.280
 7724SOL     OW24070   2.996   3.742   0.583
 7724SOL    HW124071   2.957   3.693   0.660
 7724SOL    HW224072   2.942   3.824   0.565
 7725SOL     OW24073   6.026   1.425   2.544
 7725SOL    HW124074   6.001   1.347   2.601
 7725SOL    HW224075   5.948   1.449   2.486
 7726SOL     OW24076   2.030   5.177   5.476
 7726SOL    HW124077   1.987   5.094   5.513
 7726SOL    HW224078   2.128   5.159   5.462
 7727SOL     OW24079   6.483   3.074   2.480
 7727SOL    HW124080   6.554   3.057   2.412
 7727SOL    HW224081   6.499   3.016   2.560
 7728SOL     OW24082   2.122   2.995   5.181
 7728SOL    HW124083   2.207   3.004   5.130
 7728SOL    HW224084   2.126   2.915   5.239
 7729SOL     OW24085   6.248   1.808   1.369
 7729SOL    HW124086   6.215   1.750   1.444
 7729SOL    HW224087   6.183   1.804   1.293
 7730SOL     OW24088   6.530   4.828   6.586
 7730SOL    HW124089   6.473   4.868   6.657
 7730SOL    HW224090   6.622   4.812   6.622
 7731SOL     OW24091   5.742   1.048   0.226
 7731SOL    HW124092   5.662   1.000   0.191
 7731SOL    HW224093   5.779   1.107   0.154
 7732SOL     OW24094   4.401   6.780   0.338
 7732SOL    HW124095   4.412   6.684   0.362
 7732SOL    HW224096   4.459   6.802   0.259
 7733SOL     OW24097   5.622   6.130   2.075
 7733SOL    HW124098   5.668   6.152   2.161
 7733SOL    HW224099   5.528   6.165   2.077
 7734SOL     OW24100   1.591   4.780   4.086
 7734SOL    HW124101   1.629   4.818   4.002
 7734SOL    HW224102   1.492   4.768   4.076
 7735SOL     OW24103   4.779   6.173   6.193
 7735SOL    HW124104   4.848   6.138   6.257
 7735SOL    HW224105   4.706   6.219   6.243
 7736SOL     OW24106   2.306   2.696   6.870
 7736SOL    HW124107   2.404   2.674   6.874
 7736SOL    HW224108   2.289   2.782   6.920
 7737SOL     OW24109   3.062   6.946   2.712
 7737SOL    HW124110   3.122   6.971   2.789
 7737SOL    HW224111   3.007   0.001   2.686
 7738SOL     OW24112   3.518   5.515   0.360
 7738SOL    HW124113   3.558   5.525   0.270
 7738SOL    HW224114   3.433   5.568   0.365
 7739SOL     OW24115   0.437   2.554   2.173
 7739SOL    HW124116   0.435   2.558   2.273
 7739SOL    HW224117   0.388   2.632   2.135
 7740SOL     OW24118   2.883   0.623   3.145
 7740SOL    HW124119   2.874   0.682   3.064
 7740SOL    HW224120   2.963   0.565   3.134
 7741SOL     OW24121   0.172   4.841   5.841
 7741SOL    HW124122   0.137   4.767   5.784
 7741SOL    HW224123   0.134   4.834   5.933
 7742SOL     OW24124   4.256   2.296   2.932
 7742SOL    HW124125   4.191   2.271   3.005
 7742SOL    HW224126   4.342   2.327   2.973
 7743SOL     OW24127   4.688   1.993   6.969
 7743SOL    HW124128   4.655   2.072   6.918
 7743SOL    HW224129   4.782   2.008   6.998
 7744SOL     OW24130   0.964   0.924   4.803
 7744SOL    HW124131   0.901   0.911   4.880
 7744SOL    HW224132   0.988   1.021   4.796
 7745SOL     OW24133   3.874   1.084   6.727
 7745SOL    HW124134   3.821   1.003   6.700
 7745SOL    HW224135   3.942   1.058   6.795
 7746SOL     OW24136   0.841   0.681   0.773
 7746SOL    HW124137   0.760   0.725   0.735
 7746SOL    HW224138   0.825   0.660   0.869
 7747SOL     OW24139   5.740   6.501   1.148
 7747SOL    HW124140   5.749   6.411   1.189
 7747SOL    HW224141   5.704   6.493   1.055
 7748SOL     OW24142   2.969   3.861   4.474
 7748SOL    HW124143   3.008   3.895   4.389
 7748SOL    HW224144   2.903   3.789   4.454
 7749SOL     OW24145   3.470   3.225   5.569
 7749SOL    HW124146   3.558   3.202   5.525
 7749SOL    HW224147   3.437   3.145   5.619
 7750SOL     OW24148   0.021   5.871   0.498
 7750SOL    HW124149   7.021   5.778   0.470
 7750SOL    HW224150   0.069   5.917   0.423
 7751SOL     OW24151   1.435   2.806   2.901
 7751SOL    HW124152   1.447   2.855   2.988
 7751SOL    HW224153   1.519   2.813   2.848
 7752SOL     OW24154   5.954   6.435   5.455
 7752SOL    HW124155   5.869   6.389   5.428
 7752SOL    HW224156   5.983   6.496   5.382
 7753SOL     OW24157   2.205   0.301   4.393
 7753SOL    HW124158   2.252   0.265   4.473
 7753SOL    HW224159   2.229   0.397   4.381
 7754SOL     OW24160   4.982   0.040   1.825
 7754SOL    HW124161   5.049   0.022   1.752
 7754SOL    HW224162   4.890   0.023   1.790
 7755SOL     OW24163   1.525   2.100   5.749
 7755SOL    HW124164   1.561   2.016   5.709
 7755SOL    HW224165   1.472   2.149   5.680
 7756SOL     OW24166   3.570   5.331   1.725
 7756SOL    HW124167   3.546   5.424   1.751
 7756SOL    HW224168   3.487   5.280   1.704
 7757SOL     OW24169   5.608   5.749   5.231
 7757SOL    HW124170   5.522   5.699   5.240
 7757SOL    HW224171   5.651   5.724   5.144
 7758SOL     OW24172   1.343   1.586   6.271
 7758SOL    HW124173   1.243   1.575   6.269
 7758SOL    HW224174   1.382   1.518   6.334
 7759SOL     OW24175   1.047   1.727   5.733
 7759SOL    HW124176   1.136   1.692   5.705
 7759SOL    HW224177   1.015   1.794   5.666
 7760SOL     OW24178   5.427   3.693   2.555
 7760SOL    HW124179   5.380   3.679   2.642
 7760SOL    HW224180   5.367   3.664   2.480
 7761SOL     OW24181   0.880   0.284   6.077
 7761SOL    HW124182   0.890   0.288   5.978
 7761SOL    HW224183   0.785   0.302   6.102
 7762SOL     OW24184   4.336   0.439   4.239
 7762SOL    HW124185   4.365   0.532   4.218
 7762SOL    HW224186   4.414   0.377   4.227
 7763SOL     OW24187   1.116   1.369   0.085
 7763SOL    HW124188   1.154   1.425   0.158
 7763SOL    HW224189   1.187   1.351   0.017
 7764SOL     OW24190   3.598   2.919   3.164
 7764SOL    HW124191   3.687   2.959   3.182
 7764SOL    HW224192   3.529   2.961   3.224
 7765SOL     OW24193   6.063   2.768   4.009
 7765SOL    HW124194   5.981   2.731   4.053
 7765SOL    HW224195   6.069   2.735   3.915
 7766SOL     OW24196   6.025   2.710   6.829
 7766SOL    HW124197   6.097   2.695   6.762
 7766SOL    HW224198   6.051   2.668   6.916
 7767SOL     OW24199   4.360   5.884   3.269
 7767SOL    HW124200   4.290   5.813   3.271
 7767SOL    HW224201   4.316   5.974   3.261
 7768SOL     OW24202   4.196   4.704   2.315
 7768SOL    HW124203   4.216   4.800   2.299
 7768SOL    HW224204   4.211   4.652   2.230
 7769SOL     OW24205   5.066   2.801   2.754
 7769SOL    HW124206   5.002   2.778   2.681
 7769SOL    HW224207   5.081   2.720   2.812
 7770SOL     OW24208   1.784   4.241   2.302
 7770SOL    HW124209   1.790   4.142   2.313
 7770SOL    HW224210   1.689   4.270   2.315
 7771SOL     OW24211   3.339   2.253   5.361
 7771SOL    HW124212   3.281   2.307   5.300
 7771SOL    HW224213   3.367   2.311   5.438
 7772SOL     OW24214   5.184   0.321   2.392
 7772SOL    HW124215   5.108   0.295   2.333
 7772SOL    HW224216   5.261   0.352   2.336
 7773SOL     OW24217   2.521   5.598   4.636
 7773SOL    HW124218   2.541   5.618   4.732
 7773SOL    HW224219   2.423   5.578   4.626
 7774SOL     OW24220   5.227   2.022   6.035
 7774SOL    HW124221   5.287   2.101   6.023
 7774SOL    HW224222   5.276   1.950   6.084
 7775SOL     OW24223   5.109   6.255   2.077
 7775SOL    HW124224   5.053   6.321   2.027
 7775SOL    HW224225   5.050   6.184   2.116
 7776SOL     OW24226   1.815   4.995   6.878
 7776SOL    HW124227   1.829   4.959   6.785
 7776SOL    HW224228   1.881   5.068   6.896
 7777SOL     OW24229   0.967   0.231   4.683
 7777SOL    HW124230   0.998   0.317   4.642
 7777SOL    HW224231   0.913   0.180   4.617
 7778SOL     OW24232   5.592   3.945   1.157
 7778SOL    HW124233   5.500   3.950   1.197
 7778SOL    HW224234   5.584   3.946   1.057
 7779SOL     OW24235   2.556   2.768   1.486
 7779SOL    HW124236   2.637   2.721   1.519
 7779SOL    HW224237   2.581   2.856   1.447
 7780SOL     OW24238   0.874   4.890   5.321
 7780SOL    HW124239   0.817   4.861   5.398
 7780SOL    HW224240   0.938   4.960   5.352
 7781SOL     OW24241   1.208   4.737   0.344
 7781SOL    HW124242   1.253   4.802   0.282
 7781SOL    HW224243   1.125   4.777   0.381
 7782SOL     OW24244   6.547   4.783   4.844
 7782SOL    HW124245   6.510   4.862   4.893
 7782SOL    HW224246   6.646   4.791   4.837
 7783SOL     OW24247   0.532   5.791   5.136
 7783SOL    HW124248   0.512   5.848   5.215
 7783SOL    HW224249   0.580   5.844   5.067
 7784SOL     OW24250   2.946   2.775   1.242
 7784SOL    HW124251   2.893   2.785   1.326
 7784SOL    HW224252   3.037   2.739   1.264
 7785SOL     OW24253   1.765   5.623   3.886
 7785SOL    HW124254   1.812   5.536   3.869
 7785SOL    HW224255   1.683   5.607   3.940
 7786SOL     OW24256   3.067   6.538   6.974
 7786SOL    HW124257   2.969   6.556   6.964
 7786SOL    HW224258   3.096   6.564   0.042
 7787SOL     OW24259   2.254   2.635   6.596
 7787SOL    HW124260   2.265   2.653   6.694
 7787SOL    HW224261   2.167   2.674   6.565
 7788SOL     OW24262   2.476   5.717   1.645
 7788SOL    HW124263   2.393   5.676   1.607
 7788SOL    HW224264   2.461   5.741   1.741
 7789SOL     OW24265   1.744   6.759   6.255
 7789SOL    HW124266   1.763   6.692   6.327
 7789SOL    HW224267   1.712   6.845   6.296
 7790SOL     OW24268   5.569   5.571   3.250
 7790SOL    HW124269   5.636   5.633   3.291
 7790SOL    HW224270   5.598   5.477   3.264
 7791SOL     OW24271   1.887   5.861   3.205
 7791SOL    HW124272   1.936   5.774   3.201
 7791SOL    HW224273   1.794   5.845   3.240
 7792SOL     OW24274   1.477   5.126   4.803
 7792SOL    HW124275   1.558   5.157   4.754
 7792SOL    HW224276   1.437   5.202   4.853
 7793SOL     OW24277   3.597   0.961   0.191
 7793SOL    HW124278   3.606   0.861   0.200
 7793SOL    HW224279   3.654   0.992   0.115
 7794SOL     OW24280   6.233   4.577   2.703
 7794SOL    HW124281   6.265   4.503   2.644
 7794SOL    HW224282   6.263   4.665   2.665
 7795SOL     OW24283   1.783   4.168   5.352
 7795SOL    HW124284   1.768   4.075   5.385
 7795SOL    HW224285   1.813   4.165   5.256
 7796SOL     OW24286   4.074   3.737   3.415
 7796SOL    HW124287   4.122   3.787   3.488
 7796SOL    HW224288   3.977   3.729   3.439
 7797SOL     OW24289   1.517   6.990   3.052
 7797SOL    HW124290   1.452   6.992   3.127
 7797SOL    HW224291   1.597   0.020   3.075
 7798SOL     OW24292   2.179   4.207   5.576
 7798SOL    HW124293   2.115   4.152   5.629
 7798SOL    HW224294   2.217   4.152   5.502
 7799SOL     OW24295   0.931   6.200   2.539
 7799SOL    HW124296   0.986   6.122   2.509
 7799SOL    HW224297   0.860   6.218   2.471
 7800SOL     OW24298   0.732   5.228   1.441
 7800SOL    HW124299   0.791   5.279   1.378
 7800SOL    HW224300   0.754   5.255   1.535
 7801SOL     OW24301   2.114   1.917   1.523
 7801SOL    HW124302   2.026   1.964   1.526
 7801SOL    HW224303   2.137   1.882   1.614
 7802SOL     OW24304   5.954   2.690   1.056
 7802SOL    HW124305   5.964   2.590   1.059
 7802SOL    HW224306   5.868   2.714   1.011
 7803SOL     OW24307   4.791   1.738   6.100
 7803SOL    HW124308   4.694   1.715   6.107
 7803SOL    HW224309   4.808   1.827   6.143
 7804SOL     OW24310   4.731   2.061   3.618
 7804SOL    HW124311   4.690   2.133   3.562
 7804SOL    HW224312   4.703   1.972   3.583
 7805SOL     OW24313   5.655   2.634   1.212
 7805SOL    HW124314   5.577   2.680   1.254
 7805SOL    HW224315   5.719   2.604   1.282
 7806SOL     OW24316   5.499   1.842   6.700
 7806SOL    HW124317   5.539   1.933   6.708
 7806SOL    HW224318   5.426   1.832   6.768
 7807SOL     OW24319   1.540   4.535   5.343
 7807SOL    HW124320   1.552   4.600   5.418
 7807SOL    HW224321   1.617   4.542   5.279
 7808SOL     OW24322   6.601   3.201   3.518
 7808SOL    HW124323   6.572   3.213   3.613
 7808SOL    HW224324   6.625   3.105   3.502
 7809SOL     OW24325   2.808   5.122   3.668
 7809SOL    HW124326   2.757   5.100   3.586
 7809SOL    HW224327   2.851   5.212   3.658
 7810SOL     OW24328   3.736   0.251   4.365
 7810SOL    HW124329   3.795   0.224   4.289
 7810SOL    HW224330   3.792   0.266   4.447
 7811SOL     OW24331   1.781   5.423   2.372
 7811SOL    HW124332   1.726   5.363   2.315
 7811SOL    HW224333   1.878   5.400   2.360
 7812SOL     OW24334   0.565   1.584   4.128
 7812SOL    HW124335   0.496   1.656   4.119
 7812SOL    HW224336   0.598   1.558   4.038
 7813SOL     OW24337   5.089   2.410   0.079
 7813SOL    HW124338   5.085   2.346   0.002
 7813SOL    HW224339   5.037   2.492   0.056
 7814SOL     OW24340   0.274   3.452   3.127
 7814SOL    HW124341   0.237   3.407   3.208
 7814SOL    HW224342   0.352   3.509   3.154
 7815SOL     OW24343   5.271   0.249   5.502
 7815SOL    HW124344   5.292   0.331   5.449
 7815SOL    HW224345   5.228   0.276   5.588
 7816SOL     OW24346   1.674   2.385   6.231
 7816SOL    HW124347   1.668   2.386   6.331
 7816SOL    HW224348   1.747   2.446   6.201
 7817SOL     OW24349   5.702   4.775   3.006
 7817SOL    HW124350   5.636   4.738   3.071
 7817SOL    HW224351   5.764   4.703   2.975
 7818SOL     OW24352   4.291   0.524   2.468
 7818SOL    HW124353   4.341   0.561   2.547
 7818SOL    HW224354   4.244   0.598   2.421
 7819SOL     OW24355   0.304   3.882   1.655
 7819SOL    HW124356   0.372   3.830   1.604
 7819SOL    HW224357   0.336   3.897   1.748
 7820SOL     OW24358   1.690   2.145   6.073
 7820SOL    HW124359   1.685   2.208   6.151
 7820SOL    HW224360   1.597   2.130   6.038
 7821SOL     OW24361   5.551   6.125   0.146
 7821SOL    HW124362   5.542   6.037   0.099
 7821SOL    HW224363   5.464   6.175   0.140
 7822SOL     OW24364   2.376   1.799   6.467
 7822SOL    HW124365   2.280   1.826   6.471
 7822SOL    HW224366   2.431   1.877   6.436
 7823SOL     OW24367   2.649   3.904   5.290
 7823SOL    HW124368   2.707   3.823   5.290
 7823SOL    HW224369   2.568   3.888   5.235
 7824SOL     OW24370   6.457   0.629   4.256
 7824SOL    HW124371   6.482   0.687   4.179
 7824SOL    HW224372   6.423   0.686   4.331
 7825SOL     OW24373   2.014   2.783   1.356
 7825SOL    HW124374   2.050   2.735   1.276
 7825SOL    HW224375   2.078   2.774   1.432
 7826SOL     OW24376   6.765   1.600   0.647
 7826SOL    HW124377   6.701   1.622   0.574
 7826SOL    HW224378   6.852   1.646   0.630
 7827SOL     OW24379   2.594   5.997   0.669
 7827SOL    HW124380   2.557   5.944   0.745
 7827SOL    HW224381   2.567   5.953   0.583
 7828SOL     OW24382   1.356   4.464   6.976
 7828SOL    HW124383   1.450   4.458   7.010
 7828SOL    HW224384   1.356   4.507   6.886
 7829SOL     OW24385   2.931   3.967   0.947
 7829SOL    HW124386   2.873   3.943   0.870
 7829SOL    HW224387   2.884   3.945   1.033
 7830SOL     OW24388   2.366   4.687   5.459
 7830SOL    HW124389   2.329   4.649   5.374
 7830SOL    HW224390   2.291   4.698   5.525
 7831SOL     OW24391   2.170   6.385   0.827
 7831SOL    HW124392   2.115   6.301   0.818
 7831SOL    HW224393   2.109   6.464   0.828
 7832SOL     OW24394   5.056   1.124   3.186
 7832SOL    HW124395   4.967   1.084   3.165
 7832SOL    HW224396   5.057   1.220   3.160
 7833SOL     OW24397   0.909   1.153   6.690
 7833SOL    HW124398   0.928   1.229   6.752
 7833SOL    HW224399   0.968   1.075   6.713
 7834SOL     OW24400   6.791   1.830   3.444
 7834SOL    HW124401   6.798   1.806   3.347
 7834SOL    HW224402   6.755   1.922   3.454
 7835SOL     OW24403   3.772   2.307   6.029
 7835SOL    HW124404   3.743   2.401   6.046
 7835SOL    HW224405   3.747   2.250   6.107
 7836SOL     OW24406   3.293   2.934   4.987
 7836SOL    HW124407   3.353   2.884   4.925
 7836SOL    HW224408   3.291   3.031   4.961
 7837SOL     OW24409   6.757   5.397   0.300
 7837SOL    HW124410   6.721   5.307   0.276
 7837SOL    HW224411   6.683   5.455   0.332
 7838SOL     OW24412   4.099   6.777   0.215
 7838SOL    HW124413   4.137   6.709   0.278
 7838SOL    HW224414   4.064   6.855   0.267
 7839SOL     OW24415   6.083   4.478   5.053
 7839SOL    HW124416   6.018   4.408   5.081
 7839SOL    HW224417   6.057   4.565   5.095
 7840SOL     OW24418   6.717   2.415   3.836
 7840SOL    HW124419   6.812   2.398   3.861
 7840SOL    HW224420   6.659   2.344   3.875
 7841SOL     OW24421   3.773   2.048   6.398
 7841SOL    HW124422   3.820   2.011   6.478
 7841SOL    HW224423   3.724   1.974   6.351
 7842SOL     OW24424   2.255   2.125   2.578
 7842SOL    HW124425   2.281   2.213   2.539
 7842SOL    HW224426   2.287   2.120   2.673
 7843SOL     OW24427   6.817   5.718   3.087
 7843SOL    HW124428   6.787   5.804   3.047
 7843SOL    HW224429   6.827   5.728   3.186
 7844SOL     OW24430   3.725   0.016   2.382
 7844SOL    HW124431   3.799   6.974   2.392
 7844SOL    HW224432   3.743   0.096   2.438
 7845SOL     OW24433   5.501   1.978   3.353
 7845SOL    HW124434   5.449   1.942   3.431
 7845SOL    HW224435   5.598   1.977   3.374
 7846SOL     OW24436   0.700   1.317   2.093
 7846SOL    HW124437   0.681   1.301   1.996
 7846SOL    HW224438   0.661   1.405   2.120
 7847SOL     OW24439   6.741   1.708   3.183
 7847SOL    HW124440   6.650   1.700   3.143
 7847SOL    HW224441   6.810   1.688   3.114
 7848SOL     OW24442   3.952   3.780   0.360
 7848SOL    HW124443   3.859   3.784   0.322
 7848SOL    HW224444   3.978   3.685   0.377
 7849SOL     OW24445   5.665   4.306   4.169
 7849SOL    HW124446   5.677   4.212   4.202
 7849SOL    HW224447   5.567   4.326   4.163
 7850SOL     OW24448   0.581   2.058   4.666
 7850SOL    HW124449   0.681   2.054   4.662
 7850SOL    HW224450   0.544   1.965   4.666
 7851SOL     OW24451   6.698   1.223   1.436
 7851SOL    HW124452   6.632   1.260   1.370
 7851SOL    HW224453   6.781   1.196   1.389
 7852SOL     OW24454   2.730   1.494   6.257
 7852SOL    HW124455   2.683   1.416   6.216
 7852SOL    HW224456   2.664   1.553   6.303
 7853SOL     OW24457   4.836   2.261   1.684
 7853SOL    HW124458   4.806   2.285   1.776
 7853SOL    HW224459   4.934   2.279   1.674
 7854SOL     OW24460   3.601   3.174   0.122
 7854SOL    HW124461   3.640   3.258   0.083
 7854SOL    HW224462   3.513   3.195   0.164
 7855SOL     OW24463   4.729   5.939   3.902
 7855SOL    HW124464   4.806   5.907   3.957
 7855SOL    HW224465   4.760   6.010   3.839
 7856SOL     OW24466   6.592   4.707   5.444
 7856SOL    HW124467   6.575   4.806   5.449
 7856SOL    HW224468   6.508   4.658   5.467
 7857SOL     OW24469   5.506   1.518   5.706
 7857SOL    HW124470   5.588   1.468   5.679
 7857SOL    HW224471   5.432   1.453   5.722
 7858SOL     OW24472   5.850   6.602   3.973
 7858SOL    HW124473   5.850   6.503   3.991
 7858SOL    HW224474   5.757   6.637   3.983
 7859SOL     OW24475   4.602   2.884   6.415
 7859SOL    HW124476   4.589   2.846   6.323
 7859SOL    HW224477   4.518   2.871   6.468
 7860SOL     OW24478   3.282   0.195   2.758
 7860SOL    HW124479   3.235   0.149   2.833
 7860SOL    HW224480   3.292   0.133   2.680
 7861SOL     OW24481   3.663   4.938   1.750
 7861SOL    HW124482   3.616   4.863   1.796
 7861SOL    HW224483   3.762   4.923   1.757
 7862SOL     OW24484   1.877   4.156   1.603
 7862SOL    HW124485   1.927   4.143   1.517
 7862SOL    HW224486   1.923   4.227   1.656
 7863SOL     OW24487   0.497   4.877   4.083
 7863SOL    HW124488   0.490   4.977   4.078
 7863SOL    HW224489   0.460   4.837   3.999
 7864SOL     OW24490   0.247   5.478   5.631
 7864SOL    HW124491   0.277   5.544   5.699
 7864SOL    HW224492   0.326   5.441   5.582
 7865SOL     OW24493   6.225   6.856   3.681
 7865SOL    HW124494   6.128   6.833   3.676
 7865SOL    HW224495   6.251   6.869   3.777
 7866SOL     OW24496   1.477   1.360   6.391
 7866SOL    HW124497   1.537   1.296   6.438
 7866SOL    HW224498   1.388   1.317   6.375
 7867SOL     OW24499   5.998   6.155   3.831
 7867SOL    HW124500   6.054   6.128   3.909
 7867SOL    HW224501   6.053   6.150   3.747
 7868SOL     OW24502   5.168   6.035   1.862
 7868SOL    HW124503   5.232   6.005   1.932
 7868SOL    HW224504   5.086   5.979   1.864
 7869SOL     OW24505   6.320   3.983   0.273
 7869SOL    HW124506   6.292   3.894   0.309
 7869SOL    HW224507   6.294   4.054   0.339
 7870SOL     OW24508   4.154   4.828   4.168
 7870SOL    HW124509   4.126   4.796   4.258
 7870SOL    HW224510   4.124   4.923   4.155
 7871SOL     OW24511   4.667   2.761   2.426
 7871SOL    HW124512   4.613   2.678   2.442
 7871SOL    HW224513   4.751   2.757   2.481
 7872SOL     OW24514   2.068   3.984   3.119
 7872SOL    HW124515   2.092   3.942   3.031
 7872SOL    HW224516   2.108   3.930   3.193
 7873SOL     OW24517   5.576   6.835   5.952
 7873SOL    HW124518   5.584   6.840   6.051
 7873SOL    HW224519   5.485   6.801   5.927
 7874SOL     OW24520   5.200   1.870   6.943
 7874SOL    HW124521   5.131   1.820   6.995
 7874SOL    HW224522   5.263   1.915   7.006
 7875SOL     OW24523   4.787   2.869   6.614
 7875SOL    HW124524   4.727   2.870   6.535
 7875SOL    HW224525   4.777   2.955   6.664
 7876SOL     OW24526   1.186   0.063   4.526
 7876SOL    HW124527   1.099   0.078   4.573
 7876SOL    HW224528   1.222   6.998   4.550
 7877SOL     OW24529   0.795   2.262   2.958
 7877SOL    HW124530   0.853   2.225   3.030
 7877SOL    HW224531   0.834   2.240   2.869
 7878SOL     OW24532   5.867   4.608   4.644
 7878SOL    HW124533   5.885   4.701   4.612
 7878SOL    HW224534   5.836   4.611   4.739
 7879SOL     OW24535   4.182   5.211   3.118
 7879SOL    HW124536   4.218   5.170   3.202
 7879SOL    HW224537   4.112   5.279   3.142
 7880SOL     OW24538   1.903   5.650   0.708
 7880SOL    HW124539   1.861   5.565   0.741
 7880SOL    HW224540   1.844   5.692   0.640
 7881SOL     OW24541   6.469   4.749   4.433
 7881SOL    HW124542   6.409   4.708   4.501
 7881SOL    HW224543   6.426   4.746   4.343
 7882SOL     OW24544   1.224   3.093   1.591
 7882SOL    HW124545   1.221   2.996   1.616
 7882SOL    HW224546   1.316   3.116   1.558
 7883SOL     OW24547   1.075   0.662   1.141
 7883SOL    HW124548   1.003   0.607   1.098
 7883SOL    HW224549   1.118   0.720   1.072
 7884SOL     OW24550   1.909   3.629   4.494
 7884SOL    HW124551   1.975   3.562   4.461
 7884SOL    HW224552   1.854   3.664   4.418
 7885SOL     OW24553   6.358   5.335   1.508
 7885SOL    HW124554   6.287   5.353   1.440
 7885SOL    HW224555   6.315   5.306   1.594
 7886SOL     OW24556   3.188   5.493   6.442
 7886SOL    HW124557   3.187   5.393   6.439
 7886SOL    HW224558   3.264   5.524   6.498
 7887SOL     OW24559   3.688   2.712   5.271
 7887SOL    HW124560   3.644   2.800   5.256
 7887SOL    HW224561   3.633   2.657   5.333
 7888SOL     OW24562   6.312   0.160   5.233
 7888SOL    HW124563   6.323   0.076   5.286
 7888SOL    HW224564   6.399   0.185   5.190
 7889SOL     OW24565   1.898   5.147   0.674
 7889SOL    HW124566   1.963   5.185   0.608
 7889SOL    HW224567   1.821   5.107   0.625
 7890SOL     OW24568   1.542   2.582   3.074
 7890SOL    HW124569   1.617   2.548   3.130
 7890SOL    HW224570   1.578   2.639   3.000
 7891SOL     OW24571   2.131   3.709   3.890
 7891SOL    HW124572   2.151   3.611   3.885
 7891SOL    HW224573   2.093   3.740   3.803
 7892SOL     OW24574   2.126   0.900   3.732
 7892SOL    HW124575   2.127   0.895   3.832
 7892SOL    HW224576   2.039   0.865   3.697
 7893SOL     OW24577   6.679   6.263   2.899
 7893SOL    HW124578   6.681   6.223   2.807
 7893SOL    HW224579   6.596   6.235   2.947
 7894SOL     OW24580   3.767   6.566   0.347
 7894SOL    HW124581   3.691   6.505   0.324
 7894SOL    HW224582   3.731   6.657   0.368
 7895SOL     OW24583   5.577   0.649   5.020
 7895SOL    HW124584   5.609   0.712   5.090
 7895SOL    HW224585   5.655   0.607   4.974
 7896SOL     OW24586   4.847   3.476   0.628
 7896SOL    HW124587   4.893   3.410   0.687
 7896SOL    HW224588   4.780   3.429   0.570
 7897SOL     OW24589   2.842   4.049   7.005
 7897SOL    HW124590   2.881   3.958   7.020
 7897SOL    HW224591   2.744   4.041   6.985
 7898SOL     OW24592   4.138   2.268   3.396
 7898SOL    HW124593   4.062   2.247   3.458
 7898SOL    HW224594   4.217   2.298   3.450
 7899SOL     OW24595   5.806   0.494   1.413
 7899SOL    HW124596   5.836   0.540   1.329
 7899SOL    HW224597   5.727   0.542   1.451
 7900SOL     OW24598   1.827   5.012   1.877
 7900SOL    HW124599   1.883   5.004   1.794
 7900SOL    HW224600   1.735   4.976   1.859
 7901SOL     OW24601   5.203   1.455   6.417
 7901SOL    HW124602   5.164   1.379   6.469
 7901SOL    HW224603   5.168   1.541   6.453
 7902SOL     OW24604   5.594   6.880   0.972
 7902SOL    HW124605   5.593   6.782   0.952
 7902SOL    HW224606   5.566   6.931   0.891
 7903SOL     OW24607   5.803   1.632   0.790
 7903SOL    HW124608   5.807   1.643   0.690
 7903SOL    HW224609   5.846   1.711   0.834
 7904SOL     OW24610   5.575   0.377   3.292
 7904SOL    HW124611   5.632   0.452   3.259
 7904SOL    HW224612   5.499   0.415   3.346
 7905SOL     OW24613   4.820   2.473   6.894
 7905SOL    HW124614   4.850   2.569   6.890
 7905SOL    HW224615   4.733   2.463   6.847
 7906SOL     OW24616   0.407   5.269   0.532
 7906SOL    HW124617   0.415   5.312   0.623
 7906SOL    HW224618   0.314   5.283   0.498
 7907SOL     OW24619   5.450   2.801   3.159
 7907SOL    HW124620   5.446   2.746   3.075
 7907SOL    HW224621   5.435   2.897   3.135
 7908SOL     OW24622   0.977   1.099   5.607
 7908SOL    HW124623   0.980   1.105   5.707
 7908SOL    HW224624   1.006   1.007   5.579
 7909SOL     OW24625   5.521   4.085   4.386
 7909SOL    HW124626   5.565   4.041   4.464
 7909SOL    HW224627   5.423   4.071   4.391
 7910SOL     OW24628   2.762   3.706   5.752
 7910SOL    HW124629   2.762   3.622   5.698
 7910SOL    HW224630   2.680   3.709   5.809
 7911SOL     OW24631   2.079   3.141   0.327
 7911SOL    HW124632   1.999   3.118   0.271
 7911SOL    HW224633   2.060   3.119   0.423
 7912SOL     OW24634   6.798   4.979   0.511
 7912SOL    HW124635   6.772   4.923   0.590
 7912SOL    HW224636   6.879   4.940   0.468
 7913SOL     OW24637   1.284   4.954   1.066
 7913SOL    HW124638   1.267   4.862   1.102
 7913SOL    HW224639   1.237   5.021   1.124
 7914SOL     OW24640   0.583   4.227   0.313
 7914SOL    HW124641   0.569   4.128   0.320
 7914SOL    HW224642   0.617   4.263   0.400
 7915SOL     OW24643   4.949   3.090   1.821
 7915SOL    HW124644   4.912   3.135   1.740
 7915SOL    HW224645   4.875   3.067   1.883
 7916SOL     OW24646   0.828   4.234   5.244
 7916SOL    HW124647   0.734   4.236   5.208
 7916SOL    HW224648   0.875   4.318   5.219
 7917SOL     OW24649   3.780   3.600   4.461
 7917SOL    HW124650   3.738   3.656   4.389
 7917SOL    HW224651   3.768   3.645   4.549
 7918SOL     OW24652   6.989   1.376   6.582
 7918SOL    HW124653   0.030   1.346   6.512
 7918SOL    HW224654   6.941   1.457   6.550
 7919SOL     OW24655   1.967   4.456   2.285
 7919SOL    HW124656   1.919   4.541   2.263
 7919SOL    HW224657   1.900   4.384   2.305
 7920SOL     OW24658   0.292   5.727   0.940
 7920SOL    HW124659   0.206   5.680   0.959
 7920SOL    HW224660   0.288   5.769   0.850
 7921SOL     OW24661   5.414   6.663   0.484
 7921SOL    HW124662   5.384   6.728   0.553
 7921SOL    HW224663   5.484   6.603   0.523
 7922SOL     OW24664   6.875   6.510   0.287
 7922SOL    HW124665   6.930   6.592   0.274
 7922SOL    HW224666   6.888   6.475   0.380
 7923SOL     OW24667   3.079   0.359   2.052
 7923SOL    HW124668   3.012   0.324   1.986
 7923SOL    HW224669   3.169   0.320   2.033
 7924SOL     OW24670   4.156   6.847   2.431
 7924SOL    HW124671   4.215   6.832   2.510
 7924SOL    HW224672   4.182   6.931   2.384
 7925SOL     OW24673   1.106   1.945   6.144
 7925SOL    HW124674   1.056   1.886   6.081
 7925SOL    HW224675   1.059   2.033   6.152
 7926SOL     OW24676   4.388   1.456   5.418
 7926SOL    HW124677   4.436   1.400   5.350
 7926SOL    HW224678   4.324   1.517   5.371
 7927SOL     OW24679   4.398   5.280   2.913
 7927SOL    HW124680   4.316   5.251   2.963
 7927SOL    HW224681   4.378   5.280   2.815
 7928SOL     OW24682   1.337   2.177   4.538
 7928SOL    HW124683   1.312   2.099   4.481
 7928SOL    HW224684   1.314   2.262   4.490
 7929SOL     OW24685   3.813   5.128   6.289
 7929SOL    HW124686   3.819   5.173   6.200
 7929SOL    HW224687   3.759   5.045   6.281
 7930SOL     OW24688   4.526   5.535   4.582
 7930SOL    HW124689   4.563   5.443   4.597
 7930SOL    HW224690   4.565   5.573   4.497
 7931SOL     OW24691   1.859   2.027   6.403
 7931SOL    HW124692   1.830   1.995   6.493
 7931SOL    HW224693   1.801   2.102   6.373
 7932SOL     OW24694   1.772   6.134   6.703
 7932SOL    HW124695   1.826   6.186   6.769
 7932SOL    HW224696   1.807   6.151   6.611
 7933SOL     OW24697   0.253   5.767   6.624
 7933SOL    HW124698   0.163   5.810   6.621
 7933SOL    HW224699   0.252   5.685   6.566
 7934SOL     OW24700   2.332   4.804   0.563
 7934SOL    HW124701   2.364   4.853   0.644
 7934SOL    HW224702   2.338   4.706   0.578
 7935SOL     OW24703   5.987   5.511   6.846
 7935SOL    HW124704   5.941   5.534   6.932
 7935SOL    HW224705   5.920   5.479   6.780
 7936SOL     OW24706   4.074   6.300   2.412
 7936SOL    HW124707   3.981   6.319   2.380
 7936SOL    HW224708   4.093   6.356   2.492
 7937SOL     OW24709   6.704   6.666   3.657
 7937SOL    HW124710   6.643   6.601   3.611
 7937SOL    HW224711   6.650   6.743   3.690
 7938SOL     OW24712   6.623   5.645   4.653
 7938SOL    HW124713   6.707   5.689   4.621
 7938SOL    HW224714   6.618   5.551   4.618
 7939SOL     OW24715   2.067   2.465   5.526
 7939SOL    HW124716   1.967   2.471   5.529
 7939SOL    HW224717   2.095   2.401   5.455
 7940SOL     OW24718   1.864   3.775   2.119
 7940SOL    HW124719   1.791   3.733   2.172
 7940SOL    HW224720   1.909   3.705   2.063
 7941SOL     OW24721   6.235   0.557   0.557
 7941SOL    HW124722   6.139   0.565   0.581
 7941SOL    HW224723   6.287   0.629   0.603
 7942SOL     OW24724   6.584   6.080   2.702
 7942SOL    HW124725   6.577   6.002   2.765
 7942SOL    HW224726   6.512   6.074   2.633
 7943SOL     OW24727   6.205   3.269   0.826
 7943SOL    HW124728   6.244   3.358   0.847
 7943SOL    HW224729   6.262   3.223   0.758
 7944SOL     OW24730   0.607   2.333   1.788
 7944SOL    HW124731   0.533   2.363   1.728
 7944SOL    HW224732   0.571   2.271   1.857
 7945SOL     OW24733   5.836   5.830   1.571
 7945SOL    HW124734   5.903   5.846   1.497
 7945SOL    HW224735   5.817   5.917   1.617
 7946SOL     OW24736   2.257   1.505   5.393
 7946SOL    HW124737   2.212   1.467   5.474
 7946SOL    HW224738   2.255   1.438   5.319
 7947SOL     OW24739   3.379   2.098   6.125
 7947SOL    HW124740   3.341   2.040   6.197
 7947SOL    HW224741   3.314   2.106   6.050
 7948SOL     OW24742   1.103   6.225   0.997
 7948SOL    HW124743   1.070   6.288   0.926
 7948SOL    HW224744   1.107   6.273   1.085
 7949SOL     OW24745   4.359   4.617   4.490
 7949SOL    HW124746   4.265   4.647   4.475
 7949SOL    HW224747   4.370   4.588   4.585
 7950SOL     OW24748   5.960   5.197   4.746
 7950SOL    HW124749   5.878   5.253   4.734
 7950SOL    HW224750   5.979   5.187   4.843
 7951SOL     OW24751   2.361   4.281   1.889
 7951SOL    HW124752   2.420   4.232   1.825
 7951SOL    HW224753   2.407   4.364   1.920
 7952SOL     OW24754   0.730   3.092   6.899
 7952SOL    HW124755   0.630   3.090   6.886
 7952SOL    HW224756   0.751   3.110   6.995
 7953SOL     OW24757   2.393   2.720   4.019
 7953SOL    HW124758   2.477   2.673   3.992
 7953SOL    HW224759   2.357   2.678   4.102
 7954SOL     OW24760   4.774   4.007   5.256
 7954SOL    HW124761   4.708   3.932   5.259
 7954SOL    HW224762   4.754   4.067   5.179
 7955SOL     OW24763   1.027   6.649   6.630
 7955SOL    HW124764   0.979   6.711   6.692
 7955SOL    HW224765   1.118   6.629   6.666
 7956SOL     OW24766   4.057   5.821   2.525
 7956SOL    HW124767   4.147   5.787   2.497
 7956SOL    HW224768   4.066   5.913   2.561
 7957SOL     OW24769   0.757   0.893   1.888
 7957SOL    HW124770   0.815   0.919   1.812
 7957SOL    HW224771   0.675   0.847   1.854
 7958SOL     OW24772   3.843   5.568   4.576
 7958SOL    HW124773   3.936   5.563   4.541
 7958SOL    HW224774   3.791   5.488   4.543
 7959SOL     OW24775   4.414   5.967   1.000
 7959SOL    HW124776   4.435   5.918   0.916
 7959SOL    HW224777   4.326   6.013   0.991
 7960SOL     OW24778   2.771   0.828   0.629
 7960SOL    HW124779   2.771   0.903   0.563
 7960SOL    HW224780   2.865   0.813   0.662
 7961SOL     OW24781   0.090   0.554   1.229
 7961SOL    HW124782   0.154   0.519   1.298
 7961SOL    HW224783   0.113   0.648   1.207
 7962SOL     OW24784   1.710   0.855   0.435
 7962SOL    HW124785   1.650   0.914   0.488
 7962SOL    HW224786   1.771   0.911   0.380
 7963SOL     OW24787   6.797   0.476   3.677
 7963SOL    HW124788   6.747   0.428   3.605
 7963SOL    HW224789   6.809   0.416   3.756
 7964SOL     OW24790   0.261   4.889   3.888
 7964SOL    HW124791   0.210   4.845   3.814
 7964SOL    HW224792   0.213   4.972   3.917
 7965SOL     OW24793   3.497   2.702   6.385
 7965SOL    HW124794   3.592   2.718   6.359
 7965SOL    HW224795   3.436   2.752   6.323
 7966SOL     OW24796   0.862   2.973   5.078
 7966SOL    HW124797   0.884   3.066   5.108
 7966SOL    HW224798   0.930   2.943   5.011
 7967SOL     OW24799   2.849   6.364   3.767
 7967SOL    HW124800   2.842   6.459   3.736
 7967SOL    HW224801   2.757   6.323   3.769
 7968SOL     OW24802   2.277   2.521   3.277
 7968SOL    HW124803   2.367   2.556   3.302
 7968SOL    HW224804   2.282   2.422   3.265
 7969SOL     OW24805   4.121   5.978   0.631
 7969SOL    HW124806   4.149   6.064   0.673
 7969SOL    HW224807   4.121   5.906   0.700
 7970SOL     OW24808   0.141   3.134   2.613
 7970SOL    HW124809   0.115   3.220   2.656
 7970SOL    HW224810   0.129   3.141   2.514
 7971SOL     OW24811   4.544   1.610   0.683
 7971SOL    HW124812   4.634   1.637   0.718
 7971SOL    HW224813   4.552   1.579   0.589
 7972SOL     OW24814   1.827   3.575   0.911
 7972SOL    HW124815   1.807   3.574   0.813
 7972SOL    HW224816   1.742   3.567   0.962
 7973SOL     OW24817   4.773   4.639   4.023
 7973SOL    HW124818   4.822   4.569   4.075
 7973SOL    HW224819   4.685   4.603   3.993
 7974SOL     OW24820   5.404   1.028   5.683
 7974SOL    HW124821   5.317   1.047   5.639
 7974SOL    HW224822   5.407   1.073   5.773
 7975SOL     OW24823   5.465   0.401   2.656
 7975SOL    HW124824   5.445   0.444   2.744
 7975SOL    HW224825   5.441   0.304   2.659
 7976SOL     OW24826   0.456   0.610   0.000
 7976SOL    HW124827   0.495   0.620   6.933
 7976SOL    HW224828   0.437   0.700   0.039
 7977SOL     OW24829   5.055   5.763   1.862
 7977SOL    HW124830   5.151   5.766   1.834
 7977SOL    HW224831   5.009   5.847   1.831
 7978SOL     OW24832   6.047   3.436   6.085
 7978SOL    HW124833   5.952   3.417   6.111
 7978SOL    HW224834   6.088   3.354   6.045
 7979SOL     OW24835   3.533   6.816   5.510
 7979SOL    HW124836   3.523   6.833   5.412
 7979SOL    HW224837   3.569   6.724   5.524
 7980SOL     OW24838   2.403   5.421   6.985
 7980SOL    HW124839   2.372   5.494   6.924
 7980SOL    HW224840   2.351   5.338   6.967
 7981SOL     OW24841   0.450   5.606   1.827
 7981SOL    HW124842   0.455   5.590   1.925
 7981SOL    HW224843   0.467   5.520   1.779
 7982SOL     OW24844   0.125   1.702   0.179
 7982SOL    HW124845   0.119   1.716   0.080
 7982SOL    HW224846   0.123   1.791   0.225
 7983SOL     OW24847   5.523   1.678   2.277
 7983SOL    HW124848   5.467   1.717   2.204
 7983SOL    HW224849   5.496   1.718   2.365
 7984SOL     OW24850   1.590   1.204   1.069
 7984SOL    HW124851   1.641   1.286   1.096
 7984SOL    HW224852   1.493   1.217   1.091
 7985SOL     OW24853   2.284   6.927   3.838
 7985SOL    HW124854   2.317   6.951   3.746
 7985SOL    HW224855   2.256   6.830   3.839
 7986SOL     OW24856   3.638   1.586   6.882
 7986SOL    HW124857   3.564   1.606   6.946
 7986SOL    HW224858   3.691   1.508   6.915
 7987SOL     OW24859   1.540   3.404   6.847
 7987SOL    HW124860   1.505   3.326   6.898
 7987SOL    HW224861   1.591   3.464   6.909
 7988SOL     OW24862   1.360   2.237   3.613
 7988SOL    HW124863   1.442   2.269   3.662
 7988SOL    HW224864   1.278   2.270   3.660
 7989SOL     OW24865   3.699   3.178   5.444
 7989SOL    HW124866   3.690   3.133   5.355
 7989SOL    HW224867   3.718   3.275   5.430
 7990SOL     OW24868   6.737   3.383   3.231
 7990SOL    HW124869   6.712   3.479   3.219
 7990SOL    HW224870   6.657   3.326   3.216
 7991SOL     OW24871   6.371   0.556   3.516
 7991SOL    HW124872   6.286   0.516   3.480
 7991SOL    HW224873   6.379   0.650   3.484
 7992SOL     OW24874   1.058   0.089   1.645
 7992SOL    HW124875   1.043   0.183   1.673
 7992SOL    HW224876   1.131   0.086   1.576
 7993SOL     OW24877   0.571   6.608   6.501
 7993SOL    HW124878   0.662   6.597   6.539
 7993SOL    HW224879   0.537   6.520   6.469
 7994SOL     OW24880   4.190   0.078   2.961
 7994SOL    HW124881   4.228   0.095   2.870
 7994SOL    HW224882   4.132   7.021   2.958
 7995SOL     OW24883   4.459   4.829   3.321
 7995SOL    HW124884   4.549   4.846   3.361
 7995SOL    HW224885   4.464   4.836   3.222
 7996SOL     OW24886   2.854   0.295   4.920
 7996SOL    HW124887   2.936   0.261   4.964
 7996SOL    HW224888   2.789   0.328   4.990
 7997SOL     OW24889   0.555   1.112   1.404
 7997SOL    HW124890   0.509   1.171   1.471
 7997SOL    HW224891   0.617   1.168   1.348
 7998SOL     OW24892   3.977   5.324   0.901
 7998SOL    HW124893   3.916   5.340   0.979
 7998SOL    HW224894   3.978   5.226   0.880
 7999SOL     OW24895   0.382   6.781   6.203
 7999SOL    HW124896   0.343   6.723   6.274
 7999SOL    HW224897   0.328   6.864   6.193
 8000SOL     OW24898   5.507   0.072   0.197
 8000SOL    HW124899   5.443   0.149   0.206
 8000SOL    HW224900   5.592   0.104   0.155
 8001SOL     OW24901   3.204   5.831   0.749
 8001SOL    HW124902   3.225   5.918   0.796
 8001SOL    HW224903   3.118   5.794   0.786
 8002SOL     OW24904   0.918   2.450   5.356
 8002SOL    HW124905   0.864   2.446   5.440
 8002SOL    HW224906   0.930   2.358   5.319
 8003SOL     OW24907   2.857   5.024   2.713
 8003SOL    HW124908   2.788   5.028   2.641
 8003SOL    HW224909   2.919   4.948   2.696
 8004SOL     OW24910   2.156   3.347   4.007
 8004SOL    HW124911   2.172   3.248   4.007
 8004SOL    HW224912   2.125   3.375   3.917
 8005SOL     OW24913   3.621   0.829   2.783
 8005SOL    HW124914   3.601   0.887   2.704
 8005SOL    HW224915   3.618   0.884   2.867
 8006SOL     OW24916   2.571   0.432   6.517
 8006SOL    HW124917   2.537   0.391   6.432
 8006SOL    HW224918   2.663   0.467   6.502
 8007SOL     OW24919   0.294   1.271   4.974
 8007SOL    HW124920   0.360   1.273   5.049
 8007SOL    HW224921   0.340   1.292   4.888
 8008SOL     OW24922   4.513   6.181   5.666
 8008SOL    HW124923   4.475   6.187   5.758
 8008SOL    HW224924   4.610   6.207   5.668
 8009SOL     OW24925   5.780   0.835   2.804
 8009SOL    HW124926   5.865   0.782   2.793
 8009SOL    HW224927   5.707   0.791   2.752
 8010SOL     OW24928   0.683   1.262   6.997
 8010SOL    HW124929   0.710   1.167   7.015
 8010SOL    HW224930   0.716   1.289   6.906
 8011SOL     OW24931   3.265   2.281   0.821
 8011SOL    HW124932   3.276   2.182   0.812
 8011SOL    HW224933   3.197   2.300   0.892
 8012SOL     OW24934   2.195   4.733   1.619
 8012SOL    HW124935   2.198   4.634   1.604
 8012SOL    HW224936   2.286   4.771   1.601
 8013SOL     OW24937   1.417   4.889   3.106
 8013SOL    HW124938   1.452   4.822   3.041
 8013SOL    HW224939   1.317   4.892   3.100
 8014SOL     OW24940   0.829   6.346   5.255
 8014SOL    HW124941   0.767   6.335   5.332
 8014SOL    HW224942   0.907   6.284   5.265
 8015SOL     OW24943   2.482   0.554   0.440
 8015SOL    HW124944   2.401   0.581   0.387
 8015SOL    HW224945   2.558   0.537   0.377
 8016SOL     OW24946   4.998   0.214   6.149
 8016SOL    HW124947   5.017   0.153   6.072
 8016SOL    HW224948   4.965   0.302   6.115
 8017SOL     OW24949   6.605   6.783   0.741
 8017SOL    HW124950   6.554   6.712   0.789
 8017SOL    HW224951   6.626   6.753   0.648
 8018SOL     OW24952   3.028   2.334   6.093
 8018SOL    HW124953   3.000   2.257   6.037
 8018SOL    HW224954   3.128   2.341   6.093
 8019SOL     OW24955   2.334   4.185   5.971
 8019SOL    HW124956   2.284   4.271   5.983
 8019SOL    HW224957   2.366   4.177   5.877
 8020SOL     OW24958   6.012   6.391   0.820
 8020SOL    HW124959   5.993   6.443   0.737
 8020SOL    HW224960   5.929   6.342   0.848
 8021SOL     OW24961   1.434   1.704   1.239
 8021SOL    HW124962   1.417   1.662   1.328
 8021SOL    HW224963   1.529   1.689   1.213
 8022SOL     OW24964   4.837   6.759   2.626
 8022SOL    HW124965   4.793   6.817   2.695
 8022SOL    HW224966   4.776   6.683   2.603
 8023SOL     OW24967   6.373   5.196   3.293
 8023SOL    HW124968   6.361   5.109   3.245
 8023SOL    HW224969   6.283   5.238   3.309
 8024SOL     OW24970   3.216   5.419   6.784
 8024SOL    HW124971   3.153   5.494   6.763
 8024SOL    HW224972   3.292   5.420   6.718
 8025SOL     OW24973   2.528   6.237   6.348
 8025SOL    HW124974   2.500   6.142   6.361
 8025SOL    HW224975   2.447   6.296   6.348
 8026SOL     OW24976   1.498   4.205   6.964
 8026SOL    HW124977   1.597   4.221   6.969
 8026SOL    HW224978   1.460   4.258   6.888
 8027SOL     OW24979   4.375   1.087   5.568
 8027SOL    HW124980   4.400   0.994   5.593
 8027SOL    HW224981   4.281   1.089   5.536
 8028SOL     OW24982   3.218   4.935   4.558
 8028SOL    HW124983   3.151   4.907   4.489
 8028SOL    HW224984   3.176   5.001   4.620
 8029SOL     OW24985   5.006   3.020   1.111
 8029SOL    HW124986   4.991   3.057   1.203
 8029SOL    HW224987   4.932   2.957   1.088
 8030SOL     OW24988   4.253   4.369   0.072
 8030SOL    HW124989   4.271   4.296   0.006
 8030SOL    HW224990   4.157   4.397   0.066
 8031SOL     OW24991   5.468   6.688   3.065
 8031SOL    HW124992   5.488   6.638   3.149
 8031SOL    HW224993   5.418   6.772   3.088
 8032SOL     OW24994   5.723   4.303   6.214
 8032SOL    HW124995   5.734   4.218   6.163
 8032SOL    HW224996   5.628   4.334   6.206
 8033SOL     OW24997   4.731   2.667   6.141
 8033SOL    HW124998   4.684   2.585   6.173
 8033SOL    HW224999   4.822   2.672   6.180
 8034SOL     OW25000   6.031   0.528   4.731
 8034SOL    HW125001   6.060   0.560   4.641
 8034SOL    HW225002   6.054   0.431   4.741
 8035SOL     OW25003   4.842   1.643   4.290
 8035SOL    HW125004   4.865   1.725   4.238
 8035SOL    HW225005   4.921   1.613   4.342
 8036SOL     OW25006   1.072   4.428   2.506
 8036SOL    HW125007   1.020   4.461   2.585
 8036SOL    HW225008   1.011   4.381   2.444
 8037SOL     OW25009   1.316   2.957   1.191
 8037SOL    HW125010   1.306   2.866   1.230
 8037SOL    HW225011   1.387   3.007   1.240
 8038SOL     OW25012   3.785   0.770   3.462
 8038SOL    HW125013   3.702   0.807   3.502
 8038SOL    HW225014   3.829   0.841   3.406
 8039SOL     OW25015   0.514   1.508   4.386
 8039SOL    HW125016   0.469   1.419   4.395
 8039SOL    HW225017   0.507   1.539   4.291
 8040SOL     OW25018   1.557   6.292   0.431
 8040SOL    HW125019   1.640   6.238   0.447
 8040SOL    HW225020   1.548   6.313   0.334
 8041SOL     OW25021   2.948   1.719   1.755
 8041SOL    HW125022   3.032   1.746   1.708
 8041SOL    HW225023   2.875   1.785   1.733
 8042SOL     OW25024   3.373   2.901   3.948
 8042SOL    HW125025   3.401   2.843   3.872
 8042SOL    HW225026   3.286   2.945   3.925
 8043SOL     OW25027   4.286   6.767   2.717
 8043SOL    HW125028   4.247   6.687   2.761
 8043SOL    HW225029   4.224   6.845   2.726
 8044SOL     OW25030   3.700   2.929   1.173
 8044SOL    HW125031   3.679   2.928   1.271
 8044SOL    HW225032   3.698   2.836   1.137
 8045SOL     OW25033   5.463   0.739   1.141
 8045SOL    HW125034   5.515   0.794   1.076
 8045SOL    HW225035   5.461   0.644   1.111
 8046SOL     OW25036   0.374   5.071   0.803
 8046SOL    HW125037   0.402   5.098   0.711
 8046SOL    HW225038   0.301   5.132   0.835
 8047SOL     OW25039   3.386   5.490   4.356
 8047SOL    HW125040   3.420   5.396   4.347
 8047SOL    HW225041   3.397   5.537   4.268
 8048SOL     OW25042   5.106   0.967   5.840
 8048SOL    HW125043   5.191   0.920   5.861
 8048SOL    HW225044   5.091   0.967   5.742
 8049SOL     OW25045   0.945   0.310   0.395
 8049SOL    HW125046   0.992   0.371   0.332
 8049SOL    HW225047   0.978   0.327   0.488
 8050SOL     OW25048   1.608   3.956   2.775
 8050SOL    HW125049   1.566   3.978   2.863
 8050SOL    HW225050   1.626   3.858   2.770
 8051SOL     OW25051   4.959   5.878   3.264
 8051SOL    HW125052   4.934   5.782   3.275
 8051SOL    HW225053   4.977   5.919   3.354
 8052SOL     OW25054   4.869   1.610   1.862
 8052SOL    HW125055   4.968   1.600   1.873
 8052SOL    HW225056   4.835   1.541   1.798
 8053SOL     OW25057   3.190   3.909   3.630
 8053SOL    HW125058   3.182   3.901   3.531
 8053SOL    HW225059   3.129   3.843   3.674
 8054SOL     OW25060   4.434   0.131   4.627
 8054SOL    HW125061   4.434   0.120   4.528
 8054SOL    HW225062   4.517   0.178   4.656
 8055SOL     OW25063   0.298   0.159   5.738
 8055SOL    HW125064   0.328   0.219   5.812
 8055SOL    HW225065   0.269   0.071   5.776
 8056SOL     OW25066   4.097   2.134   3.925
 8056SOL    HW125067   4.014   2.166   3.880
 8056SOL    HW225068   4.169   2.202   3.915
 8057SOL     OW25069   3.128   1.917   3.298
 8057SOL    HW125070   3.090   1.996   3.347
 8057SOL    HW225071   3.057   1.875   3.242
 8058SOL     OW25072   4.626   0.607   2.342
 8058SOL    HW125073   4.659   0.654   2.424
 8058SOL    HW225074   4.693   0.541   2.311
 8059SOL     OW25075   4.400   2.381   4.609
 8059SOL    HW125076   4.402   2.427   4.698
 8059SOL    HW225077   4.328   2.311   4.609
 8060SOL     OW25078   0.954   2.688   3.632
 8060SOL    HW125079   0.894   2.637   3.694
 8060SOL    HW225080   0.966   2.781   3.666
 8061SOL     OW25081   0.082   0.375   2.367
 8061SOL    HW125082   0.066   0.304   2.298
 8061SOL    HW225083   0.178   0.402   2.365
 8062SOL     OW25084   3.492   5.226   4.309
 8062SOL    HW125085   3.475   5.130   4.333
 8062SOL    HW225086   3.549   5.230   4.227
 8063SOL     OW25087   0.813   2.709   0.524
 8063SOL    HW125088   0.743   2.647   0.489
 8063SOL    HW225089   0.805   2.798   0.478
 8064SOL     OW25090   0.252   4.402   1.242
 8064SOL    HW125091   0.272   4.500   1.230
 8064SOL    HW225092   0.187   4.372   1.173
 8065SOL     OW25093   3.532   5.952   4.348
 8065SOL    HW125094   3.471   5.888   4.394
 8065SOL    HW225095   3.568   5.909   4.265
 8066SOL     OW25096   0.339   1.923   5.788
 8066SOL    HW125097   0.353   1.929   5.887
 8066SOL    HW225098   0.364   1.831   5.756
 8067SOL     OW25099   4.716   2.749   1.993
 8067SOL    HW125100   4.683   2.719   1.903
 8067SOL    HW225101   4.723   2.849   1.994
 8068SOL     OW25102   6.784   4.720   0.244
 8068SOL    HW125103   6.824   4.654   0.179
 8068SOL    HW225104   6.856   4.755   0.304
 8069SOL     OW25105   1.928   6.186   1.093
 8069SOL    HW125106   1.880   6.170   1.007
 8069SOL    HW225107   1.891   6.267   1.138
 8070SOL     OW25108   3.101   3.339   0.363
 8070SOL    HW125109   3.069   3.291   0.444
 8070SOL    HW225110   3.116   3.435   0.384
 8071SOL     OW25111   2.743   6.500   4.802
 8071SOL    HW125112   2.843   6.505   4.798
 8071SOL    HW225113   2.710   6.442   4.727
 8072SOL     OW25114   3.473   0.801   6.947
 8072SOL    HW125115   3.492   0.766   6.855
 8072SOL    HW225116   3.375   0.796   6.965
 8073SOL     OW25117   4.287   6.034   5.173
 8073SOL    HW125118   4.242   6.058   5.087
 8073SOL    HW225119   4.237   5.960   5.217
 8074SOL     OW25120   3.675   2.775   0.846
 8074SOL    HW125121   3.580   2.761   0.819
 8074SOL    HW225122   3.717   2.686   0.866
 8075SOL     OW25123   6.327   1.169   0.293
 8075SOL    HW125124   6.338   1.259   0.335
 8075SOL    HW225125   6.416   1.135   0.262
 8076SOL     OW25126   5.107   2.677   5.422
 8076SOL    HW125127   5.174   2.635   5.360
 8076SOL    HW225128   5.154   2.741   5.483
 8077SOL     OW25129   1.779   5.735   1.994
 8077SOL    HW125130   1.803   5.638   1.998
 8077SOL    HW225131   1.784   5.775   2.086
 8078SOL     OW25132   5.984   1.372   0.283
 8078SOL    HW125133   6.062   1.434   0.295
 8078SOL    HW225134   5.984   1.303   0.356
 8079SOL     OW25135   4.849   1.529   3.149
 8079SOL    HW125136   4.834   1.479   3.064
 8079SOL    HW225137   4.945   1.524   3.175
 8080SOL     OW25138   0.512   2.957   0.202
 8080SOL    HW125139   0.503   2.877   0.142
 8080SOL    HW225140   0.421   2.991   0.226
 8081SOL     OW25141   5.224   6.782   4.136
 8081SOL    HW125142   5.284   6.736   4.201
 8081SOL    HW225143   5.158   6.838   4.186
 8082SOL     OW25144   5.319   6.915   1.807
 8082SOL    HW125145   5.264   6.896   1.888
 8082SOL    HW225146   5.262   6.903   1.725
 8083SOL     OW25147   5.101   3.870   2.220
 8083SOL    HW125148   5.092   3.957   2.269
 8083SOL    HW225149   5.145   3.886   2.132
 8084SOL     OW25150   5.258   0.182   6.958
 8084SOL    HW125151   5.357   0.168   6.959
 8084SOL    HW225152   5.221   0.151   6.870
 8085SOL     OW25153   5.861   0.039   2.522
 8085SOL    HW125154   5.959   0.026   2.532
 8085SOL    HW225155   5.833   0.123   2.570
 8086SOL     OW25156   4.559   1.190   3.841
 8086SOL    HW125157   4.529   1.095   3.852
 8086SOL    HW225158   4.484   1.252   3.866
 8087SOL     OW25159   2.907   0.997   0.950
 8087SOL    HW125160   2.922   1.061   1.025
 8087SOL    HW225161   2.832   1.030   0.893
 8088SOL     OW25162   5.363   2.707   1.283
 8088SOL    HW125163   5.295   2.762   1.331
 8088SOL    HW225164   5.319   2.625   1.246
 8089SOL     OW25165   5.026   2.711   0.379
 8089SOL    HW125166   4.966   2.702   0.458
 8089SOL    HW225167   4.978   2.678   0.297
 8090SOL     OW25168   3.864   2.251   6.843
 8090SOL    HW125169   3.873   2.333   6.787
 8090SOL    HW225170   3.952   2.203   6.847
 8091SOL     OW25171   2.757   4.040   6.257
 8091SOL    HW125172   2.707   4.077   6.179
 8091SOL    HW225173   2.744   3.941   6.262
 8092SOL     OW25174   7.002   2.511   5.311
 8092SOL    HW125175   7.009   2.594   5.256
 8092SOL    HW225176   6.990   2.535   5.407
 8093SOL     OW25177   4.981   5.851   2.796
 8093SOL    HW125178   4.890   5.843   2.755
 8093SOL    HW225179   4.986   5.797   2.880
 8094SOL     OW25180   1.560   3.521   5.190
 8094SOL    HW125181   1.612   3.443   5.155
 8094SOL    HW225182   1.512   3.566   5.114
 8095SOL     OW25183   6.294   4.130   4.542
 8095SOL    HW125184   6.389   4.131   4.575
 8095SOL    HW225185   6.280   4.051   4.482
 8096SOL     OW25186   2.955   5.586   3.762
 8096SOL    HW125187   2.903   5.625   3.687
 8096SOL    HW225188   2.893   5.554   3.834
 8097SOL     OW25189   4.679   6.616   3.574
 8097SOL    HW125190   4.590   6.641   3.536
 8097SOL    HW225191   4.687   6.651   3.667
 8098SOL     OW25192   2.378   6.515   3.937
 8098SOL    HW125193   2.475   6.499   3.958
 8098SOL    HW225194   2.321   6.481   4.011
 8099SOL     OW25195   4.442   6.923   3.790
 8099SOL    HW125196   4.454   6.948   3.694
 8099SOL    HW225197   4.358   6.869   3.800
 8100SOL     OW25198   6.477   0.187   0.159
 8100SOL    HW125199   6.464   0.247   0.081
 8100SOL    HW225200   6.409   0.206   0.229
 8101SOL     OW25201   1.973   6.726   4.126
 8101SOL    HW125202   1.884   6.758   4.157
 8101SOL    HW225203   1.996   6.640   4.174
 8102SOL     OW25204   0.640   4.932   4.530
 8102SOL    HW125205   0.566   4.916   4.464
 8102SOL    HW225206   0.680   4.844   4.555
 8103SOL     OW25207   4.533   0.470   1.109
 8103SOL    HW125208   4.538   0.398   1.040
 8103SOL    HW225209   4.547   0.431   1.200
 8104SOL     OW25210   2.814   6.676   5.884
 8104SOL    HW125211   2.726   6.682   5.837
 8104SOL    HW225212   2.888   6.701   5.822
 8105SOL     OW25213   0.963   2.302   3.480
 8105SOL    HW125214   0.963   2.370   3.407
 8105SOL    HW225215   1.032   2.233   3.461
 8106SOL     OW25216   2.293   5.991   3.139
 8106SOL    HW125217   2.338   6.078   3.158
 8106SOL    HW225218   2.214   6.007   3.079
 8107SOL     OW25219   0.041   5.588   5.149
 8107SOL    HW125220   0.045   5.644   5.066
 8107SOL    HW225221   0.109   5.620   5.214
 8108SOL     OW25222   6.306   3.953   4.756
 8108SOL    HW125223   6.310   4.020   4.830
 8108SOL    HW225224   6.212   3.944   4.724
 8109SOL     OW25225   1.259   3.668   4.363
 8109SOL    HW125226   1.302   3.727   4.431
 8109SOL    HW225227   1.196   3.722   4.307
 8110SOL     OW25228   3.109   6.500   0.790
 8110SOL    HW125229   3.087   6.418   0.737
 8110SOL    HW225230   3.024   6.544   0.819
 8111SOL     OW25231   4.298   0.866   4.889
 8111SOL    HW125232   4.225   0.835   4.828
 8111SOL    HW225233   4.351   0.787   4.919
 8112SOL     OW25234   2.137   2.004   4.555
 8112SOL    HW125235   2.149   1.920   4.501
 8112SOL    HW225236   2.194   2.076   4.516
 8113SOL     OW25237   3.433   3.381   0.975
 8113SOL    HW125238   3.335   3.369   0.994
 8113SOL    HW225239   3.453   3.352   0.882
 8114SOL     OW25240   1.990   3.824   1.476
 8114SOL    HW125241   2.046   3.877   1.412
 8114SOL    HW225242   2.050   3.776   1.540
 8115SOL     OW25243   3.572   0.240   0.455
 8115SOL    HW125244   3.613   0.304   0.390
 8115SOL    HW225245   3.494   0.283   0.500
 8116SOL     OW25246   4.641   6.443   4.913
 8116SOL    HW125247   4.561   6.430   4.972
 8116SOL    HW225248   4.629   6.392   4.828
 8117SOL     OW25249   1.710   0.996   3.826
 8117SOL    HW125250   1.727   0.899   3.845
 8117SOL    HW225251   1.785   1.051   3.864
 8118SOL     OW25252   6.238   2.785   5.545
 8118SOL    HW125253   6.209   2.698   5.507
 8118SOL    HW225254   6.325   2.812   5.504
 8119SOL     OW25255   6.344   5.720   5.580
 8119SOL    HW125256   6.353   5.625   5.608
 8119SOL    HW225257   6.435   5.757   5.558
 8120SOL     OW25258   3.367   4.689   6.948
 8120SOL    HW125259   3.414   4.775   6.926
 8120SOL    HW225260   3.426   4.612   6.922
 8121SOL     OW25261   0.201   5.675   1.695
 8121SOL    HW125262   0.139   5.621   1.752
 8121SOL    HW225263   0.291   5.680   1.740
 8122SOL     OW25264   1.564   5.623   2.449
 8122SOL    HW125265   1.521   5.538   2.421
 8122SOL    HW225266   1.663   5.608   2.460
 8123SOL     OW25267   6.958   0.372   0.109
 8123SOL    HW125268   7.002   0.349   0.022
 8123SOL    HW225269   0.000   0.412   0.171
 8124SOL     OW25270   6.939   6.475   0.544
 8124SOL    HW125271   0.010   6.479   0.574
 8124SOL    HW225272   6.881   6.444   0.620
 8125SOL     OW25273   1.393   0.617   3.192
 8125SOL    HW125274   1.450   0.593   3.113
 8125SOL    HW225275   1.440   0.590   3.276
 8126SOL     OW25276   5.845   4.452   2.603
 8126SOL    HW125277   5.882   4.522   2.664
 8126SOL    HW225278   5.887   4.459   2.513
 8127SOL     OW25279   3.240   5.839   0.083
 8127SOL    HW125280   3.316   5.903   0.077
 8127SOL    HW225281   3.168   5.865   0.019
 8128SOL     OW25282   3.027   3.112   1.255
 8128SOL    HW125283   3.023   3.046   1.180
 8128SOL    HW225284   3.121   3.125   1.284
 8129SOL     OW25285   4.234   1.155   6.005
 8129SOL    HW125286   4.204   1.059   6.008
 8129SOL    HW225287   4.295   1.168   5.927
 8130SOL     OW25288   0.215   4.333   6.704
 8130SOL    HW125289   0.173   4.363   6.618
 8130SOL    HW225290   0.266   4.248   6.689
 8131SOL     OW25291   3.584   1.155   0.868
 8131SOL    HW125292   3.534   1.218   0.927
 8131SOL    HW225293   3.527   1.131   0.789
 8132SOL     OW25294   5.381   6.038   6.241
 8132SOL    HW125295   5.412   5.946   6.265
 8132SOL    HW225296   5.411   6.102   6.311
 8133SOL     OW25297   3.254   5.134   1.496
 8133SOL    HW125298   3.317   5.149   1.573
 8133SOL    HW225299   3.191   5.060   1.519
 8134SOL     OW25300   0.981   1.878   4.755
 8134SOL    HW125301   0.983   1.828   4.841
 8134SOL    HW225302   1.039   1.958   4.761
 8135SOL     OW25303   2.046   5.969   1.164
 8135SOL    HW125304   2.120   5.955   1.099
 8135SOL    HW225305   2.013   6.063   1.157
 8136SOL     OW25306   5.034   4.686   2.726
 8136SOL    HW125307   4.969   4.625   2.681
 8136SOL    HW225308   4.990   4.729   2.805
 8137SOL     OW25309   2.902   1.469   4.503
 8137SOL    HW125310   2.859   1.380   4.520
 8137SOL    HW225311   2.991   1.472   4.547
 8138SOL     OW25312   5.605   2.348   0.617
 8138SOL    HW125313   5.634   2.383   0.527
 8138SOL    HW225314   5.551   2.266   0.604
 8139SOL     OW25315   1.780   2.015   4.056
 8139SOL    HW125316   1.790   2.098   4.002
 8139SOL    HW225317   1.865   1.997   4.105
 8140SOL     OW25318   4.505   6.749   0.046
 8140SOL    HW125319   4.414   6.788   0.031
 8140SOL    HW225320   4.566   6.776   6.995
 8141SOL     OW25321   4.358   0.185   5.442
 8141SOL    HW125322   4.323   0.101   5.401
 8141SOL    HW225323   4.344   0.261   5.378
 8142SOL     OW25324   2.007   5.390   0.193
 8142SOL    HW125325   2.038   5.349   0.279
 8142SOL    HW225326   2.075   5.455   0.160
 8143SOL     OW25327   6.280   5.321   0.280
 8143SOL    HW125328   6.256   5.410   0.319
 8143SOL    HW225329   6.201   5.284   0.231
 8144SOL     OW25330   0.448   6.158   6.042
 8144SOL    HW125331   0.412   6.122   6.128
 8144SOL    HW225332   0.501   6.087   5.995
 8145SOL     OW25333   5.745   5.462   0.597
 8145SOL    HW125334   5.667   5.467   0.534
 8145SOL    HW225335   5.745   5.373   0.643
 8146SOL     OW25336   5.172   0.084   4.926
 8146SOL    HW125337   5.232   0.005   4.913
 8146SOL    HW225338   5.195   0.129   5.013
 8147SOL     OW25339   6.286   0.876   1.430
 8147SOL    HW125340   6.337   0.833   1.505
 8147SOL    HW225341   6.259   0.807   1.364
 8148SOL     OW25342   5.510   4.813   0.287
 8148SOL    HW125343   5.580   4.781   0.223
 8148SOL    HW225344   5.479   4.904   0.259
 8149SOL     OW25345   1.613   6.828   3.513
 8149SOL    HW125346   1.524   6.873   3.520
 8149SOL    HW225347   1.627   6.769   3.593
 8150SOL     OW25348   1.776   4.162   0.722
 8150SOL    HW125349   1.793   4.255   0.754
 8150SOL    HW225350   1.690   4.128   0.760
 8151SOL     OW25351   6.125   5.264   3.375
 8151SOL    HW125352   6.064   5.293   3.301
 8151SOL    HW225353   6.099   5.311   3.460
 8152SOL     OW25354   6.289   3.088   3.479
 8152SOL    HW125355   6.230   3.013   3.449
 8152SOL    HW225356   6.379   3.078   3.436
 8153SOL     OW25357   1.259   1.362   3.598
 8153SOL    HW125358   1.292   1.387   3.507
 8153SOL    HW225359   1.205   1.437   3.636
 8154SOL     OW25360   3.744   6.077   2.239
 8154SOL    HW125361   3.656   6.103   2.199
 8154SOL    HW225362   3.737   6.075   2.339
 8155SOL     OW25363   1.280   3.748   2.166
 8155SOL    HW125364   1.314   3.681   2.231
 8155SOL    HW225365   1.320   3.732   2.076
 8156SOL     OW25366   4.276   6.200   0.734
 8156SOL    HW125367   4.254   6.282   0.681
 8156SOL    HW225368   4.373   6.202   0.759
 8157SOL     OW25369   6.370   4.157   6.398
 8157SOL    HW125370   6.413   4.067   6.403
 8157SOL    HW225371   6.288   4.158   6.455
 8158SOL     OW25372   5.157   4.016   0.479
 8158SOL    HW125373   5.223   3.960   0.428
 8158SOL    HW225374   5.073   4.026   0.426
 8159SOL     OW25375   2.508   5.309   3.217
 8159SOL    HW125376   2.471   5.285   3.307
 8159SOL    HW225377   2.608   5.306   3.221
 8160SOL     OW25378   5.170   0.505   3.663
 8160SOL    HW125379   5.203   0.445   3.736
 8160SOL    HW225380   5.230   0.585   3.655
 8161SOL     OW25381   5.975   2.648   5.972
 8161SOL    HW125382   6.039   2.602   5.910
 8161SOL    HW225383   5.924   2.718   5.921
 8162SOL     OW25384   6.584   6.694   7.020
 8162SOL    HW125385   6.549   6.665   0.085
 8162SOL    HW225386   6.675   6.735   0.007
 8163SOL     OW25387   2.473   4.551   5.143
 8163SOL    HW125388   2.544   4.529   5.209
 8163SOL    HW225389   2.509   4.614   5.075
 8164SOL     OW25390   4.886   2.022   0.424
 8164SOL    HW125391   4.937   2.037   0.509
 8164SOL    HW225392   4.870   1.925   0.411
 8165SOL     OW25393   6.795   3.656   5.447
 8165SOL    HW125394   6.697   3.672   5.434
 8165SOL    HW225395   6.808   3.596   5.526
 8166SOL     OW25396   1.115   0.496   3.397
 8166SOL    HW125397   1.051   0.428   3.434
 8166SOL    HW225398   1.192   0.508   3.460
 8167SOL     OW25399   0.016   1.062   3.765
 8167SOL    HW125400   0.111   1.030   3.773
 8167SOL    HW225401   6.979   0.983   3.770
 8168SOL     OW25402   2.401   1.603   1.496
 8168SOL    HW125403   2.496   1.593   1.467
 8168SOL    HW225404   2.350   1.519   1.474
 8169SOL     OW25405   4.765   2.285   0.435
 8169SOL    HW125406   4.787   2.187   0.432
 8169SOL    HW225407   4.666   2.297   0.440
 8170SOL     OW25408   1.649   5.302   1.760
 8170SOL    HW125409   1.710   5.376   1.787
 8170SOL    HW225410   1.704   5.228   1.720
 8171SOL     OW25411   1.757   1.423   6.596
 8171SOL    HW125412   1.741   1.457   6.503
 8171SOL    HW225413   1.776   1.499   6.657
 8172SOL     OW25414   6.575   1.941   2.463
 8172SOL    HW125415   6.656   1.998   2.446
 8172SOL    HW225416   6.552   1.943   2.560
 8173SOL     OW25417   5.415   2.279   2.150
 8173SOL    HW125418   5.478   2.209   2.117
 8173SOL    HW225419   5.462   2.367   2.155
 8174SOL     OW25420   6.842   0.463   2.328
 8174SOL    HW125421   6.932   0.434   2.359
 8174SOL    HW225422   6.773   0.398   2.359
 8175SOL     OW25423   0.043   3.332   5.400
 8175SOL    HW125424   0.106   3.336   5.478
 8175SOL    HW225425   0.026   3.424   5.366
 8176SOL     OW25426   2.470   4.911   1.256
 8176SOL    HW125427   2.413   4.991   1.234
 8176SOL    HW225428   2.531   4.891   1.179
 8177SOL     OW25429   4.083   0.363   3.976
 8177SOL    HW125430   4.127   0.452   3.962
 8177SOL    HW225431   3.986   0.377   3.996
 8178SOL     OW25432   3.326   6.887   0.652
 8178SOL    HW125433   3.280   6.914   0.567
 8178SOL    HW225434   3.316   6.960   0.720
 8179SOL     OW25435   4.595   1.499   4.362
 8179SOL    HW125436   4.546   1.533   4.442
 8179SOL    HW225437   4.657   1.570   4.328
 8180SOL     OW25438   6.118   0.812   5.711
 8180SOL    HW125439   6.035   0.857   5.746
 8180SOL    HW225440   6.196   0.874   5.722
 8181SOL     OW25441   1.107   1.574   0.554
 8181SOL    HW125442   1.167   1.572   0.475
 8181SOL    HW225443   1.014   1.598   0.525
 8182SOL     OW25444   3.249   3.380   5.675
 8182SOL    HW125445   3.308   3.313   5.630
 8182SOL    HW225446   3.178   3.411   5.612
 8183SOL     OW25447   6.479   2.347   4.754
 8183SOL    HW125448   6.425   2.423   4.790
 8183SOL    HW225449   6.555   2.383   4.700
 8184SOL     OW25450   6.680   0.018   0.515
 8184SOL    HW125451   6.742   6.967   0.536
 8184SOL    HW225452   6.705   0.098   0.571
 8185SOL     OW25453   2.146   0.381   6.714
 8185SOL    HW125454   2.193   0.425   6.637
 8185SOL    HW225455   2.203   0.307   6.750
 8186SOL     OW25456   3.381   4.706   5.386
 8186SOL    HW125457   3.362   4.804   5.383
 8186SOL    HW225458   3.304   4.657   5.345
 8187SOL     OW25459   2.174   1.192   4.984
 8187SOL    HW125460   2.197   1.115   4.924
 8187SOL    HW225461   2.080   1.181   5.016
 8188SOL     OW25462   5.037   3.420   3.634
 8188SOL    HW125463   5.115   3.464   3.678
 8188SOL    HW225464   5.032   3.324   3.661
 8189SOL     OW25465   5.353   5.135   2.997
 8189SOL    HW125466   5.271   5.168   3.044
 8189SOL    HW225467   5.338   5.140   2.898
 8190SOL     OW25468   4.781   4.046   4.481
 8190SOL    HW125469   4.775   3.954   4.519
 8190SOL    HW225470   4.793   4.112   4.554
 8191SOL     OW25471   3.867   6.274   1.592
 8191SOL    HW125472   3.926   6.354   1.602
 8191SOL    HW225473   3.924   6.193   1.576
 8192SOL     OW25474   3.648   5.143   0.912
 8192SOL    HW125475   3.687   5.086   0.985
 8192SOL    HW225476   3.577   5.202   0.950
 8193SOL     OW25477   6.043   5.572   5.932
 8193SOL    HW125478   6.010   5.619   5.850
 8193SOL    HW225479   5.985   5.492   5.950
 8194SOL     OW25480   5.139   1.753   0.944
 8194SOL    HW125481   5.089   1.755   1.031
 8194SOL    HW225482   5.214   1.687   0.950
 8195SOL     OW25483   1.045   6.994   3.413
 8195SOL    HW125484   1.043   0.048   3.351
 8195SOL    HW225485   1.116   7.007   3.482
 8196SOL     OW25486   4.485   5.884   6.518
 8196SOL    HW125487   4.416   5.903   6.448
 8196SOL    HW225488   4.541   5.965   6.533
 8197SOL     OW25489   4.085   1.386   0.665
 8197SOL    HW125490   4.015   1.345   0.608
 8197SOL    HW225491   4.122   1.316   0.727
 8198SOL     OW25492   2.794   6.399   2.919
 8198SOL    HW125493   2.840   6.448   2.845
 8198SOL    HW225494   2.789   6.301   2.896
 8199SOL     OW25495   5.849   2.313   5.896
 8199SOL    HW125496   5.868   2.356   5.808
 8199SOL    HW225497   5.935   2.281   5.936
 8200SOL     OW25498   5.757   5.129   2.247
 8200SOL    HW125499   5.738   5.069   2.169
 8200SOL    HW225500   5.824   5.198   2.221
 8201SOL     OW25501   5.615   0.717   4.167
 8201SOL    HW125502   5.578   0.625   4.154
 8201SOL    HW225503   5.712   0.712   4.189
 8202SOL     OW25504   6.838   5.626   3.772
 8202SOL    HW125505   6.809   5.530   3.771
 8202SOL    HW225506   6.876   5.648   3.862
 8203SOL     OW25507   3.181   2.360   6.906
 8203SOL    HW125508   3.278   2.338   6.914
 8203SOL    HW225509   3.138   2.296   6.842
 8204SOL     OW25510   3.512   5.009   6.894
 8204SOL    HW125511   3.493   5.030   6.798
 8204SOL    HW225512   3.433   5.033   6.950
 8205SOL     OW25513   0.485   4.730   0.703
 8205SOL    HW125514   0.511   4.677   0.784
 8205SOL    HW225515   0.534   4.817   0.704
 8206SOL     OW25516   5.147   1.721   6.557
 8206SOL    HW125517   5.056   1.709   6.518
 8206SOL    HW225518   5.156   1.812   6.596
 8207SOL     OW25519   2.899   3.557   4.276
 8207SOL    HW125520   2.960   3.478   4.268
 8207SOL    HW225521   2.831   3.541   4.347
 8208SOL     OW25522   1.433   0.595   1.402
 8208SOL    HW125523   1.381   0.549   1.475
 8208SOL    HW225524   1.423   0.694   1.412
 8209SOL     OW25525   0.832   1.623   4.673
 8209SOL    HW125526   0.791   1.595   4.759
 8209SOL    HW225527   0.906   1.689   4.690
 8210SOL     OW25528   2.005   1.162   1.350
 8210SOL    HW125529   2.003   1.091   1.279
 8210SOL    HW225530   1.915   1.204   1.358
 8211SOL     OW25531   3.629   4.198   1.851
 8211SOL    HW125532   3.601   4.254   1.773
 8211SOL    HW225533   3.721   4.164   1.836
 8212SOL     OW25534   1.833   2.186   1.618
 8212SOL    HW125535   1.910   2.208   1.678
 8212SOL    HW225536   1.831   2.088   1.600
 8213SOL     OW25537   6.725   4.407   2.550
 8213SOL    HW125538   6.762   4.332   2.495
 8213SOL    HW225539   6.658   4.370   2.615
 8214SOL     OW25540   5.876   5.700   4.561
 8214SOL    HW125541   5.968   5.681   4.595
 8214SOL    HW225542   5.872   5.682   4.463
 8215SOL     OW25543   2.698   5.502   5.912
 8215SOL    HW125544   2.598   5.496   5.913
 8215SOL    HW225545   2.727   5.564   5.839
 8216SOL     OW25546   5.531   5.204   3.992
 8216SOL    HW125547   5.573   5.240   3.909
 8216SOL    HW225548   5.431   5.210   3.984
 8217SOL     OW25549   1.965   3.935   0.634
 8217SOL    HW125550   2.005   4.027   0.638
 8217SOL    HW225551   1.950   3.901   0.727
 8218SOL     OW25552   6.913   6.760   5.312
 8218SOL    HW125553   6.896   6.826   5.385
 8218SOL    HW225554   6.826   6.725   5.277
 8219SOL     OW25555   4.290   2.973   0.622
 8219SOL    HW125556   4.225   2.955   0.549
 8219SOL    HW225557   4.241   2.983   0.709
 8220SOL     OW25558   3.137   3.040   3.883
 8220SOL    HW125559   3.159   3.126   3.929
 8220SOL    HW225560   3.093   3.060   3.795
 8221SOL     OW25561   5.873   6.734   3.729
 8221SOL    HW125562   5.779   6.756   3.704
 8221SOL    HW225563   5.875   6.682   3.814
 8222SOL     OW25564   6.147   1.386   1.318
 8222SOL    HW125565   6.193   1.433   1.243
 8222SOL    HW225566   6.135   1.289   1.294
 8223SOL     OW25567   0.908   4.673   5.151
 8223SOL    HW125568   0.950   4.622   5.226
 8223SOL    HW225569   0.905   4.770   5.174
 8224SOL     OW25570   5.364   1.161   2.179
 8224SOL    HW125571   5.396   1.122   2.265
 8224SOL    HW225572   5.400   1.254   2.169
 8225SOL     OW25573   3.199   1.286   1.069
 8225SOL    HW125574   3.118   1.238   1.105
 8225SOL    HW225575   3.196   1.285   0.969
 8226SOL     OW25576   3.705   6.840   0.439
 8226SOL    HW125577   3.673   6.803   0.526
 8226SOL    HW225578   3.627   6.858   0.380
 8227SOL     OW25579   6.910   1.012   2.657
 8227SOL    HW125580   6.886   0.931   2.604
 8227SOL    HW225581   6.998   0.997   2.703
 8228SOL     OW25582   6.557   1.799   5.777
 8228SOL    HW125583   6.583   1.753   5.693
 8228SOL    HW225584   6.635   1.803   5.839
 8229SOL     OW25585   4.970   2.919   0.635
 8229SOL    HW125586   4.937   2.827   0.656
 8229SOL    HW225587   5.005   2.921   0.542
 8230SOL     OW25588   3.793   7.001   5.353
 8230SOL    HW125589   3.817   0.072   5.370
 8230SOL    HW225590   3.740   6.965   5.430
 8231SOL     OW25591   3.238   3.808   0.756
 8231SOL    HW125592   3.179   3.778   0.681
 8231SOL    HW225593   3.193   3.789   0.843
 8232SOL     OW25594   4.563   1.621   1.423
 8232SOL    HW125595   4.648   1.583   1.388
 8232SOL    HW225596   4.583   1.689   1.494
 8233SOL     OW25597   0.696   6.311   5.893
 8233SOL    HW125598   0.639   6.242   5.848
 8233SOL    HW225599   0.645   6.397   5.899
 8234SOL     OW25600   2.836   3.963   6.642
 8234SOL    HW125601   2.812   3.885   6.701
 8234SOL    HW225602   2.861   3.929   6.552
 8235SOL     OW25603   0.604   2.582   0.420
 8235SOL    HW125604   0.517   2.580   0.469
 8235SOL    HW225605   0.589   2.614   0.326
 8236SOL     OW25606   0.521   4.311   0.665
 8236SOL    HW125607   0.500   4.407   0.687
 8236SOL    HW225608   0.513   4.256   0.748
 8237SOL     OW25609   4.336   6.561   4.931
 8237SOL    HW125610   4.309   6.486   4.992
 8237SOL    HW225611   4.349   6.525   4.839
 8238SOL     OW25612   0.445   5.321   6.373
 8238SOL    HW125613   0.483   5.360   6.289
 8238SOL    HW225614   0.520   5.296   6.435
 8239SOL     OW25615   6.892   0.779   5.551
 8239SOL    HW125616   6.885   0.849   5.622
 8239SOL    HW225617   6.851   0.694   5.583
 8240SOL     OW25618   3.303   3.932   2.363
 8240SOL    HW125619   3.368   3.881   2.308
 8240SOL    HW225620   3.215   3.937   2.316
 8241SOL     OW25621   3.910   6.132   5.631
 8241SOL    HW125622   3.814   6.135   5.656
 8241SOL    HW225623   3.951   6.222   5.645
 8242SOL     OW25624   0.734   4.242   6.254
 8242SOL    HW125625   0.638   4.267   6.268
 8242SOL    HW225626   0.772   4.295   6.178
 8243SOL     OW25627   0.192   2.872   0.529
 8243SOL    HW125628   0.239   2.949   0.574
 8243SOL    HW225629   0.101   2.862   0.568
 8244SOL     OW25630   0.239   0.933   4.799
 8244SOL    HW125631   0.336   0.955   4.808
 8244SOL    HW225632   0.219   0.909   4.704
 8245SOL     OW25633   3.883   1.464   2.017
 8245SOL    HW125634   3.926   1.410   2.089
 8245SOL    HW225635   3.857   1.554   2.053
 8246SOL     OW25636   1.435   3.182   6.161
 8246SOL    HW125637   1.488   3.257   6.200
 8246SOL    HW225638   1.375   3.217   6.089
 8247SOL     OW25639   1.516   0.769   2.600
 8247SOL    HW125640   1.616   0.768   2.604
 8247SOL    HW225641   1.479   0.772   2.693
 8248SOL     OW25642   0.024   5.489   4.727
 8248SOL    HW125643   0.114   5.493   4.685
 8248SOL    HW225644   6.980   5.462   4.659
 8249SOL     OW25645   2.060   2.402   5.801
 8249SOL    HW125646   1.987   2.349   5.844
 8249SOL    HW225647   2.046   2.405   5.702
 8250SOL     OW25648   3.214   3.995   1.593
 8250SOL    HW125649   3.207   3.994   1.494
 8250SOL    HW225650   3.127   4.026   1.632
 8251SOL     OW25651   5.003   3.454   4.613
 8251SOL    HW125652   5.042   3.362   4.613
 8251SOL    HW225653   5.021   3.498   4.526
 8252SOL     OW25654   3.263   1.841   5.594
 8252SOL    HW125655   3.248   1.901   5.673
 8252SOL    HW225656   3.264   1.895   5.510
 8253SOL     OW25657   4.570   5.268   5.980
 8253SOL    HW125658   4.669   5.260   5.967
 8253SOL    HW225659   4.525   5.270   5.891
 8254SOL     OW25660   4.634   4.349   5.192
 8254SOL    HW125661   4.615   4.266   5.139
 8254SOL    HW225662   4.733   4.365   5.194
 8255SOL     OW25663   1.839   7.024   5.069
 8255SOL    HW125664   1.927   7.018   5.021
 8255SOL    HW225665   1.804   6.933   5.086
 8256SOL     OW25666   6.675   6.213   1.437
 8256SOL    HW125667   6.729   6.135   1.469
 8256SOL    HW225668   6.700   6.294   1.489
 8257SOL     OW25669   5.036   4.410   2.979
 8257SOL    HW125670   5.076   4.318   2.982
 8257SOL    HW225671   5.096   4.470   2.927
 8258SOL     OW25672   5.558   2.368   1.150
 8258SOL    HW125673   5.579   2.466   1.145
 8258SOL    HW225674   5.485   2.346   1.086
 8259SOL     OW25675   3.774   1.653   4.200
 8259SOL    HW125676   3.730   1.631   4.113
 8259SOL    HW225677   3.873   1.637   4.193
 8260SOL     OW25678   2.384   6.838   0.954
 8260SOL    HW125679   2.378   6.769   1.026
 8260SOL    HW225680   2.365   6.796   0.865
 8261SOL     OW25681   5.907   6.960   1.727
 8261SOL    HW125682   5.985   6.899   1.742
 8261SOL    HW225683   5.923   7.016   1.646
 8262SOL     OW25684   0.985   2.577   0.183
 8262SOL    HW125685   0.965   2.675   0.173
 8262SOL    HW225686   1.075   2.565   0.224
 8263SOL     OW25687   0.545   2.709   6.322
 8263SOL    HW125688   0.533   2.808   6.327
 8263SOL    HW225689   0.462   2.663   6.353
 8264SOL     OW25690   1.897   6.220   2.054
 8264SOL    HW125691   1.864   6.214   1.960
 8264SOL    HW225692   1.995   6.201   2.056
 8265SOL     OW25693   6.463   1.000   1.256
 8265SOL    HW125694   6.462   1.097   1.233
 8265SOL    HW225695   6.387   0.980   1.318
 8266SOL     OW25696   2.177   1.247   3.899
 8266SOL    HW125697   2.215   1.243   3.807
 8266SOL    HW225698   2.215   1.326   3.948
 8267SOL     OW25699   2.046   3.679   1.096
 8267SOL    HW125700   2.016   3.612   1.029
 8267SOL    HW225701   2.028   3.645   1.189
 8268SOL     OW25702   1.919   6.830   6.042
 8268SOL    HW125703   1.871   6.788   5.965
 8268SOL    HW225704   1.865   6.818   6.125
 8269SOL     OW25705   4.712   1.176   1.997
 8269SOL    HW125706   4.649   1.136   2.064
 8269SOL    HW225707   4.677   1.265   1.968
 8270SOL     OW25708   3.033   6.054   5.179
 8270SOL    HW125709   2.935   6.067   5.163
 8270SOL    HW225710   3.051   6.051   5.278
 8271SOL     OW25711   0.429   7.023   4.089
 8271SOL    HW125712   0.354   0.035   4.145
 8271SOL    HW225713   0.403   0.004   3.993
 8272SOL     OW25714   6.389   2.257   2.785
 8272SOL    HW125715   6.291   2.238   2.780
 8272SOL    HW225716   6.412   2.329   2.720
 8273SOL     OW25717   2.747   0.742   0.982
 8273SOL    HW125718   2.825   0.804   0.971
 8273SOL    HW225719   2.672   0.773   0.923
 8274SOL     OW25720   4.412   5.260   3.862
 8274SOL    HW125721   4.506   5.234   3.881
 8274SOL    HW225722   4.373   5.304   3.943
 8275SOL     OW25723   5.740   1.223   4.700
 8275SOL    HW125724   5.756   1.167   4.781
 8275SOL    HW225725   5.825   1.231   4.647
 8276SOL     OW25726   0.779   2.333   4.227
 8276SOL    HW125727   0.860   2.309   4.174
 8276SOL    HW225728   0.790   2.301   4.321
 8277SOL     OW25729   0.273   6.155   6.558
 8277SOL    HW125730   0.334   6.109   6.622
 8277SOL    HW225731   0.259   6.098   6.477
 8278SOL     OW25732   3.098   1.368   6.570
 8278SOL    HW125733   3.125   1.284   6.522
 8278SOL    HW225734   3.045   1.426   6.509
 8279SOL     OW25735   0.983   6.248   4.735
 8279SOL    HW125736   0.924   6.299   4.673
 8279SOL    HW225737   0.980   6.290   4.826
 8280SOL     OW25738   2.565   3.158   0.528
 8280SOL    HW125739   2.569   3.258   0.522
 8280SOL    HW225740   2.470   3.129   0.536
 8281SOL     OW25741   2.726   4.382   1.641
 8281SOL    HW125742   2.733   4.451   1.568
 8281SOL    HW225743   2.801   4.395   1.706
 8282SOL     OW25744   5.077   3.571   0.149
 8282SOL    HW125745   5.155   3.634   0.153
 8282SOL    HW225746   5.018   3.586   0.229
 8283SOL     OW25747   1.184   5.233   5.253
 8283SOL    HW125748   1.198   5.134   5.248
 8283SOL    HW225749   1.266   5.277   5.290
 8284SOL     OW25750   1.033   3.861   1.654
 8284SOL    HW125751   1.030   3.810   1.568
 8284SOL    HW225752   1.099   3.936   1.646
 8285SOL     OW25753   3.273   4.168   5.075
 8285SOL    HW125754   3.196   4.154   5.137
 8285SOL    HW225755   3.238   4.172   4.981
 8286SOL     OW25756   5.250   1.889   5.604
 8286SOL    HW125757   5.330   1.900   5.664
 8286SOL    HW225758   5.229   1.975   5.560
 8287SOL     OW25759   1.413   4.839   4.452
 8287SOL    HW125760   1.388   4.916   4.510
 8287SOL    HW225761   1.511   4.845   4.430
 8288SOL     OW25762   2.950   2.046   2.029
 8288SOL    HW125763   2.966   2.075   2.124
 8288SOL    HW225764   2.902   2.117   1.980
 8289SOL     OW25765   0.883   6.329   6.977
 8289SOL    HW125766   0.962   6.380   6.944
 8289SOL    HW225767   0.911   6.268   0.026
 8290SOL     OW25768   5.340   1.299   0.880
 8290SOL    HW125769   5.415   1.288   0.945
 8290SOL    HW225770   5.265   1.350   0.922
 8291SOL     OW25771   4.327   6.014   4.892
 8291SOL    HW125772   4.377   5.975   4.969
 8291SOL    HW225773   4.234   5.976   4.891
 8292SOL     OW25774   3.145   6.672   6.651
 8292SOL    HW125775   3.160   6.657   6.749
 8292SOL    HW225776   3.208   6.742   6.618
 8293SOL     OW25777   2.338   5.658   0.607
 8293SOL    HW125778   2.317   5.583   0.669
 8293SOL    HW225779   2.278   5.654   0.528
 8294SOL     OW25780   5.746   3.821   5.140
 8294SOL    HW125781   5.831   3.846   5.185
 8294SOL    HW225782   5.676   3.802   5.208
 8295SOL     OW25783   5.109   5.299   1.901
 8295SOL    HW125784   5.011   5.281   1.906
 8295SOL    HW225785   5.142   5.328   1.991
 8296SOL     OW25786   2.079   4.721   6.706
 8296SOL    HW125787   2.055   4.681   6.618
 8296SOL    HW225788   2.177   4.739   6.709
 8297SOL     OW25789   0.282   3.277   2.904
 8297SOL    HW125790   0.191   3.294   2.866
 8297SOL    HW225791   0.300   3.343   2.977
 8298SOL     OW25792   6.290   1.456   1.095
 8298SOL    HW125793   6.208   1.472   1.040
 8298SOL    HW225794   6.300   1.358   1.111
 8299SOL     OW25795   0.425   2.659   2.470
 8299SOL    HW125796   0.327   2.676   2.465
 8299SOL    HW225797   0.443   2.578   2.526
 8300SOL     OW25798   6.847   5.590   4.068
 8300SOL    HW125799   6.755   5.620   4.094
 8300SOL    HW225800   6.914   5.657   4.100
 8301SOL     OW25801   3.749   1.379   0.622
 8301SOL    HW125802   3.740   1.289   0.579
 8301SOL    HW225803   3.772   1.368   0.719
 8302SOL     OW25804   5.378   0.094   6.637
 8302SOL    HW125805   5.403   0.005   6.598
 8302SOL    HW225806   5.438   0.114   6.715
 8303SOL     OW25807   6.411   0.785   3.782
 8303SOL    HW125808   6.400   0.766   3.684
 8303SOL    HW225809   6.328   0.828   3.817
 8304SOL     OW25810   6.162   3.081   1.030
 8304SOL    HW125811   6.151   3.095   1.128
 8304SOL    HW225812   6.214   3.157   0.991
 8305SOL     OW25813   4.441   5.066   3.607
 8305SOL    HW125814   4.470   4.980   3.649
 8305SOL    HW225815   4.408   5.128   3.678
 8306SOL     OW25816   5.274   1.732   4.846
 8306SOL    HW125817   5.305   1.822   4.816
 8306SOL    HW225818   5.265   1.731   4.946
 8307SOL     OW25819   3.569   5.322   1.366
 8307SOL    HW125820   3.562   5.379   1.284
 8307SOL    HW225821   3.563   5.226   1.341
 8308SOL     OW25822   2.755   5.719   1.130
 8308SOL    HW125823   2.706   5.721   1.217
 8308SOL    HW225824   2.744   5.628   1.088
 8309SOL     OW25825   6.403   5.804   3.840
 8309SOL    HW125826   6.433   5.710   3.820
 8309SOL    HW225827   6.470   5.868   3.803
 8310SOL     OW25828   0.373   5.554   1.514
 8310SOL    HW125829   0.329   5.599   1.591
 8310SOL    HW225830   0.308   5.493   1.469
 8311SOL     OW25831   0.607   2.149   5.255
 8311SOL    HW125832   0.624   2.200   5.339
 8311SOL    HW225833   0.526   2.185   5.210
 8312SOL     OW25834   4.964   0.322   6.914
 8312SOL    HW125835   4.977   0.223   6.924
 8312SOL    HW225836   4.945   0.362   7.004
 8313SOL     OW25837   5.065   0.044   0.397
 8313SOL    HW125838   5.088   6.974   0.376
 8313SOL    HW225839   5.066   0.098   0.313
 8314SOL     OW25840   4.869   0.374   0.164
 8314SOL    HW125841   4.875   0.407   0.258
 8314SOL    HW225842   4.778   0.335   0.148
 8315SOL     OW25843   4.401   2.955   1.028
 8315SOL    HW125844   4.346   2.987   1.105
 8315SOL    HW225845   4.479   2.903   1.063
 8316SOL     OW25846   1.344   2.122   1.728
 8316SOL    HW125847   1.425   2.165   1.689
 8316SOL    HW225848   1.355   2.022   1.728
 8317SOL     OW25849   1.328   2.771   2.459
 8317SOL    HW125850   1.309   2.765   2.361
 8317SOL    HW225851   1.419   2.733   2.478
 8318SOL     OW25852   4.065   1.668   6.014
 8318SOL    HW125853   4.135   1.598   6.029
 8318SOL    HW225854   4.087   1.750   6.068
 8319SOL     OW25855   1.470   1.734   0.768
 8319SOL    HW125856   1.500   1.667   0.837
 8319SOL    HW225857   1.371   1.741   0.770
 8320SOL     OW25858   3.034   3.492   2.239
 8320SOL    HW125859   2.950   3.458   2.197
 8320SOL    HW225860   3.030   3.479   2.338
 8321SOL     OW25861   0.162   0.449   6.460
 8321SOL    HW125862   0.226   0.506   6.409
 8321SOL    HW225863   0.209   0.405   6.536
 8322SOL     OW25864   6.600   0.286   0.887
 8322SOL    HW125865   6.536   0.330   0.824
 8322SOL    HW225866   6.658   0.355   0.930
 8323SOL     OW25867   5.655   5.905   1.936
 8323SOL    HW125868   5.659   5.995   1.979
 8323SOL    HW225869   5.599   5.844   1.991
 8324SOL     OW25870   5.945   6.689   1.188
 8324SOL    HW125871   5.887   6.755   1.236
 8324SOL    HW225872   5.892   6.606   1.169
 8325SOL     OW25873   2.021   3.970   5.393
 8325SOL    HW125874   2.015   3.884   5.343
 8325SOL    HW225875   2.069   4.038   5.338
 8326SOL     OW25876   5.170   3.008   5.919
 8326SOL    HW125877   5.086   3.051   5.953
 8326SOL    HW225878   5.157   2.909   5.914
 8327SOL     OW25879   6.736   0.585   5.681
 8327SOL    HW125880   6.639   0.609   5.679
 8327SOL    HW225881   6.753   0.522   5.757
 8328SOL     OW25882   2.350   6.452   6.301
 8328SOL    HW125883   2.315   6.449   6.207
 8328SOL    HW225884   2.409   6.533   6.312
 8329SOL     OW25885   1.298   2.972   6.315
 8329SOL    HW125886   1.312   2.882   6.274
 8329SOL    HW225887   1.360   3.038   6.271
 8330SOL     OW25888   2.751   1.209   6.461
 8330SOL    HW125889   2.831   1.208   6.401
 8330SOL    HW225890   2.775   1.252   6.548
 8331SOL     OW25891   3.255   0.615   1.426
 8331SOL    HW125892   3.239   0.633   1.328
 8331SOL    HW225893   3.167   0.611   1.473
 8332SOL     OW25894   5.232   5.361   2.545
 8332SOL    HW125895   5.172   5.441   2.533
 8332SOL    HW225896   5.185   5.280   2.510
 8333SOL     OW25897   7.001   5.570   6.275
 8333SOL    HW125898   6.932   5.497   6.276
 8333SOL    HW225899   0.018   5.577   6.365
 8334SOL     OW25900   3.901   1.153   4.102
 8334SOL    HW125901   3.887   1.109   4.013
 8334SOL    HW225902   3.841   1.110   4.170
 8335SOL     OW25903   5.164   0.691   0.128
 8335SOL    HW125904   5.167   0.774   0.074
 8335SOL    HW225905   5.078   0.687   0.179
 8336SOL     OW25906   0.295   4.590   3.345
 8336SOL    HW125907   0.316   4.664   3.410
 8336SOL    HW225908   0.229   4.528   3.387
 8337SOL     OW25909   1.938   6.740   3.179
 8337SOL    HW125910   1.882   6.716   3.258
 8337SOL    HW225911   1.958   6.838   3.182
 8338SOL     OW25912   3.710   5.187   1.900
 8338SOL    HW125913   3.675   5.238   1.822
 8338SOL    HW225914   3.763   5.108   1.867
 8339SOL     OW25915   6.543   0.230   1.850
 8339SOL    HW125916   6.640   0.207   1.858
 8339SOL    HW225917   6.509   0.262   1.938
 8340SOL     OW25918   5.157   3.094   0.800
 8340SOL    HW125919   5.115   3.013   0.842
 8340SOL    HW225920   5.210   3.066   0.721
 8341SOL     OW25921   3.193   6.880   0.168
 8341SOL    HW125922   3.211   6.927   0.255
 8341SOL    HW225923   3.163   6.787   0.186
 8342SOL     OW25924   4.301   6.661   0.731
 8342SOL    HW125925   4.286   6.569   0.694
 8342SOL    HW225926   4.307   6.657   0.830
 8343SOL     OW25927   1.131   5.417   4.594
 8343SOL    HW125928   1.211   5.406   4.536
 8343SOL    HW225929   1.151   5.381   4.686
 8344SOL     OW25930   4.875   5.630   4.941
 8344SOL    HW125931   4.779   5.629   4.971
 8344SOL    HW225932   4.887   5.565   4.866
 8345SOL     OW25933   4.369   1.239   3.130
 8345SOL    HW125934   4.363   1.315   3.195
 8345SOL    HW225935   4.281   1.226   3.085
 8346SOL     OW25936   4.157   5.151   0.138
 8346SOL    HW125937   4.192   5.058   0.142
 8346SOL    HW225938   4.074   5.154   0.084
 8347SOL     OW25939   3.925   5.655   3.845
 8347SOL    HW125940   3.858   5.709   3.896
 8347SOL    HW225941   3.882   5.570   3.813
 8348SOL     OW25942   2.201   1.416   1.783
 8348SOL    HW125943   2.274   1.356   1.749
 8348SOL    HW225944   2.173   1.385   1.874
 8349SOL     OW25945   6.156   6.552   1.822
 8349SOL    HW125946   6.179   6.576   1.728
 8349SOL    HW225947   6.239   6.523   1.870
 8350SOL     OW25948   3.238   6.849   6.108
 8350SOL    HW125949   3.177   6.770   6.099
 8350SOL    HW225950   3.310   6.828   6.175
 8351SOL     OW25951   5.678   5.193   4.213
 8351SOL    HW125952   5.727   5.107   4.217
 8351SOL    HW225953   5.621   5.195   4.130
 8352SOL     OW25954   0.345   0.268   3.530
 8352SOL    HW125955   0.433   0.281   3.575
 8352SOL    HW225956   0.335   0.173   3.502
 8353SOL     OW25957   6.867   3.478   1.490
 8353SOL    HW125958   6.767   3.474   1.481
 8353SOL    HW225959   6.897   3.573   1.489
 8354SOL     OW25960   4.406   6.878   5.306
 8354SOL    HW125961   4.420   6.804   5.240
 8354SOL    HW225962   4.309   6.905   5.305
 8355SOL     OW25963   2.437   0.801   6.047
 8355SOL    HW125964   2.459   0.716   6.096
 8355SOL    HW225965   2.521   0.853   6.034
 8356SOL     OW25966   0.736   6.758   1.138
 8356SOL    HW125967   0.812   6.726   1.082
 8356SOL    HW225968   0.736   6.858   1.141
 8357SOL     OW25969   3.449   6.666   4.777
 8357SOL    HW125970   3.505   6.703   4.703
 8357SOL    HW225971   3.363   6.633   4.739
 8358SOL     OW25972   1.486   4.197   4.861
 8358SOL    HW125973   1.444   4.134   4.927
 8358SOL    HW225974   1.481   4.156   4.769
 8359SOL     OW25975   2.989   0.694   5.099
 8359SOL    HW125976   3.001   0.793   5.110
 8359SOL    HW225977   3.014   0.668   5.006
 8360SOL     OW25978   3.788   6.338   0.969
 8360SOL    HW125979   3.823   6.413   1.025
 8360SOL    HW225980   3.812   6.354   0.874
 8361SOL     OW25981   3.356   0.465   2.704
 8361SOL    HW125982   3.347   0.366   2.715
 8361SOL    HW225983   3.407   0.503   2.781
 8362SOL     OW25984   4.039   2.256   1.130
 8362SOL    HW125985   4.109   2.194   1.162
 8362SOL    HW225986   3.958   2.204   1.102
 8363SOL     OW25987   6.113   3.209   6.447
 8363SOL    HW125988   6.063   3.268   6.512
 8363SOL    HW225989   6.185   3.160   6.495
 8364SOL     OW25990   1.155   2.538   3.466
 8364SOL    HW125991   1.082   2.590   3.511
 8364SOL    HW225992   1.173   2.576   3.375
 8365SOL     OW25993   1.566   3.075   2.055
 8365SOL    HW125994   1.482   3.058   2.108
 8365SOL    HW225995   1.553   3.043   1.962
 8366SOL     OW25996   2.018   5.934   1.971
 8366SOL    HW125997   2.056   5.986   1.895
 8366SOL    HW225998   1.942   5.878   1.938
 8367SOL     OW25999   4.306   5.798   3.979
 8367SOL    HW126000   4.347   5.887   4.000
 8367SOL    HW226001   4.268   5.800   3.887
 8368SOL     OW26002   1.635   5.739   6.325
 8368SOL    HW126003   1.563   5.770   6.388
 8368SOL    HW226004   1.615   5.646   6.295
 8369SOL     OW26005   1.110   6.885   6.352
 8369SOL    HW126006   1.074   6.795   6.328
 8369SOL    HW226007   1.034   6.948   6.372
 8370SOL     OW26008   3.115   1.400   6.046
 8370SOL    HW126009   3.121   1.301   6.047
 8370SOL    HW226010   3.207   1.439   6.039
 8371SOL     OW26011   2.371   4.486   1.082
 8371SOL    HW126012   2.395   4.430   1.002
 8371SOL    HW226013   2.358   4.581   1.054
 8372SOL     OW26014   2.064   5.213   1.793
 8372SOL    HW126015   2.109   5.157   1.863
 8372SOL    HW226016   2.061   5.308   1.823
 8373SOL     OW26017   1.594   0.200   4.666
 8373SOL    HW126018   1.679   0.167   4.625
 8373SOL    HW226019   1.521   0.198   4.598
 8374SOL     OW26020   0.054   0.837   5.369
 8374SOL    HW126021   0.145   0.813   5.402
 8374SOL    HW226022   7.009   0.802   5.432
 8375SOL     OW26023   3.012   6.334   5.142
 8375SOL    HW126024   3.023   6.235   5.140
 8375SOL    HW226025   3.099   6.378   5.164
 8376SOL     OW26026   1.250   1.134   4.292
 8376SOL    HW126027   1.256   1.146   4.193
 8376SOL    HW226028   1.157   1.108   4.317
 8377SOL     OW26029   5.124   6.449   0.868
 8377SOL    HW126030   5.110   6.485   0.776
 8377SOL    HW226031   5.054   6.380   0.887
 8378SOL     OW26032   4.693   5.837   2.809
 8378SOL    HW126033   4.598   5.806   2.816
 8378SOL    HW226034   4.725   5.866   2.900
 8379SOL     OW26035   5.693   3.127   0.990
 8379SOL    HW126036   5.692   3.111   1.089
 8379SOL    HW226037   5.703   3.225   0.972
 8380SOL     OW26038   0.527   0.489   2.631
 8380SOL    HW126039   0.564   0.581   2.622
 8380SOL    HW226040   0.595   0.431   2.677
 8381SOL     OW26041   0.364   2.833   4.973
 8381SOL    HW126042   0.463   2.838   4.982
 8381SOL    HW226043   0.333   2.897   4.903
 8382SOL     OW26044   3.045   0.405   2.915
 8382SOL    HW126045   2.964   0.378   2.967
 8382SOL    HW226046   3.024   0.402   2.817
 8383SOL     OW26047   2.614   6.905   6.167
 8383SOL    HW126048   2.703   6.945   6.147
 8383SOL    HW226049   2.544   6.976   6.165
 8384SOL     OW26050   6.558   0.643   1.492
 8384SOL    HW126051   6.541   0.615   1.398
 8384SOL    HW226052   6.563   0.563   1.551
 8385SOL     OW26053   5.831   2.404   0.946
 8385SOL    HW126054   5.856   2.344   0.870
 8385SOL    HW226055   5.736   2.434   0.935
 8386SOL     OW26056   2.401   5.764   2.050
 8386SOL    HW126057   2.327   5.699   2.067
 8386SOL    HW226058   2.389   5.805   1.960
 8387SOL     OW26059   1.226   1.241   1.616
 8387SOL    HW126060   1.203   1.273   1.708
 8387SOL    HW226061   1.176   1.295   1.549
 8388SOL     OW26062   2.074   6.181   0.488
 8388SOL    HW126063   2.061   6.094   0.442
 8388SOL    HW226064   2.159   6.223   0.457
 8389SOL     OW26065   0.320   3.796   2.787
 8389SOL    HW126066   0.273   3.732   2.848
 8389SOL    HW226067   0.414   3.809   2.819
 8390SOL     OW26068   4.764   1.333   7.001
 8390SOL    HW126069   4.680   1.374   0.010
 8390SOL    HW226070   4.752   1.304   6.906
 8391SOL     OW26071   6.399   5.303   1.065
 8391SOL    HW126072   6.448   5.351   1.138
 8391SOL    HW226073   6.452   5.309   0.981
 8392SOL     OW26074   6.594   4.238   4.856
 8392SOL    HW126075   6.547   4.270   4.774
 8392SOL    HW226076   6.657   4.309   4.887
 8393SOL     OW26077   0.194   6.162   2.737
 8393SOL    HW126078   0.246   6.090   2.781
 8393SOL    HW226079   0.256   6.221   2.685
 8394SOL     OW26080   6.724   2.881   1.931
 8394SOL    HW126081   6.787   2.806   1.951
 8394SOL    HW226082   6.635   2.845   1.905
 8395SOL     OW26083   2.137   6.709   5.167
 8395SOL    HW126084   2.151   6.808   5.162
 8395SOL    HW226085   2.226   6.663   5.160
 8396SOL     OW26086   5.207   5.362   2.144
 8396SOL    HW126087   5.183   5.445   2.195
 8396SOL    HW226088   5.305   5.344   2.155
 8397SOL     OW26089   1.951   0.534   2.715
 8397SOL    HW126090   1.926   0.598   2.642
 8397SOL    HW226091   1.899   0.555   2.797
 8398SOL     OW26092   3.757   1.901   0.034
 8398SOL    HW126093   3.842   1.928   0.080
 8398SOL    HW226094   3.743   1.802   0.046
 8399SOL     OW26095   5.741   6.222   6.854
 8399SOL    HW126096   5.650   6.191   6.882
 8399SOL    HW226097   5.742   6.236   6.755
 8400SOL     OW26098   1.559   1.269   4.213
 8400SOL    HW126099   1.515   1.267   4.303
 8400SOL    HW226100   1.582   1.176   4.185
 8401SOL     OW26101   2.478   1.533   5.943
 8401SOL    HW126102   2.440   1.526   6.035
 8401SOL    HW226103   2.480   1.442   5.901
 8402SOL     OW26104   4.315   1.705   5.772
 8402SOL    HW126105   4.257   1.701   5.853
 8402SOL    HW226106   4.262   1.738   5.694
 8403SOL     OW26107   1.086   2.591   4.682
 8403SOL    HW126108   1.165   2.551   4.637
 8403SOL    HW226109   1.070   2.683   4.646
 8404SOL     OW26110   4.153   6.874   5.768
 8404SOL    HW126111   4.216   6.937   5.815
 8404SOL    HW226112   4.125   6.915   5.681
 8405SOL     OW26113   1.557   0.996   5.614
 8405SOL    HW126114   1.496   1.058   5.564
 8405SOL    HW226115   1.557   0.907   5.569
 8406SOL     OW26116   4.638   0.605   0.528
 8406SOL    HW126117   4.730   0.591   0.565
 8406SOL    HW226118   4.572   0.550   0.579
 8407SOL     OW26119   3.520   6.533   3.520
 8407SOL    HW126120   3.615   6.502   3.519
 8407SOL    HW226121   3.501   6.581   3.606
 8408SOL     OW26122   6.165   4.267   1.694
 8408SOL    HW126123   6.123   4.281   1.605
 8408SOL    HW226124   6.261   4.297   1.691
 8409SOL     OW26125   5.734   2.235   3.473
 8409SOL    HW126126   5.719   2.137   3.476
 8409SOL    HW226127   5.769   2.266   3.561
 8410SOL     OW26128   5.122   0.934   1.844
 8410SOL    HW126129   5.120   0.839   1.811
 8410SOL    HW226130   5.031   0.960   1.876
 8411SOL     OW26131   0.789   4.733   0.284
 8411SOL    HW126132   0.700   4.769   0.258
 8411SOL    HW226133   0.821   4.669   0.215
 8412SOL     OW26134   3.402   1.506   1.529
 8412SOL    HW126135   3.468   1.489   1.602
 8412SOL    HW226136   3.315   1.461   1.552
 8413SOL     OW26137   4.208   5.595   6.680
 8413SOL    HW126138   4.227   5.575   6.584
 8413SOL    HW226139   4.157   5.680   6.687
 8414SOL     OW26140   3.961   5.378   3.222
 8414SOL    HW126141   3.865   5.398   3.207
 8414SOL    HW226142   4.008   5.460   3.254
 8415SOL     OW26143   0.012   6.460   4.047
 8415SOL    HW126144   7.012   6.367   4.072
 8415SOL    HW226145   0.112   6.469   4.044
 8416SOL     OW26146   5.467   3.399   2.276
 8416SOL    HW126147   5.374   3.433   2.260
 8416SOL    HW226148   5.532   3.454   2.222
 8417SOL     OW26149   1.396   4.149   5.597
 8417SOL    HW126150   1.451   4.188   5.523
 8417SOL    HW226151   1.453   4.138   5.679
 8418SOL     OW26152   5.741   5.045   1.072
 8418SOL    HW126153   5.802   5.028   1.149
 8418SOL    HW226154   5.776   4.999   0.991
 8419SOL     OW26155   5.572   7.009   1.939
 8419SOL    HW126156   5.483   6.981   1.904
 8419SOL    HW226157   5.568   0.079   1.970
 8420SOL     OW26158   4.275   0.418   6.712
 8420SOL    HW126159   4.251   0.421   6.809
 8420SOL    HW226160   4.363   0.371   6.701
 8421SOL     OW26161   2.254   5.214   6.923
 8421SOL    HW126162   2.318   5.148   6.884
 8421SOL    HW226163   2.161   5.179   6.914
 8422SOL     OW26164   3.973   1.156   1.616
 8422SOL    HW126165   3.944   1.096   1.691
 8422SOL    HW226166   3.906   1.151   1.542
 8423SOL     OW26167   2.923   4.762   5.506
 8423SOL    HW126168   2.892   4.852   5.534
 8423SOL    HW226169   2.975   4.769   5.421
 8424SOL     OW26170   2.482   2.004   2.479
 8424SOL    HW126171   2.474   1.988   2.381
 8424SOL    HW226172   2.397   2.043   2.514
 8425SOL     OW26173   5.391   4.864   5.988
 8425SOL    HW126174   5.322   4.884   6.057
 8425SOL    HW226175   5.346   4.828   5.906
 8426SOL     OW26176   3.460   3.378   3.259
 8426SOL    HW126177   3.395   3.314   3.219
 8426SOL    HW226178   3.514   3.332   3.329
 8427SOL     OW26179   3.674   4.146   4.876
 8427SOL    HW126180   3.582   4.153   4.837
 8427SOL    HW226181   3.739   4.122   4.803
 8428SOL     OW26182   0.888   5.684   1.741
 8428SOL    HW126183   0.855   5.594   1.711
 8428SOL    HW226184   0.812   5.749   1.740
 8429SOL     OW26185   0.824   5.949   4.125
 8429SOL    HW126186   0.888   5.908   4.190
 8429SOL    HW226187   0.743   5.892   4.117
 8430SOL     OW26188   3.499   5.271   3.202
 8430SOL    HW126189   3.409   5.303   3.232
 8430SOL    HW226190   3.510   5.175   3.227
 8431SOL     OW26191   3.231   4.782   0.399
 8431SOL    HW126192   3.227   4.686   0.428
 8431SOL    HW226193   3.326   4.812   0.398
 8432SOL     OW26194   5.901   6.616   6.043
 8432SOL    HW126195   5.891   6.548   5.970
 8432SOL    HW226196   5.997   6.622   6.070
 8433SOL     OW26197   5.284   2.624   0.432
 8433SOL    HW126198   5.339   2.651   0.353
 8433SOL    HW226199   5.197   2.674   0.431
 8434SOL     OW26200   2.615   6.282   5.019
 8434SOL    HW126201   2.624   6.344   4.941
 8434SOL    HW226202   2.531   6.229   5.011
 8435SOL     OW26203   6.272   0.600   1.705
 8435SOL    HW126204   6.293   0.663   1.780
 8435SOL    HW226205   6.357   0.572   1.661
 8436SOL     OW26206   3.197   6.234   3.135
 8436SOL    HW126207   3.118   6.212   3.192
 8436SOL    HW226208   3.272   6.265   3.194
 8437SOL     OW26209   2.299   1.091   4.486
 8437SOL    HW126210   2.260   1.105   4.578
 8437SOL    HW226211   2.363   1.164   4.466
 8438SOL     OW26212   2.045   5.008   2.542
 8438SOL    HW126213   2.089   4.957   2.615
 8438SOL    HW226214   2.105   5.081   2.510
 8439SOL     OW26215   6.599   4.702   3.044
 8439SOL    HW126216   6.590   4.606   3.018
 8439SOL    HW226217   6.600   4.759   2.962
 8440SOL     OW26218   1.620   2.034   3.660
 8440SOL    HW126219   1.590   2.129   3.670
 8440SOL    HW226220   1.626   1.991   3.749
 8441SOL     OW26221   6.230   6.392   0.319
 8441SOL    HW126222   6.155   6.397   0.385
 8441SOL    HW226223   6.279   6.305   0.330
 8442SOL     OW26224   2.978   2.121   5.134
 8442SOL    HW126225   3.061   2.173   5.115
 8442SOL    HW226226   2.904   2.183   5.159
 8443SOL     OW26227   2.124   4.655   3.402
 8443SOL    HW126228   2.056   4.676   3.472
 8443SOL    HW226229   2.149   4.558   3.409
 8444SOL     OW26230   3.004   6.139   3.841
 8444SOL    HW126231   2.942   6.210   3.807
 8444SOL    HW226232   3.041   6.087   3.765
 8445SOL     OW26233   3.634   6.564   1.183
 8445SOL    HW126234   3.689   6.642   1.213
 8445SOL    HW226235   3.636   6.493   1.253
 8446SOL     OW26236   4.836   4.803   6.864
 8446SOL    HW126237   4.910   4.740   6.840
 8446SOL    HW226238   4.773   4.758   6.928
 8447SOL     OW26239   4.963   1.480   2.580
 8447SOL    HW126240   4.952   1.578   2.596
 8447SOL    HW226241   5.057   1.461   2.550
 8448SOL     OW26242   4.522   5.757   4.337
 8448SOL    HW126243   4.472   5.833   4.298
 8448SOL    HW226244   4.597   5.731   4.276
 8449SOL     OW26245   0.299   2.748   3.501
 8449SOL    HW126246   0.392   2.781   3.512
 8449SOL    HW226247   0.267   2.770   3.409
 8450SOL     OW26248   0.368   6.485   1.266
 8450SOL    HW126249   0.277   6.525   1.276
 8450SOL    HW226250   0.368   6.423   1.187
 8451SOL     OW26251   3.628   1.750   0.302
 8451SOL    HW126252   3.727   1.747   0.291
 8451SOL    HW226253   3.600   1.843   0.329
 8452SOL     OW26254   6.032   1.808   2.609
 8452SOL    HW126255   6.057   1.830   2.703
 8452SOL    HW226256   5.945   1.758   2.609
 8453SOL     OW26257   0.615   4.110   6.942
 8453SOL    HW126258   0.714   4.102   6.936
 8453SOL    HW226259   0.582   4.056   7.019
 8454SOL     OW26260   6.505   6.393   1.660
 8454SOL    HW126261   6.471   6.488   1.661
 8454SOL    HW226262   6.602   6.392   1.637
 8455SOL     OW26263   6.367   2.347   2.067
 8455SOL    HW126264   6.380   2.305   1.978
 8455SOL    HW226265   6.271   2.339   2.094
 8456SOL     OW26266   3.882   5.867   3.105
 8456SOL    HW126267   3.840   5.942   3.055
 8456SOL    HW226268   3.838   5.781   3.079
 8457SOL     OW26269   6.351   6.753   4.453
 8457SOL    HW126270   6.341   6.693   4.374
 8457SOL    HW226271   6.272   6.815   4.458
 8458SOL     OW26272   3.186   0.822   6.851
 8458SOL    HW126273   3.184   0.908   6.800
 8458SOL    HW226274   3.215   0.748   6.790
 8459SOL     OW26275   3.059   5.956   2.101
 8459SOL    HW126276   3.039   5.865   2.135
 8459SOL    HW226277   2.989   6.020   2.131
 8460SOL     OW26278   4.043   4.227   5.244
 8460SOL    HW126279   4.100   4.302   5.210
 8460SOL    HW226280   4.034   4.157   5.172
 8461SOL     OW26281   0.813   4.188   4.808
 8461SOL    HW126282   0.853   4.270   4.849
 8461SOL    HW226283   0.740   4.214   4.744
 8462SOL     OW26284   2.548   2.627   6.925
 8462SOL    HW126285   2.572   2.605   7.020
 8462SOL    HW226286   2.595   2.564   6.863
 8463SOL     OW26287   6.774   6.990   1.311
 8463SOL    HW126288   6.739   6.920   1.249
 8463SOL    HW226289   6.776   0.054   1.265
 8464SOL     OW26290   5.589   3.533   4.173
 8464SOL    HW126291   5.579   3.448   4.121
 8464SOL    HW226292   5.590   3.513   4.271
 8465SOL     OW26293   1.048   3.022   0.643
 8465SOL    HW126294   0.970   3.055   0.697
 8465SOL    HW226295   1.121   2.993   0.704
 8466SOL     OW26296   0.841   6.494   3.943
 8466SOL    HW126297   0.767   6.523   3.883
 8466SOL    HW226298   0.926   6.540   3.916
 8467SOL     OW26299   3.974   0.053   6.463
 8467SOL    HW126300   3.993   0.093   6.374
 8467SOL    HW226301   4.026   6.993   6.474
 8468SOL     OW26302   3.446   2.138   6.709
 8468SOL    HW126303   3.530   2.115   6.757
 8468SOL    HW226304   3.367   2.105   6.761
 8469SOL     OW26305   3.260   1.999   6.890
 8469SOL    HW126306   3.323   1.931   6.928
 8469SOL    HW226307   3.188   2.018   6.957
 8470SOL     OW26308   1.842   4.091   0.192
 8470SOL    HW126309   1.923   4.101   0.250
 8470SOL    HW226310   1.777   4.164   0.212
 8471SOL     OW26311   3.158   1.139   3.694
 8471SOL    HW126312   3.202   1.057   3.729
 8471SOL    HW226313   3.060   1.136   3.714
 8472SOL     OW26314   6.975   1.141   4.836
 8472SOL    HW126315   6.997   1.087   4.754
 8472SOL    HW226316   6.920   1.085   4.899
 8473SOL     OW26317   6.439   6.366   6.613
 8473SOL    HW126318   6.394   6.317   6.687
 8473SOL    HW226319   6.392   6.348   6.527
 8474SOL     OW26320   3.382   3.151   1.903
 8474SOL    HW126321   3.429   3.236   1.879
 8474SOL    HW226322   3.443   3.074   1.886
 8475SOL     OW26323   0.559   2.863   3.571
 8475SOL    HW126324   0.590   2.858   3.666
 8475SOL    HW226325   0.634   2.838   3.510
 8476SOL     OW26326   6.916   2.089   0.711
 8476SOL    HW126327   6.838   2.073   0.651
 8476SOL    HW226328   6.947   2.003   0.750
 8477SOL     OW26329   4.978   6.807   1.434
 8477SOL    HW126330   5.010   6.729   1.488
 8477SOL    HW226331   4.895   6.781   1.384
 8478SOL     OW26332   0.862   6.686   6.137
 8478SOL    HW126333   0.910   6.664   6.053
 8478SOL    HW226334   0.909   6.644   6.215
 8479SOL     OW26335   0.336   2.936   1.132
 8479SOL    HW126336   0.387   2.891   1.059
 8479SOL    HW226337   0.348   2.886   1.218
 8480SOL     OW26338   4.585   1.546   0.116
 8480SOL    HW126339   4.617   1.629   0.162
 8480SOL    HW226340   4.528   1.493   0.179
 8481SOL     OW26341   4.408   2.049   3.612
 8481SOL    HW126342   4.311   2.025   3.624
 8481SOL    HW226343   4.447   2.073   3.701
 8482SOL     OW26344   4.688   5.601   2.225
 8482SOL    HW126345   4.700   5.661   2.146
 8482SOL    HW226346   4.762   5.534   2.229
 8483SOL     OW26347   4.279   6.113   2.318
 8483SOL    HW126348   4.222   6.194   2.333
 8483SOL    HW226349   4.231   6.050   2.257
 8484SOL     OW26350   0.784   5.995   3.245
 8484SOL    HW126351   0.814   5.987   3.340
 8484SOL    HW226352   0.834   5.929   3.189
 8485SOL     OW26353   3.777   3.203   0.532
 8485SOL    HW126354   3.853   3.268   0.534
 8485SOL    HW226355   3.776   3.155   0.445
 8486SOL     OW26356   3.847   0.995   3.102
 8486SOL    HW126357   3.846   0.999   3.202
 8486SOL    HW226358   3.823   0.903   3.072
 8487SOL     OW26359   5.281   2.269   5.864
 8487SOL    HW126360   5.273   2.358   5.909
 8487SOL    HW226361   5.204   2.256   5.802
 8488SOL     OW26362   5.848   5.439   6.601
 8488SOL    HW126363   5.777   5.377   6.568
 8488SOL    HW226364   5.868   5.508   6.530
 8489SOL     OW26365   6.467   1.617   1.321
 8489SOL    HW126366   6.405   1.692   1.342
 8489SOL    HW226367   6.535   1.608   1.394
 8490SOL     OW26368   3.896   6.876   3.897
 8490SOL    HW126369   3.820   6.816   3.872
 8490SOL    HW226370   3.897   6.890   3.996
 8491SOL     OW26371   2.388   6.789   0.665
 8491SOL    HW126372   2.374   6.709   0.607
 8491SOL    HW226373   2.346   6.869   0.623
 8492SOL     OW26374   4.570   4.100   6.107
 8492SOL    HW126375   4.509   4.054   6.042
 8492SOL    HW226376   4.563   4.199   6.095
 8493SOL     OW26377   2.829   2.548   6.158
 8493SOL    HW126378   2.760   2.488   6.199
 8493SOL    HW226379   2.913   2.496   6.142
 8494SOL     OW26380   3.000   5.207   1.350
 8494SOL    HW126381   3.085   5.228   1.399
 8494SOL    HW226382   3.019   5.141   1.277
 8495SOL     OW26383   6.717   4.937   1.682
 8495SOL    HW126384   6.794   5.000   1.670
 8495SOL    HW226385   6.683   4.910   1.592
 8496SOL     OW26386   0.732   2.049   2.332
 8496SOL    HW126387   0.728   2.139   2.289
 8496SOL    HW226388   0.803   1.994   2.289
 8497SOL     OW26389   6.229   1.082   3.562
 8497SOL    HW126390   6.324   1.105   3.580
 8497SOL    HW226391   6.196   1.136   3.485
 8498SOL     OW26392   0.656   6.031   2.818
 8498SOL    HW126393   0.580   6.011   2.879
 8498SOL    HW226394   0.723   6.088   2.866
 8499SOL     OW26395   2.418   4.769   6.543
 8499SOL    HW126396   2.500   4.822   6.520
 8499SOL    HW226397   2.445   4.688   6.595
 8500SOL     OW26398   2.296   6.529   4.844
 8500SOL    HW126399   2.323   6.440   4.809
 8500SOL    HW226400   2.322   6.537   4.940
 8501SOL     OW26401   0.593   1.547   6.814
 8501SOL    HW126402   0.557   1.587   6.729
 8501SOL    HW226403   0.676   1.596   6.841
 8502SOL     OW26404   2.068   4.977   1.443
 8502SOL    HW126405   2.026   4.952   1.356
 8502SOL    HW226406   2.045   4.908   1.512
 8503SOL     OW26407   1.673   0.138   4.139
 8503SOL    HW126408   1.610   0.106   4.209
 8503SOL    HW226409   1.675   0.072   4.063
 8504SOL     OW26410   2.893   5.153   2.950
 8504SOL    HW126411   2.826   5.224   2.928
 8504SOL    HW226412   2.915   5.101   2.868
 8505SOL     OW26413   4.865   3.634   3.595
 8505SOL    HW126414   4.840   3.636   3.498
 8505SOL    HW226415   4.912   3.549   3.616
 8506SOL     OW26416   6.547   1.282   6.842
 8506SOL    HW126417   6.580   1.196   6.803
 8506SOL    HW226418   6.606   1.357   6.813
 8507SOL     OW26419   3.488   0.656   5.611
 8507SOL    HW126420   3.521   0.729   5.671
 8507SOL    HW226421   3.507   0.567   5.654
 8508SOL     OW26422   6.018   2.014   4.724
 8508SOL    HW126423   5.966   1.972   4.649
 8508SOL    HW226424   6.051   2.104   4.696
 8509SOL     OW26425   4.345   1.764   3.263
 8509SOL    HW126426   4.276   1.736   3.197
 8509SOL    HW226427   4.306   1.833   3.324
 8510SOL     OW26428   5.536   4.209   3.019
 8510SOL    HW126429   5.612   4.181   2.960
 8510SOL    HW226430   5.555   4.179   3.113
 8511SOL     OW26431   6.501   3.639   1.532
 8511SOL    HW126432   6.593   3.670   1.555
 8511SOL    HW226433   6.496   3.539   1.541
 8512SOL     OW26434   3.513   2.032   1.486
 8512SOL    HW126435   3.492   1.961   1.553
 8512SOL    HW226436   3.563   2.106   1.532
 8513SOL     OW26437   4.545   4.526   1.731
 8513SOL    HW126438   4.515   4.541   1.825
 8513SOL    HW226439   4.535   4.429   1.709
 8514SOL     OW26440   2.583   2.472   4.000
 8514SOL    HW126441   2.605   2.374   4.002
 8514SOL    HW226442   2.586   2.509   4.093
 8515SOL     OW26443   5.540   1.710   0.865
 8515SOL    HW126444   5.626   1.660   0.860
 8515SOL    HW226445   5.524   1.758   0.779
 8516SOL     OW26446   6.861   1.688   1.330
 8516SOL    HW126447   6.832   1.602   1.289
 8516SOL    HW226448   6.869   1.677   1.429
 8517SOL     OW26449   1.732   3.416   6.653
 8517SOL    HW126450   1.669   3.402   6.729
 8517SOL    HW226451   1.744   3.514   6.638
 8518SOL     OW26452   5.510   4.108   0.529
 8518SOL    HW126453   5.497   4.038   0.458
 8518SOL    HW226454   5.434   4.106   0.593
 8519SOL     OW26455   1.360   4.160   1.414
 8519SOL    HW126456   1.347   4.069   1.376
 8519SOL    HW226457   1.458   4.177   1.426
 8520SOL     OW26458   3.384   3.325   0.235
 8520SOL    HW126459   3.335   3.346   0.150
 8520SOL    HW226460   3.318   3.299   0.306
 8521SOL     OW26461   2.012   5.437   5.523
 8521SOL    HW126462   2.012   5.337   5.522
 8521SOL    HW226463   2.104   5.470   5.501
 8522SOL     OW26464   1.183   6.567   1.715
 8522SOL    HW126465   1.265   6.520   1.683
 8522SOL    HW226466   1.123   6.588   1.638
 8523SOL     OW26467   1.856   6.376   6.839
 8523SOL    HW126468   1.773   6.371   6.895
 8523SOL    HW226469   1.882   6.471   6.827
 8524SOL     OW26470   0.320   2.970   5.208
 8524SOL    HW126471   0.335   2.913   5.128
 8524SOL    HW226472   0.403   3.023   5.227
 8525SOL     OW26473   6.353   4.391   2.529
 8525SOL    HW126474   6.310   4.447   2.459
 8525SOL    HW226475   6.418   4.328   2.486
 8526SOL     OW26476   4.334   6.361   6.510
 8526SOL    HW126477   4.320   6.276   6.561
 8526SOL    HW226478   4.390   6.423   6.564
 8527SOL     OW26479   2.649   0.993   6.126
 8527SOL    HW126480   2.747   0.978   6.136
 8527SOL    HW226481   2.606   0.994   6.216
 8528SOL     OW26482   3.512   1.265   6.465
 8528SOL    HW126483   3.503   1.289   6.561
 8528SOL    HW226484   3.433   1.298   6.414
 8529SOL     OW26485   0.866   0.471   0.992
 8529SOL    HW126486   0.869   0.393   1.055
 8529SOL    HW226487   0.853   0.437   0.898
 8530SOL     OW26488   3.898   4.046   5.389
 8530SOL    HW126489   3.836   4.085   5.458
 8530SOL    HW226490   3.954   4.119   5.350
 8531SOL     OW26491   6.539   5.239   2.790
 8531SOL    HW126492   6.460   5.260   2.732
 8531SOL    HW226493   6.516   5.258   2.886
 8532SOL     OW26494   4.394   5.028   5.004
 8532SOL    HW126495   4.378   5.040   4.906
 8532SOL    HW226496   4.339   4.952   5.038
 8533SOL     OW26497   1.179   0.271   6.878
 8533SOL    HW126498   1.228   0.217   6.810
 8533SOL    HW226499   1.081   0.260   6.865
 8534SOL     OW26500   6.971   3.213   3.917
 8534SOL    HW126501   6.875   3.241   3.922
 8534SOL    HW226502   7.000   3.206   3.822
 8535SOL     OW26503   6.252   1.944   4.360
 8535SOL    HW126504   6.263   2.028   4.413
 8535SOL    HW226505   6.164   1.902   4.382
 8536SOL     OW26506   0.496   2.552   5.077
 8536SOL    HW126507   0.472   2.642   5.041
 8536SOL    HW226508   0.560   2.508   5.015
 8537SOL     OW26509   4.967   1.200   2.004
 8537SOL    HW126510   4.991   1.234   1.914
 8537SOL    HW226511   4.868   1.185   2.009
 8538SOL     OW26512   0.710   0.526   0.157
 8538SOL    HW126513   0.636   0.478   0.110
 8538SOL    HW226514   0.795   0.515   0.105
 8539SOL     OW26515   5.020   0.637   2.941
 8539SOL    HW126516   5.021   0.699   3.020
 8539SOL    HW226517   5.070   0.554   2.963
 8540SOL     OW26518   4.595   0.177   6.353
 8540SOL    HW126519   4.652   0.169   6.271
 8540SOL    HW226520   4.582   0.274   6.376
 8541SOL     OW26521   2.693   1.691   4.075
 8541SOL    HW126522   2.643   1.610   4.044
 8541SOL    HW226523   2.693   1.693   4.175
 8542SOL     OW26524   4.045   4.594   0.008
 8542SOL    HW126525   4.008   4.501   7.023
 8542SOL    HW226526   3.977   4.652   0.052
 8543SOL     OW26527   3.249   0.647   1.152
 8543SOL    HW126528   3.232   0.710   1.075
 8543SOL    HW226529   3.200   0.562   1.136
 8544SOL     OW26530   5.166   3.255   4.843
 8544SOL    HW126531   5.242   3.320   4.842
 8544SOL    HW226532   5.088   3.297   4.889
 8545SOL     OW26533   4.616   6.905   4.969
 8545SOL    HW126534   4.641   7.001   4.977
 8545SOL    HW226535   4.651   6.868   4.883
 8546SOL     OW26536   6.870   1.756   3.694
 8546SOL    HW126537   6.843   1.791   3.604
 8546SOL    HW226538   6.922   1.672   3.683
 8547SOL     OW26539   1.434   0.019   6.127
 8547SOL    HW126540   1.490   0.101   6.134
 8547SOL    HW226541   1.485   6.972   6.078
 8548SOL     OW26542   5.694   2.621   5.458
 8548SOL    HW126543   5.687   2.636   5.359
 8548SOL    HW226544   5.790   2.624   5.486
 8549SOL     OW26545   1.324   2.873   4.349
 8549SOL    HW126546   1.374   2.919   4.276
 8549SOL    HW226547   1.355   2.908   4.437
 8550SOL     OW26548   1.773   4.832   0.356
 8550SOL    HW126549   1.832   4.898   0.404
 8550SOL    HW226550   1.778   4.849   0.258
 8551SOL     OW26551   3.459   3.924   6.576
 8551SOL    HW126552   3.558   3.933   6.573
 8551SOL    HW226553   3.421   4.000   6.628
 8552SOL     OW26554   2.550   0.467   3.974
 8552SOL    HW126555   2.488   0.504   3.904
 8552SOL    HW226556   2.606   0.395   3.933
 8553SOL     OW26557   4.185   4.152   6.893
 8553SOL    HW126558   4.281   4.151   6.921
 8553SOL    HW226559   4.127   4.126   6.970
 8554SOL     OW26560   1.047   4.611   0.708
 8554SOL    HW126561   0.981   4.540   0.729
 8554SOL    HW226562   1.053   4.675   0.784
 8555SOL     OW26563   2.073   1.425   3.241
 8555SOL    HW126564   2.038   1.502   3.294
 8555SOL    HW226565   2.011   1.347   3.251
 8556SOL     OW26566   1.488   6.057   5.052
 8556SOL    HW126567   1.470   5.965   5.015
 8556SOL    HW226568   1.448   6.065   5.143
 8557SOL     OW26569   5.778   6.630   3.280
 8557SOL    HW126570   5.760   6.616   3.183
 8557SOL    HW226571   5.842   6.707   3.291
 8558SOL     OW26572   3.153   4.974   3.228
 8558SOL    HW126573   3.154   4.917   3.310
 8558SOL    HW226574   3.105   4.925   3.155
 8559SOL     OW26575   0.849   0.251   2.468
 8559SOL    HW126576   0.767   0.194   2.462
 8559SOL    HW226577   0.903   0.224   2.547
 8560SOL     OW26578   6.545   6.278   1.973
 8560SOL    HW126579   6.552   6.330   1.888
 8560SOL    HW226580   6.588   6.329   2.047
 8561SOL     OW26581   3.081   0.880   2.551
 8561SOL    HW126582   3.136   0.962   2.566
 8561SOL    HW226583   3.103   0.811   2.620
 8562SOL     OW26584   3.910   5.627   5.687
 8562SOL    HW126585   3.973   5.549   5.685
 8562SOL    HW226586   3.831   5.605   5.744
 8563SOL     OW26587   2.148   4.194   6.837
 8563SOL    HW126588   2.082   4.193   6.762
 8563SOL    HW226589   2.239   4.211   6.801
 8564SOL     OW26590   2.908   1.197   5.257
 8564SOL    HW126591   3.000   1.187   5.221
 8564SOL    HW226592   2.910   1.253   5.340
 8565SOL     OW26593   4.378   5.613   1.060
 8565SOL    HW126594   4.462   5.659   1.089
 8565SOL    HW226595   4.393   5.566   0.973
 8566SOL     OW26596   1.765   0.566   1.261
 8566SOL    HW126597   1.816   0.501   1.317
 8566SOL    HW226598   1.784   0.659   1.293
 8567SOL     OW26599   0.331   2.367   2.534
 8567SOL    HW126600   0.341   2.283   2.480
 8567SOL    HW226601   0.238   2.373   2.569
 8568SOL     OW26602   5.564   1.273   6.164
 8568SOL    HW126603   5.517   1.351   6.206
 8568SOL    HW226604   5.500   1.198   6.151
 8569SOL     OW26605   4.943   0.991   6.258
 8569SOL    HW126606   5.019   1.052   6.280
 8569SOL    HW226607   4.858   1.030   6.295
 8570SOL     OW26608   1.872   2.356   5.123
 8570SOL    HW126609   1.803   2.393   5.185
 8570SOL    HW226610   1.864   2.257   5.119
 8571SOL     OW26611   0.984   5.562   5.532
 8571SOL    HW126612   1.077   5.527   5.535
 8571SOL    HW226613   0.984   5.660   5.555
 8572SOL     OW26614   2.783   4.901   6.724
 8572SOL    HW126615   2.743   4.821   6.679
 8572SOL    HW226616   2.776   4.980   6.663
 8573SOL     OW26617   3.713   6.171   6.263
 8573SOL    HW126618   3.762   6.236   6.205
 8573SOL    HW226619   3.621   6.205   6.281
 8574SOL     OW26620   6.653   5.598   5.719
 8574SOL    HW126621   6.595   5.616   5.799
 8574SOL    HW226622   6.747   5.627   5.739
 8575SOL     OW26623   2.620   2.460   4.943
 8575SOL    HW126624   2.676   2.498   5.017
 8575SOL    HW226625   2.679   2.426   4.870
 8576SOL     OW26626   1.670   5.332   6.486
 8576SOL    HW126627   1.753   5.313   6.540
 8576SOL    HW226628   1.597   5.271   6.515
 8577SOL     OW26629   6.866   6.579   4.324
 8577SOL    HW126630   6.914   6.517   4.261
 8577SOL    HW226631   6.790   6.622   4.276
 8578SOL     OW26632   5.449   1.041   4.292
 8578SOL    HW126633   5.405   0.994   4.216
 8578SOL    HW226634   5.456   1.138   4.272
 8579SOL     OW26635   1.723   0.521   2.300
 8579SOL    HW126636   1.700   0.548   2.207
 8579SOL    HW226637   1.767   0.432   2.300
 8580SOL     OW26638   1.864   7.016   1.942
 8580SOL    HW126639   1.910   6.963   1.870
 8580SOL    HW226640   1.802   0.057   1.900
 8581SOL     OW26641   2.960   3.885   1.869
 8581SOL    HW126642   2.933   3.844   1.956
 8581SOL    HW226643   3.010   3.818   1.815
 8582SOL     OW26644   4.780   4.730   3.179
 8582SOL    HW126645   4.688   4.715   3.143
 8582SOL    HW226646   4.817   4.642   3.211
 8583SOL     OW26647   5.395   0.423   4.428
 8583SOL    HW126648   5.398   0.390   4.522
 8583SOL    HW226649   5.455   0.502   4.419
 8584SOL     OW26650   1.177   4.525   6.042
 8584SOL    HW126651   1.113   4.453   6.015
 8584SOL    HW226652   1.145   4.568   6.126
 8585SOL     OW26653   0.119   6.015   6.329
 8585SOL    HW126654   0.085   5.950   6.262
 8585SOL    HW226655   0.103   6.108   6.297
 8586SOL     OW26656   2.656   0.215   2.806
 8586SOL    HW126657   2.674   0.225   2.708
 8586SOL    HW226658   2.628   0.121   2.825
 8587SOL     OW26659   1.463   6.688   4.265
 8587SOL    HW126660   1.481   6.685   4.363
 8587SOL    HW226661   1.544   6.724   4.218
 8588SOL     OW26662   2.811   1.015   0.447
 8588SOL    HW126663   2.848   1.108   0.457
 8588SOL    HW226664   2.878   0.957   0.401
 8589SOL     OW26665   4.668   2.847   5.160
 8589SOL    HW126666   4.759   2.830   5.198
 8589SOL    HW226667   4.676   2.871   5.063
 8590SOL     OW26668   6.992   6.209   4.149
 8590SOL    HW126669   6.929   6.152   4.097
 8590SOL    HW226670   7.017   6.162   4.234
 8591SOL     OW26671   0.554   3.906   0.110
 8591SOL    HW126672   0.484   3.891   0.179
 8591SOL    HW226673   0.536   3.848   0.030
 8592SOL     OW26674   0.170   2.540   6.239
 8592SOL    HW126675   0.104   2.517   6.168
 8592SOL    HW226676   0.172   2.639   6.253
 8593SOL     OW26677   2.951   0.382   0.752
 8593SOL    HW126678   2.989   0.291   0.737
 8593SOL    HW226679   2.866   0.391   0.701
 8594SOL     OW26680   4.292   2.264   5.631
 8594SOL    HW126681   4.246   2.306   5.553
 8594SOL    HW226682   4.356   2.194   5.598
 8595SOL     OW26683   1.039   2.771   3.295
 8595SOL    HW126684   1.127   2.725   3.281
 8595SOL    HW226685   1.014   2.819   3.211
 8596SOL     OW26686   0.308   5.310   3.156
 8596SOL    HW126687   0.225   5.343   3.203
 8596SOL    HW226688   0.288   5.225   3.109
 8597SOL     OW26689   4.455   1.364   0.834
 8597SOL    HW126690   4.388   1.336   0.903
 8597SOL    HW226691   4.444   1.461   0.815
 8598SOL     OW26692   5.635   6.434   0.890
 8598SOL    HW126693   5.699   6.511   0.889
 8598SOL    HW226694   5.548   6.462   0.851
 8599SOL     OW26695   0.885   2.701   4.349
 8599SOL    HW126696   0.830   2.762   4.407
 8599SOL    HW226697   0.943   2.756   4.289
 8600SOL     OW26698   4.632   5.112   5.682
 8600SOL    HW126699   4.601   5.036   5.625
 8600SOL    HW226700   4.553   5.162   5.717
 8601SOL     OW26701   0.845   1.364   5.135
 8601SOL    HW126702   0.914   1.331   5.071
 8601SOL    HW226703   0.864   1.328   5.226
 8602SOL     OW26704   2.791   5.449   2.656
 8602SOL    HW126705   2.750   5.415   2.572
 8602SOL    HW226706   2.890   5.451   2.647
 8603SOL     OW26707   4.007   5.551   0.194
 8603SOL    HW126708   3.995   5.500   0.109
 8603SOL    HW226709   4.004   5.649   0.175
 8604SOL     OW26710   0.630   2.606   4.417
 8604SOL    HW126711   0.596   2.539   4.351
 8604SOL    HW226712   0.722   2.581   4.446
 8605SOL     OW26713   2.831   5.640   4.494
 8605SOL    HW126714   2.806   5.558   4.545
 8605SOL    HW226715   2.908   5.620   4.433
 8606SOL     OW26716   1.610   3.238   6.439
 8606SOL    HW126717   1.689   3.238   6.378
 8606SOL    HW226718   1.627   3.302   6.515
 8607SOL     OW26719   3.628   5.992   0.527
 8607SOL    HW126720   3.615   5.940   0.611
 8607SOL    HW226721   3.717   5.968   0.487
 8608SOL     OW26722   4.433   5.714   2.827
 8608SOL    HW126723   4.411   5.687   2.733
 8608SOL    HW226724   4.410   5.810   2.841
 8609SOL     OW26725   5.372   1.169   3.010
 8609SOL    HW126726   5.455   1.225   3.008
 8609SOL    HW226727   5.389   1.081   2.966
 8610SOL     OW26728   1.884   2.167   2.834
 8610SOL    HW126729   1.838   2.104   2.771
 8610SOL    HW226730   1.861   2.261   2.809
 8611SOL     OW26731   2.873   1.924   4.592
 8611SOL    HW126732   2.917   1.845   4.635
 8611SOL    HW226733   2.857   1.904   4.495
 8612SOL     OW26734   3.370   3.221   1.391
 8612SOL    HW126735   3.400   3.309   1.428
 8612SOL    HW226736   3.350   3.158   1.465
 8613SOL     OW26737   2.291   1.842   0.990
 8613SOL    HW126738   2.195   1.830   1.016
 8613SOL    HW226739   2.334   1.909   1.050
 8614SOL     OW26740   1.319   3.032   2.201
 8614SOL    HW126741   1.341   2.934   2.197
 8614SOL    HW226742   1.248   3.047   2.270
 8615SOL     OW26743   4.698   1.422   5.145
 8615SOL    HW126744   4.615   1.471   5.118
 8615SOL    HW226745   4.775   1.454   5.088
 8616SOL     OW26746   3.123   4.496   1.641
 8616SOL    HW126747   3.201   4.549   1.672
 8616SOL    HW226748   3.070   4.465   1.720
 8617SOL     OW26749   6.692   1.087   6.523
 8617SOL    HW126750   6.706   1.037   6.437
 8617SOL    HW226751   6.779   1.095   6.572
 8618SOL     OW26752   6.074   5.762   0.679
 8618SOL    HW126753   5.982   5.771   0.717
 8618SOL    HW226754   6.076   5.685   0.614
 8619SOL     OW26755   3.744   4.856   2.234
 8619SOL    HW126756   3.658   4.888   2.275
 8619SOL    HW226757   3.724   4.813   2.146
 8620SOL     OW26758   1.080   0.086   4.248
 8620SOL    HW126759   1.137   0.018   4.293
 8620SOL    HW226760   1.004   0.040   4.201
 8621SOL     OW26761   5.607   1.306   3.009
 8621SOL    HW126762   5.694   1.348   3.035
 8621SOL    HW226763   5.606   1.287   2.911
 8622SOL     OW26764   5.379   3.547   0.031
 8622SOL    HW126765   5.298   3.494   0.056
 8622SOL    HW226766   5.459   3.510   0.078
 8623SOL     OW26767   0.850   3.484   4.081
 8623SOL    HW126768   0.753   3.491   4.105
 8623SOL    HW226769   0.863   3.406   4.019
 8624SOL     OW26770   1.216   3.853   4.848
 8624SOL    HW126771   1.181   3.932   4.798
 8624SOL    HW226772   1.140   3.796   4.878
 8625SOL     OW26773   4.670   0.064   5.854
 8625SOL    HW126774   4.635   0.113   5.774
 8625SOL    HW226775   4.726   7.012   5.824
 8626SOL     OW26776   3.962   3.308   5.490
 8626SOL    HW126777   3.941   3.226   5.435
 8626SOL    HW226778   4.061   3.318   5.498
 8627SOL     OW26779   0.330   1.231   3.383
 8627SOL    HW126780   0.278   1.315   3.398
 8627SOL    HW226781   0.288   1.156   3.434
 8628SOL     OW26782   6.245   6.145   0.686
 8628SOL    HW126783   6.223   6.129   0.590
 8628SOL    HW226784   6.209   6.234   0.714
 8629SOL     OW26785   1.436   4.868   5.108
 8629SOL    HW126786   1.417   4.923   5.028
 8629SOL    HW226787   1.399   4.776   5.096
 8630SOL     OW26788   5.305   4.154   3.480
 8630SOL    HW126789   5.396   4.137   3.517
 8630SOL    HW226790   5.309   4.227   3.412
 8631SOL     OW26791   2.022   5.143   5.821
 8631SOL    HW126792   2.060   5.077   5.886
 8631SOL    HW226793   2.097   5.190   5.774
 8632SOL     OW26794   3.623   6.249   3.626
 8632SOL    HW126795   3.717   6.266   3.656
 8632SOL    HW226796   3.591   6.162   3.663
 8633SOL     OW26797   5.036   1.852   5.246
 8633SOL    HW126798   4.967   1.917   5.216
 8633SOL    HW226799   4.995   1.788   5.310
 8634SOL     OW26800   5.890   3.690   0.526
 8634SOL    HW126801   5.837   3.605   0.520
 8634SOL    HW226802   5.851   3.758   0.464
 8635SOL     OW26803   5.560   4.011   6.435
 8635SOL    HW126804   5.618   3.959   6.372
 8635SOL    HW226805   5.611   4.028   6.520
 8636SOL     OW26806   4.926   5.854   0.773
 8636SOL    HW126807   4.835   5.884   0.800
 8636SOL    HW226808   4.932   5.849   0.673
 8637SOL     OW26809   2.215   1.071   0.376
 8637SOL    HW126810   2.251   0.992   0.424
 8637SOL    HW226811   2.266   1.153   0.403
 8638SOL     OW26812   2.748   3.144   6.743
 8638SOL    HW126813   2.737   3.045   6.748
 8638SOL    HW226814   2.753   3.172   6.647
 8639SOL     OW26815   5.587   2.331   1.901
 8639SOL    HW126816   5.552   2.425   1.897
 8639SOL    HW226817   5.678   2.327   1.861
 8640SOL     OW26818   4.886   3.968   0.416
 8640SOL    HW126819   4.841   4.015   0.493
 8640SOL    HW226820   4.847   4.002   0.330
 8641SOL     OW26821   5.640   5.298   4.574
 8641SOL    HW126822   5.708   5.352   4.525
 8641SOL    HW226823   5.656   5.200   4.557
 8642SOL     OW26824   2.544   6.756   2.986
 8642SOL    HW126825   2.464   6.726   2.935
 8642SOL    HW226826   2.583   6.678   3.035
 8643SOL     OW26827   2.879   0.137   6.533
 8643SOL    HW126828   2.858   0.072   6.460
 8643SOL    HW226829   2.844   0.101   6.620
 8644SOL     OW26830   4.772   2.251   5.266
 8644SOL    HW126831   4.851   2.240   5.327
 8644SOL    HW226832   4.687   2.245   5.318
 8645SOL     OW26833   4.451   4.763   1.656
 8645SOL    HW126834   4.369   4.815   1.635
 8645SOL    HW226835   4.426   4.672   1.689
 8646SOL     OW26836   6.630   1.074   1.668
 8646SOL    HW126837   6.641   0.981   1.633
 8646SOL    HW226838   6.635   1.139   1.593
 8647SOL     OW26839   2.432   5.437   6.007
 8647SOL    HW126840   2.339   5.451   6.041
 8647SOL    HW226841   2.482   5.378   6.071
 8648SOL     OW26842   6.493   0.285   3.179
 8648SOL    HW126843   6.505   0.381   3.206
 8648SOL    HW226844   6.495   0.279   3.079
 8649SOL     OW26845   5.776   5.036   6.068
 8649SOL    HW126846   5.749   4.943   6.044
 8649SOL    HW226847   5.702   5.099   6.046
 8650SOL     OW26848   2.130   5.224   4.965
 8650SOL    HW126849   2.035   5.250   4.947
 8650SOL    HW226850   2.154   5.249   5.059
 8651SOL     OW26851   3.375   0.390   0.516
 8651SOL    HW126852   3.311   0.443   0.573
 8651SOL    HW226853   3.338   0.383   0.423
 8652SOL     OW26854   2.014   4.287   4.102
 8652SOL    HW126855   2.047   4.196   4.076
 8652SOL    HW226856   2.049   4.310   4.193
 8653SOL     OW26857   5.932   0.420   6.281
 8653SOL    HW126858   6.016   0.381   6.243
 8653SOL    HW226859   5.924   0.516   6.253
 8654SOL     OW26860   1.216   5.125   1.286
 8654SOL    HW126861   1.234   5.198   1.220
 8654SOL    HW226862   1.118   5.119   1.302
 8655SOL     OW26863   6.526   1.633   3.537
 8655SOL    HW126864   6.462   1.568   3.577
 8655SOL    HW226865   6.594   1.585   3.482
 8656SOL     OW26866   6.455   0.816   1.032
 8656SOL    HW126867   6.454   0.845   1.128
 8656SOL    HW226868   6.489   0.891   0.975
 8657SOL     OW26869   5.184   4.493   0.251
 8657SOL    HW126870   5.224   4.580   0.278
 8657SOL    HW226871   5.166   4.437   0.332
 8658SOL     OW26872   5.163   6.771   0.282
 8658SOL    HW126873   5.246   6.724   0.312
 8658SOL    HW226874   5.173   6.799   0.186
 8659SOL     OW26875   4.547   1.718   2.850
 8659SOL    HW126876   4.469   1.771   2.816
 8659SOL    HW226877   4.520   1.623   2.862
 8660SOL     OW26878   6.063   4.086   1.421
 8660SOL    HW126879   6.077   4.048   1.512
 8660SOL    HW226880   6.011   4.021   1.365
 8661SOL     OW26881   5.709   4.208   1.425
 8661SOL    HW126882   5.749   4.210   1.334
 8661SOL    HW226883   5.697   4.113   1.454
 8662SOL     OW26884   4.410   6.343   0.954
 8662SOL    HW126885   4.459   6.323   1.039
 8662SOL    HW226886   4.316   6.372   0.975
 8663SOL     OW26887   3.235   5.726   1.586
 8663SOL    HW126888   3.243   5.632   1.552
 8663SOL    HW226889   3.226   5.725   1.686
 8664SOL     OW26890   2.269   5.948   0.983
 8664SOL    HW126891   2.222   5.891   0.915
 8664SOL    HW226892   2.360   5.910   1.001
 8665SOL     OW26893   5.112   6.420   4.775
 8665SOL    HW126894   5.034   6.435   4.715
 8665SOL    HW226895   5.091   6.346   4.839
 8666SOL     OW26896   4.971   1.817   4.110
 8666SOL    HW126897   4.882   1.846   4.075
 8666SOL    HW226898   5.017   1.895   4.152
 8667SOL     OW26899   4.497   2.568   3.151
 8667SOL    HW126900   4.498   2.567   3.051
 8667SOL    HW226901   4.424   2.510   3.185
 8668SOL     OW26902   5.367   3.820   3.550
 8668SOL    HW126903   5.352   3.773   3.463
 8668SOL    HW226904   5.373   3.919   3.534
 8669SOL     OW26905   1.611   6.583   6.968
 8669SOL    HW126906   1.698   6.556   7.009
 8669SOL    HW226907   1.551   6.621   0.014
 8670SOL     OW26908   3.978   4.021   5.046
 8670SOL    HW126909   3.899   3.965   5.071
 8670SOL    HW226910   3.983   4.029   4.946
 8671SOL     OW26911   5.089   1.610   3.794
 8671SOL    HW126912   5.056   1.585   3.885
 8671SOL    HW226913   5.116   1.706   3.793
 8672SOL     OW26914   1.892   4.676   3.844
 8672SOL    HW126915   1.904   4.753   3.782
 8672SOL    HW226916   1.806   4.689   3.895
 8673SOL     OW26917   5.905   2.430   0.426
 8673SOL    HW126918   5.977   2.400   0.364
 8673SOL    HW226919   5.827   2.463   0.374
 8674SOL     OW26920   5.807   5.975   3.745
 8674SOL    HW126921   5.854   5.910   3.686
 8674SOL    HW226922   5.868   6.005   3.818
 8675SOL     OW26923   2.687   2.218   4.294
 8675SOL    HW126924   2.785   2.201   4.291
 8675SOL    HW226925   2.668   2.300   4.349
 8676SOL     OW26926   4.522   0.540   2.667
 8676SOL    HW126927   4.615   0.534   2.629
 8676SOL    HW226928   4.497   0.636   2.676
 8677SOL     OW26929   2.132   6.077   5.310
 8677SOL    HW126930   2.217   6.046   5.353
 8677SOL    HW226931   2.113   6.022   5.230
 8678SOL     OW26932   6.549   0.603   1.203
 8678SOL    HW126933   6.546   0.677   1.136
 8678SOL    HW226934   6.627   0.544   1.184
 8679SOL     OW26935   0.209   2.395   2.957
 8679SOL    HW126936   0.178   2.329   3.026
 8679SOL    HW226937   0.274   2.351   2.895
 8680SOL     OW26938   1.075   3.831   1.322
 8680SOL    HW126939   1.051   3.733   1.322
 8680SOL    HW226940   1.174   3.841   1.315
 8681SOL     OW26941   5.031   5.349   0.180
 8681SOL    HW126942   5.010   5.293   0.260
 8681SOL    HW226943   5.042   5.291   0.100
 8682SOL     OW26944   4.964   0.163   2.313
 8682SOL    HW126945   4.945   0.093   2.244
 8682SOL    HW226946   4.882   0.219   2.328
 8683SOL     OW26947   1.455   2.089   2.852
 8683SOL    HW126948   1.463   2.167   2.914
 8683SOL    HW226949   1.439   2.006   2.905
 8684SOL     OW26950   0.283   3.032   4.789
 8684SOL    HW126951   0.249   3.125   4.801
 8684SOL    HW226952   0.377   3.035   4.756
 8685SOL     OW26953   0.190   1.820   6.165
 8685SOL    HW126954   0.187   1.753   6.091
 8685SOL    HW226955   0.253   1.893   6.140
 8686SOL     OW26956   0.384   1.721   1.961
 8686SOL    HW126957   0.342   1.762   2.042
 8686SOL    HW226958   0.371   1.783   1.883
 8687SOL     OW26959   4.897   5.432   2.296
 8687SOL    HW126960   4.870   5.353   2.350
 8687SOL    HW226961   4.968   5.483   2.344
 8688SOL     OW26962   2.536   5.612   0.121
 8688SOL    HW126963   2.504   5.696   0.163
 8688SOL    HW226964   2.472   5.583   0.049
 8689SOL     OW26965   3.889   4.117   1.815
 8689SOL    HW126966   3.946   4.064   1.878
 8689SOL    HW226967   3.870   4.062   1.733
 8690SOL     OW26968   1.926   2.945   3.131
 8690SOL    HW126969   1.895   2.883   3.059
 8690SOL    HW226970   1.983   3.017   3.091
 8691SOL     OW26971   2.938   2.096   5.972
 8691SOL    HW126972   2.841   2.113   5.952
 8691SOL    HW226973   2.945   2.011   6.026
 8692SOL     OW26974   2.350   1.684   4.210
 8692SOL    HW126975   2.415   1.744   4.258
 8692SOL    HW226976   2.352   1.593   4.252
 8693SOL     OW26977   5.977   0.818   0.196
 8693SOL    HW126978   5.944   0.908   0.224
 8693SOL    HW226979   6.040   0.783   0.265
 8694SOL     OW26980   4.714   1.218   4.787
 8694SOL    HW126981   4.728   1.120   4.805
 8694SOL    HW226982   4.648   1.229   4.713
 8695SOL     OW26983   4.369   2.615   6.192
 8695SOL    HW126984   4.430   2.678   6.143
 8695SOL    HW226985   4.320   2.664   6.263
 8696SOL     OW26986   2.300   5.050   0.141
 8696SOL    HW126987   2.366   4.993   0.092
 8696SOL    HW226988   2.271   5.125   0.081
 8697SOL     OW26989   6.893   2.731   6.712
 8697SOL    HW126990   6.991   2.718   6.729
 8697SOL    HW226991   6.846   2.749   6.798
 8698SOL     OW26992   5.606   6.171   5.186
 8698SOL    HW126993   5.681   6.176   5.120
 8698SOL    HW226994   5.630   6.105   5.258
 8699SOL     OW26995   2.382   2.512   5.645
 8699SOL    HW126996   2.329   2.428   5.634
 8699SOL    HW226997   2.320   2.590   5.655
 8700SOL     OW26998   0.766   0.939   4.997
 8700SOL    HW126999   0.800   0.955   5.090
 8700SOL    HW227000   0.693   0.871   4.999
 8701SOL     OW27001   0.460   1.489   0.727
 8701SOL    HW127002   0.441   1.587   0.737
 8701SOL    HW227003   0.418   1.455   0.643
 8702SOL     OW27004   5.276   5.222   1.699
 8702SOL    HW127005   5.264   5.261   1.608
 8702SOL    HW227006   5.216   5.270   1.763
 8703SOL     OW27007   2.818   5.022   6.999
 8703SOL    HW127008   2.800   4.975   6.913
 8703SOL    HW227009   2.855   4.958   0.041
 8704SOL     OW27010   0.417   3.901   3.172
 8704SOL    HW127011   0.495   3.844   3.144
 8704SOL    HW227012   0.399   3.969   3.101
 8705SOL     OW27013   5.050   1.644   6.132
 8705SOL    HW127014   5.108   1.701   6.190
 8705SOL    HW227015   4.958   1.684   6.127
 8706SOL     OW27016   4.859   2.118   6.697
 8706SOL    HW127017   4.770   2.128   6.743
 8706SOL    HW227018   4.925   2.182   6.736
 8707SOL     OW27019   0.229   2.104   6.471
 8707SOL    HW127020   0.131   2.088   6.478
 8707SOL    HW227021   0.247   2.182   6.411
 8708SOL     OW27022   4.611   2.300   2.790
 8708SOL    HW127023   4.590   2.217   2.840
 8708SOL    HW227024   4.584   2.289   2.694
 8709SOL     OW27025   0.164   6.366   6.887
 8709SOL    HW127026   0.148   6.451   6.937
 8709SOL    HW227027   0.193   6.387   6.794
 8710SOL     OW27028   2.139   3.496   4.260
 8710SOL    HW127029   2.141   3.462   4.166
 8710SOL    HW227030   2.153   3.419   4.323
 8711SOL     OW27031   1.145   6.917   3.104
 8711SOL    HW127032   1.165   6.820   3.097
 8711SOL    HW227033   1.079   6.933   3.177
 8712SOL     OW27034   4.117   2.241   4.826
 8712SOL    HW127035   4.114   2.295   4.910
 8712SOL    HW227036   4.028   2.200   4.810
 8713SOL     OW27037   6.992   2.622   4.446
 8713SOL    HW127038   6.898   2.641   4.472
 8713SOL    HW227039   0.022   2.705   4.456
 8714SOL     OW27040   1.005   1.117   6.417
 8714SOL    HW127041   1.068   1.045   6.445
 8714SOL    HW227042   0.956   1.152   6.497
 8715SOL     OW27043   4.919   0.403   1.046
 8715SOL    HW127044   5.000   0.410   0.988
 8715SOL    HW227045   4.930   0.462   1.126
 8716SOL     OW27046   6.674   6.826   1.684
 8716SOL    HW127047   6.690   6.923   1.701
 8716SOL    HW227048   6.724   6.799   1.601
 8717SOL     OW27049   3.819   3.559   4.101
 8717SOL    HW127050   3.909   3.575   4.141
 8717SOL    HW227051   3.807   3.618   4.021
 8718SOL     OW27052   0.852   3.725   5.337
 8718SOL    HW127053   0.886   3.818   5.346
 8718SOL    HW227054   0.821   3.710   5.243
 8719SOL     OW27055   3.322   0.125   6.213
 8719SOL    HW127056   3.419   0.141   6.196
 8719SOL    HW227057   3.312   0.058   6.286
 8720SOL     OW27058   6.612   4.814   6.052
 8720SOL    HW127059   6.639   4.809   6.148
 8720SOL    HW227060   6.593   4.909   6.028
 8721SOL     OW27061   6.914   3.122   2.410
 8721SOL    HW127062   6.860   3.071   2.342
 8721SOL    HW227063   6.867   3.207   2.433
 8722SOL     OW27064   3.885   1.680   0.300
 8722SOL    HW127065   3.958   1.646   0.241
 8722SOL    HW227066   3.924   1.717   0.384
 8723SOL     OW27067   5.062   5.555   0.767
 8723SOL    HW127068   4.988   5.574   0.831
 8723SOL    HW227069   5.094   5.641   0.727
 8724SOL     OW27070   4.632   0.204   5.299
 8724SOL    HW127071   4.568   0.127   5.306
 8724SOL    HW227072   4.725   0.168   5.291
 8725SOL     OW27073   1.604   6.386   6.065
 8725SOL    HW127074   1.646   6.301   6.034
 8725SOL    HW227075   1.505   6.382   6.047
 8726SOL     OW27076   0.133   0.861   2.461
 8726SOL    HW127077   0.058   0.836   2.400
 8726SOL    HW227078   0.213   0.887   2.407
 8727SOL     OW27079   6.746   6.227   2.553
 8727SOL    HW127080   6.720   6.266   2.465
 8727SOL    HW227081   6.681   6.155   2.578
 8728SOL     OW27082   5.225   0.429   3.020
 8728SOL    HW127083   5.283   0.431   2.938
 8728SOL    HW227084   5.255   0.499   3.084
 8729SOL     OW27085   4.551   5.913   4.688
 8729SOL    HW127086   4.559   5.958   4.777
 8729SOL    HW227087   4.477   5.847   4.691
 8730SOL     OW27088   6.853   3.791   2.378
 8730SOL    HW127089   6.948   3.764   2.360
 8730SOL    HW227090   6.819   3.846   2.302
 8731SOL     OW27091   2.146   2.511   2.672
 8731SOL    HW127092   2.152   2.456   2.755
 8731SOL    HW227093   2.237   2.520   2.631
 8732SOL     OW27094   5.836   5.070   1.608
 8732SOL    HW127095   5.785   4.984   1.614
 8732SOL    HW227096   5.931   5.054   1.636
 8733SOL     OW27097   1.299   5.481   0.796
 8733SOL    HW127098   1.380   5.530   0.828
 8733SOL    HW227099   1.216   5.529   0.827
 8734SOL     OW27100   2.031   3.972   2.111
 8734SOL    HW127101   1.967   3.895   2.113
 8734SOL    HW227102   1.998   4.041   2.047
 8735SOL     OW27103   1.174   2.576   0.649
 8735SOL    HW127104   1.091   2.618   0.686
 8735SOL    HW227105   1.169   2.477   0.660
 8736SOL     OW27106   0.287   5.907   6.881
 8736SOL    HW127107   0.203   5.952   6.910
 8736SOL    HW227108   0.265   5.834   6.816
 8737SOL     OW27109   1.704   7.004   6.341
 8737SOL    HW127110   1.638   0.049   6.370
 8737SOL    HW227111   1.743   0.006   6.253
 8738SOL     OW27112   1.924   5.417   4.327
 8738SOL    HW127113   2.009   5.462   4.300
 8738SOL    HW227114   1.920   5.326   4.285
 8739SOL     OW27115   5.139   5.922   6.539
 8739SOL    HW127116   5.143   5.968   6.450
 8739SOL    HW227117   5.044   5.901   6.562
 8740SOL     OW27118   4.856   0.821   4.251
 8740SOL    HW127119   4.779   0.882   4.268
 8740SOL    HW227120   4.941   0.873   4.255
 8741SOL     OW27121   2.495   1.348   2.111
 8741SOL    HW127122   2.505   1.330   2.208
 8741SOL    HW227123   2.449   1.435   2.097
 8742SOL     OW27124   5.795   6.237   0.975
 8742SOL    HW127125   5.721   6.294   0.939
 8742SOL    HW227126   5.801   6.250   1.074
 8743SOL     OW27127   1.068   6.889   2.484
 8743SOL    HW127128   0.989   6.902   2.543
 8743SOL    HW227129   1.148   6.864   2.538
 8744SOL     OW27130   3.152   2.734   6.459
 8744SOL    HW127131   3.193   2.647   6.486
 8744SOL    HW227132   3.225   2.801   6.441
 8745SOL     OW27133   5.699   2.656   6.217
 8745SOL    HW127134   5.791   2.636   6.250
 8745SOL    HW227135   5.632   2.604   6.271
 8746SOL     OW27136   4.890   4.452   4.167
 8746SOL    HW127137   4.922   4.358   4.151
 8746SOL    HW227138   4.963   4.505   4.210
 8747SOL     OW27139   0.956   2.889   3.073
 8747SOL    HW127140   0.973   2.977   3.029
 8747SOL    HW227141   0.858   2.876   3.085
 8748SOL     OW27142   0.043   1.721   5.202
 8748SOL    HW127143   0.041   1.630   5.243
 8748SOL    HW227144   6.982   1.768   5.220
 8749SOL     OW27145   2.563   0.881   5.651
 8749SOL    HW127146   2.580   0.783   5.654
 8749SOL    HW227147   2.475   0.899   5.607
 8750SOL     OW27148   3.431   3.799   5.731
 8750SOL    HW127149   3.403   3.757   5.817
 8750SOL    HW227150   3.353   3.844   5.688
 8751SOL     OW27151   5.767   1.167   1.774
 8751SOL    HW127152   5.836   1.167   1.701
 8751SOL    HW227153   5.793   1.100   1.844
 8752SOL     OW27154   2.764   3.543   0.409
 8752SOL    HW127155   2.743   3.622   0.351
 8752SOL    HW227156   2.858   3.551   0.443
 8753SOL     OW27157   4.046   1.821   5.788
 8753SOL    HW127158   4.079   1.904   5.832
 8753SOL    HW227159   4.023   1.753   5.857
 8754SOL     OW27160   1.691   3.481   5.654
 8754SOL    HW127161   1.610   3.481   5.596
 8754SOL    HW227162   1.769   3.518   5.603
 8755SOL     OW27163   2.156   0.217   0.901
 8755SOL    HW127164   2.250   0.183   0.899
 8755SOL    HW227165   2.151   0.298   0.960
 8756SOL     OW27166   1.393   2.829   3.365
 8756SOL    HW127167   1.383   2.928   3.353
 8756SOL    HW227168   1.414   2.809   3.461
 8757SOL     OW27169   4.036   5.717   5.980
 8757SOL    HW127170   4.069   5.809   6.000
 8757SOL    HW227171   4.015   5.709   5.883
 8758SOL     OW27172   4.687   6.371   2.940
 8758SOL    HW127173   4.634   6.330   2.867
 8758SOL    HW227174   4.782   6.383   2.909
 8759SOL     OW27175   4.408   2.580   0.195
 8759SOL    HW127176   4.461   2.604   0.276
 8759SOL    HW227177   4.411   2.481   0.181
 8760SOL     OW27178   1.993   1.294   5.339
 8760SOL    HW127179   1.970   1.370   5.278
 8760SOL    HW227180   1.926   1.221   5.327
 8761SOL     OW27181   5.986   2.144   1.699
 8761SOL    HW127182   5.985   2.047   1.724
 8761SOL    HW227183   5.959   2.153   1.602
 8762SOL     OW27184   1.517   3.800   3.170
 8762SOL    HW127185   1.431   3.750   3.159
 8762SOL    HW227186   1.569   3.759   3.246
 8763SOL     OW27187   6.880   0.017   5.873
 8763SOL    HW127188   6.808   0.059   5.818
 8763SOL    HW227189   6.855   0.021   5.969
 8764SOL     OW27190   5.035   0.871   4.750
 8764SOL    HW127191   5.015   0.773   4.755
 8764SOL    HW227192   4.984   0.919   4.821
 8765SOL     OW27193   5.623   6.742   4.033
 8765SOL    HW127194   5.569   6.767   3.953
 8765SOL    HW227195   5.640   6.823   4.089
 8766SOL     OW27196   4.694   4.244   3.484
 8766SOL    HW127197   4.674   4.231   3.582
 8766SOL    HW227198   4.791   4.261   3.472
 8767SOL     OW27199   4.967   6.481   2.563
 8767SOL    HW127200   5.038   6.417   2.535
 8767SOL    HW227201   4.994   6.574   2.541
 8768SOL     OW27202   1.263   2.739   0.434
 8768SOL    HW127203   1.221   2.684   0.507
 8768SOL    HW227204   1.203   2.815   0.412
 8769SOL     OW27205   0.399   0.767   4.372
 8769SOL    HW127206   0.457   0.688   4.351
 8769SOL    HW227207   0.326   0.773   4.304
 8770SOL     OW27208   4.839   4.502   2.620
 8770SOL    HW127209   4.847   4.473   2.525
 8770SOL    HW227210   4.777   4.441   2.669
 8771SOL     OW27211   0.685   1.047   6.619
 8771SOL    HW127212   0.765   1.097   6.655
 8771SOL    HW227213   0.633   1.009   6.695
 8772SOL     OW27214   5.060   0.215   6.417
 8772SOL    HW127215   4.966   0.192   6.442
 8772SOL    HW227216   5.068   0.215   6.317
 8773SOL     OW27217   4.551   2.517   3.413
 8773SOL    HW127218   4.528   2.525   3.316
 8773SOL    HW227219   4.471   2.543   3.468
 8774SOL     OW27220   1.021   0.931   6.785
 8774SOL    HW127221   1.009   0.934   6.885
 8774SOL    HW227222   1.096   0.869   6.763
 8775SOL     OW27223   5.839   0.068   5.062
 8775SOL    HW127224   5.762   0.007   5.043
 8775SOL    HW227225   5.915   0.046   5.001
 8776SOL     OW27226   3.772   3.132   6.727
 8776SOL    HW127227   3.756   3.214   6.782
 8776SOL    HW227228   3.839   3.152   6.655
 8777SOL     OW27229   0.030   3.961   1.594
 8777SOL    HW127230   0.128   3.961   1.613
 8777SOL    HW227231   7.014   4.047   1.626
 8778SOL     OW27232   6.634   2.812   4.802
 8778SOL    HW127233   6.641   2.902   4.757
 8778SOL    HW227234   6.717   2.760   4.784
 8779SOL     OW27235   3.135   5.351   2.253
 8779SOL    HW127236   3.204   5.423   2.256
 8779SOL    HW227237   3.065   5.376   2.186
 8780SOL     OW27238   1.030   5.968   2.376
 8780SOL    HW127239   0.977   5.904   2.431
 8780SOL    HW227240   0.991   5.973   2.284
 8781SOL     OW27241   5.398   1.481   3.138
 8781SOL    HW127242   5.396   1.418   3.060
 8781SOL    HW227243   5.432   1.570   3.108
 8782SOL     OW27244   5.634   6.335   1.507
 8782SOL    HW127245   5.586   6.299   1.427
 8782SOL    HW227246   5.726   6.297   1.510
 8783SOL     OW27247   6.705   4.106   3.116
 8783SOL    HW127248   6.744   4.176   3.057
 8783SOL    HW227249   6.710   4.136   3.211
 8784SOL     OW27250   6.158   4.085   6.541
 8784SOL    HW127251   6.168   3.994   6.580
 8784SOL    HW227252   6.060   4.104   6.525
 8785SOL     OW27253   5.788   3.101   6.890
 8785SOL    HW127254   5.836   3.042   6.825
 8785SOL    HW227255   5.751   3.180   6.842
 8786SOL     OW27256   2.041   0.490   0.198
 8786SOL    HW127257   1.964   0.437   0.160
 8786SOL    HW227258   2.101   0.428   0.249
 8787SOL     OW27259   3.064   2.425   1.470
 8787SOL    HW127260   2.965   2.412   1.459
 8787SOL    HW227261   3.111   2.382   1.394
 8788SOL     OW27262   6.719   1.801   6.063
 8788SOL    HW127263   6.718   1.702   6.080
 8788SOL    HW227264   6.797   1.842   6.110
 8789SOL     OW27265   6.144   6.940   5.310
 8789SOL    HW127266   6.141   6.911   5.214
 8789SOL    HW227267   6.059   6.986   5.334
 8790SOL     OW27268   0.573   0.257   0.120
 8790SOL    HW127269   0.488   0.307   0.137
 8790SOL    HW227270   0.552   0.163   0.094
 8791SOL     OW27271   5.405   0.409   4.701
 8791SOL    HW127272   5.483   0.377   4.753
 8791SOL    HW227273   5.382   0.502   4.729
 8792SOL     OW27274   2.513   6.533   3.169
 8792SOL    HW127275   2.455   6.461   3.208
 8792SOL    HW227276   2.608   6.503   3.171
 8793SOL     OW27277   1.739   4.226   3.201
 8793SOL    HW127278   1.748   4.127   3.199
 8793SOL    HW227279   1.821   4.268   3.162
 8794SOL     OW27280   4.544   6.282   2.150
 8794SOL    HW127281   4.538   6.189   2.186
 8794SOL    HW227282   4.491   6.343   2.209
 8795SOL     OW27283   1.251   5.536   5.501
 8795SOL    HW127284   1.324   5.485   5.454
 8795SOL    HW227285   1.285   5.627   5.525
 8796SOL     OW27286   3.723   2.092   4.527
 8796SOL    HW127287   3.640   2.137   4.560
 8796SOL    HW227288   3.699   2.030   4.452
 8797SOL     OW27289   6.941   6.969   6.748
 8797SOL    HW127290   6.887   6.894   6.709
 8797SOL    HW227291   6.881   0.006   6.799
 8798SOL     OW27292   5.198   5.893   5.773
 8798SOL    HW127293   5.268   5.851   5.714
 8798SOL    HW227294   5.242   5.955   5.837
 8799SOL     OW27295   2.480   5.133   3.805
 8799SOL    HW127296   2.573   5.149   3.774
 8799SOL    HW227297   2.443   5.052   3.760
 8800SOL     OW27298   5.984   3.680   5.352
 8800SOL    HW127299   6.067   3.727   5.321
 8800SOL    HW227300   5.924   3.746   5.398
 8801SOL     OW27301   0.248   2.061   4.819
 8801SOL    HW127302   0.211   1.999   4.889
 8801SOL    HW227303   0.335   2.099   4.851
 8802SOL     OW27304   1.731   6.706   0.379
 8802SOL    HW127305   1.741   6.765   0.300
 8802SOL    HW227306   1.819   6.663   0.401
 8803SOL     OW27307   6.323   5.913   6.877
 8803SOL    HW127308   6.401   5.897   6.936
 8803SOL    HW227309   6.265   5.832   6.875
 8804SOL     OW27310   2.874   0.367   2.274
 8804SOL    HW127311   2.822   0.453   2.280
 8804SOL    HW227312   2.944   0.375   2.203
 8805SOL     OW27313   2.935   6.958   4.358
 8805SOL    HW127314   2.849   6.925   4.320
 8805SOL    HW227315   2.948   0.030   4.336
 8806SOL     OW27316   2.634   5.678   2.666
 8806SOL    HW127317   2.666   5.733   2.589
 8806SOL    HW227318   2.696   5.601   2.680
 8807SOL     OW27319   5.522   0.183   6.863
 8807SOL    HW127320   5.607   0.131   6.853
 8807SOL    HW227321   5.535   0.257   6.930
 8808SOL     OW27322   6.055   2.970   6.746
 8808SOL    HW127323   6.149   3.002   6.748
 8808SOL    HW227324   6.047   2.884   6.796
 8809SOL     OW27325   5.064   5.373   3.398
 8809SOL    HW127326   4.992   5.344   3.335
 8809SOL    HW227327   5.151   5.378   3.350
 8810SOL     OW27328   5.180   0.594   6.170
 8810SOL    HW127329   5.210   0.531   6.242
 8810SOL    HW227330   5.239   0.584   6.090
 8811SOL     OW27331   2.933   0.954   3.265
 8811SOL    HW127332   2.838   0.967   3.291
 8811SOL    HW227333   2.992   1.003   3.329
 8812SOL     OW27334   2.097   6.898   1.040
 8812SOL    HW127335   2.169   6.924   0.975
 8812SOL    HW227336   2.028   6.971   1.043
 8813SOL     OW27337   2.399   4.904   1.557
 8813SOL    HW127338   2.401   4.914   1.458
 8813SOL    HW227339   2.389   4.994   1.599
 8814SOL     OW27340   5.780   0.143   1.481
 8814SOL    HW127341   5.799   0.234   1.445
 8814SOL    HW227342   5.724   0.150   1.563
 8815SOL     OW27343   5.791   0.151   0.773
 8815SOL    HW127344   5.766   0.238   0.816
 8815SOL    HW227345   5.733   0.079   0.809
 8816SOL     OW27346   1.328   0.021   6.836
 8816SOL    HW127347   1.279   0.071   6.907
 8816SOL    HW227348   1.401   6.991   6.877
 8817SOL     OW27349   0.670   5.188   4.594
 8817SOL    HW127350   0.739   5.208   4.525
 8817SOL    HW227351   0.643   5.092   4.587
 8818SOL     OW27352   0.254   4.318   5.046
 8818SOL    HW127353   0.300   4.333   5.134
 8818SOL    HW227354   0.195   4.396   5.025
 8819SOL     OW27355   5.262   5.070   5.157
 8819SOL    HW127356   5.325   5.148   5.150
 8819SOL    HW227357   5.284   5.002   5.088
 8820SOL     OW27358   2.188   1.195   5.489
 8820SOL    HW127359   2.153   1.228   5.402
 8820SOL    HW227360   2.141   1.111   5.515
 8821SOL     OW27361   2.336   6.257   0.382
 8821SOL    HW127362   2.384   6.174   0.355
 8821SOL    HW227363   2.355   6.276   0.479
 8822SOL     OW27364   0.037   0.411   4.778
 8822SOL    HW127365   6.985   0.357   4.815
 8822SOL    HW227366   0.106   0.423   4.848
 8823SOL     OW27367   2.408   0.840   1.393
 8823SOL    HW127368   2.369   0.876   1.478
 8823SOL    HW227369   2.496   0.884   1.375
 8824SOL     OW27370   1.119   2.314   0.586
 8824SOL    HW127371   1.150   2.259   0.665
 8824SOL    HW227372   1.033   2.276   0.551
 8825SOL     OW27373   2.368   0.598   1.823
 8825SOL    HW127374   2.416   0.609   1.736
 8825SOL    HW227375   2.380   0.681   1.878
 8826SOL     OW27376   6.782   3.266   0.869
 8826SOL    HW127377   6.714   3.325   0.913
 8826SOL    HW227378   6.790   3.180   0.920
 8827SOL     OW27379   3.978   1.605   2.464
 8827SOL    HW127380   3.989   1.527   2.402
 8827SOL    HW227381   3.961   1.688   2.411
 8828SOL     OW27382   4.970   5.806   5.881
 8828SOL    HW127383   5.069   5.818   5.875
 8828SOL    HW227384   4.929   5.889   5.919
 8829SOL     OW27385   5.214   2.528   0.923
 8829SOL    HW127386   5.115   2.518   0.913
 8829SOL    HW227387   5.254   2.560   0.837
 8830SOL     OW27388   1.181   1.647   2.541
 8830SOL    HW127389   1.120   1.585   2.491
 8830SOL    HW227390   1.126   1.720   2.582
 8831SOL     OW27391   4.205   2.331   4.208
 8831SOL    HW127392   4.120   2.321   4.258
 8831SOL    HW227393   4.240   2.241   4.182
 8832SOL     OW27394   0.153   5.864   3.234
 8832SOL    HW127395   0.182   5.827   3.322
 8832SOL    HW227396   0.182   5.802   3.160
 8833SOL     OW27397   2.548   5.244   5.116
 8833SOL    HW127398   2.615   5.175   5.146
 8833SOL    HW227399   2.551   5.322   5.178
 8834SOL     OW27400   5.399   3.861   4.786
 8834SOL    HW127401   5.322   3.803   4.813
 8834SOL    HW227402   5.485   3.818   4.811
 8835SOL     OW27403   4.931   0.857   6.033
 8835SOL    HW127404   5.002   0.887   5.969
 8835SOL    HW227405   4.915   0.928   6.101
 8836SOL     OW27406   5.613   2.880   0.086
 8836SOL    HW127407   5.537   2.916   0.032
 8836SOL    HW227408   5.692   2.941   0.077
 8837SOL     OW27409   6.915   6.142   2.755
 8837SOL    HW127410   6.867   6.197   2.688
 8837SOL    HW227411   7.014   6.146   2.738
 8838SOL     OW27412   2.012   5.593   3.232
 8838SOL    HW127413   1.940   5.557   3.172
 8838SOL    HW227414   2.080   5.522   3.248
 8839SOL     OW27415   5.711   5.351   3.346
 8839SOL    HW127416   5.781   5.341   3.275
 8839SOL    HW227417   5.731   5.288   3.421
 8840SOL     OW27418   6.849   2.271   2.393
 8840SOL    HW127419   6.825   2.295   2.299
 8840SOL    HW227420   6.795   2.327   2.457
 8841SOL     OW27421   0.878   1.263   5.408
 8841SOL    HW127422   0.912   1.199   5.477
 8841SOL    HW227423   0.814   1.327   5.451
 8842SOL     OW27424   3.603   2.859   2.532
 8842SOL    HW127425   3.637   2.924   2.601
 8842SOL    HW227426   3.629   2.766   2.558
 8843SOL     OW27427   1.706   3.179   5.706
 8843SOL    HW127428   1.770   3.164   5.631
 8843SOL    HW227429   1.694   3.277   5.720
 8844SOL     OW27430   6.698   2.079   6.445
 8844SOL    HW127431   6.659   2.013   6.380
 8844SOL    HW227432   6.710   2.167   6.398
 8845SOL     OW27433   4.076   3.285   0.518
 8845SOL    HW127434   4.037   3.355   0.458
 8845SOL    HW227435   4.160   3.320   0.560
 8846SOL     OW27436   3.587   5.334   4.076
 8846SOL    HW127437   3.546   5.425   4.087
 8846SOL    HW227438   3.521   5.273   4.033
 8847SOL     OW27439   2.546   0.761   3.257
 8847SOL    HW127440   2.485   0.767   3.178
 8847SOL    HW227441   2.638   0.739   3.226
 8848SOL     OW27442   2.390   1.723   1.747
 8848SOL    HW127443   2.393   1.689   1.653
 8848SOL    HW227444   2.483   1.740   1.779
 8849SOL     OW27445   2.993   6.155   3.301
 8849SOL    HW127446   3.032   6.076   3.346
 8849SOL    HW227447   2.893   6.152   3.306
 8850SOL     OW27448   1.164   2.106   0.200
 8850SOL    HW127449   1.219   2.170   0.253
 8850SOL    HW227450   1.143   2.026   0.256
 8851SOL     OW27451   1.159   4.313   3.486
 8851SOL    HW127452   1.134   4.226   3.528
 8851SOL    HW227453   1.245   4.302   3.436
 8852SOL     OW27454   6.953   2.717   5.128
 8852SOL    HW127455   6.921   2.642   5.072
 8852SOL    HW227456   6.930   2.804   5.085
 8853SOL     OW27457   3.064   1.081   1.333
 8853SOL    HW127458   3.018   1.005   1.379
 8853SOL    HW227459   3.002   1.122   1.266
 8854SOL     OW27460   3.192   2.634   6.034
 8854SOL    HW127461   3.227   2.547   6.068
 8854SOL    HW227462   3.115   2.617   5.972
 8855SOL     OW27463   6.891   5.307   1.360
 8855SOL    HW127464   6.952   5.250   1.414
 8855SOL    HW227465   6.833   5.361   1.421
 8856SOL     OW27466   0.050   6.418   6.287
 8856SOL    HW127467   7.019   6.487   6.241
 8856SOL    HW227468   0.056   6.337   6.230
 8857SOL     OW27469   6.991   1.525   4.354
 8857SOL    HW127470   6.953   1.433   4.343
 8857SOL    HW227471   6.942   1.574   4.426
 8858SOL     OW27472   0.791   3.597   5.090
 8858SOL    HW127473   0.764   3.516   5.141
 8858SOL    HW227474   0.713   3.629   5.036
 8859SOL     OW27475   0.804   0.791   3.489
 8859SOL    HW127476   0.773   0.760   3.399
 8859SOL    HW227477   0.730   0.781   3.556
 8860SOL     OW27478   6.848   2.786   2.223
 8860SOL    HW127479   6.769   2.845   2.207
 8860SOL    HW227480   6.821   2.709   2.281
 8861SOL     OW27481   4.559   1.575   6.364
 8861SOL    HW127482   4.620   1.497   6.366
 8861SOL    HW227483   4.531   1.598   6.458
 8862SOL     OW27484   4.979   0.413   3.481
 8862SOL    HW127485   4.936   0.349   3.545
 8862SOL    HW227486   5.053   0.461   3.527
 8863SOL     OW27487   2.331   4.893   3.745
 8863SOL    HW127488   2.269   4.964   3.712
 8863SOL    HW227489   2.278   4.811   3.768
 8864SOL     OW27490   2.776   5.132   6.531
 8864SOL    HW127491   2.778   5.191   6.449
 8864SOL    HW227492   2.812   5.183   6.609
 8865SOL     OW27493   3.016   0.604   4.836
 8865SOL    HW127494   2.917   0.595   4.837
 8865SOL    HW227495   3.048   0.616   4.742
 8866SOL     OW27496   4.810   0.160   2.650
 8866SOL    HW127497   4.806   0.251   2.692
 8866SOL    HW227498   4.895   0.150   2.600
 8867SOL     OW27499   5.989   4.625   3.266
 8867SOL    HW127500   6.038   4.712   3.259
 8867SOL    HW227501   5.900   4.633   3.221
 8868SOL     OW27502   0.152   3.247   1.432
 8868SOL    HW127503   0.194   3.237   1.522
 8868SOL    HW227504   0.221   3.231   1.361
 8869SOL     OW27505   3.823   5.876   5.202
 8869SOL    HW127506   3.850   5.815   5.276
 8869SOL    HW227507   3.900   5.886   5.138
 8870SOL     OW27508   2.973   6.936   0.845
 8870SOL    HW127509   2.875   6.933   0.864
 8870SOL    HW227510   3.000   0.007   0.828
 8871SOL     OW27511   2.120   0.917   4.027
 8871SOL    HW127512   2.107   0.968   4.113
 8871SOL    HW227513   2.184   0.842   4.043
 8872SOL     OW27514   1.733   4.551   5.147
 8872SOL    HW127515   1.812   4.492   5.163
 8872SOL    HW227516   1.708   4.547   5.050
 8873SOL     OW27517   0.518   6.414   2.277
 8873SOL    HW127518   0.566   6.473   2.212
 8873SOL    HW227519   0.479   6.470   2.350
 8874SOL     OW27520   2.111   6.161   2.994
 8874SOL    HW127521   2.162   6.245   2.977
 8874SOL    HW227522   2.042   6.149   2.922
 8875SOL     OW27523   0.345   3.962   4.775
 8875SOL    HW127524   0.389   3.990   4.690
 8875SOL    HW227525   0.363   3.865   4.791
 8876SOL     OW27526   2.119   6.487   5.670
 8876SOL    HW127527   2.067   6.476   5.755
 8876SOL    HW227528   2.153   6.398   5.640
 8877SOL     OW27529   2.967   1.651   3.914
 8877SOL    HW127530   2.893   1.649   3.982
 8877SOL    HW227531   2.961   1.569   3.856
 8878SOL     OW27532   5.865   4.716   1.135
 8878SOL    HW127533   5.939   4.731   1.068
 8878SOL    HW227534   5.778   4.710   1.087
 8879SOL     OW27535   4.879   4.465   2.331
 8879SOL    HW127536   4.807   4.535   2.333
 8879SOL    HW227537   4.842   4.382   2.290
 8880SOL     OW27538   4.287   6.167   4.670
 8880SOL    HW127539   4.322   6.123   4.752
 8880SOL    HW227540   4.211   6.114   4.633
 8881SOL     OW27541   5.167   6.772   3.594
 8881SOL    HW127542   5.127   6.862   3.574
 8881SOL    HW227543   5.107   6.701   3.558
 8882SOL     OW27544   5.254   0.713   1.322
 8882SOL    HW127545   5.191   0.785   1.295
 8882SOL    HW227546   5.338   0.721   1.268
 8883SOL     OW27547   1.454   6.197   6.256
 8883SOL    HW127548   1.518   6.270   6.231
 8883SOL    HW227549   1.505   6.121   6.296
 8884SOL     OW27550   6.078   4.009   5.109
 8884SOL    HW127551   6.145   3.965   5.168
 8884SOL    HW227552   5.988   4.008   5.155
 8885SOL     OW27553   5.713   4.284   1.691
 8885SOL    HW127554   5.710   4.284   1.591
 8885SOL    HW227555   5.807   4.304   1.721
 8886SOL     OW27556   2.983   5.796   4.906
 8886SOL    HW127557   3.052   5.740   4.861
 8886SOL    HW227558   2.958   5.873   4.847
 8887SOL     OW27559   4.054   0.658   0.717
 8887SOL    HW127560   4.027   0.581   0.660
 8887SOL    HW227561   4.151   0.649   0.740
 8888SOL     OW27562   1.955   1.339   5.627
 8888SOL    HW127563   1.994   1.428   5.654
 8888SOL    HW227564   1.979   1.320   5.531
 8889SOL     OW27565   6.641   6.989   0.250
 8889SOL    HW127566   6.589   0.047   0.226
 8889SOL    HW227567   6.626   6.968   0.347
 8890SOL     OW27568   0.257   6.139   5.698
 8890SOL    HW127569   0.239   6.181   5.787
 8890SOL    HW227570   0.208   6.051   5.692
 8891SOL     OW27571   4.094   3.375   6.676
 8891SOL    HW127572   4.039   3.341   6.752
 8891SOL    HW227573   4.188   3.389   6.706
 8892SOL     OW27574   3.532   5.414   2.418
 8892SOL    HW127575   3.512   5.316   2.421
 8892SOL    HW227576   3.466   5.460   2.359
 8893SOL     OW27577   1.003   5.766   3.865
 8893SOL    HW127578   0.911   5.796   3.838
 8893SOL    HW227579   1.003   5.742   3.962
 8894SOL     OW27580   2.826   2.220   6.741
 8894SOL    HW127581   2.835   2.255   6.648
 8894SOL    HW227582   2.915   2.189   6.774
 8895SOL     OW27583   6.664   3.003   2.281
 8895SOL    HW127584   6.611   2.930   2.238
 8895SOL    HW227585   6.650   3.089   2.233
 8896SOL     OW27586   2.386   3.083   5.422
 8896SOL    HW127587   2.416   3.040   5.337
 8896SOL    HW227588   2.310   3.031   5.461
 8897SOL     OW27589   2.377   2.725   3.526
 8897SOL    HW127590   2.438   2.658   3.484
 8897SOL    HW227591   2.363   2.702   3.622
 8898SOL     OW27592   4.899   3.734   2.323
 8898SOL    HW127593   4.955   3.806   2.283
 8898SOL    HW227594   4.922   3.646   2.281
 8899SOL     OW27595   0.943   4.761   1.359
 8899SOL    HW127596   0.929   4.824   1.283
 8899SOL    HW227597   0.993   4.681   1.326
 8900SOL     OW27598   5.713   3.004   2.894
 8900SOL    HW127599   5.697   2.906   2.902
 8900SOL    HW227600   5.629   3.053   2.918
 8901SOL     OW27601   1.334   1.123   4.702
 8901SOL    HW127602   1.343   1.193   4.773
 8901SOL    HW227603   1.280   1.160   4.626
 8902SOL     OW27604   1.065   5.799   0.725
 8902SOL    HW127605   1.159   5.826   0.706
 8902SOL    HW227606   1.010   5.808   0.641
 8903SOL     OW27607   0.504   1.941   4.258
 8903SOL    HW127608   0.566   1.898   4.191
 8903SOL    HW227609   0.513   1.895   4.346
 8904SOL     OW27610   6.714   1.025   4.964
 8904SOL    HW127611   6.685   0.986   4.876
 8904SOL    HW227612   6.634   1.057   5.014
 8905SOL     OW27613   2.087   3.469   3.426
 8905SOL    HW127614   2.123   3.391   3.477
 8905SOL    HW227615   2.076   3.443   3.329
 8906SOL     OW27616   1.207   6.442   6.953
 8906SOL    HW127617   1.278   6.372   6.955
 8906SOL    HW227618   1.152   6.438   0.012
 8907SOL     OW27619   2.686   2.828   5.459
 8907SOL    HW127620   2.699   2.912   5.405
 8907SOL    HW227621   2.612   2.774   5.418
 8908SOL     OW27622   1.291   5.367   6.955
 8908SOL    HW127623   1.269   5.397   6.862
 8908SOL    HW227624   1.377   5.408   6.985
 8909SOL     OW27625   2.313   1.393   5.677
 8909SOL    HW127626   2.265   1.322   5.624
 8909SOL    HW227627   2.376   1.350   5.741
 8910SOL     OW27628   0.412   2.936   6.000
 8910SOL    HW127629   0.506   2.922   5.969
 8910SOL    HW227630   0.412   2.959   6.097
 8911SOL     OW27631   4.637   2.597   4.350
 8911SOL    HW127632   4.550   2.550   4.346
 8911SOL    HW227633   4.644   2.660   4.273
 8912SOL     OW27634   3.646   3.402   6.769
 8912SOL    HW127635   3.694   3.478   6.725
 8912SOL    HW227636   3.571   3.371   6.710
 8913SOL     OW27637   4.495   5.723   5.554
 8913SOL    HW127638   4.501   5.627   5.528
 8913SOL    HW227639   4.586   5.764   5.550
 8914SOL     OW27640   4.179   6.813   4.710
 8914SOL    HW127641   4.228   6.823   4.797
 8914SOL    HW227642   4.110   6.741   4.719
 8915SOL     OW27643   1.129   2.387   3.687
 8915SOL    HW127644   1.031   2.368   3.697
 8915SOL    HW227645   1.148   2.413   3.592
 8916SOL     OW27646   0.081   2.987   1.165
 8916SOL    HW127647   0.178   2.963   1.155
 8916SOL    HW227648   0.059   2.997   1.262
 8917SOL     OW27649   6.566   2.872   0.820
 8917SOL    HW127650   6.623   2.913   0.749
 8917SOL    HW227651   6.618   2.802   0.869
 8918SOL     OW27652   6.734   3.972   1.367
 8918SOL    HW127653   6.794   3.898   1.398
 8918SOL    HW227654   6.639   3.944   1.376
 8919SOL     OW27655   4.577   4.263   0.148
 8919SOL    HW127656   4.610   4.357   0.136
 8919SOL    HW227657   4.537   4.253   0.239
 8920SOL     OW27658   0.232   1.382   6.658
 8920SOL    HW127659   0.251   1.392   6.756
 8920SOL    HW227660   0.133   1.380   6.644
 8921SOL     OW27661   1.758   2.773   1.809
 8921SOL    HW127662   1.794   2.821   1.889
 8921SOL    HW227663   1.660   2.756   1.821
 8922SOL     OW27664   4.244   4.948   1.666
 8922SOL    HW127665   4.168   4.976   1.608
 8922SOL    HW227666   4.283   5.028   1.712
 8923SOL     OW27667   2.130   1.550   6.603
 8923SOL    HW127668   2.157   1.577   6.695
 8923SOL    HW227669   2.042   1.592   6.581
 8924SOL     OW27670   4.725   6.165   5.245
 8924SOL    HW127671   4.793   6.128   5.309
 8924SOL    HW227672   4.769   6.231   5.184
 8925SOL     OW27673   1.075   0.983   3.027
 8925SOL    HW127674   1.059   0.947   3.119
 8925SOL    HW227675   0.990   0.977   2.974
 8926SOL     OW27676   6.801   2.858   5.813
 8926SOL    HW127677   6.865   2.790   5.777
 8926SOL    HW227678   6.851   2.938   5.845
 8927SOL     OW27679   0.069   0.730   4.897
 8927SOL    HW127680   7.014   0.689   4.852
 8927SOL    HW227681   0.100   0.809   4.844
 8928SOL     OW27682   1.188   6.960   6.035
 8928SOL    HW127683   1.200   6.863   6.015
 8928SOL    HW227684   1.271   6.996   6.078
 8929SOL     OW27685   5.707   1.523   4.983
 8929SOL    HW127686   5.647   1.477   5.048
 8929SOL    HW227687   5.783   1.566   5.033
 8930SOL     OW27688   1.715   2.837   4.932
 8930SOL    HW127689   1.652   2.871   4.862
 8930SOL    HW227690   1.792   2.901   4.941
 8931SOL     OW27691   3.071   3.500   0.778
 8931SOL    HW127692   2.992   3.456   0.820
 8931SOL    HW227693   3.113   3.561   0.845
 8932SOL     OW27694   6.410   2.195   1.552
 8932SOL    HW127695   6.472   2.249   1.496
 8932SOL    HW227696   6.459   2.156   1.630
 8933SOL     OW27697   2.542   2.796   6.334
 8933SOL    HW127698   2.568   2.819   6.428
 8933SOL    HW227699   2.615   2.823   6.272
 8934SOL     OW27700   2.384   5.154   4.657
 8934SOL    HW127701   2.385   5.215   4.736
 8934SOL    HW227702   2.467   5.170   4.602
 8935SOL     OW27703   0.545   4.695   0.444
 8935SOL    HW127704   0.519   4.699   0.540
 8935SOL    HW227705   0.632   4.647   0.435
 8936SOL     OW27706   1.298   3.683   2.644
 8936SOL    HW127707   1.252   3.769   2.666
 8936SOL    HW227708   1.345   3.649   2.726
 8937SOL     OW27709   0.446   0.375   5.831
 8937SOL    HW127710   0.533   0.421   5.817
 8937SOL    HW227711   0.371   0.435   5.802
 8938SOL     OW27712   0.646   6.300   0.449
 8938SOL    HW127713   0.644   6.208   0.489
 8938SOL    HW227714   0.607   6.297   0.357
 8939SOL     OW27715   5.167   4.261   4.257
 8939SOL    HW127716   5.140   4.286   4.164
 8939SOL    HW227717   5.122   4.176   4.283
 8940SOL     OW27718   0.392   1.115   1.747
 8940SOL    HW127719   0.378   1.197   1.692
 8940SOL    HW227720   0.380   1.034   1.690
 8941SOL     OW27721   6.270   2.556   5.184
 8941SOL    HW127722   6.227   2.630   5.131
 8941SOL    HW227723   6.213   2.535   5.263
 8942SOL     OW27724   6.286   4.962   5.555
 8942SOL    HW127725   6.315   5.057   5.571
 8942SOL    HW227726   6.321   4.904   5.629
 8943SOL     OW27727   3.769   5.481   6.271
 8943SOL    HW127728   3.715   5.566   6.275
 8943SOL    HW227729   3.784   5.456   6.176
 8944SOL     OW27730   5.789   4.945   5.728
 8944SOL    HW127731   5.772   5.022   5.789
 8944SOL    HW227732   5.847   4.974   5.652
 8945SOL     OW27733   1.205   0.629   3.019
 8945SOL    HW127734   1.249   0.668   2.939
 8945SOL    HW227735   1.263   0.642   3.099
 8946SOL     OW27736   3.268   1.702   5.240
 8946SOL    HW127737   3.292   1.681   5.145
 8946SOL    HW227738   3.268   1.801   5.254
 8947SOL     OW27739   2.001   2.886   6.640
 8947SOL    HW127740   1.924   2.924   6.589
 8947SOL    HW227741   2.025   2.948   6.715
 8948SOL     OW27742   5.860   5.932   4.961
 8948SOL    HW127743   5.806   5.895   4.885
 8948SOL    HW227744   5.873   6.030   4.949
 8949SOL     OW27745   2.871   6.622   0.728
 8949SOL    HW127746   2.877   6.540   0.670
 8949SOL    HW227747   2.793   6.677   0.700
 8950SOL     OW27748   4.692   4.224   6.385
 8950SOL    HW127749   4.687   4.177   6.297
 8950SOL    HW227750   4.601   4.231   6.425
 8951SOL     OW27751   1.050   1.606   5.353
 8951SOL    HW127752   0.964   1.594   5.304
 8951SOL    HW227753   1.116   1.537   5.322
 8952SOL     OW27754   1.317   6.432   2.709
 8952SOL    HW127755   1.289   6.525   2.686
 8952SOL    HW227756   1.379   6.435   2.787
 8953SOL     OW27757   1.955   4.102   6.630
 8953SOL    HW127758   1.862   4.083   6.662
 8953SOL    HW227759   2.018   4.033   6.665
 8954SOL     OW27760   0.971   0.036   4.899
 8954SOL    HW127761   0.955   6.978   4.845
 8954SOL    HW227762   0.983   0.114   4.838
 8955SOL     OW27763   6.932   5.026   2.341
 8955SOL    HW127764   6.855   5.073   2.296
 8955SOL    HW227765   7.013   5.033   2.283
 8956SOL     OW27766   1.543   1.032   6.754
 8956SOL    HW127767   1.493   0.961   6.804
 8956SOL    HW227768   1.507   1.122   6.780
 8957SOL     OW27769   2.848   4.936   0.847
 8957SOL    HW127770   2.915   4.912   0.916
 8957SOL    HW227771   2.894   4.947   0.759
 8958SOL     OW27772   0.365   1.634   4.859
 8958SOL    HW127773   0.380   1.542   4.822
 8958SOL    HW227774   0.270   1.642   4.890
 8959SOL     OW27775   1.889   4.703   1.926
 8959SOL    HW127776   1.843   4.747   2.003
 8959SOL    HW227777   1.932   4.772   1.869
 8960SOL     OW27778   4.571   4.783   2.562
 8960SOL    HW127779   4.545   4.687   2.575
 8960SOL    HW227780   4.501   4.842   2.604
 8961SOL     OW27781   2.558   0.997   4.298
 8961SOL    HW127782   2.482   0.961   4.352
 8961SOL    HW227783   2.542   0.978   4.201
 8962SOL     OW27784   6.600   5.727   2.608
 8962SOL    HW127785   6.655   5.644   2.604
 8962SOL    HW227786   6.629   5.783   2.686
 8963SOL     OW27787   4.018   6.256   3.990
 8963SOL    HW127788   3.932   6.229   4.032
 8963SOL    HW227789   4.066   6.174   3.957
 8964SOL     OW27790   4.904   3.512   2.849
 8964SOL    HW127791   4.896   3.419   2.886
 8964SOL    HW227792   4.902   3.508   2.749
 8965SOL     OW27793   2.583   4.720   0.289
 8965SOL    HW127794   2.628   4.686   0.206
 8965SOL    HW227795   2.485   4.728   0.274
 8966SOL     OW27796   0.165   4.420   0.223
 8966SOL    HW127797   0.209   4.506   0.198
 8966SOL    HW227798   0.132   4.426   0.317
 8967SOL     OW27799   4.116   0.329   1.481
 8967SOL    HW127800   4.202   0.280   1.493
 8967SOL    HW227801   4.065   0.330   1.567
 8968SOL     OW27802   4.621   5.390   3.015
 8968SOL    HW127803   4.534   5.353   2.981
 8968SOL    HW227804   4.676   5.421   2.937
 8969SOL     OW27805   6.636   1.459   4.698
 8969SOL    HW127806   6.599   1.549   4.720
 8969SOL    HW227807   6.724   1.447   4.744
 8970SOL     OW27808   2.537   2.773   0.373
 8970SOL    HW127809   2.525   2.857   0.320
 8970SOL    HW227810   2.454   2.718   0.368
 8971SOL     OW27811   5.782   5.317   1.157
 8971SOL    HW127812   5.858   5.272   1.205
 8971SOL    HW227813   5.722   5.248   1.117
 8972SOL     OW27814   5.224   4.266   6.880
 8972SOL    HW127815   5.136   4.311   6.860
 8972SOL    HW227816   5.290   4.289   6.809
 8973SOL     OW27817   0.618   3.190   2.623
 8973SOL    HW127818   0.588   3.278   2.660
 8973SOL    HW227819   0.618   3.121   2.696
 8974SOL     OW27820   1.312   4.492   5.195
 8974SOL    HW127821   1.279   4.575   5.149
 8974SOL    HW227822   1.382   4.517   5.262
 8975SOL     OW27823   1.487   6.636   5.797
 8975SOL    HW127824   1.552   6.568   5.830
 8975SOL    HW227825   1.449   6.605   5.709
 8976SOL     OW27826   6.875   4.868   5.954
 8976SOL    HW127827   6.800   4.856   6.019
 8976SOL    HW227828   6.839   4.899   5.866
 8977SOL     OW27829   6.302   2.762   0.013
 8977SOL    HW127830   6.301   2.834   0.083
 8977SOL    HW227831   6.223   2.701   0.027
 8978SOL     OW27832   5.820   0.030   4.153
 8978SOL    HW127833   5.803   0.017   4.055
 8978SOL    HW227834   5.815   0.128   4.175
 8979SOL     OW27835   1.210   4.036   4.421
 8979SOL    HW127836   1.212   3.962   4.354
 8979SOL    HW227837   1.280   4.020   4.491
 8980SOL     OW27838   3.533   2.554   5.456
 8980SOL    HW127839   3.512   2.497   5.536
 8980SOL    HW227840   3.450   2.567   5.401
 8981SOL     OW27841   4.030   0.995   5.691
 8981SOL    HW127842   3.958   0.955   5.634
 8981SOL    HW227843   4.094   0.924   5.719
 8982SOL     OW27844   0.766   2.149   1.692
 8982SOL    HW127845   0.807   2.074   1.743
 8982SOL    HW227846   0.740   2.222   1.755
 8983SOL     OW27847   1.358   5.738   0.060
 8983SOL    HW127848   1.268   5.720   0.021
 8983SOL    HW227849   1.358   5.714   0.157
 8984SOL     OW27850   6.447   0.098   3.802
 8984SOL    HW127851   6.464   0.182   3.752
 8984SOL    HW227852   6.521   0.083   3.868
 8985SOL     OW27853   2.931   1.887   1.069
 8985SOL    HW127854   3.006   1.834   1.029
 8985SOL    HW227855   2.948   1.985   1.054
 8986SOL     OW27856   4.364   5.045   2.114
 8986SOL    HW127857   4.302   5.025   2.190
 8986SOL    HW227858   4.425   4.967   2.099
 8987SOL     OW27859   5.034   0.033   0.885
 8987SOL    HW127860   5.008   0.027   0.789
 8987SOL    HW227861   4.959   7.024   0.942
 8988SOL     OW27862   0.935   3.893   6.046
 8988SOL    HW127863   0.862   3.866   5.983
 8988SOL    HW227864   0.959   3.815   6.104
 8989SOL     OW27865   4.589   3.969   1.519
 8989SOL    HW127866   4.661   3.928   1.576
 8989SOL    HW227867   4.589   3.924   1.429
 8990SOL     OW27868   1.825   5.948   2.965
 8990SOL    HW127869   1.732   5.914   2.955
 8990SOL    HW227870   1.857   5.931   3.058
 8991SOL     OW27871   1.330   1.354   6.891
 8991SOL    HW127872   1.424   1.356   6.856
 8991SOL    HW227873   1.303   1.259   6.909
 8992SOL     OW27874   5.955   1.953   0.079
 8992SOL    HW127875   5.892   1.921   0.008
 8992SOL    HW227876   6.038   1.898   0.077
 8993SOL     OW27877   4.539   2.230   2.535
 8993SOL    HW127878   4.568   2.156   2.475
 8993SOL    HW227879   4.460   2.277   2.496
 8994SOL     OW27880   1.331   5.075   4.571
 8994SOL    HW127881   1.374   5.089   4.660
 8994SOL    HW227882   1.369   5.140   4.505
 8995SOL     OW27883   0.701   2.127   0.121
 8995SOL    HW127884   0.755   2.204   0.154
 8995SOL    HW227885   0.644   2.092   0.196
 8996SOL     OW27886   6.307   5.057   1.178
 8996SOL    HW127887   6.368   5.122   1.132
 8996SOL    HW227888   6.340   4.964   1.162
 8997SOL     OW27889   4.623   1.205   6.052
 8997SOL    HW127890   4.549   1.173   5.993
 8997SOL    HW227891   4.701   1.233   5.996
 8998SOL     OW27892   6.609   3.942   4.842
 8998SOL    HW127893   6.519   3.903   4.860
 8998SOL    HW227894   6.610   4.039   4.867
 8999SOL     OW27895   5.118   6.317   0.306
 8999SOL    HW127896   5.125   6.218   0.315
 8999SOL    HW227897   5.022   6.344   0.304
 9000SOL     OW27898   2.284   4.270   0.866
 9000SOL    HW127899   2.283   4.180   0.910
 9000SOL    HW227900   2.283   4.259   0.767
 9001SOL     OW27901   0.975   5.275   2.525
 9001SOL    HW127902   0.990   5.374   2.522
 9001SOL    HW227903   1.037   5.234   2.592
 9002SOL     OW27904   7.010   4.834   5.404
 9002SOL    HW127905   6.954   4.914   5.426
 9002SOL    HW227906   6.960   4.774   5.341
 9003SOL     OW27907   5.170   2.716   1.464
 9003SOL    HW127908   5.088   2.692   1.515
 9003SOL    HW227909   5.228   2.635   1.454
 9004SOL     OW27910   4.294   6.463   1.312
 9004SOL    HW127911   4.265   6.395   1.245
 9004SOL    HW227912   4.218   6.525   1.332
 9005SOL     OW27913   5.358   2.567   4.302
 9005SOL    HW127914   5.323   2.495   4.361
 9005SOL    HW227915   5.359   2.654   4.353
 9006SOL     OW27916   2.644   6.736   0.641
 9006SOL    HW127917   2.551   6.754   0.672
 9006SOL    HW227918   2.678   6.815   0.591
 9007SOL     OW27919   3.619   1.035   4.270
 9007SOL    HW127920   3.599   0.985   4.355
 9007SOL    HW227921   3.622   0.971   4.194
 9008SOL     OW27922   1.183   6.102   2.970
 9008SOL    HW127923   1.209   6.030   2.906
 9008SOL    HW227924   1.143   6.179   2.920
 9009SOL     OW27925   3.179   0.516   0.636
 9009SOL    HW127926   3.126   0.460   0.699
 9009SOL    HW227927   3.174   0.612   0.663
 9010SOL     OW27928   1.440   6.395   3.963
 9010SOL    HW127929   1.501   6.412   4.040
 9010SOL    HW227930   1.494   6.383   3.880
 9011SOL     OW27931   5.109   2.736   2.175
 9011SOL    HW127932   5.083   2.758   2.080
 9011SOL    HW227933   5.069   2.804   2.236
 9012SOL     OW27934   2.477   4.177   1.420
 9012SOL    HW127935   2.388   4.167   1.464
 9012SOL    HW227936   2.471   4.244   1.346
 9013SOL     OW27937   6.937   6.501   5.425
 9013SOL    HW127938   6.942   6.593   5.385
 9013SOL    HW227939   6.842   6.483   5.453
 9014SOL     OW27940   6.479   1.949   0.320
 9014SOL    HW127941   6.384   1.921   0.308
 9014SOL    HW227942   6.501   1.950   0.418
 9015SOL     OW27943   5.205   1.398   1.293
 9015SOL    HW127944   5.186   1.355   1.205
 9015SOL    HW227945   5.301   1.426   1.297
 9016SOL     OW27946   0.749   6.992   6.598
 9016SOL    HW127947   0.741   6.957   6.505
 9016SOL    HW227948   0.762   0.066   6.596
 9017SOL     OW27949   4.324   2.009   3.085
 9017SOL    HW127950   4.289   1.921   3.053
 9017SOL    HW227951   4.249   2.066   3.117
 9018SOL     OW27952   4.203   1.988   0.399
 9018SOL    HW127953   4.251   1.932   0.333
 9018SOL    HW227954   4.233   2.083   0.390
 9019SOL     OW27955   1.542   0.121   2.331
 9019SOL    HW127956   1.612   0.065   2.287
 9019SOL    HW227957   1.457   0.118   2.278
 9020SOL     OW27958   0.576   4.032   1.639
 9020SOL    HW127959   0.634   3.954   1.616
 9020SOL    HW227960   0.507   4.044   1.568
 9021SOL     OW27961   6.669   0.171   4.277
 9021SOL    HW127962   6.588   0.229   4.270
 9021SOL    HW227963   6.642   0.078   4.300
 9022SOL     OW27964   3.029   2.568   6.958
 9022SOL    HW127965   3.103   2.501   6.957
 9022SOL    HW227966   2.955   2.538   6.899
 9023SOL     OW27967   2.986   3.187   2.436
 9023SOL    HW127968   2.897   3.231   2.431
 9023SOL    HW227969   3.056   3.256   2.459
 9024SOL     OW27970   0.668   4.453   4.987
 9024SOL    HW127971   0.643   4.445   4.890
 9024SOL    HW227972   0.633   4.540   5.023
 9025SOL     OW27973   0.921   5.160   0.371
 9025SOL    HW127974   0.966   5.215   0.442
 9025SOL    HW227975   0.971   5.169   0.285
 9026SOL     OW27976   4.199   3.544   1.278
 9026SOL    HW127977   4.168   3.499   1.362
 9026SOL    HW227978   4.138   3.518   1.203
 9027SOL     OW27979   1.338   2.615   4.263
 9027SOL    HW127980   1.400   2.636   4.187
 9027SOL    HW227981   1.311   2.700   4.308
 9028SOL     OW27982   2.412   3.542   5.459
 9028SOL    HW127983   2.395   3.501   5.549
 9028SOL    HW227984   2.377   3.636   5.459
 9029SOL     OW27985   3.455   6.164   5.117
 9029SOL    HW127986   3.476   6.072   5.083
 9029SOL    HW227987   3.480   6.170   5.214
 9030SOL     OW27988   2.223   1.875   3.360
 9030SOL    HW127989   2.227   1.912   3.268
 9030SOL    HW227990   2.307   1.898   3.410
 9031SOL     OW27991   4.266   5.775   4.460
 9031SOL    HW127992   4.227   5.796   4.371
 9031SOL    HW227993   4.365   5.765   4.452
 9032SOL     OW27994   4.037   3.107   0.308
 9032SOL    HW127995   3.937   3.101   0.306
 9032SOL    HW227996   4.065   3.179   0.371
 9033SOL     OW27997   1.161   3.903   3.241
 9033SOL    HW127998   1.078   3.929   3.290
 9033SOL    HW227999   1.141   3.827   3.178
 9034SOL     OW28000   2.714   0.167   5.587
 9034SOL    HW128001   2.642   0.191   5.522
 9034SOL    HW228002   2.681   0.094   5.647
 9035SOL     OW28003   1.269   4.920   6.035
 9035SOL    HW128004   1.336   4.846   6.024
 9035SOL    HW228005   1.179   4.880   6.054
 9036SOL     OW28006   1.695   1.404   5.594
 9036SOL    HW128007   1.649   1.381   5.679
 9036SOL    HW228008   1.794   1.403   5.608
 9037SOL     OW28009   1.127   4.153   5.489
 9037SOL    HW128010   1.211   4.126   5.536
 9037SOL    HW228011   1.147   4.167   5.392
 9038SOL     OW28012   4.521   6.888   5.720
 9038SOL    HW128013   4.534   6.820   5.792
 9038SOL    HW228014   4.459   6.960   5.753
 9039SOL     OW28015   2.793   5.479   5.122
 9039SOL    HW128016   2.863   5.423   5.078
 9039SOL    HW228017   2.827   5.572   5.134
 9040SOL     OW28018   3.266   1.719   2.437
 9040SOL    HW128019   3.331   1.732   2.362
 9040SOL    HW228020   3.314   1.735   2.524
 9041SOL     OW28021   1.060   2.490   1.480
 9041SOL    HW128022   1.115   2.420   1.525
 9041SOL    HW228023   0.972   2.451   1.453
 9042SOL     OW28024   3.096   0.138   4.048
 9042SOL    HW128025   3.119   0.228   4.012
 9042SOL    HW228026   3.068   0.146   4.144
 9043SOL     OW28027   1.554   1.165   0.165
 9043SOL    HW128028   1.636   1.171   0.223
 9043SOL    HW228029   1.528   1.257   0.135
 9044SOL     OW28030   6.240   0.819   0.631
 9044SOL    HW128031   6.338   0.839   0.622
 9044SOL    HW228032   6.190   0.866   0.559
 9045SOL     OW28033   2.277   1.398   2.439
 9045SOL    HW128034   2.254   1.435   2.529
 9045SOL    HW228035   2.194   1.367   2.393
 9046SOL     OW28036   3.761   3.620   3.326
 9046SOL    HW128037   3.661   3.617   3.328
 9046SOL    HW228038   3.796   3.643   3.416
 9047SOL     OW28039   1.369   3.314   5.927
 9047SOL    HW128040   1.301   3.287   5.858
 9047SOL    HW228041   1.431   3.382   5.889
 9048SOL     OW28042   5.662   2.882   6.075
 9048SOL    HW128043   5.653   2.792   6.117
 9048SOL    HW228044   5.732   2.934   6.123
 9049SOL     OW28045   3.427   0.201   5.815
 9049SOL    HW128046   3.450   0.114   5.771
 9049SOL    HW228047   3.344   0.189   5.870
 9050SOL     OW28048   0.141   3.253   0.180
 9050SOL    HW128049   0.042   3.258   0.178
 9050SOL    HW228050   0.178   3.342   0.208
 9051SOL     OW28051   4.086   6.844   0.749
 9051SOL    HW128052   4.163   6.791   0.712
 9051SOL    HW228053   4.107   6.942   0.744
 9052SOL     OW28054   2.413   2.330   3.677
 9052SOL    HW128055   2.363   2.277   3.609
 9052SOL    HW228056   2.432   2.273   3.757
 9053SOL     OW28057   2.202   1.492   2.708
 9053SOL    HW128058   2.178   1.588   2.688
 9053SOL    HW228059   2.144   1.458   2.781
 9054SOL     OW28060   2.548   5.981   3.012
 9054SOL    HW128061   2.474   5.934   3.061
 9054SOL    HW228062   2.553   5.946   2.918
 9055SOL     OW28063   5.717   2.864   4.177
 9055SOL    HW128064   5.772   2.841   4.257
 9055SOL    HW228065   5.715   2.787   4.114
 9056SOL     OW28066   0.349   1.298   2.299
 9056SOL    HW128067   0.333   1.255   2.210
 9056SOL    HW228068   0.287   1.375   2.311
 9057SOL     OW28069   5.596   4.537   5.922
 9057SOL    HW128070   5.649   4.462   5.881
 9057SOL    HW228071   5.499   4.517   5.913
 9058SOL     OW28072   2.692   1.995   2.635
 9058SOL    HW128073   2.652   2.004   2.726
 9058SOL    HW228074   2.620   1.992   2.566
 9059SOL     OW28075   1.093   2.247   4.216
 9059SOL    HW128076   1.075   2.166   4.272
 9059SOL    HW228077   1.089   2.222   4.119
 9060SOL     OW28078   6.564   2.909   3.484
 9060SOL    HW128079   6.625   2.848   3.534
 9060SOL    HW228080   6.472   2.870   3.482
 9061SOL     OW28081   2.366   5.868   2.380
 9061SOL    HW128082   2.461   5.840   2.369
 9061SOL    HW228083   2.354   5.961   2.345
 9062SOL     OW28084   1.495   6.030   2.265
 9062SOL    HW128085   1.457   6.038   2.357
 9062SOL    HW228086   1.583   6.078   2.261
 9063SOL     OW28087   2.107   0.198   3.076
 9063SOL    HW128088   2.114   0.295   3.051
 9063SOL    HW228089   2.196   0.166   3.109
 9064SOL     OW28090   6.130   2.048   5.224
 9064SOL    HW128091   6.086   2.011   5.142
 9064SOL    HW228092   6.150   1.973   5.287
 9065SOL     OW28093   3.171   7.017   5.733
 9065SOL    HW128094   3.080   0.015   5.698
 9065SOL    HW228095   3.178   0.019   5.829
 9066SOL     OW28096   4.860   6.378   0.795
 9066SOL    HW128097   4.912   6.383   0.711
 9066SOL    HW228098   4.811   6.464   0.810
 9067SOL     OW28099   6.816   0.997   4.417
 9067SOL    HW128100   6.773   0.908   4.403
 9067SOL    HW228101   6.754   1.055   4.470
 9068SOL     OW28102   2.219   6.387   4.548
 9068SOL    HW128103   2.275   6.358   4.625
 9068SOL    HW228104   2.122   6.388   4.574
 9069SOL     OW28105   1.541   3.255   1.784
 9069SOL    HW128106   1.574   3.200   1.707
 9069SOL    HW228107   1.618   3.308   1.822
 9070SOL     OW28108   1.094   4.102   4.707
 9070SOL    HW128109   0.997   4.122   4.713
 9070SOL    HW228110   1.125   4.114   4.612
 9071SOL     OW28111   5.136   0.488   1.670
 9071SOL    HW128112   5.113   0.424   1.744
 9071SOL    HW228113   5.114   0.447   1.582
 9072SOL     OW28114   0.162   1.417   1.991
 9072SOL    HW128115   0.170   1.461   2.080
 9072SOL    HW228116   0.080   1.450   1.944
 9073SOL     OW28117   2.814   6.793   2.673
 9073SOL    HW128118   2.750   6.850   2.724
 9073SOL    HW228119   2.908   6.813   2.702
 9074SOL     OW28120   1.524   1.881   1.871
 9074SOL    HW128121   1.558   1.810   1.933
 9074SOL    HW228122   1.557   1.970   1.903
 9075SOL     OW28123   0.883   1.307   2.300
 9075SOL    HW128124   0.822   1.289   2.222
 9075SOL    HW228125   0.841   1.271   2.384
 9076SOL     OW28126   6.447   2.051   5.821
 9076SOL    HW128127   6.452   1.965   5.770
 9076SOL    HW228128   6.540   2.086   5.835
 9077SOL     OW28129   4.488   0.221   6.997
 9077SOL    HW128130   4.569   0.242   6.944
 9077SOL    HW228131   4.508   0.230   0.070
 9078SOL     OW28132   4.539   3.318   6.130
 9078SOL    HW128133   4.615   3.305   6.066
 9078SOL    HW228134   4.503   3.411   6.120
 9079SOL     OW28135   3.296   0.333   4.347
 9079SOL    HW128136   3.227   0.394   4.309
 9079SOL    HW228137   3.386   0.357   4.311
 9080SOL     OW28138   4.554   2.452   6.762
 9080SOL    HW128139   4.479   2.430   6.699
 9080SOL    HW228140   4.519   2.510   6.836
 9081SOL     OW28141   3.821   6.385   2.337
 9081SOL    HW128142   3.766   6.453   2.385
 9081SOL    HW228143   3.771   6.353   2.257
 9082SOL     OW28144   2.184   0.095   5.508
 9082SOL    HW128145   2.188   0.195   5.509
 9082SOL    HW228146   2.092   0.066   5.481
 9083SOL     OW28147   3.315   6.032   6.224
 9083SOL    HW128148   3.353   6.012   6.134
 9083SOL    HW228149   3.286   5.946   6.268
 9084SOL     OW28150   3.138   4.038   4.581
 9084SOL    HW128151   3.050   3.999   4.556
 9084SOL    HW228152   3.193   4.051   4.499
 9085SOL     OW28153   2.368   6.678   1.770
 9085SOL    HW128154   2.311   6.731   1.708
 9085SOL    HW228155   2.313   6.648   1.848
 9086SOL     OW28156   1.154   4.352   0.585
 9086SOL    HW128157   1.243   4.324   0.622
 9086SOL    HW228158   1.083   4.331   0.652
 9087SOL     OW28159   4.270   2.341   1.513
 9087SOL    HW128160   4.274   2.393   1.598
 9087SOL    HW228161   4.207   2.386   1.450
 9088SOL     OW28162   6.830   6.793   0.917
 9088SOL    HW128163   6.741   6.785   0.871
 9088SOL    HW228164   6.876   6.705   0.918
 9089SOL     OW28165   5.401   5.713   5.693
 9089SOL    HW128166   5.387   5.694   5.790
 9089SOL    HW228167   5.439   5.631   5.649
 9090SOL     OW28168   0.119   1.211   4.248
 9090SOL    HW128169   0.181   1.263   4.307
 9090SOL    HW228170   0.027   1.214   4.285
 9091SOL     OW28171   3.280   4.458   6.694
 9091SOL    HW128172   3.343   4.433   6.767
 9091SOL    HW228173   3.293   4.554   6.669
 9092SOL     OW28174   6.398   0.956   0.056
 9092SOL    HW128175   6.306   0.956   0.018
 9092SOL    HW228176   6.412   0.873   0.111
 9093SOL     OW28177   0.729   5.762   5.968
 9093SOL    HW128178   0.796   5.835   5.980
 9093SOL    HW228179   0.770   5.675   5.993
 9094SOL     OW28180   6.394   4.946   3.199
 9094SOL    HW128181   6.370   4.850   3.212
 9094SOL    HW228182   6.442   4.957   3.112
 9095SOL     OW28183   4.568   4.554   5.897
 9095SOL    HW128184   4.610   4.612   5.967
 9095SOL    HW228185   4.620   4.562   5.811
 9096SOL     OW28186   5.920   4.929   2.913
 9096SOL    HW128187   5.826   4.900   2.930
 9096SOL    HW228188   5.922   5.000   2.842
 9097SOL     OW28189   1.212   1.794   1.059
 9097SOL    HW128190   1.278   1.759   1.126
 9097SOL    HW228191   1.245   1.775   0.967
 9098SOL     OW28192   3.129   2.128   4.499
 9098SOL    HW128193   3.065   2.116   4.575
 9098SOL    HW228194   3.090   2.192   4.432
 9099SOL     OW28195   3.446   3.076   5.953
 9099SOL    HW128196   3.383   3.100   5.880
 9099SOL    HW228197   3.539   3.104   5.929
 9100SOL     OW28198   0.374   3.330   3.566
 9100SOL    HW128199   0.324   3.324   3.479
 9100SOL    HW228200   0.395   3.238   3.599
 9101SOL     OW28201   2.625   2.541   1.805
 9101SOL    HW128202   2.573   2.456   1.816
 9101SOL    HW228203   2.715   2.531   1.846
 9102SOL     OW28204   3.995   6.364   1.909
 9102SOL    HW128205   4.024   6.384   1.815
 9102SOL    HW228206   4.017   6.269   1.931
 9103SOL     OW28207   6.185   2.623   6.598
 9103SOL    HW128208   6.197   2.544   6.659
 9103SOL    HW228209   6.207   2.596   6.505
 9104SOL     OW28210   6.814   6.058   1.610
 9104SOL    HW128211   6.845   5.970   1.646
 9104SOL    HW228212   6.821   6.127   1.681
 9105SOL     OW28213   0.584   1.095   6.382
 9105SOL    HW128214   0.610   1.048   6.466
 9105SOL    HW228215   0.636   1.180   6.374
 9106SOL     OW28216   5.789   3.873   1.524
 9106SOL    HW128217   5.845   3.912   1.597
 9106SOL    HW228218   5.841   3.871   1.438
 9107SOL     OW28219   2.444   0.750   6.722
 9107SOL    HW128220   2.400   0.695   6.651
 9107SOL    HW228221   2.429   0.847   6.702
 9108SOL     OW28222   5.112   4.593   5.075
 9108SOL    HW128223   5.157   4.678   5.104
 9108SOL    HW228224   5.148   4.565   4.986
 9109SOL     OW28225   6.345   3.671   2.953
 9109SOL    HW128226   6.308   3.754   2.994
 9109SOL    HW228227   6.304   3.658   2.863
 9110SOL     OW28228   2.113   4.840   4.280
 9110SOL    HW128229   2.090   4.936   4.264
 9110SOL    HW228230   2.207   4.834   4.313
 9111SOL     OW28231   4.904   2.610   0.137
 9111SOL    HW128232   4.837   2.675   0.102
 9111SOL    HW228233   4.859   2.521   0.153
 9112SOL     OW28234   1.692   6.056   2.585
 9112SOL    HW128235   1.710   6.117   2.508
 9112SOL    HW228236   1.596   6.030   2.585
 9113SOL     OW28237   5.305   2.806   2.501
 9113SOL    HW128238   5.236   2.852   2.444
 9113SOL    HW228239   5.260   2.757   2.575
 9114SOL     OW28240   6.981   5.305   3.349
 9114SOL    HW128241   6.968   5.295   3.251
 9114SOL    HW228242   6.902   5.352   3.389
 9115SOL     OW28243   6.254   5.311   5.203
 9115SOL    HW128244   6.289   5.327   5.110
 9115SOL    HW228245   6.220   5.398   5.240
 9116SOL     OW28246   0.527   6.921   2.908
 9116SOL    HW128247   0.601   6.987   2.926
 9116SOL    HW228248   0.471   6.954   2.832
 9117SOL     OW28249   3.453   2.772   5.908
 9117SOL    HW128250   3.363   2.741   5.939
 9117SOL    HW228251   3.468   2.866   5.939
 9118SOL     OW28252   6.560   3.521   0.160
 9118SOL    HW128253   6.481   3.535   0.220
 9118SOL    HW228254   6.532   3.532   0.065
 9119SOL     OW28255   3.431   0.999   2.262
 9119SOL    HW128256   3.469   0.991   2.170
 9119SOL    HW228257   3.393   1.090   2.276
 9120SOL     OW28258   6.930   2.050   5.850
 9120SOL    HW128259   7.004   2.069   5.785
 9120SOL    HW228260   6.920   1.951   5.862
 9121SOL     OW28261   3.117   6.029   4.571
 9121SOL    HW128262   3.040   6.090   4.590
 9121SOL    HW228263   3.139   5.977   4.654
 9122SOL     OW28264   2.363   4.515   2.126
 9122SOL    HW128265   2.417   4.522   2.210
 9122SOL    HW228266   2.420   4.538   2.047
 9123SOL     OW28267   1.974   0.775   4.370
 9123SOL    HW128268   1.974   0.712   4.293
 9123SOL    HW228269   1.884   0.774   4.415
 9124SOL     OW28270   3.748   5.425   0.480
 9124SOL    HW128271   3.656   5.445   0.447
 9124SOL    HW228272   3.792   5.359   0.418
 9125SOL     OW28273   4.043   4.757   1.282
 9125SOL    HW128274   4.039   4.762   1.183
 9125SOL    HW228275   3.974   4.819   1.321
 9126SOL     OW28276   5.187   4.028   1.759
 9126SOL    HW128277   5.248   4.105   1.740
 9126SOL    HW228278   5.187   3.966   1.680
 9127SOL     OW28279   6.765   1.563   6.283
 9127SOL    HW128280   6.844   1.549   6.223
 9127SOL    HW228281   6.741   1.478   6.328
 9128SOL     OW28282   6.326   2.273   5.153
 9128SOL    HW128283   6.241   2.221   5.156
 9128SOL    HW228284   6.306   2.370   5.144
 9129SOL     OW28285   6.222   1.853   0.312
 9129SOL    HW128286   6.200   1.829   0.218
 9129SOL    HW228287   6.177   1.788   0.374
 9130SOL     OW28288   1.680   4.452   6.685
 9130SOL    HW128289   1.679   4.482   6.780
 9130SOL    HW228290   1.692   4.530   6.625
 9131SOL     OW28291   5.240   3.310   6.148
 9131SOL    HW128292   5.204   3.370   6.219
 9131SOL    HW228293   5.177   3.309   6.070
 9132SOL     OW28294   0.866   5.452   4.266
 9132SOL    HW128295   0.843   5.426   4.360
 9132SOL    HW228296   0.809   5.529   4.238
 9133SOL     OW28297   3.675   0.147   0.866
 9133SOL    HW128298   3.607   0.129   0.937
 9133SOL    HW228299   3.630   0.183   0.785
 9134SOL     OW28300   4.140   5.377   1.107
 9134SOL    HW128301   4.079   5.381   1.027
 9134SOL    HW228302   4.215   5.443   1.095
 9135SOL     OW28303   0.679   6.993   1.742
 9135SOL    HW128304   0.769   6.974   1.781
 9135SOL    HW228305   0.670   6.944   1.655
 9136SOL     OW28306   4.789   6.531   5.506
 9136SOL    HW128307   4.860   6.523   5.435
 9136SOL    HW228308   4.830   6.562   5.591
 9137SOL     OW28309   3.732   0.438   6.728
 9137SOL    HW128310   3.739   0.410   6.633
 9137SOL    HW228311   3.818   0.481   6.757
 9138SOL     OW28312   1.119   4.081   6.800
 9138SOL    HW128313   1.192   4.049   6.740
 9138SOL    HW228314   1.152   4.156   6.857
 9139SOL     OW28315   0.998   1.539   2.360
 9139SOL    HW128316   1.000   1.594   2.276
 9139SOL    HW228317   0.973   1.445   2.337
 9140SOL     OW28318   1.107   4.298   1.998
 9140SOL    HW128319   1.062   4.365   2.057
 9140SOL    HW228320   1.040   4.230   1.968
 9141SOL     OW28321   6.141   6.655   0.802
 9141SOL    HW128322   6.160   6.650   0.704
 9141SOL    HW228323   6.044   6.634   0.818
 9142SOL     OW28324   0.697   3.692   1.151
 9142SOL    HW128325   0.665   3.606   1.191
 9142SOL    HW228326   0.659   3.702   1.059
 9143SOL     OW28327   6.658   3.470   1.053
 9143SOL    HW128328   6.689   3.551   1.004
 9143SOL    HW228329   6.646   3.492   1.150
 9144SOL     OW28330   3.563   5.144   4.623
 9144SOL    HW128331   3.537   5.066   4.681
 9144SOL    HW228332   3.605   5.110   4.538
 9145SOL     OW28333   0.493   5.876   6.501
 9145SOL    HW128334   0.425   5.814   6.543
 9145SOL    HW228335   0.520   5.945   6.568
 9146SOL     OW28336   5.327   3.655   2.821
 9146SOL    HW128337   5.375   3.742   2.838
 9146SOL    HW228338   5.229   3.667   2.838
 9147SOL     OW28339   6.779   0.586   5.006
 9147SOL    HW128340   6.799   0.502   5.057
 9147SOL    HW228341   6.840   0.659   5.039
 9148SOL     OW28342   5.764   6.649   2.008
 9148SOL    HW128343   5.810   6.736   2.029
 9148SOL    HW228344   5.665   6.660   2.018
 9149SOL     OW28345   5.488   3.258   1.911
 9149SOL    HW128346   5.391   3.260   1.888
 9149SOL    HW228347   5.502   3.199   1.990
 9150SOL     OW28348   3.483   4.322   0.403
 9150SOL    HW128349   3.387   4.333   0.428
 9150SOL    HW228350   3.520   4.239   0.447
 9151SOL     OW28351   2.157   4.239   3.112
 9151SOL    HW128352   2.139   4.141   3.121
 9151SOL    HW228353   2.251   4.252   3.080
 9152SOL     OW28354   1.773   4.235   4.530
 9152SOL    HW128355   1.864   4.223   4.570
 9152SOL    HW228356   1.763   4.173   4.452
 9153SOL     OW28357   0.224   2.439   6.675
 9153SOL    HW128358   0.230   2.396   6.765
 9153SOL    HW228359   0.128   2.446   6.649
 9154SOL     OW28360   4.803   4.163   4.241
 9154SOL    HW128361   4.793   4.126   4.333
 9154SOL    HW228362   4.730   4.229   4.224
 9155SOL     OW28363   2.592   4.684   2.522
 9155SOL    HW128364   2.566   4.781   2.531
 9155SOL    HW228365   2.691   4.676   2.531
 9156SOL     OW28366   6.782   1.899   1.763
 9156SOL    HW128367   6.743   1.857   1.844
 9156SOL    HW228368   6.861   1.845   1.732
 9157SOL     OW28369   3.296   4.153   6.691
 9157SOL    HW128370   3.297   4.242   6.645
 9157SOL    HW228371   3.201   4.124   6.704
 9158SOL     OW28372   6.599   3.851   3.836
 9158SOL    HW128373   6.646   3.838   3.924
 9158SOL    HW228374   6.593   3.949   3.816
 9159SOL     OW28375   2.051   6.958   4.004
 9159SOL    HW128376   2.044   6.880   4.066
 9159SOL    HW228377   2.141   6.957   3.959
 9160SOL     OW28378   7.004   6.141   5.846
 9160SOL    HW128379   6.936   6.196   5.894
 9160SOL    HW228380   0.002   6.185   5.759
 9161SOL     OW28381   6.507   4.899   3.494
 9161SOL    HW128382   6.494   4.825   3.559
 9161SOL    HW228383   6.506   4.862   3.401
 9162SOL     OW28384   3.696   0.373   2.852
 9162SOL    HW128385   3.623   0.391   2.918
 9162SOL    HW228386   3.742   0.459   2.829
 9163SOL     OW28387   6.901   3.465   2.975
 9163SOL    HW128388   6.886   3.563   2.987
 9163SOL    HW228389   6.821   3.415   3.009
 9164SOL     OW28390   2.012   0.982   6.596
 9164SOL    HW128391   1.930   0.924   6.607
 9164SOL    HW228392   2.004   1.061   6.657
 9165SOL     OW28393   4.524   1.679   6.118
 9165SOL    HW128394   4.529   1.639   6.210
 9165SOL    HW228395   4.471   1.764   6.121
 9166SOL     OW28396   4.683   5.526   1.422
 9166SOL    HW128397   4.688   5.495   1.327
 9166SOL    HW228398   4.591   5.559   1.442
 9167SOL     OW28399   1.481   2.534   6.074
 9167SOL    HW128400   1.538   2.550   5.993
 9167SOL    HW228401   1.511   2.451   6.120
 9168SOL     OW28402   6.849   6.441   0.017
 9168SOL    HW128403   6.879   6.458   0.111
 9168SOL    HW228404   6.790   6.515   7.011
 9169SOL     OW28405   6.299   6.091   6.114
 9169SOL    HW128406   6.290   6.184   6.077
 9169SOL    HW228407   6.277   6.092   6.212
 9170SOL     OW28408   1.942   0.568   6.315
 9170SOL    HW128409   1.881   0.640   6.349
 9170SOL    HW228410   1.900   0.479   6.330
 9171SOL     OW28411   3.524   5.397   0.930
 9171SOL    HW128412   3.602   5.356   0.882
 9171SOL    HW228413   3.480   5.465   0.872
 9172SOL     OW28414   4.428   2.051   4.483
 9172SOL    HW128415   4.393   1.974   4.536
 9172SOL    HW228416   4.519   2.077   4.518
 9173SOL     OW28417   6.060   2.994   4.608
 9173SOL    HW128418   6.018   3.083   4.592
 9173SOL    HW228419   6.085   2.953   4.520
 9174SOL     OW28420   0.866   6.122   6.803
 9174SOL    HW128421   0.881   6.194   6.870
 9174SOL    HW228422   0.905   6.150   6.715
 9175SOL     OW28423   1.368   0.145   0.164
 9175SOL    HW128424   1.446   0.205   0.142
 9175SOL    HW228425   1.389   0.053   0.132
 9176SOL     OW28426   2.415   0.007   1.284
 9176SOL    HW128427   2.459   0.047   1.204
 9176SOL    HW228428   2.365   0.078   1.334
 9177SOL     OW28429   1.715   2.595   3.982
 9177SOL    HW128430   1.624   2.591   3.942
 9177SOL    HW228431   1.707   2.601   4.082
 9178SOL     OW28432   2.082   5.571   6.030
 9178SOL    HW128433   2.100   5.494   6.091
 9178SOL    HW228434   2.149   5.644   6.047
 9179SOL     OW28435   1.738   6.124   5.266
 9179SOL    HW128436   1.639   6.134   5.277
 9179SOL    HW228437   1.758   6.051   5.201
 9180SOL     OW28438   6.455   2.533   3.506
 9180SOL    HW128439   6.548   2.551   3.540
 9180SOL    HW228440   6.407   2.619   3.493
 9181SOL     OW28441   4.856   2.973   3.703
 9181SOL    HW128442   4.828   2.938   3.613
 9181SOL    HW228443   4.893   2.897   3.757
 9182SOL     OW28444   3.052   0.709   3.401
 9182SOL    HW128445   2.980   0.641   3.415
 9182SOL    HW228446   3.010   0.799   3.387
 9183SOL     OW28447   5.300   4.020   6.162
 9183SOL    HW128448   5.302   3.920   6.168
 9183SOL    HW228449   5.368   4.051   6.096
 9184SOL     OW28450   3.867   2.055   0.961
 9184SOL    HW128451   3.928   1.979   0.940
 9184SOL    HW228452   3.786   2.050   0.903
 9185SOL     OW28453   0.422   6.452   5.667
 9185SOL    HW128454   0.352   6.498   5.612
 9185SOL    HW228455   0.377   6.401   5.740
 9186SOL     OW28456   4.811   0.586   5.151
 9186SOL    HW128457   4.895   0.535   5.170
 9186SOL    HW228458   4.832   0.682   5.138
 9187SOL     OW28459   4.593   2.166   6.791
 9187SOL    HW128460   4.559   2.258   6.811
 9187SOL    HW228461   4.519   2.111   6.752
 9188SOL     OW28462   1.039   0.568   1.828
 9188SOL    HW128463   0.993   0.607   1.908
 9188SOL    HW228464   0.974   0.512   1.776
 9189SOL     OW28465   2.849   0.030   3.623
 9189SOL    HW128466   2.841   7.022   3.717
 9189SOL    HW228467   2.830   0.129   3.620
 9190SOL     OW28468   0.000   3.173   4.976
 9190SOL    HW128469   0.012   3.204   4.881
 9190SOL    HW228470   0.076   3.207   5.032
 9191SOL     OW28471   5.117   6.983   6.503
 9191SOL    HW128472   5.181   6.987   6.426
 9191SOL    HW228473   5.084   0.050   6.525
 9192SOL     OW28474   6.126   3.183   5.962
 9192SOL    HW128475   6.159   3.100   5.917
 9192SOL    HW228476   6.147   3.179   6.060
 9193SOL     OW28477   3.569   3.894   4.065
 9193SOL    HW128478   3.580   3.977   4.010
 9193SOL    HW228479   3.496   3.838   4.024
 9194SOL     OW28480   3.654   5.863   1.938
 9194SOL    HW128481   3.715   5.937   1.911
 9194SOL    HW228482   3.667   5.843   2.036
 9195SOL     OW28483   2.315   2.639   4.325
 9195SOL    HW128484   2.339   2.703   4.397
 9195SOL    HW228485   2.230   2.592   4.349
 9196SOL     OW28486   5.656   0.300   3.711
 9196SOL    HW128487   5.707   0.378   3.675
 9196SOL    HW228488   5.708   0.256   3.783
 9197SOL     OW28489   3.804   5.285   0.075
 9197SOL    HW128490   3.773   5.262   0.167
 9197SOL    HW228491   3.744   5.241   0.008
 9198SOL     OW28492   5.840   4.151   5.857
 9198SOL    HW128493   5.826   4.195   5.768
 9198SOL    HW228494   5.752   4.130   5.899
 9199SOL     OW28495   0.181   2.800   6.293
 9199SOL    HW128496   0.148   2.809   6.199
 9199SOL    HW228497   0.262   2.857   6.305
 9200SOL     OW28498   1.603   5.830   6.706
 9200SOL    HW128499   1.588   5.863   6.613
 9200SOL    HW228500   1.603   5.730   6.706
 9201SOL     OW28501   0.436   3.540   0.917
 9201SOL    HW128502   0.364   3.505   0.976
 9201SOL    HW228503   0.518   3.484   0.927
 9202SOL     OW28504   1.275   5.777   3.936
 9202SOL    HW128505   1.176   5.778   3.929
 9202SOL    HW228506   1.302   5.754   4.030
 9203SOL     OW28507   5.297   2.092   6.434
 9203SOL    HW128508   5.252   2.178   6.458
 9203SOL    HW228509   5.252   2.017   6.482
 9204SOL     OW28510   4.932   3.602   3.325
 9204SOL    HW128511   4.922   3.514   3.279
 9204SOL    HW228512   5.018   3.605   3.374
 9205SOL     OW28513   5.125   4.122   2.354
 9205SOL    HW128514   5.099   4.088   2.444
 9205SOL    HW228515   5.209   4.176   2.362
 9206SOL     OW28516   3.088   0.161   4.322
 9206SOL    HW128517   3.166   0.208   4.364
 9206SOL    HW228518   3.007   0.174   4.380
 9207SOL     OW28519   3.804   6.092   5.974
 9207SOL    HW128520   3.796   6.180   6.021
 9207SOL    HW228521   3.900   6.071   5.958
 9208SOL     OW28522   5.856   4.619   2.122
 9208SOL    HW128523   5.788   4.667   2.177
 9208SOL    HW228524   5.811   4.563   2.053
 9209SOL     OW28525   4.265   0.554   1.875
 9209SOL    HW128526   4.263   0.469   1.822
 9209SOL    HW228527   4.352   0.560   1.925
 9210SOL     OW28528   0.672   0.901   1.539
 9210SOL    HW128529   0.646   0.975   1.477
 9210SOL    HW228530   0.707   0.824   1.486
 9211SOL     OW28531   5.272   2.820   5.618
 9211SOL    HW128532   5.319   2.830   5.530
 9211SOL    HW228533   5.321   2.753   5.675
 9212SOL     OW28534   4.758   4.133   5.016
 9212SOL    HW128535   4.764   4.067   4.941
 9212SOL    HW228536   4.817   4.211   4.996
 9213SOL     OW28537   4.925   5.843   4.050
 9213SOL    HW128538   4.951   5.757   4.094
 9213SOL    HW228539   4.947   5.919   4.110
 9214SOL     OW28540   7.020   2.256   5.352
 9214SOL    HW128541   6.958   2.200   5.297
 9214SOL    HW228542   7.021   2.350   5.317
 9215SOL     OW28543   0.624   4.551   2.751
 9215SOL    HW128544   0.533   4.553   2.710
 9215SOL    HW228545   0.617   4.575   2.847
 9216SOL     OW28546   2.593   6.726   4.719
 9216SOL    HW128547   2.640   6.643   4.753
 9216SOL    HW228548   2.620   6.743   4.624
 9217SOL     OW28549   5.449   1.566   6.582
 9217SOL    HW128550   5.355   1.584   6.554
 9217SOL    HW228551   5.500   1.652   6.585
 9218SOL     OW28552   4.316   1.463   7.021
 9218SOL    HW128553   4.320   1.425   6.929
 9218SOL    HW228554   4.405   1.503   0.020
 9219SOL     OW28555   4.339   3.305   5.707
 9219SOL    HW128556   4.275   3.276   5.778
 9219SOL    HW228557   4.420   3.246   5.709
 9220SOL     OW28558   2.193   5.959   2.716
 9220SOL    HW128559   2.187   5.885   2.649
 9220SOL    HW228560   2.111   6.016   2.710
 9221SOL     OW28561   2.377   6.936   5.465
 9221SOL    HW128562   2.348   6.862   5.527
 9221SOL    HW228563   2.325   7.019   5.486
 9222SOL     OW28564   2.693   4.743   4.875
 9222SOL    HW128565   2.735   4.796   4.802
 9222SOL    HW228566   2.764   4.690   4.922
 9223SOL     OW28567   1.274   2.373   3.951
 9223SOL    HW128568   1.217   2.416   4.021
 9223SOL    HW228569   1.227   2.378   3.863
 9224SOL     OW28570   1.493   3.141   3.582
 9224SOL    HW128571   1.543   3.192   3.512
 9224SOL    HW228572   1.556   3.081   3.631
 9225SOL     OW28573   4.044   6.167   6.188
 9225SOL    HW128574   4.067   6.118   6.104
 9225SOL    HW228575   4.002   6.103   6.253
 9226SOL     OW28576   1.029   0.551   1.371
 9226SOL    HW128577   1.054   0.604   1.290
 9226SOL    HW228578   1.077   0.463   1.370
 9227SOL     OW28579   1.833   6.134   1.608
 9227SOL    HW128580   1.825   6.035   1.610
 9227SOL    HW228581   1.788   6.170   1.526
 9228SOL     OW28582   1.830   2.501   6.831
 9228SOL    HW128583   1.741   2.543   6.815
 9228SOL    HW228584   1.900   2.573   6.832
 9229SOL     OW28585   0.725   4.761   6.293
 9229SOL    HW128586   0.746   4.737   6.199
 9229SOL    HW228587   0.765   4.850   6.315
 9230SOL     OW28588   4.808   2.844   3.009
 9230SOL    HW128589   4.833   2.764   3.063
 9230SOL    HW228590   4.788   2.816   2.915
 9231SOL     OW28591   0.921   4.379   5.002
 9231SOL    HW128592   0.823   4.397   5.000
 9231SOL    HW228593   0.970   4.465   5.018
 9232SOL     OW28594   2.954   5.893   1.082
 9232SOL    HW128595   2.942   5.968   1.147
 9232SOL    HW228596   2.878   5.828   1.092
 9233SOL     OW28597   0.932   0.021   0.439
 9233SOL    HW128598   0.955   0.114   0.408
 9233SOL    HW228599   1.009   6.985   0.418
 9234SOL     OW28600   2.282   5.969   0.647
 9234SOL    HW128601   2.304   5.994   0.552
 9234SOL    HW228602   2.263   5.871   0.652
 9235SOL     OW28603   2.374   2.706   2.785
 9235SOL    HW128604   2.300   2.721   2.851
 9235SOL    HW228605   2.415   2.616   2.801
 9236SOL     OW28606   2.576   3.357   6.726
 9236SOL    HW128607   2.602   3.423   6.796
 9236SOL    HW228608   2.636   3.277   6.731
 9237SOL     OW28609   0.380   5.779   2.333
 9237SOL    HW128610   0.409   5.875   2.337
 9237SOL    HW228611   0.349   5.751   2.424
 9238SOL     OW28612   2.435   2.484   6.069
 9238SOL    HW128613   2.412   2.575   6.035
 9238SOL    HW228614   2.377   2.416   6.023
 9239SOL     OW28615   0.029   4.746   6.965
 9239SOL    HW128616   0.098   4.746   6.893
 9239SOL    HW228617   0.042   4.826   7.024
 9240SOL     OW28618   5.086   2.946   2.402
 9240SOL    HW128619   5.003   2.946   2.346
 9240SOL    HW228620   5.130   3.036   2.396
 9241SOL     OW28621   0.667   5.710   0.742
 9241SOL    HW128622   0.622   5.666   0.820
 9241SOL    HW228623   0.665   5.648   0.663
 9242SOL     OW28624   2.150   3.348   1.712
 9242SOL    HW128625   2.107   3.258   1.718
 9242SOL    HW228626   2.195   3.369   1.799
 9243SOL     OW28627   0.334   0.431   1.813
 9243SOL    HW128628   0.357   0.466   1.904
 9243SOL    HW228629   0.330   0.331   1.816
 9244SOL     OW28630   2.443   6.730   6.249
 9244SOL    HW128631   2.370   6.749   6.182
 9244SOL    HW228632   2.527   6.774   6.219
 9245SOL     OW28633   0.350   4.561   3.733
 9245SOL    HW128634   0.363   4.462   3.736
 9245SOL    HW228635   0.403   4.604   3.806
 9246SOL     OW28636   5.851   0.814   3.808
 9246SOL    HW128637   5.935   0.766   3.781
 9246SOL    HW228638   5.874   0.907   3.835
 9247SOL     OW28639   3.907   5.168   3.379
 9247SOL    HW128640   3.946   5.242   3.325
 9247SOL    HW228641   3.910   5.082   3.327
 9248SOL     OW28642   2.954   1.859   5.174
 9248SOL    HW128643   2.977   1.957   5.175
 9248SOL    HW228644   2.882   1.841   5.242
 9249SOL     OW28645   4.855   5.701   1.533
 9249SOL    HW128646   4.783   5.644   1.492
 9249SOL    HW228647   4.851   5.692   1.633
 9250SOL     OW28648   6.845   2.921   4.127
 9250SOL    HW128649   6.775   2.993   4.130
 9250SOL    HW228650   6.925   2.952   4.177
 9251SOL     OW28651   4.405   1.880   2.030
 9251SOL    HW128652   4.464   1.961   2.037
 9251SOL    HW228653   4.454   1.808   1.981
 9252SOL     OW28654   5.738   0.627   4.795
 9252SOL    HW128655   5.828   0.607   4.757
 9252SOL    HW228656   5.703   0.711   4.754
 9253SOL     OW28657   5.218   5.422   5.397
 9253SOL    HW128658   5.173   5.334   5.384
 9253SOL    HW228659   5.163   5.481   5.456
 9254SOL     OW28660   4.834   4.879   2.578
 9254SOL    HW128661   4.825   4.937   2.659
 9254SOL    HW228662   4.753   4.821   2.570
 9255SOL     OW28663   5.342   3.183   6.465
 9255SOL    HW128664   5.275   3.251   6.435
 9255SOL    HW228665   5.420   3.183   6.402
 9256SOL     OW28666   1.958   0.218   1.745
 9256SOL    HW128667   1.863   0.231   1.715
 9256SOL    HW228668   1.989   0.127   1.717
 9257SOL     OW28669   5.805   5.878   3.351
 9257SOL    HW128670   5.826   5.821   3.272
 9257SOL    HW228671   5.707   5.896   3.354
 9258SOL     OW28672   3.984   3.677   1.523
 9258SOL    HW128673   4.014   3.583   1.507
 9258SOL    HW228674   3.906   3.678   1.587
 9259SOL     OW28675   2.012   0.844   0.475
 9259SOL    HW128676   2.080   0.801   0.416
 9259SOL    HW228677   2.019   0.943   0.467
 9260SOL     OW28678   6.755   2.901   5.546
 9260SOL    HW128679   6.756   2.880   5.643
 9260SOL    HW228680   6.840   2.946   5.520
 9261SOL     OW28681   4.473   0.943   6.724
 9261SOL    HW128682   4.391   0.911   6.676
 9261SOL    HW228683   4.533   0.989   6.658
 9262SOL     OW28684   1.178   5.915   5.161
 9262SOL    HW128685   1.193   5.885   5.066
 9262SOL    HW228686   1.148   5.838   5.216
 9263SOL     OW28687   3.149   5.061   2.234
 9263SOL    HW128688   3.140   5.161   2.239
 9263SOL    HW228689   3.229   5.032   2.287
 9264SOL     OW28690   4.979   3.331   0.366
 9264SOL    HW128691   5.061   3.282   0.339
 9264SOL    HW228692   4.898   3.285   0.328
 9265SOL     OW28693   3.893   2.503   6.732
 9265SOL    HW128694   3.910   2.496   6.831
 9265SOL    HW228695   3.930   2.589   6.698
 9266SOL     OW28696   0.555   6.041   1.007
 9266SOL    HW128697   0.585   6.063   0.914
 9266SOL    HW228698   0.630   5.994   1.055
 9267SOL     OW28699   1.033   2.020   4.364
 9267SOL    HW128700   0.967   2.019   4.440
 9267SOL    HW228701   1.112   1.963   4.388
 9268SOL     OW28702   1.199   6.630   2.280
 9268SOL    HW128703   1.147   6.687   2.216
 9268SOL    HW228704   1.278   6.681   2.314
 9269SOL     OW28705   3.992   0.059   6.150
 9269SOL    HW128706   3.902   0.083   6.186
 9269SOL    HW228707   3.981   7.023   6.071
 9270SOL     OW28708   3.675   0.497   5.286
 9270SOL    HW128709   3.731   0.427   5.243
 9270SOL    HW228710   3.578   0.480   5.265
 9271SOL     OW28711   6.322   0.339   0.371
 9271SOL    HW128712   6.235   0.379   0.344
 9271SOL    HW228713   6.306   0.262   0.432
 9272SOL     OW28714   0.463   6.362   6.450
 9272SOL    HW128715   0.522   6.285   6.424
 9272SOL    HW228716   0.375   6.328   6.482
 9273SOL     OW28717   5.888   6.103   3.487
 9273SOL    HW128718   5.900   6.016   3.438
 9273SOL    HW228719   5.850   6.085   3.578
 9274SOL     OW28720   6.531   2.443   6.790
 9274SOL    HW128721   6.591   2.389   6.732
 9274SOL    HW228722   6.455   2.385   6.822
 9275SOL     OW28723   7.016   6.785   0.301
 9275SOL    HW128724   0.079   6.743   0.277
 9275SOL    HW228725   7.014   6.879   0.268
 9276SOL     OW28726   2.018   5.093   6.433
 9276SOL    HW128727   2.027   5.179   6.484
 9276SOL    HW228728   2.109   5.056   6.414
 9277SOL     OW28729   3.923   4.831   2.456
 9277SOL    HW128730   3.859   4.861   2.385
 9277SOL    HW228731   3.976   4.753   2.422
 9278SOL     OW28732   1.452   0.452   5.750
 9278SOL    HW128733   1.522   0.457   5.679
 9278SOL    HW228734   1.393   0.373   5.733
 9279SOL     OW28735   3.946   0.041   2.015
 9279SOL    HW128736   4.039   0.007   2.029
 9279SOL    HW228737   3.909   0.002   1.931
 9280SOL     OW28738   2.487   1.575   2.419
 9280SOL    HW128739   2.581   1.542   2.405
 9280SOL    HW228740   2.424   1.497   2.423
 9281SOL     OW28741   3.639   4.331   6.492
 9281SOL    HW128742   3.639   4.264   6.418
 9281SOL    HW228743   3.628   4.423   6.453
 9282SOL     OW28744   4.474   0.679   4.152
 9282SOL    HW128745   4.515   0.769   4.137
 9282SOL    HW228746   4.526   0.609   4.102
 9283SOL     OW28747   5.047   0.615   5.375
 9283SOL    HW128748   5.122   0.616   5.441
 9283SOL    HW228749   5.051   0.531   5.321
 9284SOL     OW28750   2.783   3.670   5.347
 9284SOL    HW128751   2.870   3.719   5.352
 9284SOL    HW228752   2.795   3.587   5.294
 9285SOL     OW28753   5.111   3.609   0.598
 9285SOL    HW128754   5.161   3.574   0.677
 9285SOL    HW228755   5.027   3.557   0.586
 9286SOL     OW28756   5.332   5.209   0.444
 9286SOL    HW128757   5.330   5.119   0.488
 9286SOL    HW228758   5.306   5.279   0.510
 9287SOL     OW28759   3.678   4.769   5.755
 9287SOL    HW128760   3.776   4.785   5.744
 9287SOL    HW228761   3.662   4.671   5.768
 9288SOL     OW28762   4.392   1.878   2.492
 9288SOL    HW128763   4.313   1.920   2.448
 9288SOL    HW228764   4.474   1.899   2.439
 9289SOL     OW28765   4.696   0.824   0.316
 9289SOL    HW128766   4.651   0.808   0.228
 9289SOL    HW228767   4.652   0.768   0.387
 9290SOL     OW28768   6.149   1.292   4.054
 9290SOL    HW128769   6.065   1.249   4.022
 9290SOL    HW228770   6.203   1.225   4.105
 9291SOL     OW28771   1.169   5.826   6.132
 9291SOL    HW128772   1.236   5.811   6.059
 9291SOL    HW228773   1.189   5.764   6.208
 9292SOL     OW28774   2.034   1.206   6.742
 9292SOL    HW128775   2.029   1.260   6.825
 9292SOL    HW228776   2.093   1.252   6.675
 9293SOL     OW28777   5.631   3.374   6.457
 9293SOL    HW128778   5.591   3.464   6.442
 9293SOL    HW228779   5.579   3.306   6.404
 9294SOL     OW28780   4.765   0.835   6.464
 9294SOL    HW128781   4.855   0.848   6.423
 9294SOL    HW228782   4.774   0.782   6.548
 9295SOL     OW28783   6.212   0.945   5.031
 9295SOL    HW128784   6.215   0.860   4.979
 9295SOL    HW228785   6.288   0.946   5.097
 9296SOL     OW28786   2.009   4.884   0.570
 9296SOL    HW128787   1.962   4.962   0.611
 9296SOL    HW228788   2.060   4.915   0.490
 9297SOL     OW28789   0.686   6.890   3.245
 9297SOL    HW128790   0.594   6.865   3.217
 9297SOL    HW228791   0.707   6.982   3.212
 9298SOL     OW28792   0.793   6.359   6.434
 9298SOL    HW128793   0.850   6.282   6.461
 9298SOL    HW228794   0.789   6.363   6.334
 9299SOL     OW28795   0.937   1.898   4.155
 9299SOL    HW128796   0.974   1.942   4.237
 9299SOL    HW228797   1.010   1.851   4.106
 9300SOL     OW28798   6.999   5.299   5.163
 9300SOL    HW128799   0.024   5.372   5.116
 9300SOL    HW228800   6.988   5.323   5.259
 9301SOL     OW28801   6.740   4.342   5.228
 9301SOL    HW128802   6.745   4.370   5.132
 9301SOL    HW228803   6.780   4.414   5.285
 9302SOL     OW28804   1.977   3.543   4.999
 9302SOL    HW128805   1.998   3.559   4.902
 9302SOL    HW228806   2.048   3.486   5.040
 9303SOL     OW28807   2.683   4.324   0.107
 9303SOL    HW128808   2.646   4.271   0.030
 9303SOL    HW228809   2.778   4.297   0.123
 9304SOL     OW28810   4.701   5.047   0.507
 9304SOL    HW128811   4.686   5.118   0.438
 9304SOL    HW228812   4.657   4.962   0.478
 9305SOL     OW28813   3.893   0.874   0.630
 9305SOL    HW128814   3.806   0.896   0.673
 9305SOL    HW228815   3.929   0.789   0.670
 9306SOL     OW28816   0.738   4.788   5.545
 9306SOL    HW128817   0.783   4.822   5.628
 9306SOL    HW228818   0.728   4.688   5.551
 9307SOL     OW28819   1.566   4.143   0.485
 9307SOL    HW128820   1.539   4.048   0.469
 9307SOL    HW228821   1.637   4.146   0.555
 9308SOL     OW28822   1.543   4.650   1.882
 9308SOL    HW128823   1.569   4.578   1.818
 9308SOL    HW228824   1.458   4.625   1.927
 9309SOL     OW28825   4.005   6.401   5.623
 9309SOL    HW128826   4.063   6.462   5.678
 9309SOL    HW228827   4.053   6.376   5.539
 9310SOL     OW28828   5.450   6.488   5.649
 9310SOL    HW128829   5.446   6.529   5.558
 9310SOL    HW228830   5.395   6.404   5.650
 9311SOL     OW28831   5.524   4.573   1.409
 9311SOL    HW128832   5.474   4.502   1.358
 9311SOL    HW228833   5.473   4.659   1.405
 9312SOL     OW28834   1.500   2.005   0.810
 9312SOL    HW128835   1.588   2.043   0.782
 9312SOL    HW228836   1.501   1.906   0.799
 9313SOL     OW28837   0.256   0.016   1.576
 9313SOL    HW128838   0.317   6.962   1.584
 9313SOL    HW228839   0.217   0.019   1.484
 9314SOL     OW28840   6.871   3.390   0.655
 9314SOL    HW128841   6.935   3.332   0.606
 9314SOL    HW228842   6.847   3.347   0.743
 9315SOL     OW28843   5.928   0.221   5.824
 9315SOL    HW128844   5.939   0.208   5.726
 9315SOL    HW228845   5.865   0.152   5.860
 9316SOL     OW28846   5.418   6.949   5.189
 9316SOL    HW128847   5.375   6.862   5.214
 9316SOL    HW228848   5.349   7.022   5.192
 9317SOL     OW28849   4.054   5.607   2.901
 9317SOL    HW128850   4.082   5.514   2.879
 9317SOL    HW228851   3.994   5.641   2.829
 9318SOL     OW28852   4.762   6.840   0.112
 9318SOL    HW128853   4.677   6.788   0.115
 9318SOL    HW228854   4.838   6.784   0.144
 9319SOL     OW28855   2.840   3.081   0.734
 9319SOL    HW128856   2.786   3.000   0.710
 9319SOL    HW228857   2.801   3.125   0.815
 9320SOL     OW28858   4.338   0.838   5.185
 9320SOL    HW128859   4.372   0.931   5.170
 9320SOL    HW228860   4.363   0.780   5.107
 9321SOL     OW28861   1.002   1.191   5.877
 9321SOL    HW128862   0.968   1.184   5.971
 9321SOL    HW228863   1.097   1.222   5.878
 9322SOL     OW28864   0.197   4.248   6.334
 9322SOL    HW128865   0.132   4.182   6.296
 9322SOL    HW228866   0.148   4.332   6.358
 9323SOL     OW28867   2.211   1.864   5.068
 9323SOL    HW128868   2.212   1.809   5.151
 9323SOL    HW228869   2.261   1.816   4.995
 9324SOL     OW28870   2.157   3.749   2.591
 9324SOL    HW128871   2.082   3.688   2.617
 9324SOL    HW228872   2.177   3.737   2.494
 9325SOL     OW28873   0.300   6.854   0.767
 9325SOL    HW128874   0.313   6.901   0.855
 9325SOL    HW228875   0.386   6.813   0.738
 9326SOL     OW28876   3.123   4.906   6.491
 9326SOL    HW128877   3.054   4.849   6.446
 9326SOL    HW228878   3.101   4.913   6.588
 9327SOL     OW28879   4.536   6.780   2.674
 9327SOL    HW128880   4.439   6.800   2.659
 9327SOL    HW228881   4.548   6.742   2.766
 9328SOL     OW28882   1.988   0.698   4.877
 9328SOL    HW128883   1.903   0.685   4.929
 9328SOL    HW228884   1.970   0.682   4.780
 9329SOL     OW28885   6.640   6.037   0.677
 9329SOL    HW128886   6.664   5.948   0.638
 9329SOL    HW228887   6.604   6.025   0.769
 9330SOL     OW28888   0.142   0.329   6.075
 9330SOL    HW128889   0.231   0.283   6.073
 9330SOL    HW228890   0.092   0.300   6.157
 9331SOL     OW28891   1.858   1.379   6.094
 9331SOL    HW128892   1.826   1.437   6.169
 9331SOL    HW228893   1.782   1.361   6.031
 9332SOL     OW28894   4.484   5.480   0.835
 9332SOL    HW128895   4.533   5.414   0.778
 9332SOL    HW228896   4.444   5.551   0.778
 9333SOL     OW28897   3.684   5.676   6.514
 9333SOL    HW128898   3.774   5.715   6.495
 9333SOL    HW228899   3.615   5.749   6.512
 9334SOL     OW28900   4.769   6.919   4.175
 9334SOL    HW128901   4.718   6.989   4.124
 9334SOL    HW228902   4.725   6.903   4.263
 9335SOL     OW28903   2.042   1.356   0.405
 9335SOL    HW128904   1.984   1.275   0.417
 9335SOL    HW228905   2.042   1.383   0.309
 9336SOL     OW28906   5.396   0.033   4.251
 9336SOL    HW128907   5.381   0.106   4.184
 9336SOL    HW228908   5.308   7.022   4.283
 9337SOL     OW28909   5.395   1.118   6.335
 9337SOL    HW128910   5.420   1.183   6.407
 9337SOL    HW228911   5.445   1.033   6.348
 9338SOL     OW28912   6.696   6.491   1.111
 9338SOL    HW128913   6.618   6.471   1.052
 9338SOL    HW228914   6.664   6.520   1.201
 9339SOL     OW28915   5.762   5.983   0.630
 9339SOL    HW128916   5.801   6.075   0.631
 9339SOL    HW228917   5.723   5.964   0.540
 9340SOL     OW28918   4.300   4.677   2.577
 9340SOL    HW128919   4.363   4.599   2.580
 9340SOL    HW228920   4.242   4.669   2.496
 9341SOL     OW28921   6.884   4.144   0.797
 9341SOL    HW128922   6.875   4.045   0.805
 9341SOL    HW228923   6.869   4.186   0.887
 9342SOL     OW28924   2.442   0.570   4.742
 9342SOL    HW128925   2.438   0.573   4.642
 9342SOL    HW228926   2.490   0.651   4.776
 9343SOL     OW28927   4.884   3.535   1.867
 9343SOL    HW128928   4.871   3.631   1.840
 9343SOL    HW228929   4.938   3.488   1.796
 9344SOL     OW28930   5.389   5.753   6.875
 9344SOL    HW128931   5.345   5.751   6.786
 9344SOL    HW228932   5.479   5.709   6.868
 9345SOL     OW28933   6.941   4.505   1.372
 9345SOL    HW128934   6.841   4.513   1.365
 9345SOL    HW228935   6.984   4.569   1.307
 9346SOL     OW28936   5.265   6.888   2.055
 9346SOL    HW128937   5.244   6.918   2.148
 9346SOL    HW228938   5.296   6.793   2.057
 9347SOL     OW28939   2.869   5.765   0.221
 9347SOL    HW128940   2.914   5.707   0.153
 9347SOL    HW228941   2.828   5.708   0.291
 9348SOL     OW28942   2.712   5.362   2.906
 9348SOL    HW128943   2.728   5.395   2.813
 9348SOL    HW228944   2.739   5.432   2.972
 9349SOL     OW28945   6.572   5.901   2.336
 9349SOL    HW128946   6.586   5.860   2.427
 9349SOL    HW228947   6.475   5.903   2.315
 9350SOL     OW28948   0.194   2.021   3.889
 9350SOL    HW128949   0.125   1.987   3.826
 9350SOL    HW228950   0.278   1.968   3.878
 9351SOL     OW28951   2.445   0.535   6.192
 9351SOL    HW128952   2.411   0.441   6.202
 9351SOL    HW228953   2.369   0.599   6.204
 9352SOL     OW28954   2.997   3.133   5.779
 9352SOL    HW128955   2.929   3.070   5.818
 9352SOL    HW228956   2.969   3.227   5.796
 9353SOL     OW28957   1.793   3.938   1.756
 9353SOL    HW128958   1.833   4.027   1.732
 9353SOL    HW228959   1.714   3.953   1.815
 9354SOL     OW28960   6.487   1.920   0.598
 9354SOL    HW128961   6.424   1.986   0.639
 9354SOL    HW228962   6.579   1.959   0.595
 9355SOL     OW28963   6.127   1.561   4.123
 9355SOL    HW128964   6.197   1.548   4.053
 9355SOL    HW228965   6.151   1.509   4.205
 9356SOL     OW28966   4.353   5.409   1.502
 9356SOL    HW128967   4.351   5.504   1.471
 9356SOL    HW228968   4.278   5.358   1.459
 9357SOL     OW28969   3.280   3.528   6.380
 9357SOL    HW128970   3.212   3.465   6.419
 9357SOL    HW228971   3.334   3.480   6.311
 9358SOL     OW28972   6.519   3.672   2.217
 9358SOL    HW128973   6.498   3.584   2.259
 9358SOL    HW228974   6.537   3.740   2.288
 9359SOL     OW28975   1.146   3.482   6.090
 9359SOL    HW128976   1.066   3.512   6.038
 9359SOL    HW228977   1.194   3.410   6.040
 9360SOL     OW28978   0.901   6.924   5.768
 9360SOL    HW128979   0.969   6.852   5.757
 9360SOL    HW228980   0.941   7.000   5.819
 9361SOL     OW28981   2.595   6.157   3.753
 9361SOL    HW128982   2.624   6.142   3.658
 9361SOL    HW228983   2.546   6.244   3.759
 9362SOL     OW28984   1.180   1.881   1.812
 9362SOL    HW128985   1.213   1.788   1.795
 9362SOL    HW228986   1.217   1.915   1.898
 9363SOL     OW28987   4.152   5.361   1.859
 9363SOL    HW128988   4.052   5.356   1.858
 9363SOL    HW228989   4.190   5.269   1.847
 9364SOL     OW28990   4.302   3.140   6.160
 9364SOL    HW128991   4.381   3.079   6.150
 9364SOL    HW228992   4.334   3.234   6.172
 9365SOL     OW28993   2.827   2.335   5.206
 9365SOL    HW128994   2.902   2.372   5.260
 9365SOL    HW228995   2.761   2.408   5.187
 9366SOL     OW28996   2.808   0.746   7.007
 9366SOL    HW128997   2.733   0.772   0.044
 9366SOL    HW228998   2.776   0.749   6.912
 9367SOL     OW28999   0.303   6.011   3.079
 9367SOL    HW129000   0.251   5.947   3.134
 9367SOL    HW229001   0.383   6.043   3.132
 9368SOL     OW29002   2.627   1.839   3.410
 9368SOL    HW129003   2.562   1.828   3.334
 9368SOL    HW229004   2.710   1.883   3.376
 9369SOL     OW29005   0.219   0.645   5.514
 9369SOL    HW129006   0.237   0.619   5.609
 9369SOL    HW229007   0.303   0.641   5.461
 9370SOL     OW29008   4.792   0.519   2.554
 9370SOL    HW129009   4.852   0.593   2.521
 9370SOL    HW229010   4.824   0.489   2.643
 9371SOL     OW29011   2.403   4.892   0.825
 9371SOL    HW129012   2.477   4.836   0.861
 9371SOL    HW229013   2.322   4.882   0.882
 9372SOL     OW29014   5.472   6.148   3.108
 9372SOL    HW129015   5.502   6.068   3.055
 9372SOL    HW229016   5.463   6.123   3.204
 9373SOL     OW29017   4.157   2.230   2.676
 9373SOL    HW129018   4.073   2.176   2.685
 9373SOL    HW229019   4.207   2.231   2.763
 9374SOL     OW29020   0.234   3.418   0.564
 9374SOL    HW129021   0.228   3.462   0.653
 9374SOL    HW229022   0.193   3.327   0.568
 9375SOL     OW29023   6.267   1.650   2.916
 9375SOL    HW129024   6.184   1.704   2.930
 9375SOL    HW229025   6.249   1.578   2.849
 9376SOL     OW29026   2.736   4.138   1.285
 9376SOL    HW129027   2.717   4.063   1.222
 9376SOL    HW229028   2.668   4.139   1.358
 9377SOL     OW29029   1.883   5.524   3.581
 9377SOL    HW129030   1.794   5.566   3.567
 9377SOL    HW229031   1.955   5.589   3.557
 9378SOL     OW29032   1.100   0.563   5.398
 9378SOL    HW129033   1.047   0.481   5.373
 9378SOL    HW229034   1.037   0.637   5.422
 9379SOL     OW29035   4.703   5.580   5.349
 9379SOL    HW129036   4.651   5.637   5.286
 9379SOL    HW229037   4.790   5.625   5.371
 9380SOL     OW29038   5.554   4.569   4.747
 9380SOL    HW129039   5.647   4.593   4.775
 9380SOL    HW229040   5.496   4.560   4.828
 9381SOL     OW29041   2.759   2.998   5.911
 9381SOL    HW129042   2.759   2.941   5.993
 9381SOL    HW229043   2.671   3.045   5.903
 9382SOL     OW29044   3.113   1.117   3.395
 9382SOL    HW129045   3.196   1.151   3.351
 9382SOL    HW229046   3.127   1.113   3.494
 9383SOL     OW29047   1.793   5.959   4.714
 9383SOL    HW129048   1.741   6.031   4.759
 9383SOL    HW229049   1.782   5.967   4.615
 9384SOL     OW29050   2.934   6.167   1.700
 9384SOL    HW129051   2.987   6.090   1.666
 9384SOL    HW229052   2.851   6.177   1.645
 9385SOL     OW29053   4.162   0.839   3.184
 9385SOL    HW129054   4.128   0.794   3.267
 9385SOL    HW229055   4.177   0.770   3.113
 9386SOL     OW29056   2.651   6.328   4.548
 9386SOL    HW129057   2.726   6.353   4.487
 9386SOL    HW229058   2.642   6.229   4.551
 9387SOL     OW29059   3.058   2.021   0.042
 9387SOL    HW129060   2.962   2.010   0.014
 9387SOL    HW229061   3.068   2.109   0.089
 9388SOL     OW29062   1.846   5.342   2.833
 9388SOL    HW129063   1.765   5.367   2.779
 9388SOL    HW229064   1.844   5.244   2.851
 9389SOL     OW29065   1.525   6.541   5.254
 9389SOL    HW129066   1.438   6.588   5.237
 9389SOL    HW229067   1.577   6.592   5.323
 9390SOL     OW29068   3.833   4.947   4.731
 9390SOL    HW129069   3.775   4.917   4.807
 9390SOL    HW229070   3.776   4.977   4.655
 9391SOL     OW29071   2.257   0.780   4.891
 9391SOL    HW129072   2.322   0.707   4.908
 9391SOL    HW229073   2.167   0.741   4.872
 9392SOL     OW29074   0.029   0.325   5.143
 9392SOL    HW129075   0.076   0.395   5.088
 9392SOL    HW229076   0.096   0.258   5.174
 9393SOL     OW29077   2.545   6.724   5.217
 9393SOL    HW129078   2.641   6.742   5.197
 9393SOL    HW229079   2.514   6.786   5.289
 9394SOL     OW29080   0.185   1.519   2.250
 9394SOL    HW129081   0.149   1.594   2.194
 9394SOL    HW229082   0.181   1.545   2.346
 9395SOL     OW29083   2.627   1.391   0.234
 9395SOL    HW129084   2.696   1.323   0.258
 9395SOL    HW229085   2.566   1.354   0.165
 9396SOL     OW29086   1.865   5.289   3.474
 9396SOL    HW129087   1.774   5.272   3.436
 9396SOL    HW229088   1.869   5.383   3.508
 9397SOL     OW29089   3.377   0.438   0.083
 9397SOL    HW129090   3.309   0.416   0.152
 9397SOL    HW229091   3.423   0.354   0.053
 9398SOL     OW29092   0.562   0.276   5.421
 9398SOL    HW129093   0.593   0.358   5.372
 9398SOL    HW229094   0.463   0.281   5.435
 9399SOL     OW29095   6.636   1.854   6.632
 9399SOL    HW129096   6.706   1.830   6.700
 9399SOL    HW229097   6.651   1.948   6.601
 9400SOL     OW29098   4.033   1.274   1.912
 9400SOL    HW129099   3.948   1.324   1.928
 9400SOL    HW229100   4.099   1.334   1.865
 9401SOL     OW29101   5.373   0.003   3.369
 9401SOL    HW129102   5.312   0.082   3.356
 9401SOL    HW229103   5.468   0.033   3.355
 9402SOL     OW29104   1.214   4.470   3.753
 9402SOL    HW129105   1.137   4.414   3.722
 9402SOL    HW229106   1.284   4.472   3.682
 9403SOL     OW29107   6.204   1.626   2.480
 9403SOL    HW129108   6.141   1.702   2.500
 9403SOL    HW229109   6.157   1.539   2.497
 9404SOL     OW29110   1.309   3.423   6.461
 9404SOL    HW129111   1.328   3.331   6.495
 9404SOL    HW229112   1.239   3.466   6.518
 9405SOL     OW29113   1.234   5.706   2.229
 9405SOL    HW129114   1.225   5.803   2.206
 9405SOL    HW229115   1.277   5.658   2.152
 9406SOL     OW29116   6.665   2.589   5.987
 9406SOL    HW129117   6.646   2.635   5.900
 9406SOL    HW229118   6.696   2.656   6.055
 9407SOL     OW29119   2.688   5.360   3.503
 9407SOL    HW129120   2.607   5.302   3.520
 9407SOL    HW229121   2.742   5.320   3.429
 9408SOL     OW29122   4.323   2.049   6.661
 9408SOL    HW129123   4.407   2.006   6.629
 9408SOL    HW229124   4.247   2.024   6.601
 9409SOL     OW29125   6.044   4.498   6.741
 9409SOL    HW129126   6.087   4.564   6.803
 9409SOL    HW229127   6.030   4.539   6.651
 9410SOL     OW29128   3.017   6.505   2.007
 9410SOL    HW129129   2.937   6.550   1.968
 9410SOL    HW229130   3.099   6.558   1.985
 9411SOL     OW29131   3.496   3.478   2.090
 9411SOL    HW129132   3.401   3.447   2.081
 9411SOL    HW229133   3.523   3.474   2.186
 9412SOL     OW29134   0.229   2.690   1.623
 9412SOL    HW129135   0.199   2.750   1.697
 9412SOL    HW229136   0.152   2.672   1.561
 9413SOL     OW29137   3.193   6.022   4.040
 9413SOL    HW129138   3.142   6.065   3.966
 9413SOL    HW229139   3.291   6.038   4.027
 9414SOL     OW29140   2.804   0.569   3.391
 9414SOL    HW129141   2.820   0.589   3.294
 9414SOL    HW229142   2.841   0.479   3.413
 9415SOL     OW29143   2.580   7.024   1.867
 9415SOL    HW129144   2.641   0.048   1.930
 9415SOL    HW229145   2.545   6.941   1.912
 9416SOL     OW29146   0.697   2.087   0.811
 9416SOL    HW129147   0.772   2.034   0.771
 9416SOL    HW229148   0.676   2.052   0.902
 9417SOL     OW29149   3.781   6.374   5.803
 9417SOL    HW129150   3.857   6.375   5.738
 9417SOL    HW229151   3.814   6.344   5.893
 9418SOL     OW29152   3.970   6.213   1.273
 9418SOL    HW129153   3.964   6.132   1.330
 9418SOL    HW229154   3.880   6.255   1.265
 9419SOL     OW29155   3.684   5.559   5.828
 9419SOL    HW129156   3.625   5.594   5.902
 9419SOL    HW229157   3.739   5.483   5.863
 9420SOL     OW29158   6.648   3.061   5.031
 9420SOL    HW129159   6.562   3.012   5.019
 9420SOL    HW229160   6.725   2.999   5.016
 9421SOL     OW29161   2.152   6.929   4.635
 9421SOL    HW129162   2.203   6.845   4.650
 9421SOL    HW229163   2.100   6.922   4.550
 9422SOL     OW29164   4.991   6.372   3.222
 9422SOL    HW129165   4.976   6.383   3.124
 9422SOL    HW229166   5.087   6.387   3.243
 9423SOL     OW29167   3.750   0.644   3.847
 9423SOL    HW129168   3.777   0.597   3.932
 9423SOL    HW229169   3.652   0.632   3.833
 9424SOL     OW29170   4.918   0.625   4.864
 9424SOL    HW129171   4.934   0.569   4.782
 9424SOL    HW229172   4.979   0.594   4.937
 9425SOL     OW29173   6.033   3.257   7.004
 9425SOL    HW129174   6.012   3.244   6.907
 9425SOL    HW229175   5.954   3.297   0.026
 9426SOL     OW29176   3.413   2.404   0.237
 9426SOL    HW129177   3.423   2.338   0.163
 9426SOL    HW229178   3.386   2.493   0.200
 9427SOL     OW29179   2.927   5.685   4.195
 9427SOL    HW129180   3.018   5.726   4.182
 9427SOL    HW229181   2.862   5.758   4.217
 9428SOL     OW29182   5.909   0.664   1.197
 9428SOL    HW129183   5.968   0.742   1.176
 9428SOL    HW229184   5.928   0.589   1.134
 9429SOL     OW29185   2.175   3.204   2.202
 9429SOL    HW129186   2.108   3.141   2.163
 9429SOL    HW229187   2.200   3.273   2.134
 9430SOL     OW29188   0.411   4.240   2.551
 9430SOL    HW129189   0.417   4.184   2.468
 9430SOL    HW229190   0.329   4.214   2.602
 9431SOL     OW29191   5.936   4.362   1.841
 9431SOL    HW129192   5.872   4.314   1.902
 9431SOL    HW229193   5.978   4.297   1.778
 9432SOL     OW29194   4.021   0.549   3.734
 9432SOL    HW129195   3.949   0.480   3.747
 9432SOL    HW229196   4.059   0.574   3.823
 9433SOL     OW29197   3.450   4.998   3.239
 9433SOL    HW129198   3.360   4.969   3.207
 9433SOL    HW229199   3.520   4.943   3.194
 9434SOL     OW29200   5.247   5.043   3.704
 9434SOL    HW129201   5.331   5.064   3.654
 9434SOL    HW229202   5.188   4.988   3.646
 9435SOL     OW29203   0.758   2.868   4.540
 9435SOL    HW129204   0.748   2.951   4.594
 9435SOL    HW229205   0.673   2.815   4.543
 9436SOL     OW29206   1.124   2.715   1.895
 9436SOL    HW129207   1.189   2.691   1.967
 9436SOL    HW229208   1.052   2.773   1.934
 9437SOL     OW29209   2.338   6.263   3.230
 9437SOL    HW129210   2.435   6.239   3.228
 9437SOL    HW229211   2.301   6.245   3.322
 9438SOL     OW29212   0.195   0.106   1.816
 9438SOL    HW129213   0.225   0.063   1.730
 9438SOL    HW229214   0.193   0.037   1.889
 9439SOL     OW29215   0.352   3.201   1.643
 9439SOL    HW129216   0.347   3.300   1.656
 9439SOL    HW229217   0.278   3.156   1.694
 9440SOL     OW29218   3.848   4.843   3.409
 9440SOL    HW129219   3.892   4.774   3.466
 9440SOL    HW229220   3.909   4.867   3.333
 9441SOL     OW29221   1.251   3.310   5.175
 9441SOL    HW129222   1.232   3.392   5.229
 9441SOL    HW229223   1.195   3.311   5.092
 9442SOL     OW29224   4.533   3.434   0.255
 9442SOL    HW129225   4.609   3.371   0.243
 9442SOL    HW229226   4.568   3.527   0.265
 9443SOL     OW29227   2.721   5.492   1.014
 9443SOL    HW129228   2.652   5.462   1.080
 9443SOL    HW229229   2.787   5.418   1.000
 9444SOL     OW29230   1.689   3.985   6.697
 9444SOL    HW129231   1.593   3.979   6.725
 9444SOL    HW229232   1.713   3.906   6.642
 9445SOL     OW29233   5.800   3.640   3.310
 9445SOL    HW129234   5.771   3.604   3.398
 9445SOL    HW229235   5.732   3.704   3.275
 9446SOL     OW29236   6.061   6.271   4.281
 9446SOL    HW129237   5.972   6.248   4.243
 9446SOL    HW229238   6.085   6.205   4.352
 9447SOL     OW29239   6.021   3.513   4.524
 9447SOL    HW129240   6.112   3.478   4.503
 9447SOL    HW229241   5.989   3.476   4.611
 9448SOL     OW29242   0.090   6.595   6.980
 9448SOL    HW129243   0.127   6.665   6.920
 9448SOL    HW229244   7.018   6.613   6.998
 9449SOL     OW29245   6.854   5.753   0.177
 9449SOL    HW129246   6.863   5.696   0.258
 9449SOL    HW229247   6.843   5.696   0.096
 9450SOL     OW29248   2.889   5.659   5.389
 9450SOL    HW129249   2.800   5.696   5.417
 9450SOL    HW229250   2.899   5.666   5.290
 9451SOL     OW29251   4.214   6.346   5.924
 9451SOL    HW129252   4.197   6.413   5.851
 9451SOL    HW229253   4.230   6.395   6.010
 9452SOL     OW29254   1.689   3.877   0.590
 9452SOL    HW129255   1.786   3.901   0.598
 9452SOL    HW229256   1.670   3.849   0.496
 9453SOL     OW29257   1.968   4.768   3.164
 9453SOL    HW129258   1.950   4.704   3.239
 9453SOL    HW229259   1.978   4.861   3.200
 9454SOL     OW29260   3.040   3.564   6.696
 9454SOL    HW129261   3.139   3.567   6.685
 9454SOL    HW229262   3.012   3.470   6.718
 9455SOL     OW29263   3.567   1.822   3.143
 9455SOL    HW129264   3.582   1.875   3.059
 9455SOL    HW229265   3.483   1.854   3.187
 9456SOL     OW29266   1.254   3.569   1.290
 9456SOL    HW129267   1.240   3.563   1.388
 9456SOL    HW229268   1.306   3.652   1.268
 9457SOL     OW29269   2.164   3.774   5.167
 9457SOL    HW129270   2.082   3.814   5.127
 9457SOL    HW229271   2.243   3.832   5.147
 9458SOL     OW29272   1.724   3.365   0.146
 9458SOL    HW129273   1.665   3.443   0.127
 9458SOL    HW229274   1.669   3.289   0.181
 9459SOL     OW29275   5.126   4.621   3.419
 9459SOL    HW129276   5.167   4.682   3.351
 9459SOL    HW229277   5.117   4.529   3.381
 9460SOL     OW29278   0.513   2.252   4.157
 9460SOL    HW129279   0.612   2.263   4.163
 9460SOL    HW229280   0.471   2.275   4.244
 9461SOL     OW29281   6.219   1.359   2.274
 9461SOL    HW129282   6.319   1.367   2.281
 9461SOL    HW229283   6.188   1.283   2.330
 9462SOL     OW29284   2.028   3.465   2.667
 9462SOL    HW129285   1.928   3.460   2.670
 9462SOL    HW229286   2.059   3.462   2.572
 9463SOL     OW29287   6.906   0.976   1.946
 9463SOL    HW129288   6.924   1.043   1.874
 9463SOL    HW229289   6.987   0.965   2.003
 9464SOL     OW29290   6.272   0.656   1.247
 9464SOL    HW129291   6.364   0.630   1.218
 9464SOL    HW229292   6.239   0.593   1.317
 9465SOL     OW29293   1.575   5.301   3.021
 9465SOL    HW129294   1.637   5.227   3.050
 9465SOL    HW229295   1.624   5.364   2.962
 9466SOL     OW29296   4.618   4.805   5.992
 9466SOL    HW129297   4.660   4.837   5.907
 9466SOL    HW229298   4.646   4.864   6.067
 9467SOL     OW29299   0.753   2.380   1.466
 9467SOL    HW129300   0.747   2.309   1.536
 9467SOL    HW229301   0.747   2.470   1.510
 9468SOL     OW29302   6.128   2.566   5.777
 9468SOL    HW129303   6.167   2.478   5.748
 9468SOL    HW229304   6.202   2.630   5.799
 9469SOL     OW29305   6.326   6.203   1.606
 9469SOL    HW129306   6.401   6.253   1.649
 9469SOL    HW229307   6.299   6.249   1.522
 9470SOL     OW29308   4.349   3.765   5.321
 9470SOL    HW129309   4.337   3.670   5.348
 9470SOL    HW229310   4.442   3.780   5.289
 9471SOL     OW29311   6.225   1.547   4.398
 9471SOL    HW129312   6.311   1.496   4.401
 9471SOL    HW229313   6.229   1.623   4.464
 9472SOL     OW29314   5.649   3.336   4.828
 9472SOL    HW129315   5.678   3.431   4.816
 9472SOL    HW229316   5.573   3.333   4.894
 9473SOL     OW29317   2.618   5.528   5.522
 9473SOL    HW129318   2.706   5.488   5.544
 9473SOL    HW229319   2.627   5.627   5.516
 9474SOL     OW29320   0.253   3.007   0.262
 9474SOL    HW129321   0.221   2.946   0.334
 9474SOL    HW229322   0.182   3.076   0.242
 9475SOL     OW29323   3.627   3.675   6.659
 9475SOL    HW129324   3.674   3.694   6.572
 9475SOL    HW229325   3.528   3.675   6.645
 9476SOL     OW29326   2.930   3.481   4.985
 9476SOL    HW129327   2.917   3.580   4.976
 9476SOL    HW229328   2.886   3.449   5.069
 9477SOL     OW29329   0.501   3.754   2.097
 9477SOL    HW129330   0.591   3.716   2.075
 9477SOL    HW229331   0.431   3.706   2.044
 9478SOL     OW29332   5.444   3.245   6.954
 9478SOL    HW129333   5.436   3.146   6.940
 9478SOL    HW229334   5.360   3.280   6.995
 9479SOL     OW29335   4.439   6.185   6.736
 9479SOL    HW129336   4.377   6.130   6.792
 9479SOL    HW229337   4.486   6.251   6.794
 9480SOL     OW29338   5.011   3.788   0.946
 9480SOL    HW129339   4.988   3.692   0.960
 9480SOL    HW229340   5.013   3.808   0.848
 9481SOL     OW29341   5.257   3.561   2.259
 9481SOL    HW129342   5.211   3.619   2.192
 9481SOL    HW229343   5.208   3.564   2.345
 9482SOL     OW29344   6.729   0.717   3.349
 9482SOL    HW129345   6.721   0.815   3.371
 9482SOL    HW229346   6.818   0.684   3.380
 9483SOL     OW29347   0.826   1.632   1.833
 9483SOL    HW129348   0.884   1.565   1.787
 9483SOL    HW229349   0.882   1.688   1.893
 9484SOL     OW29350   3.233   0.873   3.751
 9484SOL    HW129351   3.255   0.832   3.840
 9484SOL    HW229352   3.221   0.801   3.683
 9485SOL     OW29353   0.503   0.157   1.743
 9485SOL    HW129354   0.568   0.082   1.752
 9485SOL    HW229355   0.416   0.121   1.709
 9486SOL     OW29356   2.966   6.122   1.253
 9486SOL    HW129357   2.908   6.186   1.203
 9486SOL    HW229358   3.035   6.173   1.304
 9487SOL     OW29359   3.146   3.095   3.374
 9487SOL    HW129360   3.159   3.026   3.302
 9487SOL    HW229361   3.142   3.186   3.332
 9488SOL     OW29362   1.349   6.249   0.778
 9488SOL    HW129363   1.329   6.213   0.869
 9488SOL    HW229364   1.323   6.345   0.773
 9489SOL     OW29365   4.385   4.381   1.478
 9489SOL    HW129366   4.430   4.460   1.436
 9489SOL    HW229367   4.451   4.332   1.535
 9490SOL     OW29368   0.050   5.614   0.991
 9490SOL    HW129369   0.046   5.606   1.090
 9490SOL    HW229370   0.001   5.537   0.949
 9491SOL     OW29371   6.560   4.229   4.179
 9491SOL    HW129372   6.529   4.319   4.211
 9491SOL    HW229373   6.595   4.177   4.257
 9492SOL     OW29374   3.511   2.882   2.924
 9492SOL    HW129375   3.526   2.784   2.912
 9492SOL    HW229376   3.549   2.911   3.012
 9493SOL     OW29377   3.812   5.319   3.950
 9493SOL    HW129378   3.805   5.350   3.855
 9493SOL    HW229379   3.724   5.330   3.996
 9494SOL     OW29380   4.757   4.703   1.746
 9494SOL    HW129381   4.801   4.731   1.661
 9494SOL    HW229382   4.676   4.647   1.725
 9495SOL     OW29383   6.362   1.799   3.343
 9495SOL    HW129384   6.411   1.757   3.420
 9495SOL    HW229385   6.386   1.751   3.258
 9496SOL     OW29386   6.217   5.015   1.437
 9496SOL    HW129387   6.240   5.045   1.344
 9496SOL    HW229388   6.177   4.923   1.432
 9497SOL     OW29389   5.854   6.008   6.941
 9497SOL    HW129390   5.782   5.966   6.997
 9497SOL    HW229391   5.816   6.087   6.893
 9498SOL     OW29392   5.234   6.651   4.807
 9498SOL    HW129393   5.182   6.566   4.794
 9498SOL    HW229394   5.236   6.703   4.722
 9499SOL     OW29395   1.678   4.988   6.349
 9499SOL    HW129396   1.774   4.985   6.378
 9499SOL    HW229397   1.668   5.052   6.273
 9500SOL     OW29398   5.443   0.367   0.721
 9500SOL    HW129399   5.421   0.389   0.815
 9500SOL    HW229400   5.532   0.320   0.718
 9501SOL     OW29401   2.963   1.469   5.088
 9501SOL    HW129402   3.005   1.413   5.159
 9501SOL    HW229403   2.922   1.410   5.019
 9502SOL     OW29404   6.875   2.518   4.974
 9502SOL    HW129405   6.954   2.460   4.954
 9502SOL    HW229406   6.855   2.577   4.896
 9503SOL     OW29407   0.221   1.701   1.592
 9503SOL    HW129408   0.196   1.607   1.568
 9503SOL    HW229409   0.307   1.725   1.547
 9504SOL     OW29410   6.726   2.275   1.164
 9504SOL    HW129411   6.698   2.194   1.216
 9504SOL    HW229412   6.652   2.342   1.163
 9505SOL     OW29413   5.606   4.753   3.316
 9505SOL    HW129414   5.600   4.735   3.414
 9505SOL    HW229415   5.588   4.669   3.265
 9506SOL     OW29416   0.586   2.384   6.242
 9506SOL    HW129417   0.620   2.378   6.335
 9506SOL    HW229418   0.575   2.480   6.216
 9507SOL     OW29419   1.209   1.849   2.859
 9507SOL    HW129420   1.167   1.872   2.772
 9507SOL    HW229421   1.180   1.757   2.886
 9508SOL     OW29422   6.857   3.750   1.179
 9508SOL    HW129423   6.767   3.720   1.209
 9508SOL    HW229424   6.922   3.674   1.185
 9509SOL     OW29425   0.314   0.775   5.214
 9509SOL    HW129426   0.230   0.811   5.175
 9509SOL    HW229427   0.366   0.850   5.255
 9510SOL     OW29428   1.458   3.684   2.407
 9510SOL    HW129429   1.394   3.655   2.478
 9510SOL    HW229430   1.464   3.784   2.406
 9511SOL     OW29431   0.257   1.156   0.343
 9511SOL    HW129432   0.265   1.232   0.407
 9511SOL    HW229433   0.168   1.112   0.353
 9512SOL     OW29434   5.700   1.387   1.550
 9512SOL    HW129435   5.605   1.373   1.578
 9512SOL    HW229436   5.707   1.475   1.503
 9513SOL     OW29437   1.943   3.272   6.577
 9513SOL    HW129438   1.962   3.195   6.638
 9513SOL    HW229439   1.867   3.325   6.613
 9514SOL     OW29440   2.038   4.561   6.480
 9514SOL    HW129441   2.108   4.498   6.447
 9514SOL    HW229442   1.953   4.547   6.429
 9515SOL     OW29443   1.355   6.188   1.595
 9515SOL    HW129444   1.279   6.184   1.660
 9515SOL    HW229445   1.367   6.282   1.565
 9516SOL     OW29446   5.342   4.083   4.928
 9516SOL    HW129447   5.401   4.108   5.005
 9516SOL    HW229448   5.380   4.003   4.881
 9517SOL     OW29449   0.729   4.527   1.076
 9517SOL    HW129450   0.672   4.517   1.158
 9517SOL    HW229451   0.818   4.484   1.093
 9518SOL     OW29452   1.484   1.428   0.105
 9518SOL    HW129453   1.430   1.424   0.021
 9518SOL    HW229454   1.427   1.467   0.179
 9519SOL     OW29455   3.477   4.036   4.268
 9519SOL    HW129456   3.384   4.004   4.284
 9519SOL    HW229457   3.520   3.981   4.196
 9520SOL     OW29458   1.052   1.262   3.328
 9520SOL    HW129459   1.092   1.317   3.255
 9520SOL    HW229460   1.119   1.195   3.361
 9521SOL     OW29461   4.861   5.271   1.621
 9521SOL    HW129462   4.854   5.286   1.719
 9521SOL    HW229463   4.861   5.360   1.574
 9522SOL     OW29464   4.065   5.065   1.480
 9522SOL    HW129465   3.989   5.020   1.434
 9522SOL    HW229466   4.130   5.100   1.412
 9523SOL     OW29467   2.763   5.020   4.540
 9523SOL    HW129468   2.747   4.937   4.487
 9523SOL    HW229469   2.818   5.084   4.485
 9524SOL     OW29470   3.055   3.242   0.622
 9524SOL    HW129471   2.969   3.208   0.658
 9524SOL    HW229472   3.086   3.320   0.676
 9525SOL     OW29473   2.159   2.044   5.960
 9525SOL    HW129474   2.220   1.974   5.923
 9525SOL    HW229475   2.138   2.023   6.055
 9526SOL     OW29476   6.106   4.744   1.410
 9526SOL    HW129477   6.151   4.688   1.341
 9526SOL    HW229478   6.009   4.722   1.413
 9527SOL     OW29479   0.729   1.100   4.474
 9527SOL    HW129480   0.802   1.031   4.483
 9527SOL    HW229481   0.751   1.162   4.399
 9528SOL     OW29482   6.862   1.917   1.124
 9528SOL    HW129483   6.948   1.964   1.145
 9528SOL    HW229484   6.849   1.843   1.191
 9529SOL     OW29485   6.295   3.431   6.410
 9529SOL    HW129486   6.384   3.391   6.392
 9529SOL    HW229487   6.225   3.360   6.402
 9530SOL     OW29488   1.884   2.820   3.375
 9530SOL    HW129489   1.930   2.734   3.396
 9530SOL    HW229490   1.894   2.840   3.277
 9531SOL     OW29491   5.161   4.669   2.465
 9531SOL    HW129492   5.072   4.657   2.510
 9531SOL    HW229493   5.216   4.587   2.478
 9532SOL     OW29494   0.559   6.150   1.464
 9532SOL    HW129495   0.460   6.163   1.463
 9532SOL    HW229496   0.598   6.180   1.377
 9533SOL     OW29497   0.288   5.617   5.321
 9533SOL    HW129498   0.302   5.705   5.366
 9533SOL    HW229499   0.335   5.545   5.372
 9534SOL     OW29500   6.618   4.000   5.483
 9534SOL    HW129501   6.630   4.027   5.388
 9534SOL    HW229502   6.559   3.920   5.488
 9535SOL     OW29503   1.625   0.484   5.955
 9535SOL    HW129504   1.547   0.494   5.892
 9535SOL    HW229505   1.708   0.467   5.903
 9536SOL     OW29506   2.884   4.120   5.611
 9536SOL    HW129507   2.910   4.024   5.609
 9536SOL    HW229508   2.962   4.176   5.580
 9537SOL     OW29509   2.760   0.098   4.698
 9537SOL    HW129510   2.690   0.033   4.726
 9537SOL    HW229511   2.790   0.151   4.777
 9538SOL     OW29512   5.641   0.941   3.445
 9538SOL    HW129513   5.677   1.018   3.498
 9538SOL    HW229514   5.547   0.960   3.418
 9539SOL     OW29515   3.389   3.300   4.646
 9539SOL    HW129516   3.383   3.201   4.631
 9539SOL    HW229517   3.484   3.329   4.636
 9540SOL     OW29518   6.296   4.424   4.413
 9540SOL    HW129519   6.375   4.463   4.366
 9540SOL    HW229520   6.246   4.496   4.461
 9541SOL     OW29521   2.976   0.512   5.838
 9541SOL    HW129522   2.920   0.592   5.817
 9541SOL    HW229523   3.073   0.538   5.837
 9542SOL     OW29524   4.867   4.345   4.906
 9542SOL    HW129525   4.849   4.337   4.808
 9542SOL    HW229526   4.964   4.327   4.924
 9543SOL     OW29527   3.602   0.240   6.052
 9543SOL    HW129528   3.651   0.322   6.024
 9543SOL    HW229529   3.562   0.196   5.971
 9544SOL     OW29530   6.675   2.277   3.041
 9544SOL    HW129531   6.671   2.183   3.074
 9544SOL    HW229532   6.657   2.340   3.118
 9545SOL     OW29533   5.721   5.751   4.783
 9545SOL    HW129534   5.788   5.738   4.710
 9545SOL    HW229535   5.643   5.690   4.768
 9546SOL     OW29536   4.068   1.927   5.072
 9546SOL    HW129537   4.114   1.937   4.984
 9546SOL    HW229538   4.114   1.855   5.125
 9547SOL     OW29539   3.199   5.615   3.893
 9547SOL    HW129540   3.207   5.549   3.967
 9547SOL    HW229541   3.105   5.615   3.859
 9548SOL     OW29542   6.230   4.839   6.234
 9548SOL    HW129543   6.263   4.801   6.321
 9548SOL    HW229544   6.185   4.768   6.181
 9549SOL     OW29545   2.644   3.126   1.006
 9549SOL    HW129546   2.651   3.195   1.079
 9549SOL    HW229547   2.657   3.035   1.045
 9550SOL     OW29548   6.610   1.148   0.216
 9550SOL    HW129549   6.637   1.150   0.312
 9550SOL    HW229550   6.652   1.069   0.171
 9551SOL     OW29551   6.057   1.420   5.770
 9551SOL    HW129552   6.058   1.339   5.711
 9551SOL    HW229553   6.117   1.406   5.848
 9552SOL     OW29554   1.700   6.802   4.162
 9552SOL    HW129555   1.691   6.875   4.095
 9552SOL    HW229556   1.706   6.841   4.254
 9553SOL     OW29557   6.204   2.941   6.492
 9553SOL    HW129558   6.212   2.846   6.524
 9553SOL    HW229559   6.114   2.954   6.451
 9554SOL     OW29560   2.377   0.060   1.711
 9554SOL    HW129561   2.462   0.033   1.756
 9554SOL    HW229562   2.318   0.107   1.777
 9555SOL     OW29563   0.959   0.545   2.863
 9555SOL    HW129564   0.874   0.569   2.817
 9555SOL    HW229565   1.029   0.613   2.842
 9556SOL     OW29566   1.393   3.652   1.845
 9556SOL    HW129567   1.468   3.659   1.780
 9556SOL    HW229568   1.410   3.576   1.908
 9557SOL     OW29569   0.147   6.191   1.919
 9557SOL    HW129570   0.152   6.101   1.876
 9557SOL    HW229571   0.230   6.207   1.972
 9558SOL     OW29572   5.997   6.171   4.900
 9558SOL    HW129573   6.073   6.106   4.894
 9558SOL    HW229574   5.982   6.213   4.811
 9559SOL     OW29575   0.507   4.258   1.196
 9559SOL    HW129576   0.430   4.305   1.239
 9559SOL    HW229577   0.477   4.173   1.155
 9560SOL     OW29578   1.713   1.636   3.162
 9560SOL    HW129579   1.715   1.728   3.122
 9560SOL    HW229580   1.726   1.643   3.261
 9561SOL     OW29581   2.163   0.162   0.629
 9561SOL    HW129582   2.140   0.166   0.726
 9561SOL    HW229583   2.187   0.254   0.597
 9562SOL     OW29584   2.410   0.407   5.144
 9562SOL    HW129585   2.408   0.472   5.220
 9562SOL    HW229586   2.317   0.396   5.108
 9563SOL     OW29587   6.348   6.465   0.621
 9563SOL    HW129588   6.347   6.439   0.718
 9563SOL    HW229589   6.443   6.470   0.589
 9564SOL     OW29590   2.699   6.980   0.508
 9564SOL    HW129591   2.691   0.047   0.548
 9564SOL    HW229592   2.727   6.989   0.412
 9565SOL     OW29593   3.504   0.195   4.550
 9565SOL    HW129594   3.552   0.233   4.470
 9565SOL    HW229595   3.543   0.234   4.633
 9566SOL     OW29596   1.786   4.832   0.066
 9566SOL    HW129597   1.784   4.895   7.013
 9566SOL    HW229598   1.857   4.763   0.050
 9567SOL     OW29599   5.278   4.828   1.051
 9567SOL    HW129600   5.211   4.778   1.105
 9567SOL    HW229601   5.252   4.925   1.046
 9568SOL     OW29602   4.134   2.199   6.879
 9568SOL    HW129603   4.181   2.166   6.798
 9568SOL    HW229604   4.187   2.176   6.961
 9569SOL     OW29605   0.246   1.517   2.523
 9569SOL    HW129606   0.197   1.486   2.605
 9569SOL    HW229607   0.321   1.578   2.550
 9570SOL     OW29608   0.891   3.200   2.227
 9570SOL    HW129609   0.796   3.211   2.254
 9570SOL    HW229610   0.930   3.289   2.205
 9571SOL     OW29611   3.983   4.088   5.916
 9571SOL    HW129612   4.049   4.037   5.860
 9571SOL    HW229613   3.908   4.120   5.858
 9572SOL     OW29614   2.425   5.214   1.335
 9572SOL    HW129615   2.413   5.219   1.434
 9572SOL    HW229616   2.517   5.182   1.314
 9573SOL     OW29617   0.721   1.935   6.739
 9573SOL    HW129618   0.727   2.032   6.716
 9573SOL    HW229619   0.629   1.901   6.716
 9574SOL     OW29620   3.995   3.155   3.529
 9574SOL    HW129621   3.989   3.220   3.453
 9574SOL    HW229622   4.067   3.185   3.592
 9575SOL     OW29623   0.217   1.442   1.466
 9575SOL    HW129624   0.268   1.371   1.516
 9575SOL    HW229625   0.239   1.436   1.369
 9576SOL     OW29626   2.006   0.696   1.839
 9576SOL    HW129627   1.932   0.629   1.828
 9576SOL    HW229628   2.048   0.714   1.751
 9577SOL     OW29629   1.353   0.551   6.064
 9577SOL    HW129630   1.307   0.468   6.097
 9577SOL    HW229631   1.398   0.596   6.141
 9578SOL     OW29632   0.539   4.042   3.878
 9578SOL    HW129633   0.621   3.992   3.851
 9578SOL    HW229634   0.566   4.133   3.911
 9579SOL     OW29635   1.525   5.180   2.619
 9579SOL    HW129636   1.502   5.143   2.709
 9579SOL    HW229637   1.516   5.109   2.550
 9580SOL     OW29638   4.698   3.043   0.684
 9580SOL    HW129639   4.661   2.950   0.685
 9580SOL    HW229640   4.796   3.039   0.666
 9581SOL     OW29641   0.265   5.719   6.174
 9581SOL    HW129642   0.311   5.633   6.191
 9581SOL    HW229643   0.323   5.777   6.117
 9582SOL     OW29644   4.990   5.246   6.163
 9582SOL    HW129645   5.054   5.318   6.191
 9582SOL    HW229646   4.954   5.200   6.244
 9583SOL     OW29647   3.860   4.337   1.004
 9583SOL    HW129648   3.957   4.351   1.025
 9583SOL    HW229649   3.820   4.423   0.972
 9584SOL     OW29650   6.797   5.519   0.061
 9584SOL    HW129651   6.746   5.460   7.023
 9584SOL    HW229652   6.773   5.497   0.155
 9585SOL     OW29653   6.570   0.930   4.719
 9585SOL    HW129654   6.483   0.925   4.670
 9585SOL    HW229655   6.606   0.838   4.733
 9586SOL     OW29656   5.582   4.548   2.700
 9586SOL    HW129657   5.655   4.525   2.637
 9586SOL    HW229658   5.596   4.500   2.787
 9587SOL     OW29659   6.556   1.265   2.053
 9587SOL    HW129660   6.580   1.294   1.960
 9587SOL    HW229661   6.484   1.196   2.049
 9588SOL     OW29662   6.705   1.399   1.835
 9588SOL    HW129663   6.760   1.317   1.822
 9588SOL    HW229664   6.637   1.406   1.762
 9589SOL     OW29665   2.375   4.992   5.776
 9589SOL    HW129666   2.352   5.088   5.760
 9589SOL    HW229667   2.291   4.940   5.792
 9590SOL     OW29668   6.678   3.321   1.755
 9590SOL    HW129669   6.717   3.411   1.774
 9590SOL    HW229670   6.601   3.304   1.817
 9591SOL     OW29671   3.490   6.498   6.155
 9591SOL    HW129672   3.504   6.435   6.232
 9591SOL    HW229673   3.478   6.591   6.190
 9592SOL     OW29674   3.904   3.909   0.884
 9592SOL    HW129675   3.939   3.888   0.792
 9592SOL    HW229676   3.980   3.927   0.945
 9593SOL     OW29677   0.019   1.294   5.097
 9593SOL    HW129678   0.074   1.272   5.016
 9593SOL    HW229679   6.990   1.214   5.123
 9594SOL     OW29680   1.191   6.436   3.056
 9594SOL    HW129681   1.120   6.370   3.081
 9594SOL    HW229682   1.270   6.388   3.018
 9595SOL     OW29683   1.254   4.185   5.218
 9595SOL    HW129684   1.196   4.183   5.136
 9595SOL    HW229685   1.267   4.280   5.247
 9596SOL     OW29686   0.150   5.622   6.986
 9596SOL    HW129687   0.247   5.643   6.972
 9596SOL    HW229688   0.136   5.588   0.054
 9597SOL     OW29689   0.560   4.530   1.326
 9597SOL    HW129690   0.603   4.526   1.416
 9597SOL    HW229691   0.558   4.439   1.286
 9598SOL     OW29692   0.948   3.449   4.356
 9598SOL    HW129693   0.927   3.478   4.263
 9598SOL    HW229694   1.020   3.380   4.354
 9599SOL     OW29695   3.716   6.608   5.109
 9599SOL    HW129696   3.761   6.522   5.133
 9599SOL    HW229697   3.784   6.676   5.084
 9600SOL     OW29698   2.259   0.166   6.817
 9600SOL    HW129699   2.204   0.086   6.842
 9600SOL    HW229700   2.301   0.204   6.900
 9601SOL     OW29701   5.588   3.734   1.645
 9601SOL    HW129702   5.533   3.680   1.581
 9601SOL    HW229703   5.654   3.789   1.594
 9602SOL     OW29704   6.905   5.042   6.583
 9602SOL    HW129705   6.966   5.053   6.662
 9602SOL    HW229706   6.930   4.960   6.532
 9603SOL     OW29707   3.654   1.904   4.311
 9603SOL    HW129708   3.723   1.847   4.267
 9603SOL    HW229709   3.586   1.846   4.356
 9604SOL     OW29710   4.017   0.532   0.096
 9604SOL    HW129711   4.087   0.597   0.128
 9604SOL    HW229712   3.965   0.498   0.174
 9605SOL     OW29713   0.471   5.179   3.601
 9605SOL    HW129714   0.475   5.115   3.679
 9605SOL    HW229715   0.432   5.266   3.632
 9606SOL     OW29716   2.148   6.709   6.318
 9606SOL    HW129717   2.193   6.740   6.234
 9606SOL    HW229718   2.085   6.634   6.296
 9607SOL     OW29719   1.474   1.441   0.750
 9607SOL    HW129720   1.400   1.439   0.818
 9607SOL    HW229721   1.555   1.397   0.788
 9608SOL     OW29722   6.679   6.434   2.183
 9608SOL    HW129723   6.668   6.504   2.253
 9608SOL    HW229724   6.695   6.345   2.227
 9609SOL     OW29725   2.322   4.184   6.361
 9609SOL    HW129726   2.350   4.101   6.409
 9609SOL    HW229727   2.301   4.162   6.266
 9610SOL     OW29728   2.033   5.176   3.881
 9610SOL    HW129729   1.943   5.145   3.913
 9610SOL    HW229730   2.047   5.271   3.908
 9611SOL     OW29731   7.023   6.711   6.501
 9611SOL    HW129732   7.012   6.661   6.416
 9611SOL    HW229733   0.094   6.740   6.511
 9612SOL     OW29734   0.900   3.776   1.885
 9612SOL    HW129735   0.943   3.814   1.803
 9612SOL    HW229736   0.949   3.807   1.966
 9613SOL     OW29737   4.480   6.284   3.719
 9613SOL    HW129738   4.477   6.365   3.777
 9613SOL    HW229739   4.573   6.271   3.684
 9614SOL     OW29740   4.054   2.428   0.274
 9614SOL    HW129741   3.981   2.441   0.207
 9614SOL    HW229742   4.058   2.507   0.335
 9615SOL     OW29743   0.455   6.720   1.197
 9615SOL    HW129744   0.427   6.627   1.219
 9615SOL    HW229745   0.547   6.719   1.157
 9616SOL     OW29746   4.554   3.473   0.944
 9616SOL    HW129747   4.485   3.450   1.012
 9616SOL    HW229748   4.595   3.389   0.907
 9617SOL     OW29749   1.706   3.326   3.960
 9617SOL    HW129750   1.765   3.248   3.982
 9617SOL    HW229751   1.741   3.408   4.005
 9618SOL     OW29752   3.792   0.242   5.461
 9618SOL    HW129753   3.697   0.224   5.436
 9618SOL    HW229754   3.795   0.313   5.533
 9619SOL     OW29755   0.675   6.773   0.342
 9619SOL    HW129756   0.756   6.779   0.401
 9619SOL    HW229757   0.693   6.820   0.255
 9620SOL     OW29758   4.472   2.615   6.961
 9620SOL    HW129759   4.384   2.639   6.920
 9620SOL    HW229760   4.458   2.589   0.032
 9621SOL     OW29761   0.920   0.912   2.436
 9621SOL    HW129762   0.922   1.011   2.454
 9621SOL    HW229763   0.988   0.867   2.494
 9622SOL     OW29764   6.476   0.700   0.137
 9622SOL    HW129765   6.514   0.727   0.049
 9622SOL    HW229766   6.523   0.618   0.170
 9623SOL     OW29767   4.118   4.998   5.373
 9623SOL    HW129768   4.109   4.978   5.275
 9623SOL    HW229769   4.165   4.921   5.418
 9624SOL     OW29770   5.924   4.372   3.719
 9624SOL    HW129771   5.858   4.380   3.793
 9624SOL    HW229772   6.011   4.340   3.756
 9625SOL     OW29773   5.018   5.303   6.815
 9625SOL    HW129774   4.943   5.264   6.761
 9625SOL    HW229775   5.027   5.401   6.793
 9626SOL     OW29776   2.269   6.467   0.226
 9626SOL    HW129777   2.362   6.503   0.229
 9626SOL    HW229778   2.269   6.371   0.256
 9627SOL     OW29779   0.159   4.355   3.415
 9627SOL    HW129780   0.129   4.263   3.439
 9627SOL    HW229781   0.100   4.392   3.343
 9628SOL     OW29782   6.448   4.595   6.951
 9628SOL    HW129783   6.358   4.606   6.909
 9628SOL    HW229784   6.515   4.572   6.881
 9629SOL     OW29785   0.121   6.720   2.858
 9629SOL    HW129786   0.071   6.750   2.939
 9629SOL    HW229787   0.104   6.784   2.783
 9630SOL     OW29788   5.955   6.594   5.210
 9630SOL    HW129789   5.982   6.676   5.159
 9630SOL    HW229790   5.867   6.611   5.255
 9631SOL     OW29791   5.863   0.884   6.861
 9631SOL    HW129792   5.875   0.952   6.934
 9631SOL    HW229793   5.854   0.931   6.774
 9632SOL     OW29794   2.311   5.521   2.318
 9632SOL    HW129795   2.243   5.591   2.339
 9632SOL    HW229796   2.378   5.516   2.392
 9633SOL     OW29797   5.342   4.980   6.988
 9633SOL    HW129798   5.242   4.975   6.982
 9633SOL    HW229799   5.381   4.892   6.959
 9634SOL     OW29800   0.795   6.673   4.627
 9634SOL    HW129801   0.708   6.707   4.592
 9634SOL    HW229802   0.827   6.733   4.700
 9635SOL     OW29803   2.097   4.673   5.605
 9635SOL    HW129804   2.132   4.705   5.694
 9635SOL    HW229805   2.149   4.592   5.577
 9636SOL     OW29806   4.119   1.921   6.159
 9636SOL    HW129807   4.088   1.997   6.101
 9636SOL    HW229808   4.098   1.941   6.254
 9637SOL     OW29809   2.260   1.965   0.408
 9637SOL    HW129810   2.249   2.050   0.358
 9637SOL    HW229811   2.354   1.932   0.398
 9638SOL     OW29812   0.003   3.809   6.831
 9638SOL    HW129813   0.014   3.744   6.906
 9638SOL    HW229814   6.951   3.871   6.851
 9639SOL     OW29815   4.882   1.869   1.987
 9639SOL    HW129816   4.808   1.935   1.973
 9639SOL    HW229817   4.853   1.779   1.956
 9640SOL     OW29818   3.021   1.301   3.079
 9640SOL    HW129819   2.938   1.291   3.026
 9640SOL    HW229820   2.999   1.333   3.171
 9641SOL     OW29821   5.114   6.057   1.105
 9641SOL    HW129822   5.165   6.021   1.184
 9641SOL    HW229823   5.045   6.122   1.137
 9642SOL     OW29824   2.049   5.907   4.787
 9642SOL    HW129825   2.076   5.873   4.697
 9642SOL    HW229826   1.950   5.916   4.791
 9643SOL     OW29827   6.084   4.543   3.930
 9643SOL    HW129828   6.053   4.558   4.024
 9643SOL    HW229829   6.055   4.619   3.872
 9644SOL     OW29830   0.052   5.098   4.665
 9644SOL    HW129831   0.079   5.170   4.600
 9644SOL    HW229832   0.127   5.033   4.675
 9645SOL     OW29833   3.115   4.846   3.469
 9645SOL    HW129834   3.200   4.872   3.514
 9645SOL    HW229835   3.050   4.813   3.538
 9646SOL     OW29836   2.735   4.701   2.167
 9646SOL    HW129837   2.766   4.665   2.079
 9646SOL    HW229838   2.674   4.634   2.210
 9647SOL     OW29839   0.739   5.507   1.614
 9647SOL    HW129840   0.658   5.453   1.637
 9647SOL    HW229841   0.723   5.555   1.527
 9648SOL     OW29842   3.439   2.274   7.021
 9648SOL    HW129843   3.514   2.210   7.007
 9648SOL    HW229844   3.467   2.366   6.991
 9649SOL     OW29845   2.572   4.944   0.060
 9649SOL    HW129846   2.657   4.991   0.037
 9649SOL    HW229847   2.555   4.870   7.020
 9650SOL     OW29848   4.838   4.502   3.284
 9650SOL    HW129849   4.821   4.455   3.198
 9650SOL    HW229850   4.874   4.438   3.352
 9651SOL     OW29851   6.232   0.660   0.295
 9651SOL    HW129852   6.261   0.642   0.389
 9651SOL    HW229853   6.310   0.693   0.241
 9652SOL     OW29854   2.276   4.235   1.160
 9652SOL    HW129855   2.313   4.169   1.095
 9652SOL    HW229856   2.312   4.326   1.138
 9653SOL     OW29857   4.353   5.483   5.293
 9653SOL    HW129858   4.255   5.483   5.272
 9653SOL    HW229859   4.403   5.435   5.220
 9654SOL     OW29860   3.756   3.228   2.364
 9654SOL    HW129861   3.842   3.183   2.339
 9654SOL    HW229862   3.761   3.258   2.460
 9655SOL     OW29863   6.973   1.489   6.844
 9655SOL    HW129864   7.008   1.473   6.752
 9655SOL    HW229865   6.946   1.401   6.885
 9656SOL     OW29866   4.551   1.946   1.056
 9656SOL    HW129867   4.604   1.862   1.047
 9656SOL    HW229868   4.454   1.924   1.067
 9657SOL     OW29869   6.224   2.388   3.828
 9657SOL    HW129870   6.244   2.290   3.833
 9657SOL    HW229871   6.169   2.406   3.746
 9658SOL     OW29872   5.506   1.778   2.594
 9658SOL    HW129873   5.551   1.867   2.580
 9658SOL    HW229874   5.432   1.788   2.660
 9659SOL     OW29875   6.936   2.796   0.484
 9659SOL    HW129876   6.976   2.763   0.399
 9659SOL    HW229877   6.914   2.719   0.543
 9660SOL     OW29878   0.089   6.435   2.173
 9660SOL    HW129879   0.028   6.514   2.178
 9660SOL    HW229880   0.040   6.354   2.204
 9661SOL     OW29881   3.441   6.213   1.450
 9661SOL    HW129882   3.460   6.116   1.439
 9661SOL    HW229883   3.421   6.233   1.546
 9662SOL     OW29884   4.280   2.774   5.364
 9662SOL    HW129885   4.230   2.729   5.290
 9662SOL    HW229886   4.333   2.705   5.415
 9663SOL     OW29887   6.523   6.508   3.519
 9663SOL    HW129888   6.423   6.516   3.522
 9663SOL    HW229889   6.551   6.480   3.427
 9664SOL     OW29890   5.298   6.404   4.319
 9664SOL    HW129891   5.365   6.434   4.251
 9664SOL    HW229892   5.309   6.457   4.403
 9665SOL     OW29893   5.569   6.437   0.257
 9665SOL    HW129894   5.494   6.380   0.226
 9665SOL    HW229895   5.586   6.420   0.355
 9666SOL     OW29896   6.200   3.989   1.738
 9666SOL    HW129897   6.176   4.085   1.753
 9666SOL    HW229898   6.246   3.953   1.819
 9667SOL     OW29899   3.897   3.672   5.566
 9667SOL    HW129900   3.837   3.745   5.598
 9667SOL    HW229901   3.862   3.584   5.598
 9668SOL     OW29902   6.927   0.862   6.252
 9668SOL    HW129903   6.916   0.961   6.241
 9668SOL    HW229904   6.852   0.826   6.307
 9669SOL     OW29905   1.922   0.187   2.430
 9669SOL    HW129906   1.855   0.205   2.502
 9669SOL    HW229907   1.884   0.214   2.341
 9670SOL     OW29908   6.319   4.417   6.735
 9670SOL    HW129909   6.221   4.437   6.738
 9670SOL    HW229910   6.339   4.339   6.795
 9671SOL     OW29911   6.385   4.428   0.142
 9671SOL    HW129912   6.289   4.401   0.138
 9671SOL    HW229913   6.404   4.494   0.069
 9672SOL     OW29914   1.438   5.913   3.434
 9672SOL    HW129915   1.453   5.948   3.526
 9672SOL    HW229916   1.344   5.880   3.426
 9673SOL     OW29917   5.334   3.924   0.853
 9673SOL    HW129918   5.409   3.967   0.805
 9673SOL    HW229919   5.329   3.827   0.829
 9674SOL     OW29920   2.225   6.896   2.975
 9674SOL    HW129921   2.132   6.894   2.939
 9674SOL    HW229922   2.235   6.826   3.045
 9675SOL     OW29923   5.579   2.533   0.800
 9675SOL    HW129924   5.572   2.454   0.739
 9675SOL    HW229925   5.514   2.603   0.771
 9676SOL     OW29926   1.375   3.751   5.510
 9676SOL    HW129927   1.369   3.800   5.423
 9676SOL    HW229928   1.302   3.784   5.571
 9677SOL     OW29929   0.421   5.325   5.210
 9677SOL    HW129930   0.373   5.262   5.271
 9677SOL    HW229931   0.426   5.286   5.118
 9678SOL     OW29932   3.249   3.965   3.136
 9678SOL    HW129933   3.197   3.895   3.090
 9678SOL    HW229934   3.252   4.048   3.080
 9679SOL     OW29935   2.634   1.171   3.054
 9679SOL    HW129936   2.638   1.219   3.142
 9679SOL    HW229937   2.714   1.112   3.044
 9680SOL     OW29938   4.718   1.119   2.860
 9680SOL    HW129939   4.618   1.120   2.865
 9680SOL    HW229940   4.747   1.050   2.793
 9681SOL     OW29941   3.236   1.496   0.456
 9681SOL    HW129942   3.171   1.424   0.433
 9681SOL    HW229943   3.266   1.542   0.372
 9682SOL     OW29944   5.318   4.749   3.698
 9682SOL    HW129945   5.366   4.689   3.633
 9682SOL    HW229946   5.382   4.815   3.736
 9683SOL     OW29947   3.042   5.259   0.358
 9683SOL    HW129948   3.059   5.252   0.260
 9683SOL    HW229949   3.121   5.223   0.408
 9684SOL     OW29950   0.379   3.259   5.485
 9684SOL    HW129951   0.337   3.349   5.479
 9684SOL    HW229952   0.389   3.233   5.581
 9685SOL     OW29953   3.079   4.997   1.180
 9685SOL    HW129954   3.171   5.038   1.182
 9685SOL    HW229955   3.070   4.939   1.099
 9686SOL     OW29956   6.677   1.504   6.799
 9686SOL    HW129957   6.772   1.478   6.818
 9686SOL    HW229958   6.650   1.576   6.863
 9687SOL     OW29959   1.727   0.715   3.821
 9687SOL    HW129960   1.787   0.745   3.895
 9687SOL    HW229961   1.633   0.711   3.855
 9688SOL     OW29962   0.469   3.413   2.770
 9688SOL    HW129963   0.533   3.413   2.846
 9688SOL    HW229964   0.388   3.359   2.795
 9689SOL     OW29965   1.116   4.822   6.534
 9689SOL    HW129966   1.109   4.723   6.521
 9689SOL    HW229967   1.132   4.842   6.631
 9690SOL     OW29968   5.691   5.261   0.312
 9690SOL    HW129969   5.743   5.228   0.391
 9690SOL    HW229970   5.631   5.189   0.278
 9691SOL     OW29971   3.126   5.297   0.899
 9691SOL    HW129972   3.112   5.263   0.806
 9691SOL    HW229973   3.211   5.259   0.935
 9692SOL     OW29974   3.821   5.192   2.903
 9692SOL    HW129975   3.833   5.194   2.803
 9692SOL    HW229976   3.724   5.205   2.924
 9693SOL     OW29977   6.244   5.301   1.771
 9693SOL    HW129978   6.199   5.212   1.781
 9693SOL    HW229979   6.181   5.373   1.800
 9694SOL     OW29980   2.370   0.894   0.511
 9694SOL    HW129981   2.380   0.859   0.605
 9694SOL    HW229982   2.445   0.957   0.492
 9695SOL     OW29983   0.037   3.339   2.761
 9695SOL    HW129984   0.038   3.397   2.679
 9695SOL    HW229985   6.994   3.375   2.826
 9696SOL     OW29986   5.330   3.631   1.130
 9696SOL    HW129987   5.322   3.717   1.180
 9696SOL    HW229988   5.381   3.646   1.046
 9697SOL     OW29989   0.647   5.515   6.803
 9697SOL    HW129990   0.600   5.505   6.715
 9697SOL    HW229991   0.744   5.496   6.791
 9698SOL     OW29992   4.486   1.482   5.909
 9698SOL    HW129993   4.515   1.561   5.963
 9698SOL    HW229994   4.535   1.482   5.822
 9699SOL     OW29995   0.016   5.083   6.863
 9699SOL    HW129996   0.043   5.178   6.878
 9699SOL    HW229997   0.027   5.031   6.947
 9700SOL     OW29998   4.655   5.308   4.845
 9700SOL    HW129999   4.605   5.241   4.900
 9700SOL    HW230000   4.654   5.396   4.891
 9701SOL     OW30001   4.327   5.074   5.658
 9701SOL    HW130002   4.241   5.071   5.607
 9701SOL    HW230003   4.403   5.054   5.597
 9702SOL     OW30004   4.680   0.318   6.812
 9702SOL    HW130005   4.646   0.315   6.718
 9702SOL    HW230006   4.780   0.312   6.811
 9703SOL     OW30007   4.599   4.514   3.433
 9703SOL    HW130008   4.679   4.536   3.378
 9703SOL    HW230009   4.599   4.416   3.453
 9704SOL     OW30010   3.477   0.998   2.981
 9704SOL    HW130011   3.439   1.076   3.031
 9704SOL    HW230012   3.472   0.917   3.039
 9705SOL     OW30013   5.979   4.429   6.232
 9705SOL    HW130014   5.888   4.408   6.196
 9705SOL    HW230015   5.970   4.486   6.314
 9706SOL     OW30016   0.749   3.583   0.672
 9706SOL    HW130017   0.724   3.573   0.769
 9706SOL    HW230018   0.670   3.563   0.615
 9707SOL     OW30019   6.808   4.753   2.175
 9707SOL    HW130020   6.787   4.664   2.135
 9707SOL    HW230021   6.786   4.751   2.273
 9708SOL     OW30022   1.456   2.162   2.580
 9708SOL    HW130023   1.366   2.156   2.539
 9708SOL    HW230024   1.452   2.129   2.674
 9709SOL     OW30025   6.050   6.349   3.435
 9709SOL    HW130026   6.005   6.429   3.474
 9709SOL    HW230027   5.982   6.290   3.393
 9710SOL     OW30028   6.904   0.704   1.933
 9710SOL    HW130029   6.835   0.651   1.982
 9710SOL    HW230030   6.897   0.800   1.957
 9711SOL     OW30031   2.283   5.143   5.431
 9711SOL    HW130032   2.353   5.212   5.452
 9711SOL    HW230033   2.312   5.089   5.353
 9712SOL     OW30034   5.958   3.660   0.113
 9712SOL    HW130035   5.915   3.625   0.030
 9712SOL    HW230036   6.014   3.740   0.091
 9713SOL     OW30037   1.019   4.891   3.410
 9713SOL    HW130038   1.017   4.859   3.505
 9713SOL    HW230039   1.094   4.845   3.361
 9714SOL     OW30040   3.312   0.123   0.128
 9714SOL    HW130041   3.293   0.035   0.172
 9714SOL    HW230042   3.287   0.118   0.032
 9715SOL     OW30043   5.261   3.719   6.479
 9715SOL    HW130044   5.321   3.650   6.521
 9715SOL    HW230045   5.167   3.687   6.483
 9716SOL     OW30046   3.996   3.494   0.326
 9716SOL    HW130047   3.935   3.503   0.248
 9716SOL    HW230048   4.082   3.542   0.308
 9717SOL     OW30049   5.377   6.461   6.589
 9717SOL    HW130050   5.377   6.530   6.516
 9717SOL    HW230051   5.438   6.490   6.662
 9718SOL     OW30052   4.872   2.658   0.618
 9718SOL    HW130053   4.899   2.578   0.671
 9718SOL    HW230054   4.775   2.651   0.594
 9719SOL     OW30055   6.627   1.573   5.597
 9719SOL    HW130056   6.709   1.539   5.550
 9719SOL    HW230057   6.551   1.575   5.533
 9720SOL     OW30058   6.852   5.282   2.243
 9720SOL    HW130059   6.913   5.277   2.322
 9720SOL    HW230060   6.829   5.378   2.225
 9721SOL     OW30061   0.149   1.910   1.054
 9721SOL    HW130062   0.233   1.862   1.029
 9721SOL    HW230063   0.171   1.988   1.113
 9722SOL     OW30064   6.363   0.743   4.474
 9722SOL    HW130065   6.362   0.661   4.531
 9722SOL    HW230066   6.348   0.824   4.531
 9723SOL     OW30067   1.876   6.916   2.572
 9723SOL    HW130068   1.807   6.901   2.502
 9723SOL    HW230069   1.931   6.996   2.548
 9724SOL     OW30070   1.826   4.562   0.544
 9724SOL    HW130071   1.793   4.653   0.517
 9724SOL    HW230072   1.801   4.496   0.474
 9725SOL     OW30073   3.730   4.879   6.251
 9725SOL    HW130074   3.699   4.787   6.272
 9725SOL    HW230075   3.823   4.876   6.216
 9726SOL     OW30076   5.105   0.946   4.195
 9726SOL    HW130077   5.086   1.042   4.177
 9726SOL    HW230078   5.190   0.920   4.149
 9727SOL     OW30079   1.111   4.109   5.986
 9727SOL    HW130080   1.194   4.055   5.970
 9727SOL    HW230081   1.040   4.051   6.027
 9728SOL     OW30082   0.270   0.587   5.777
 9728SOL    HW130083   0.178   0.578   5.815
 9728SOL    HW230084   0.301   0.681   5.786
 9729SOL     OW30085   1.081   3.810   3.727
 9729SOL    HW130086   1.127   3.790   3.814
 9729SOL    HW230087   1.148   3.813   3.654
 9730SOL     OW30088   1.225   3.477   3.690
 9730SOL    HW130089   1.127   3.466   3.708
 9730SOL    HW230090   1.275   3.402   3.733
 9731SOL     OW30091   4.952   4.561   0.982
 9731SOL    HW130092   4.866   4.577   1.030
 9731SOL    HW230093   5.028   4.568   1.046
 9732SOL     OW30094   6.232   5.923   3.481
 9732SOL    HW130095   6.208   5.829   3.458
 9732SOL    HW230096   6.308   5.953   3.424
 9733SOL     OW30097   5.867   4.959   0.614
 9733SOL    HW130098   5.855   4.938   0.517
 9733SOL    HW230099   5.890   4.875   0.664
 9734SOL     OW30100   6.298   1.646   2.200
 9734SOL    HW130101   6.240   1.567   2.181
 9734SOL    HW230102   6.296   1.666   2.298
 9735SOL     OW30103   2.517   4.583   3.664
 9735SOL    HW130104   2.584   4.616   3.597
 9735SOL    HW230105   2.530   4.630   3.751
 9736SOL     OW30106   6.354   1.802   6.655
 9736SOL    HW130107   6.330   1.705   6.642
 9736SOL    HW230108   6.453   1.811   6.666
 9737SOL     OW30109   5.715   2.640   3.451
 9737SOL    HW130110   5.742   2.646   3.547
 9737SOL    HW230111   5.615   2.635   3.444
 9738SOL     OW30112   1.299   7.021   1.200
 9738SOL    HW130113   1.234   6.945   1.200
 9738SOL    HW230114   1.361   7.011   1.122
 9739SOL     OW30115   6.098   4.799   2.091
 9739SOL    HW130116   6.076   4.882   2.143
 9739SOL    HW230117   6.043   4.723   2.125
 9740SOL     OW30118   6.431   1.642   3.140
 9740SOL    HW130119   6.470   1.549   3.144
 9740SOL    HW230120   6.351   1.642   3.082
 9741SOL     OW30121   4.137   1.172   3.051
 9741SOL    HW130122   4.061   1.156   2.987
 9741SOL    HW230123   4.172   1.085   3.083
 9742SOL     OW30124   4.352   0.180   0.567
 9742SOL    HW130125   4.353   0.112   0.494
 9742SOL    HW230126   4.280   0.158   0.632
 9743SOL     OW30127   0.350   1.940   5.300
 9743SOL    HW130128   0.308   1.859   5.342
 9743SOL    HW230129   0.328   2.021   5.355
 9744SOL     OW30130   0.327   6.988   2.753
 9744SOL    HW130131   0.234   6.953   2.741
 9744SOL    HW230132   0.343   0.040   2.691
 9745SOL     OW30133   5.737   2.310   5.237
 9745SOL    HW130134   5.705   2.247   5.166
 9745SOL    HW230135   5.800   2.262   5.298
 9746SOL     OW30136   6.473   0.626   5.739
 9746SOL    HW130137   6.453   0.685   5.818
 9746SOL    HW230138   6.395   0.567   5.722
 9747SOL     OW30139   2.354   1.232   1.664
 9747SOL    HW130140   2.438   1.267   1.623
 9747SOL    HW230141   2.304   1.177   1.597
 9748SOL     OW30142   0.579   1.286   3.319
 9748SOL    HW130143   0.629   1.364   3.356
 9748SOL    HW230144   0.488   1.282   3.359
 9749SOL     OW30145   2.306   1.357   5.160
 9749SOL    HW130146   2.400   1.339   5.189
 9749SOL    HW230147   2.266   1.274   5.123
 9750SOL     OW30148   5.610   4.663   3.574
 9750SOL    HW130149   5.581   4.599   3.645
 9750SOL    HW230150   5.709   4.655   3.561
 9751SOL     OW30151   0.640   1.210   1.046
 9751SOL    HW130152   0.655   1.263   0.963
 9751SOL    HW230153   0.560   1.151   1.033
 9752SOL     OW30154   4.729   1.843   5.535
 9752SOL    HW130155   4.774   1.792   5.463
 9752SOL    HW230156   4.691   1.780   5.602
 9753SOL     OW30157   5.741   5.845   5.770
 9753SOL    HW130158   5.739   5.939   5.737
 9753SOL    HW230159   5.819   5.797   5.729
 9754SOL     OW30160   0.958   1.151   6.161
 9754SOL    HW130161   0.995   1.240   6.132
 9754SOL    HW230162   0.976   1.137   6.258
 9755SOL     OW30163   4.158   3.365   4.716
 9755SOL    HW130164   4.241   3.314   4.691
 9755SOL    HW230165   4.151   3.371   4.815
 9756SOL     OW30166   6.467   3.662   0.665
 9756SOL    HW130167   6.467   3.759   0.642
 9756SOL    HW230168   6.555   3.621   0.641
 9757SOL     OW30169   5.907   3.731   3.722
 9757SOL    HW130170   5.898   3.754   3.819
 9757SOL    HW230171   5.998   3.691   3.706
 9758SOL     OW30172   2.572   0.024   6.826
 9758SOL    HW130173   2.538   0.046   6.917
 9758SOL    HW230174   2.496   0.017   6.762
 9759SOL     OW30175   1.845   6.883   6.837
 9759SOL    HW130176   1.867   6.785   6.834
 9759SOL    HW230177   1.929   6.936   6.826
 9760SOL     OW30178   4.469   2.621   5.138
 9760SOL    HW130179   4.509   2.529   5.143
 9760SOL    HW230180   4.526   2.678   5.078
 9761SOL     OW30181   5.695   0.823   2.382
 9761SOL    HW130182   5.792   0.814   2.361
 9761SOL    HW230183   5.663   0.738   2.425
 9762SOL     OW30184   3.536   1.485   4.033
 9762SOL    HW130185   3.502   1.574   4.062
 9762SOL    HW230186   3.520   1.417   4.105
 9763SOL     OW30187   5.246   2.499   2.058
 9763SOL    HW130188   5.229   2.588   2.102
 9763SOL    HW230189   5.312   2.447   2.111
 9764SOL     OW30190   0.412   2.715   2.836
 9764SOL    HW130191   0.408   2.804   2.792
 9764SOL    HW230192   0.342   2.709   2.907
 9765SOL     OW30193   6.580   1.412   3.168
 9765SOL    HW130194   6.623   1.415   3.077
 9765SOL    HW230195   6.540   1.322   3.183
 9766SOL     OW30196   2.575   0.249   3.062
 9766SOL    HW130197   2.611   0.213   2.976
 9766SOL    HW230198   2.528   0.335   3.045
 9767SOL     OW30199   4.787   1.455   5.414
 9767SOL    HW130200   4.847   1.379   5.438
 9767SOL    HW230201   4.747   1.438   5.324
 9768SOL     OW30202   5.766   1.853   2.848
 9768SOL    HW130203   5.754   1.789   2.772
 9768SOL    HW230204   5.680   1.864   2.898
 9769SOL     OW30205   2.894   0.776   2.855
 9769SOL    HW130206   2.978   0.736   2.819
 9769SOL    HW230207   2.851   0.832   2.784
 9770SOL     OW30208   5.782   6.767   6.831
 9770SOL    HW130209   5.790   6.680   6.879
 9770SOL    HW230210   5.795   6.752   6.733
 9771SOL     OW30211   2.859   5.285   0.899
 9771SOL    HW130212   2.822   5.262   0.809
 9771SOL    HW230213   2.958   5.293   0.894
 9772SOL     OW30214   1.182   6.010   2.687
 9772SOL    HW130215   1.122   5.933   2.665
 9772SOL    HW230216   1.128   6.093   2.698
 9773SOL     OW30217   5.794   5.610   4.302
 9773SOL    HW130218   5.834   5.522   4.325
 9773SOL    HW230219   5.731   5.600   4.224
 9774SOL     OW30220   0.066   5.078   1.968
 9774SOL    HW130221   0.127   5.157   1.971
 9774SOL    HW230222   6.996   5.110   1.979
 9775SOL     OW30223   2.204   0.651   3.611
 9775SOL    HW130224   2.282   0.652   3.547
 9775SOL    HW230225   2.200   0.738   3.659
 9776SOL     OW30226   1.314   4.729   4.081
 9776SOL    HW130227   1.325   4.828   4.094
 9776SOL    HW230228   1.270   4.689   4.161
 9777SOL     OW30229   5.953   4.789   6.056
 9777SOL    HW130230   5.929   4.833   5.970
 9777SOL    HW230231   6.026   4.723   6.040
 9778SOL     OW30232   0.419   0.908   3.527
 9778SOL    HW130233   0.465   0.955   3.452
 9778SOL    HW230234   0.369   0.829   3.492
 9779SOL     OW30235   1.652   1.245   5.042
 9779SOL    HW130236   1.590   1.195   5.102
 9779SOL    HW230237   1.641   1.343   5.056
 9780SOL     OW30238   2.947   1.528   1.188
 9780SOL    HW130239   3.046   1.517   1.199
 9780SOL    HW230240   2.914   1.600   1.250
 9781SOL     OW30241   1.772   3.737   4.276
 9781SOL    HW130242   1.744   3.812   4.335
 9781SOL    HW230243   1.745   3.757   4.182
 9782SOL     OW30244   6.691   0.887   1.485
 9782SOL    HW130245   6.643   0.923   1.405
 9782SOL    HW230246   6.661   0.793   1.503
 9783SOL     OW30247   4.671   1.892   3.029
 9783SOL    HW130248   4.655   1.831   3.107
 9783SOL    HW230249   4.647   1.844   2.944
 9784SOL     OW30250   3.948   1.432   4.673
 9784SOL    HW130251   3.856   1.395   4.661
 9784SOL    HW230252   4.015   1.362   4.650
 9785SOL     OW30253   0.820   3.408   6.031
 9785SOL    HW130254   0.768   3.491   6.054
 9785SOL    HW230255   0.879   3.426   5.953
 9786SOL     OW30256   2.372   4.431   0.026
 9786SOL    HW130257   2.274   4.413   0.034
 9786SOL    HW230258   2.393   4.518   0.071
 9787SOL     OW30259   4.785   3.685   1.624
 9787SOL    HW130260   4.766   3.778   1.654
 9787SOL    HW230261   4.775   3.679   1.525
 9788SOL     OW30262   0.504   0.518   3.375
 9788SOL    HW130263   0.539   0.456   3.446
 9788SOL    HW230264   0.581   0.555   3.322
 9789SOL     OW30265   1.247   5.218   0.807
 9789SOL    HW130266   1.337   5.176   0.818
 9789SOL    HW230267   1.254   5.317   0.820
 9790SOL     OW30268   6.084   4.259   5.710
 9790SOL    HW130269   6.113   4.353   5.728
 9790SOL    HW230270   6.004   4.238   5.766
 9791SOL     OW30271   0.384   0.921   2.992
 9791SOL    HW130272   0.343   0.873   3.069
 9791SOL    HW230273   0.440   0.857   2.939
 9792SOL     OW30274   5.286   5.551   1.882
 9792SOL    HW130275   5.210   5.490   1.860
 9792SOL    HW230276   5.304   5.611   1.804
 9793SOL     OW30277   5.216   5.888   3.521
 9793SOL    HW130278   5.236   5.839   3.436
 9793SOL    HW230279   5.139   5.950   3.506
 9794SOL     OW30280   6.877   3.853   0.667
 9794SOL    HW130281   6.854   3.760   0.640
 9794SOL    HW230282   6.966   3.878   0.628
 9795SOL     OW30283   2.024   2.069   4.216
 9795SOL    HW130284   2.055   2.118   4.135
 9795SOL    HW230285   2.080   1.987   4.229
 9796SOL     OW30286   4.504   2.243   1.397
 9796SOL    HW130287   4.449   2.293   1.463
 9796SOL    HW230288   4.482   2.146   1.403
 9797SOL     OW30289   2.679   5.330   6.947
 9797SOL    HW130290   2.733   5.309   0.004
 9797SOL    HW230291   2.593   5.373   6.973
 9798SOL     OW30292   2.668   0.469   1.285
 9798SOL    HW130293   2.721   0.430   1.360
 9798SOL    HW230294   2.670   0.569   1.291
 9799SOL     OW30295   3.567   4.088   3.519
 9799SOL    HW130296   3.507   4.114   3.444
 9799SOL    HW230297   3.589   3.991   3.513
 9800SOL     OW30298   3.558   6.180   4.617
 9800SOL    HW130299   3.535   6.192   4.521
 9800SOL    HW230300   3.497   6.236   4.673
 9801SOL     OW30301   4.644   3.685   0.273
 9801SOL    HW130302   4.731   3.639   0.288
 9801SOL    HW230303   4.646   3.735   0.187
 9802SOL     OW30304   1.067   3.250   1.763
 9802SOL    HW130305   1.116   3.211   1.841
 9802SOL    HW230306   1.118   3.231   1.679
 9803SOL     OW30307   6.990   2.216   6.786
 9803SOL    HW130308   6.921   2.288   6.794
 9803SOL    HW230309   0.035   2.229   6.856
 9804SOL     OW30310   0.820   6.578   3.134
 9804SOL    HW130311   0.726   6.611   3.127
 9804SOL    HW230312   0.837   6.507   3.066
 9805SOL     OW30313   0.749   0.089   5.493
 9805SOL    HW130314   0.752   0.085   5.593
 9805SOL    HW230315   0.687   0.163   5.464
 9806SOL     OW30316   1.315   1.205   1.049
 9806SOL    HW130317   1.342   1.178   0.956
 9806SOL    HW230318   1.275   1.126   1.096
 9807SOL     OW30319   2.574   2.977   0.153
 9807SOL    HW130320   2.671   2.977   0.130
 9807SOL    HW230321   2.537   3.070   0.143
 9808SOL     OW30322   4.675   0.801   5.427
 9808SOL    HW130323   4.771   0.777   5.440
 9808SOL    HW230324   4.632   0.735   5.365
 9809SOL     OW30325   0.835   1.978   6.971
 9809SOL    HW130326   0.812   2.040   0.021
 9809SOL    HW230327   0.769   1.990   6.896
 9810SOL     OW30328   2.324   2.592   3.770
 9810SOL    HW130329   2.337   2.493   3.760
 9810SOL    HW230330   2.356   2.621   3.860
 9811SOL     OW30331   5.850   5.170   3.871
 9811SOL    HW130332   5.792   5.250   3.886
 9811SOL    HW230333   5.946   5.196   3.880
 9812SOL     OW30334   3.201   2.538   5.650
 9812SOL    HW130335   3.128   2.487   5.696
 9812SOL    HW230336   3.178   2.635   5.649
 9813SOL     OW30337   5.906   0.762   6.503
 9813SOL    HW130338   5.821   0.721   6.537
 9813SOL    HW230339   5.924   0.730   6.410
 9814SOL     OW30340   0.551   0.675   0.315
 9814SOL    HW130341   0.574   0.643   0.407
 9814SOL    HW230342   0.619   0.640   0.250
 9815SOL     OW30343   5.766   4.116   2.907
 9815SOL    HW130344   5.795   4.091   2.814
 9815SOL    HW230345   5.737   4.033   2.955
 9816SOL     OW30346   0.111   1.679   6.385
 9816SOL    HW130347   0.014   1.693   6.406
 9816SOL    HW230348   0.132   1.723   6.298
 9817SOL     OW30349   2.575   6.182   2.713
 9817SOL    HW130350   2.500   6.247   2.727
 9817SOL    HW230351   2.543   6.089   2.730
 9818SOL     OW30352   1.695   0.834   4.458
 9818SOL    HW130353   1.661   0.831   4.552
 9818SOL    HW230354   1.721   0.927   4.435
 9819SOL     OW30355   4.881   3.034   4.216
 9819SOL    HW130356   4.905   3.085   4.133
 9819SOL    HW230357   4.849   3.098   4.286
 9820SOL     OW30358   3.723   3.395   6.353
 9820SOL    HW130359   3.789   3.390   6.278
 9820SOL    HW230360   3.696   3.302   6.379
 9821SOL     OW30361   5.068   0.810   0.959
 9821SOL    HW130362   5.109   0.892   1.001
 9821SOL    HW230363   4.972   0.828   0.941
 9822SOL     OW30364   2.508   5.746   3.366
 9822SOL    HW130365   2.555   5.707   3.446
 9822SOL    HW230366   2.516   5.684   3.289
 9823SOL     OW30367   2.370   0.430   1.520
 9823SOL    HW130368   2.294   0.432   1.585
 9823SOL    HW230369   2.434   0.504   1.539
 9824SOL     OW30370   1.587   5.443   4.406
 9824SOL    HW130371   1.611   5.538   4.390
 9824SOL    HW230372   1.596   5.391   4.321
 9825SOL     OW30373   5.253   6.484   3.946
 9825SOL    HW130374   5.245   6.449   3.852
 9825SOL    HW230375   5.168   6.468   3.995
 9826SOL     OW30376   3.831   6.132   5.360
 9826SOL    HW130377   3.851   6.051   5.306
 9826SOL    HW230378   3.875   6.125   5.449
 9827SOL     OW30379   1.687   3.706   2.970
 9827SOL    HW130380   1.775   3.670   3.001
 9827SOL    HW230381   1.642   3.754   3.045
 9828SOL     OW30382   3.327   2.612   5.295
 9828SOL    HW130383   3.290   2.534   5.244
 9828SOL    HW230384   3.287   2.697   5.260
 9829SOL     OW30385   4.833   5.902   6.588
 9829SOL    HW130386   4.798   5.840   6.516
 9829SOL    HW230387   4.781   5.987   6.586
 9830SOL     OW30388   5.432   1.582   1.871
 9830SOL    HW130389   5.464   1.497   1.914
 9830SOL    HW230390   5.340   1.567   1.835
 9831SOL     OW30391   1.030   4.949   2.608
 9831SOL    HW130392   1.048   5.019   2.676
 9831SOL    HW230393   0.950   4.975   2.553
 9832SOL     OW30394   5.193   5.656   2.141
 9832SOL    HW130395   5.231   5.647   2.049
 9832SOL    HW230396   5.117   5.721   2.139
 9833SOL     OW30397   3.446   3.643   3.395
 9833SOL    HW130398   3.428   3.587   3.314
 9833SOL    HW230399   3.458   3.584   3.474
 9834SOL     OW30400   2.269   4.377   5.212
 9834SOL    HW130401   2.203   4.437   5.167
 9834SOL    HW230402   2.362   4.410   5.191
 9835SOL     OW30403   3.620   3.300   4.347
 9835SOL    HW130404   3.705   3.271   4.303
 9835SOL    HW230405   3.634   3.305   4.446
 9836SOL     OW30406   0.568   4.078   4.241
 9836SOL    HW130407   0.536   4.123   4.157
 9836SOL    HW230408   0.551   3.980   4.234
 9837SOL     OW30409   4.451   0.793   2.799
 9837SOL    HW130410   4.493   0.882   2.782
 9837SOL    HW230411   4.470   0.764   2.893
 9838SOL     OW30412   1.721   7.023   0.321
 9838SOL    HW130413   1.675   6.976   0.245
 9838SOL    HW230414   1.819   7.007   0.315
 9839SOL     OW30415   4.506   6.770   3.310
 9839SOL    HW130416   4.575   6.814   3.252
 9839SOL    HW230417   4.468   6.690   3.262
 9840SOL     OW30418   5.535   2.027   0.979
 9840SOL    HW130419   5.490   2.116   0.988
 9840SOL    HW230420   5.483   1.959   1.030
 9841SOL     OW30421   1.178   4.448   4.308
 9841SOL    HW130422   1.259   4.445   4.366
 9841SOL    HW230423   1.103   4.399   4.353
 9842SOL     OW30424   3.368   3.478   1.496
 9842SOL    HW130425   3.387   3.566   1.541
 9842SOL    HW230426   3.282   3.441   1.532
 9843SOL     OW30427   6.299   6.959   1.786
 9843SOL    HW130428   6.366   0.008   1.802
 9843SOL    HW230429   6.240   6.984   1.710
 9844SOL     OW30430   6.305   1.326   3.822
 9844SOL    HW130431   6.242   1.279   3.883
 9844SOL    HW230432   6.347   1.404   3.870
 9845SOL     OW30433   1.586   1.593   3.622
 9845SOL    HW130434   1.647   1.514   3.616
 9845SOL    HW230435   1.520   1.589   3.547
 9846SOL     OW30436   4.429   2.186   1.015
 9846SOL    HW130437   4.496   2.112   1.029
 9846SOL    HW230438   4.398   2.185   0.920
 9847SOL     OW30439   3.950   3.555   2.353
 9847SOL    HW130440   3.874   3.613   2.380
 9847SOL    HW230441   3.968   3.486   2.423
 9848SOL     OW30442   4.390   4.693   6.108
 9848SOL    HW130443   4.463   4.714   6.044
 9848SOL    HW230444   4.353   4.779   6.145
 9849SOL     OW30445   1.063   0.161   6.441
 9849SOL    HW130446   1.106   0.096   6.503
 9849SOL    HW230447   1.069   0.127   6.347
 9850SOL     OW30448   7.000   0.753   3.942
 9850SOL    HW130449   6.924   0.707   3.988
 9850SOL    HW230450   0.021   0.814   4.007
 9851SOL     OW30451   1.936   0.367   4.451
 9851SOL    HW130452   2.027   0.326   4.442
 9851SOL    HW230453   1.887   0.359   4.364
 9852SOL     OW30454   1.597   1.473   4.787
 9852SOL    HW130455   1.573   1.486   4.691
 9852SOL    HW230456   1.594   1.562   4.834
 9853SOL     OW30457   6.789   3.293   4.958
 9853SOL    HW130458   6.884   3.263   4.968
 9853SOL    HW230459   6.729   3.213   4.958
 9854SOL     OW30460   0.208   5.945   3.973
 9854SOL    HW130461   0.168   5.878   3.911
 9854SOL    HW230462   0.211   6.034   3.927
 9855SOL     OW30463   2.291   3.585   0.504
 9855SOL    HW130464   2.245   3.526   0.570
 9855SOL    HW230465   2.227   3.655   0.472
 9856SOL     OW30466   5.174   4.314   3.674
 9856SOL    HW130467   5.233   4.349   3.747
 9856SOL    HW230468   5.226   4.252   3.615
 9857SOL     OW30469   5.202   2.343   2.906
 9857SOL    HW130470   5.267   2.325   2.832
 9857SOL    HW230471   5.128   2.401   2.872
 9858SOL     OW30472   0.168   6.720   1.319
 9858SOL    HW130473   0.199   6.798   1.263
 9858SOL    HW230474   0.107   6.663   1.264
 9859SOL     OW30475   6.745   5.367   3.732
 9859SOL    HW130476   6.736   5.268   3.726
 9859SOL    HW230477   6.741   5.406   3.639
 9860SOL     OW30478   1.866   2.418   4.808
 9860SOL    HW130479   1.880   2.512   4.840
 9860SOL    HW230480   1.954   2.373   4.798
 9861SOL     OW30481   2.671   0.184   3.358
 9861SOL    HW130482   2.636   0.091   3.364
 9861SOL    HW230483   2.647   0.224   3.269
 9862SOL     OW30484   2.386   4.020   0.106
 9862SOL    HW130485   2.454   4.041   0.175
 9862SOL    HW230486   2.335   3.938   0.132
 9863SOL     OW30487   3.177   6.000   1.657
 9863SOL    HW130488   3.198   6.027   1.751
 9863SOL    HW230489   3.229   5.917   1.635
 9864SOL     OW30490   3.413   0.679   4.907
 9864SOL    HW130491   3.383   0.742   4.835
 9864SOL    HW230492   3.497   0.714   4.948
 9865SOL     OW30493   1.253   6.525   4.137
 9865SOL    HW130494   1.295   6.459   4.074
 9865SOL    HW230495   1.320   6.596   4.159
 9866SOL     OW30496   6.120   4.548   5.741
 9866SOL    HW130497   6.141   4.580   5.833
 9866SOL    HW230498   6.137   4.621   5.675
 9867SOL     OW30499   6.493   1.652   2.579
 9867SOL    HW130500   6.405   1.652   2.531
 9867SOL    HW230501   6.565   1.682   2.516
 9868SOL     OW30502   0.833   3.104   4.744
 9868SOL    HW130503   0.743   3.102   4.789
 9868SOL    HW230504   0.895   3.043   4.793
 9869SOL     OW30505   0.428   2.541   1.157
 9869SOL    HW130506   0.465   2.567   1.068
 9869SOL    HW230507   0.458   2.449   1.180
 9870SOL     OW30508   4.378   5.977   2.843
 9870SOL    HW130509   4.284   5.976   2.878
 9870SOL    HW230510   4.436   6.028   2.907
 9871SOL     OW30511   6.518   3.679   5.483
 9871SOL    HW130512   6.473   3.737   5.550
 9871SOL    HW230513   6.484   3.585   5.493
 9872SOL     OW30514   3.008   5.333   4.587
 9872SOL    HW130515   3.041   5.268   4.655
 9872SOL    HW230516   2.917   5.365   4.613
 9873SOL     OW30517   2.330   2.219   0.387
 9873SOL    HW130518   2.299   2.230   0.481
 9873SOL    HW230519   2.416   2.268   0.375
 9874SOL     OW30520   0.417   3.201   5.741
 9874SOL    HW130521   0.473   3.270   5.788
 9874SOL    HW230522   0.330   3.191   5.789
 9875SOL     OW30523   6.281   5.901   2.914
 9875SOL    HW130524   6.215   5.912   2.988
 9875SOL    HW230525   6.238   5.853   2.838
 9876SOL     OW30526   5.226   0.974   3.811
 9876SOL    HW130527   5.246   0.911   3.736
 9876SOL    HW230528   5.238   1.069   3.780
 9877SOL     OW30529   0.257   4.830   4.481
 9877SOL    HW130530   0.212   4.749   4.519
 9877SOL    HW230531   0.226   4.845   4.387
 9878SOL     OW30532   2.538   3.884   5.612
 9878SOL    HW130533   2.549   3.933   5.526
 9878SOL    HW230534   2.590   3.798   5.609
 9879SOL     OW30535   6.362   4.580   5.471
 9879SOL    HW130536   6.309   4.529   5.404
 9879SOL    HW230537   6.393   4.519   5.544
 9880SOL     OW30538   2.234   0.898   0.844
 9880SOL    HW130539   2.332   0.905   0.826
 9880SOL    HW230540   2.218   0.904   0.943
 9881SOL     OW30541   6.906   1.720   4.528
 9881SOL    HW130542   6.996   1.747   4.562
 9881SOL    HW230543   6.875   1.787   4.460
 9882SOL     OW30544   3.233   4.017   5.701
 9882SOL    HW130545   3.212   4.021   5.799
 9882SOL    HW230546   3.154   3.983   5.651
 9883SOL     OW30547   0.955   6.909   1.473
 9883SOL    HW130548   1.008   6.989   1.501
 9883SOL    HW230549   0.865   6.938   1.441
 9884SOL     OW30550   4.164   1.854   1.055
 9884SOL    HW130551   4.125   1.794   1.125
 9884SOL    HW230552   4.197   1.938   1.098
 9885SOL     OW30553   0.569   3.011   4.781
 9885SOL    HW130554   0.583   3.037   4.876
 9885SOL    HW230555   0.548   2.913   4.776
 9886SOL     OW30556   6.961   6.129   2.122
 9886SOL    HW130557   7.012   6.158   2.041
 9886SOL    HW230558   7.016   6.148   2.204
 9887SOL     OW30559   3.672   0.094   0.228
 9887SOL    HW130560   3.667   0.187   0.192
 9887SOL    HW230561   3.736   0.040   0.173
 9888SOL     OW30562   5.527   5.859   3.485
 9888SOL    HW130563   5.465   5.793   3.443
 9888SOL    HW230564   5.519   5.853   3.585
 9889SOL     OW30565   0.720   4.873   2.143
 9889SOL    HW130566   0.815   4.856   2.115
 9889SOL    HW230567   0.713   4.866   2.242
 9890SOL     OW30568   0.361   3.045   0.690
 9890SOL    HW130569   0.351   3.135   0.731
 9890SOL    HW230570   0.457   3.031   0.665
 9891SOL     OW30571   6.162   4.775   1.688
 9891SOL    HW130572   6.092   4.718   1.730
 9891SOL    HW230573   6.173   4.749   1.592
 9892SOL     OW30574   1.816   5.541   3.057
 9892SOL    HW130575   1.879   5.494   2.995
 9892SOL    HW230576   1.775   5.619   3.009
 9893SOL     OW30577   6.269   0.002   2.247
 9893SOL    HW130578   6.325   6.962   2.195
 9893SOL    HW230579   6.328   0.071   2.289
 9894SOL     OW30580   2.899   1.551   6.034
 9894SOL    HW130581   2.856   1.553   6.124
 9894SOL    HW230582   2.987   1.504   6.041
 9895SOL     OW30583   6.323   2.260   5.428
 9895SOL    HW130584   6.323   2.276   5.329
 9895SOL    HW230585   6.397   2.197   5.451
 9896SOL     OW30586   5.038   2.032   0.670
 9896SOL    HW130587   5.058   1.934   0.661
 9896SOL    HW230588   5.123   2.084   0.660
 9897SOL     OW30589   4.795   0.727   2.800
 9897SOL    HW130590   4.890   0.706   2.824
 9897SOL    HW230591   4.733   0.676   2.860
 9898SOL     OW30592   0.115   5.083   5.075
 9898SOL    HW130593   0.065   5.022   5.014
 9898SOL    HW230594   0.062   5.167   5.088
 9899SOL     OW30595   6.639   4.982   2.507
 9899SOL    HW130596   6.709   4.951   2.572
 9899SOL    HW230597   6.668   4.960   2.414
 9900SOL     OW30598   1.869   2.426   2.744
 9900SOL    HW130599   1.949   2.456   2.693
 9900SOL    HW230600   1.787   2.468   2.706
 9901SOL     OW30601   1.786   1.261   6.976
 9901SOL    HW130602   1.876   1.303   6.975
 9901SOL    HW230603   1.795   1.161   6.974
 9902SOL     OW30604   4.045   3.889   1.382
 9902SOL    HW130605   4.009   3.797   1.394
 9902SOL    HW230606   4.145   3.886   1.377
 9903SOL     OW30607   4.831   6.638   2.206
 9903SOL    HW130608   4.876   6.642   2.117
 9903SOL    HW230609   4.787   6.725   2.225
 9904SOL     OW30610   6.930   3.910   0.166
 9904SOL    HW130611   6.936   3.975   0.242
 9904SOL    HW230612   6.916   3.960   0.081
 9905SOL     OW30613   1.400   6.227   6.994
 9905SOL    HW130614   1.452   6.207   6.910
 9905SOL    HW230615   1.376   6.141   0.015
 9906SOL     OW30616   2.109   3.595   6.830
 9906SOL    HW130617   2.140   3.543   6.910
 9906SOL    HW230618   2.141   3.551   6.747
 9907SOL     OW30619   1.924   6.938   3.764
 9907SOL    HW130620   1.984   6.963   3.688
 9907SOL    HW230621   1.968   6.963   3.850
 9908SOL     OW30622   0.532   4.001   5.663
 9908SOL    HW130623   0.539   3.941   5.583
 9908SOL    HW230624   0.436   4.029   5.676
 9909SOL     OW30625   3.308   0.374   3.561
 9909SOL    HW130626   3.304   0.282   3.600
 9909SOL    HW230627   3.291   0.370   3.463
 9910SOL     OW30628   1.132   5.365   1.482
 9910SOL    HW130629   1.204   5.434   1.491
 9910SOL    HW230630   1.172   5.278   1.454
 9911SOL     OW30631   4.608   5.430   2.590
 9911SOL    HW130632   4.557   5.351   2.554
 9911SOL    HW230633   4.579   5.512   2.541
 9912SOL     OW30634   4.259   0.682   1.528
 9912SOL    HW130635   4.173   0.630   1.527
 9912SOL    HW230636   4.247   0.766   1.475
 9913SOL     OW30637   6.480   3.426   2.383
 9913SOL    HW130638   6.483   3.434   2.482
 9913SOL    HW230639   6.398   3.376   2.355
 9914SOL     OW30640   0.712   0.517   5.731
 9914SOL    HW130641   0.773   0.439   5.737
 9914SOL    HW230642   0.719   0.572   5.815
 9915SOL     OW30643   4.726   2.808   4.124
 9915SOL    HW130644   4.804   2.745   4.123
 9915SOL    HW230645   4.750   2.890   4.176
 9916SOL     OW30646   2.098   2.227   3.523
 9916SOL    HW130647   2.192   2.217   3.490
 9916SOL    HW230648   2.091   2.185   3.614
 9917SOL     OW30649   3.094   3.677   4.643
 9917SOL    HW130650   3.164   3.697   4.712
 9917SOL    HW230651   3.071   3.760   4.593
 9918SOL     OW30652   0.759   2.386   1.211
 9918SOL    HW130653   0.854   2.356   1.199
 9918SOL    HW230654   0.741   2.402   1.308
 9919SOL     OW30655   2.563   6.179   1.328
 9919SOL    HW130656   2.621   6.219   1.257
 9919SOL    HW230657   2.478   6.144   1.287
 9920SOL     OW30658   3.486   0.776   3.179
 9920SOL    HW130659   3.386   0.784   3.173
 9920SOL    HW230660   3.509   0.710   3.251
 9921SOL     OW30661   5.073   6.222   4.414
 9921SOL    HW130662   5.112   6.186   4.499
 9921SOL    HW230663   5.129   6.298   4.380
 9922SOL     OW30664   4.997   4.388   0.634
 9922SOL    HW130665   4.925   4.377   0.565
 9922SOL    HW230666   4.980   4.325   0.710
 9923SOL     OW30667   6.893   3.304   0.119
 9923SOL    HW130668   6.801   3.280   0.152
 9923SOL    HW230669   6.900   3.283   0.021
 9924SOL     OW30670   5.309   2.190   3.358
 9924SOL    HW130671   5.319   2.246   3.275
 9924SOL    HW230672   5.377   2.117   3.358
 9925SOL     OW30673   1.916   4.550   4.625
 9925SOL    HW130674   1.817   4.544   4.638
 9925SOL    HW230675   1.962   4.490   4.691
 9926SOL     OW30676   3.271   2.385   1.219
 9926SOL    HW130677   3.284   2.315   1.148
 9926SOL    HW230678   3.301   2.349   1.307
 9927SOL     OW30679   0.946   2.093   0.967
 9927SOL    HW130680   0.846   2.091   0.964
 9927SOL    HW230681   0.976   2.184   0.996
 9928SOL     OW30682   5.693   3.799   2.638
 9928SOL    HW130683   5.751   3.718   2.633
 9928SOL    HW230684   5.597   3.772   2.642
 9929SOL     OW30685   3.468   4.440   5.482
 9929SOL    HW130686   3.430   4.532   5.471
 9929SOL    HW230687   3.428   4.379   5.413
 9930SOL     OW30688   0.599   0.299   6.104
 9930SOL    HW130689   0.572   0.370   6.039
 9930SOL    HW230690   0.589   0.209   6.062
 9931SOL     OW30691   6.727   5.518   5.086
 9931SOL    HW130692   6.794   5.464   5.139
 9931SOL    HW230693   6.635   5.496   5.117
 9932SOL     OW30694   1.420   1.662   6.669
 9932SOL    HW130695   1.486   1.642   6.596
 9932SOL    HW230696   1.327   1.652   6.633
 9933SOL     OW30697   1.634   0.987   4.177
 9933SOL    HW130698   1.678   0.931   4.107
 9933SOL    HW230699   1.696   0.997   4.255
 9934SOL     OW30700   6.417   1.920   6.927
 9934SOL    HW130701   6.369   1.980   6.862
 9934SOL    HW230702   6.450   1.839   6.879
 9935SOL     OW30703   2.243   0.723   0.345
 9935SOL    HW130704   2.311   0.792   0.369
 9935SOL    HW230705   2.225   0.727   0.247
 9936SOL     OW30706   6.705   5.071   6.416
 9936SOL    HW130707   6.646   4.990   6.418
 9936SOL    HW230708   6.779   5.060   6.483
 9937SOL     OW30709   1.462   0.832   3.373
 9937SOL    HW130710   1.371   0.806   3.405
 9937SOL    HW230711   1.466   0.827   3.274
 9938SOL     OW30712   5.719   0.294   4.155
 9938SOL    HW130713   5.625   0.323   4.174
 9938SOL    HW230714   5.762   0.360   4.093
 9939SOL     OW30715   2.358   3.140   1.121
 9939SOL    HW130716   2.328   3.091   1.203
 9939SOL    HW230717   2.413   3.080   1.064
 9940SOL     OW30718   0.985   0.780   3.956
 9940SOL    HW130719   0.997   0.733   3.868
 9940SOL    HW230720   1.045   0.737   4.024
 9941SOL     OW30721   3.101   5.677   5.757
 9941SOL    HW130722   3.142   5.759   5.800
 9941SOL    HW230723   3.163   5.599   5.770
 9942SOL     OW30724   4.575   5.214   2.056
 9942SOL    HW130725   4.547   5.267   2.136
 9942SOL    HW230726   4.508   5.141   2.040
 9943SOL     OW30727   1.410   4.032   6.712
 9943SOL    HW130728   1.439   4.124   6.689
 9943SOL    HW230729   1.400   3.978   6.628
 9944SOL     OW30730   6.765   5.431   6.281
 9944SOL    HW130731   6.739   5.507   6.220
 9944SOL    HW230732   6.715   5.439   6.367
 9945SOL     OW30733   5.308   3.988   6.542
 9945SOL    HW130734   5.273   3.916   6.482
 9945SOL    HW230735   5.400   4.014   6.513
 9946SOL     OW30736   6.183   0.036   3.300
 9946SOL    HW130737   6.199   0.026   3.201
 9946SOL    HW230738   6.270   0.029   3.349
 9947SOL     OW30739   2.089   1.538   3.831
 9947SOL    HW130740   2.018   1.484   3.876
 9947SOL    HW230741   2.047   1.617   3.785
 9948SOL     OW30742   6.622   5.483   5.490
 9948SOL    HW130743   6.646   5.545   5.565
 9948SOL    HW230744   6.705   5.456   5.442
 9949SOL     OW30745   6.925   5.273   4.291
 9949SOL    HW130746   6.924   5.335   4.370
 9949SOL    HW230747   6.946   5.180   4.321
 9950SOL     OW30748   6.910   5.656   5.809
 9950SOL    HW130749   6.979   5.613   5.866
 9950SOL    HW230750   6.878   5.740   5.854
 9951SOL     OW30751   1.734   2.001   2.630
 9951SOL    HW130752   1.636   1.993   2.646
 9951SOL    HW230753   1.754   1.976   2.535
 9952SOL     OW30754   1.668   4.214   1.146
 9952SOL    HW130755   1.676   4.274   1.225
 9952SOL    HW230756   1.759   4.199   1.107
 9953SOL     OW30757   5.603   2.581   3.963
 9953SOL    HW130758   5.569   2.518   3.894
 9953SOL    HW230759   5.544   2.661   3.967
 9954SOL     OW30760   1.326   0.193   4.952
 9954SOL    HW130761   1.273   0.190   4.868
 9954SOL    HW230762   1.420   0.163   4.934
 9955SOL     OW30763   4.292   3.957   6.510
 9955SOL    HW130764   4.259   3.871   6.471
 9955SOL    HW230765   4.223   3.995   6.571
 9956SOL     OW30766   0.699   3.630   2.541
 9956SOL    HW130767   0.785   3.599   2.582
 9956SOL    HW230768   0.693   3.729   2.547
 9957SOL     OW30769   5.555   6.842   2.176
 9957SOL    HW130770   5.648   6.836   2.212
 9957SOL    HW230771   5.554   6.895   2.092
 9958SOL     OW30772   3.292   6.225   5.709
 9958SOL    HW130773   3.361   6.298   5.718
 9958SOL    HW230774   3.335   6.144   5.669
 9959SOL     OW30775   4.067   3.419   2.568
 9959SOL    HW130776   4.063   3.359   2.648
 9959SOL    HW230777   4.089   3.512   2.596
 9960SOL     OW30778   0.601   6.310   1.240
 9960SOL    HW130779   0.569   6.402   1.264
 9960SOL    HW230780   0.560   6.282   1.153
 9961SOL     OW30781   2.392   4.381   2.803
 9961SOL    HW130782   2.490   4.391   2.792
 9961SOL    HW230783   2.367   4.402   2.898
 9962SOL     OW30784   3.740   0.834   2.179
 9962SOL    HW130785   3.790   0.830   2.092
 9962SOL    HW230786   3.680   0.754   2.187
 9963SOL     OW30787   2.695   3.435   6.224
 9963SOL    HW130788   2.713   3.409   6.130
 9963SOL    HW230789   2.630   3.511   6.227
 9964SOL     OW30790   4.063   4.937   5.948
 9964SOL    HW130791   4.038   4.860   6.007
 9964SOL    HW230792   4.161   4.935   5.929
 9965SOL     OW30793   3.323   5.104   4.937
 9965SOL    HW130794   3.339   5.202   4.942
 9965SOL    HW230795   3.409   5.056   4.917
 9966SOL     OW30796   2.501   5.381   1.692
 9966SOL    HW130797   2.580   5.386   1.632
 9966SOL    HW230798   2.511   5.448   1.766
 9967SOL     OW30799   6.210   5.024   2.912
 9967SOL    HW130800   6.237   5.119   2.929
 9967SOL    HW230801   6.111   5.015   2.926
 9968SOL     OW30802   4.095   5.705   6.257
 9968SOL    HW130803   4.171   5.768   6.274
 9968SOL    HW230804   4.078   5.699   6.159
 9969SOL     OW30805   1.624   2.837   4.633
 9969SOL    HW130806   1.632   2.738   4.626
 9969SOL    HW230807   1.654   2.879   4.547
 9970SOL     OW30808   6.830   4.730   1.803
 9970SOL    HW130809   6.816   4.821   1.764
 9970SOL    HW230810   6.812   4.661   1.734
 9971SOL     OW30811   2.502   3.817   0.951
 9971SOL    HW130812   2.549   3.741   0.996
 9971SOL    HW230813   2.432   3.781   0.889
 9972SOL     OW30814   3.002   4.495   0.556
 9972SOL    HW130815   2.904   4.480   0.546
 9972SOL    HW230816   3.050   4.457   0.477
 9973SOL     OW30817   3.848   2.146   4.762
 9973SOL    HW130818   3.786   2.196   4.821
 9973SOL    HW230819   3.800   2.116   4.680
 9974SOL     OW30820   6.923   3.123   2.917
 9974SOL    HW130821   6.830   3.154   2.898
 9974SOL    HW230822   6.987   3.169   2.855
 9975SOL     OW30823   0.178   4.853   6.740
 9975SOL    HW130824   0.251   4.878   6.675
 9975SOL    HW230825   0.127   4.935   6.765
 9976SOL     OW30826   0.370   4.816   5.149
 9976SOL    HW130827   0.271   4.819   5.163
 9976SOL    HW230828   0.417   4.849   5.231
 9977SOL     OW30829   6.191   5.330   6.221
 9977SOL    HW130830   6.138   5.411   6.244
 9977SOL    HW230831   6.131   5.261   6.181
 9978SOL     OW30832   6.324   1.474   5.441
 9978SOL    HW130833   6.323   1.507   5.536
 9978SOL    HW230834   6.397   1.407   5.430
 9979SOL     OW30835   6.801   4.012   6.204
 9979SOL    HW130836   6.786   3.949   6.128
 9979SOL    HW230837   6.820   3.959   6.287
 9980SOL     OW30838   1.907   0.370   0.746
 9980SOL    HW130839   1.900   0.322   0.833
 9980SOL    HW230840   1.875   0.311   0.672
 9981SOL     OW30841   2.985   1.826   0.705
 9981SOL    HW130842   2.971   1.913   0.659
 9981SOL    HW230843   3.081   1.817   0.731
 9982SOL     OW30844   1.066   1.425   3.915
 9982SOL    HW130845   1.136   1.398   3.982
 9982SOL    HW230846   1.013   1.345   3.889
 9983SOL     OW30847   0.696   1.019   2.120
 9983SOL    HW130848   0.727   0.999   2.027
 9983SOL    HW230849   0.688   1.118   2.131
 9984SOL     OW30850   0.442   6.952   0.495
 9984SOL    HW130851   0.438   6.942   0.595
 9984SOL    HW230852   0.534   6.929   0.463
 9985SOL     OW30853   3.171   6.535   1.279
 9985SOL    HW130854   3.265   6.568   1.290
 9985SOL    HW230855   3.117   6.562   1.359
 9986SOL     OW30856   6.241   4.862   0.295
 9986SOL    HW130857   6.329   4.890   0.258
 9986SOL    HW230858   6.209   4.929   0.361
 9987SOL     OW30859   6.663   2.131   2.802
 9987SOL    HW130860   6.682   2.183   2.885
 9987SOL    HW230861   6.571   2.153   2.770
 9988SOL     OW30862   6.906   5.455   4.492
 9988SOL    HW130863   6.825   5.423   4.541
 9988SOL    HW230864   6.900   5.555   4.480
 9989SOL     OW30865   6.012   3.809   2.681
 9989SOL    HW130866   5.994   3.907   2.687
 9989SOL    HW230867   5.992   3.766   2.769
 9990SOL     OW30868   2.244   6.673   3.781
 9990SOL    HW130869   2.236   6.600   3.713
 9990SOL    HW230870   2.297   6.639   3.859
 9991SOL     OW30871   1.889   3.312   4.299
 9991SOL    HW130872   1.969   3.313   4.359
 9991SOL    HW230873   1.906   3.251   4.222
 9992SOL     OW30874   4.279   3.702   0.640
 9992SOL    HW130875   4.302   3.622   0.694
 9992SOL    HW230876   4.351   3.719   0.572
 9993SOL     OW30877   3.640   6.419   3.176
 9993SOL    HW130878   3.684   6.357   3.241
 9993SOL    HW230879   3.707   6.484   3.142
 9994SOL     OW30880   7.001   4.108   2.846
 9994SOL    HW130881   7.011   4.020   2.892
 9994SOL    HW230882   6.938   4.099   2.769
 9995SOL     OW30883   3.334   6.945   3.858
 9995SOL    HW130884   3.251   6.923   3.910
 9995SOL    HW230885   3.411   6.955   3.921
 9996SOL     OW30886   2.828   3.145   1.448
 9996SOL    HW130887   2.826   3.240   1.479
 9996SOL    HW230888   2.905   3.132   1.386
 9997SOL     OW30889   5.015   1.147   1.426
 9997SOL    HW130890   4.999   1.119   1.521
 9997SOL    HW230891   5.113   1.163   1.412
 9998SOL     OW30892   5.510   3.909   2.290
 9998SOL    HW130893   5.480   3.973   2.219
 9998SOL    HW230894   5.491   3.948   2.380
 9999SOL     OW30895   0.253   5.870   5.136
 9999SOL    HW130896   0.301   5.785   5.157
 9999SOL    HW230897   0.249   5.883   5.037
10000SOL     OW30898   5.916   1.975   6.590
10000SOL    HW130899   5.880   1.899   6.537
10000SOL    HW230900   5.992   1.943   6.647
10001SOL     OW30901   3.967   0.666   1.561
10001SOL    HW130902   3.909   0.741   1.528
10001SOL    HW230903   3.909   0.588   1.585
10002SOL     OW30904   1.282   0.925   1.579
10002SOL    HW130905   1.225   1.004   1.558
10002SOL    HW230906   1.238   0.870   1.650
10003SOL     OW30907   2.901   2.253   2.354
10003SOL    HW130908   2.983   2.212   2.315
10003SOL    HW230909   2.841   2.284   2.280
10004SOL     OW30910   5.622   3.117   5.117
10004SOL    HW130911   5.594   3.201   5.162
10004SOL    HW230912   5.548   3.085   5.058
10005SOL     OW30913   3.551   5.810   2.560
10005SOL    HW130914   3.534   5.854   2.471
10005SOL    HW230915   3.649   5.792   2.569
10006SOL     OW30916   5.860   0.551   5.656
10006SOL    HW130917   5.924   0.591   5.590
10006SOL    HW230918   5.902   0.552   5.747
10007SOL     OW30919   0.836   3.081   4.242
10007SOL    HW130920   0.883   3.132   4.170
10007SOL    HW230921   0.804   2.994   4.206
10008SOL     OW30922   4.173   1.318   3.327
10008SOL    HW130923   4.180   1.220   3.312
10008SOL    HW230924   4.123   1.361   3.252
10009SOL     OW30925   1.931   4.790   1.631
10009SOL    HW130926   1.888   4.700   1.627
10009SOL    HW230927   2.031   4.779   1.632
10010SOL     OW30928   2.179   6.063   0.199
10010SOL    HW130929   2.254   6.008   0.163
10010SOL    HW230930   2.212   6.156   0.217
10011SOL     OW30931   0.738   3.518   6.538
10011SOL    HW130932   0.750   3.419   6.552
10011SOL    HW230933   0.663   3.550   6.596
10012SOL     OW30934   5.411   6.374   2.245
10012SOL    HW130935   5.486   6.325   2.290
10012SOL    HW230936   5.402   6.341   2.151
10013SOL     OW30937   1.999   1.717   4.087
10013SOL    HW130938   1.932   1.671   4.030
10013SOL    HW230939   1.976   1.702   4.184
10014SOL     OW30940   0.571   1.685   1.475
10014SOL    HW130941   0.517   1.719   1.398
10014SOL    HW230942   0.557   1.744   1.555
10015SOL     OW30943   4.340   4.925   6.771
10015SOL    HW130944   4.405   4.937   6.846
10015SOL    HW230945   4.292   4.838   6.781
10016SOL     OW30946   1.403   0.481   4.559
10016SOL    HW130947   1.436   0.546   4.628
10016SOL    HW230948   1.353   0.531   4.488
10017SOL     OW30949   1.915   1.822   2.903
10017SOL    HW130950   1.995   1.880   2.888
10017SOL    HW230951   1.846   1.873   2.953
10018SOL     OW30952   6.816   4.431   6.453
10018SOL    HW130953   6.823   4.410   6.355
10018SOL    HW230954   6.732   4.391   6.490
10019SOL     OW30955   0.766   2.224   3.247
10019SOL    HW130956   0.805   2.216   3.339
10019SOL    HW230957   0.740   2.133   3.214
10020SOL     OW30958   0.185   1.119   1.474
10020SOL    HW130959   0.119   1.053   1.438
10020SOL    HW230960   0.239   1.076   1.547
10021SOL     OW30961   1.064   1.897   2.606
10021SOL    HW130962   0.965   1.910   2.609
10021SOL    HW230963   1.101   1.939   2.523
10022SOL     OW30964   3.991   6.849   0.999
10022SOL    HW130965   3.895   6.864   0.975
10022SOL    HW230966   4.045   6.833   0.916
10023SOL     OW30967   2.270   4.695   4.931
10023SOL    HW130968   2.199   4.648   4.984
10023SOL    HW230969   2.248   4.792   4.925
10024SOL     OW30970   1.743   6.305   1.816
10024SOL    HW130971   1.786   6.244   1.748
10024SOL    HW230972   1.684   6.370   1.769
10025SOL     OW30973   2.180   2.392   1.869
10025SOL    HW130974   2.155   2.439   1.954
10025SOL    HW230975   2.176   2.293   1.883
10026SOL     OW30976   4.740   6.822   2.905
10026SOL    HW130977   4.819   6.762   2.919
10026SOL    HW230978   4.771   6.917   2.899
10027SOL     OW30979   0.653   3.320   4.869
10027SOL    HW130980   0.729   3.354   4.814
10027SOL    HW230981   0.578   3.386   4.868
10028SOL     OW30982   1.255   1.571   2.134
10028SOL    HW130983   1.315   1.551   2.057
10028SOL    HW230984   1.218   1.486   2.172
10029SOL     OW30985   2.335   1.680   3.935
10029SOL    HW130986   2.251   1.636   3.904
10029SOL    HW230987   2.346   1.666   4.034
10030SOL     OW30988   2.914   0.507   4.378
10030SOL    HW130989   2.867   0.466   4.300
10030SOL    HW230990   2.854   0.575   4.421
10031SOL     OW30991   5.633   4.662   4.247
10031SOL    HW130992   5.656   4.587   4.308
10031SOL    HW230993   5.533   4.674   4.245
10032SOL     OW30994   3.621   0.760   5.192
10032SOL    HW130995   3.649   0.681   5.247
10032SOL    HW230996   3.606   0.839   5.252
10033SOL     OW30997   4.479   2.478   4.055
10033SOL    HW130998   4.573   2.480   4.089
10033SOL    HW230999   4.416   2.457   4.129
10034SOL     OW31000   3.524   0.368   4.227
10034SOL    HW131001   3.536   0.321   4.140
10034SOL    HW231002   3.599   0.344   4.289
10035SOL     OW31003   0.063   4.597   1.897
10035SOL    HW131004   0.131   4.664   1.867
10035SOL    HW231005   6.997   4.640   1.903
10036SOL     OW31006   6.098   0.845   1.129
10036SOL    HW131007   6.168   0.775   1.142
10036SOL    HW231008   6.130   0.910   1.060
10037SOL     OW31009   6.225   1.522   0.235
10037SOL    HW131010   6.215   1.545   0.138
10037SOL    HW231011   6.296   1.452   0.245
10038SOL     OW31012   4.282   0.830   6.557
10038SOL    HW131013   4.218   0.763   6.594
10038SOL    HW231014   4.232   0.904   6.511
10039SOL     OW31015   4.155   6.990   5.293
10039SOL    HW131016   4.111   6.926   5.230
10039SOL    HW231017   4.153   0.058   5.254
10040SOL     OW31018   4.282   5.925   6.281
10040SOL    HW131019   4.213   5.996   6.293
10040SOL    HW231020   4.351   5.955   6.216
10041SOL     OW31021   4.246   5.573   6.969
10041SOL    HW131022   4.186   5.565   6.889
10041SOL    HW231023   4.299   5.489   6.980
10042SOL     OW31024   1.369   1.913   5.308
10042SOL    HW131025   1.446   1.849   5.316
10042SOL    HW231026   1.401   1.997   5.265
10043SOL     OW31027   0.384   2.405   4.349
10043SOL    HW131028   0.377   2.312   4.384
10043SOL    HW231029   0.300   2.429   4.301
10044SOL     OW31030   3.038   1.695   4.976
10044SOL    HW131031   3.034   1.609   5.026
10044SOL    HW231032   3.000   1.769   5.032
10045SOL     OW31033   5.045   7.007   3.572
10045SOL    HW131034   4.948   7.021   3.553
10045SOL    HW231035   5.100   0.043   3.514
10046SOL     OW31036   2.003   3.585   1.363
10046SOL    HW131037   1.986   3.669   1.414
10046SOL    HW231038   1.924   3.525   1.370
10047SOL     OW31039   6.042   3.483   4.826
10047SOL    HW131040   6.133   3.490   4.866
10047SOL    HW231041   6.001   3.574   4.822
10048SOL     OW31042   6.331   1.089   2.592
10048SOL    HW131043   6.389   1.168   2.576
10048SOL    HW231044   6.374   1.029   2.659
10049SOL     OW31045   0.115   0.151   6.759
10049SOL    HW131046   0.132   0.122   6.853
10049SOL    HW231047   0.065   0.079   6.711
10050SOL     OW31048   5.891   2.620   4.148
10050SOL    HW131049   5.957   2.601   4.220
10050SOL    HW231050   5.839   2.537   4.129
10051SOL     OW31051   5.597   2.159   5.045
10051SOL    HW131052   5.614   2.128   4.952
10051SOL    HW231053   5.543   2.243   5.043
10052SOL     OW31054   2.497   2.072   2.856
10052SOL    HW131055   2.412   2.122   2.875
10052SOL    HW231056   2.482   1.974   2.871
10053SOL     OW31057   3.455   5.961   2.343
10053SOL    HW131058   3.467   6.053   2.307
10053SOL    HW231059   3.358   5.944   2.361
10054SOL     OW31060   5.159   5.045   6.373
10054SOL    HW131061   5.242   5.069   6.422
10054SOL    HW231062   5.093   5.120   6.380
10055SOL     OW31063   6.123   2.294   4.698
10055SOL    HW131064   6.186   2.290   4.619
10055SOL    HW231065   6.090   2.388   4.709
10056SOL     OW31066   5.584   4.169   3.270
10056SOL    HW131067   5.504   4.210   3.314
10056SOL    HW231068   5.640   4.122   3.338
10057SOL     OW31069   4.134   1.628   4.769
10057SOL    HW131070   4.096   1.713   4.804
10057SOL    HW231071   4.059   1.565   4.747
10058SOL     OW31072   0.524   3.992   4.538
10058SOL    HW131073   0.604   3.935   4.523
10058SOL    HW231074   0.456   3.973   4.466
10059SOL     OW31075   5.502   0.322   1.476
10059SOL    HW131076   5.422   0.359   1.428
10059SOL    HW231077   5.510   0.364   1.566
10060SOL     OW31078   1.409   1.555   1.468
10060SOL    HW131079   1.343   1.586   1.536
10060SOL    HW231080   1.463   1.480   1.506
10061SOL     OW31081   4.377   1.669   3.972
10061SOL    HW131082   4.474   1.670   3.947
10061SOL    HW231083   4.365   1.718   4.059
10062SOL     OW31084   6.028   0.406   4.248
10062SOL    HW131085   5.954   0.399   4.315
10062SOL    HW231086   6.075   0.318   4.241
10063SOL     OW31087   2.309   0.456   3.801
10063SOL    HW131088   2.270   0.512   3.728
10063SOL    HW231089   2.335   0.366   3.764
10064SOL     OW31090   5.002   6.717   6.917
10064SOL    HW131091   5.015   6.797   6.859
10064SOL    HW231092   5.059   6.726   6.999
10065SOL     OW31093   2.155   0.388   1.699
10065SOL    HW131094   2.078   0.333   1.731
10065SOL    HW231095   2.160   0.473   1.752
10066SOL     OW31096   0.785   2.520   3.777
10066SOL    HW131097   0.794   2.424   3.752
10066SOL    HW231098   0.805   2.531   3.875
10067SOL     OW31099   6.711   4.057   5.245
10067SOL    HW131100   6.780   4.029   5.180
10067SOL    HW231101   6.720   4.155   5.263
10068SOL     OW31102   0.496   3.532   3.276
10068SOL    HW131103   0.575   3.490   3.321
10068SOL    HW231104   0.527   3.605   3.215
10069SOL     OW31105   2.221   5.195   2.466
10069SOL    HW131106   2.199   5.252   2.545
10069SOL    HW231107   2.320   5.188   2.455
10070SOL     OW31108   6.390   6.622   5.036
10070SOL    HW131109   6.404   6.555   4.963
10070SOL    HW231110   6.382   6.574   5.124
10071SOL     OW31111   6.199   5.828   4.442
10071SOL    HW131112   6.160   5.822   4.350
10071SOL    HW231113   6.163   5.753   4.498
10072SOL     OW31114   6.821   6.668   3.930
10072SOL    HW131115   6.884   6.603   3.971
10072SOL    HW231116   6.801   6.642   3.836
10073SOL     OW31117   6.143   4.447   5.366
10073SOL    HW131118   6.197   4.364   5.377
10073SOL    HW231119   6.050   4.432   5.401
10074SOL     OW31120   1.645   0.499   5.578
10074SOL    HW131121   1.744   0.506   5.586
10074SOL    HW231122   1.609   0.582   5.534
10075SOL     OW31123   1.795   2.723   2.999
10075SOL    HW131124   1.874   2.691   2.946
10075SOL    HW231125   1.769   2.653   3.065
10076SOL     OW31126   0.222   0.542   4.544
10076SOL    HW131127   0.212   0.497   4.455
10076SOL    HW231128   0.180   0.485   4.615
10077SOL     OW31129   3.954   2.808   6.350
10077SOL    HW131130   3.918   2.782   6.440
10077SOL    HW231131   4.051   2.833   6.359
10078SOL     OW31132   0.682   5.996   3.762
10078SOL    HW131133   0.714   6.049   3.840
10078SOL    HW231134   0.610   6.046   3.715
10079SOL     OW31135   6.522   3.930   3.458
10079SOL    HW131136   6.423   3.926   3.452
10079SOL    HW231137   6.550   4.009   3.513
10080SOL     OW31138   4.410   1.210   5.817
10080SOL    HW131139   4.390   1.196   5.720
10080SOL    HW231140   4.453   1.299   5.830
10081SOL     OW31141   6.986   0.342   1.087
10081SOL    HW131142   0.010   0.409   1.143
10081SOL    HW231143   0.021   0.263   1.070
10082SOL     OW31144   0.519   5.371   1.692
10082SOL    HW131145   0.499   5.300   1.760
10082SOL    HW231146   0.463   5.355   1.611
10083SOL     OW31147   4.169   1.050   3.366
10083SOL    HW131148   4.222   1.046   3.450
10083SOL    HW231149   4.181   0.964   3.316
10084SOL     OW31150   1.795   1.148   5.434
10084SOL    HW131151   1.756   1.240   5.444
10084SOL    HW231152   1.796   1.102   5.523
10085SOL     OW31153   2.587   5.942   1.050
10085SOL    HW131154   2.655   5.869   1.046
10085SOL    HW231155   2.509   5.912   1.105
10086SOL     OW31156   4.199   5.944   2.133
10086SOL    HW131157   4.227   5.861   2.181
10086SOL    HW231158   4.236   5.944   2.041
10087SOL     OW31159   6.714   0.096   3.971
10087SOL    HW131160   6.756   0.185   3.955
10087SOL    HW231161   6.703   0.081   4.069
10088SOL     OW31162   6.637   0.094   1.548
10088SOL    HW131163   6.568   0.156   1.512
10088SOL    HW231164   6.691   0.057   1.473
10089SOL     OW31165   2.915   1.826   2.593
10089SOL    HW131166   2.835   1.884   2.599
10089SOL    HW231167   2.890   1.732   2.615
10090SOL     OW31168   1.145   4.824   1.785
10090SOL    HW131169   1.080   4.898   1.770
10090SOL    HW231170   1.102   4.736   1.763
10091SOL     OW31171   0.502   4.040   6.546
10091SOL    HW131172   0.469   4.104   6.476
10091SOL    HW231173   0.465   4.067   6.635
10092SOL     OW31174   2.310   2.090   5.512
10092SOL    HW131175   2.372   2.131   5.445
10092SOL    HW231176   2.216   2.117   5.491
10093SOL     OW31177   6.185   3.191   4.873
10093SOL    HW131178   6.216   3.269   4.926
10093SOL    HW231179   6.092   3.208   4.840
10094SOL     OW31180   3.492   5.851   1.702
10094SOL    HW131181   3.518   5.857   1.798
10094SOL    HW231182   3.418   5.786   1.691
10095SOL     OW31183   5.802   1.926   5.404
10095SOL    HW131184   5.888   1.885   5.434
10095SOL    HW231185   5.739   1.932   5.482
10096SOL     OW31186   4.517   5.645   3.072
10096SOL    HW131187   4.508   5.671   2.976
10096SOL    HW231188   4.544   5.549   3.078
10097SOL     OW31189   1.032   1.188   0.266
10097SOL    HW131190   1.088   1.233   0.196
10097SOL    HW231191   1.062   1.218   0.357
10098SOL     OW31192   2.592   0.033   5.346
10098SOL    HW131193   2.562   0.056   5.254
10098SOL    HW231194   2.515   7.022   5.399
10099SOL     OW31195   0.344   5.111   1.127
10099SOL    HW131196   0.423   5.164   1.157
10099SOL    HW231197   0.373   5.021   1.097
10100SOL     OW31198   4.727   6.703   4.811
10100SOL    HW131199   4.725   6.623   4.871
10100SOL    HW231200   4.816   6.748   4.819
10101SOL     OW31201   6.415   3.979   2.169
10101SOL    HW131202   6.408   4.078   2.178
10101SOL    HW231203   6.373   3.935   2.248
10102SOL     OW31204   0.516   1.280   2.564
10102SOL    HW131205   0.497   1.325   2.477
10102SOL    HW231206   0.486   1.338   2.639
10103SOL     OW31207   2.572   0.591   5.652
10103SOL    HW131208   2.513   0.542   5.716
10103SOL    HW231209   2.590   0.533   5.572
10104SOL     OW31210   2.175   1.781   4.425
10104SOL    HW131211   2.097   1.744   4.376
10104SOL    HW231212   2.259   1.765   4.372
10105SOL     OW31213   1.497   0.905   0.069
10105SOL    HW131214   1.517   0.985   0.126
10105SOL    HW231215   1.572   0.840   0.076
10106SOL     OW31216   3.583   6.385   0.305
10106SOL    HW131217   3.618   6.332   0.383
10106SOL    HW231218   3.570   6.325   0.227
10107SOL     OW31219   6.132   1.186   5.660
10107SOL    HW131220   6.153   1.165   5.756
10107SOL    HW231221   6.144   1.104   5.605
10108SOL     OW31222   6.510   0.362   6.946
10108SOL    HW131223   6.546   0.315   6.866
10108SOL    HW231224   6.507   0.461   6.928
10109SOL     OW31225   5.674   1.049   0.495
10109SOL    HW131226   5.592   0.996   0.519
10109SOL    HW231227   5.683   1.053   0.396
10110SOL     OW31228   4.143   4.821   4.785
10110SOL    HW131229   4.167   4.840   4.880
10110SOL    HW231230   4.043   4.813   4.776
10111SOL     OW31231   5.688   3.818   3.618
10111SOL    HW131232   5.638   3.736   3.592
10111SOL    HW231233   5.772   3.792   3.666
10112SOL     OW31234   5.733   4.020   3.431
10112SOL    HW131235   5.824   4.055   3.451
10112SOL    HW231236   5.711   3.945   3.493
10113SOL     OW31237   3.964   0.228   6.922
10113SOL    HW131238   3.884   0.285   6.945
10113SOL    HW231239   3.993   0.249   6.829
10114SOL     OW31240   4.628   1.815   1.615
10114SOL    HW131241   4.546   1.872   1.615
10114SOL    HW231242   4.710   1.873   1.606
10115SOL     OW31243   3.421   0.480   5.152
10115SOL    HW131244   3.400   0.393   5.107
10115SOL    HW231245   3.394   0.556   5.094
10116SOL     OW31246   0.441   6.709   0.172
10116SOL    HW131247   0.522   6.759   0.202
10116SOL    HW231248   0.428   6.722   0.074
10117SOL     OW31249   6.905   6.289   6.479
10117SOL    HW131250   6.838   6.329   6.416
10117SOL    HW231251   6.984   6.255   6.427
10118SOL     OW31252   2.276   4.662   2.506
10118SOL    HW131253   2.367   4.650   2.547
10118SOL    HW231254   2.238   4.572   2.482
10119SOL     OW31255   0.180   5.923   4.883
10119SOL    HW131256   0.152   6.013   4.850
10119SOL    HW231257   0.270   5.900   4.845
10120SOL     OW31258   2.161   3.278   4.410
10120SOL    HW131259   2.194   3.295   4.503
10120SOL    HW231260   2.167   3.180   4.390
10121SOL     OW31261   5.892   3.416   0.199
10121SOL    HW131262   5.929   3.502   0.162
10121SOL    HW231263   5.951   3.384   0.273
10122SOL     OW31264   5.786   2.874   2.576
10122SOL    HW131265   5.786   2.939   2.499
10122SOL    HW231266   5.870   2.885   2.629
10123SOL     OW31267   5.261   5.798   0.365
10123SOL    HW131268   5.360   5.794   0.376
10123SOL    HW231269   5.221   5.712   0.397
10124SOL     OW31270   1.403   4.572   0.616
10124SOL    HW131271   1.418   4.475   0.600
10124SOL    HW231272   1.431   4.595   0.710
10125SOL     OW31273   1.468   1.269   2.037
10125SOL    HW131274   1.454   1.257   2.135
10125SOL    HW231275   1.425   1.193   1.988
10126SOL     OW31276   6.736   0.086   6.852
10126SOL    HW131277   6.736   0.052   6.946
10126SOL    HW231278   6.771   0.180   6.850
10127SOL     OW31279   2.789   4.456   6.161
10127SOL    HW131280   2.880   4.478   6.195
10127SOL    HW231281   2.778   4.493   6.069
10128SOL     OW31282   2.838   1.207   0.011
10128SOL    HW131283   2.907   1.134   0.011
10128SOL    HW231284   2.751   1.170   0.042
10129SOL     OW31285   6.304   1.428   2.736
10129SOL    HW131286   6.379   1.456   2.675
10129SOL    HW231287   6.243   1.366   2.687
10130SOL     OW31288   1.429   2.373   1.066
10130SOL    HW131289   1.484   2.293   1.089
10130SOL    HW231290   1.400   2.418   1.151
10131SOL     OW31291   1.302   6.641   4.923
10131SOL    HW131292   1.293   6.551   4.881
10131SOL    HW231293   1.371   6.694   4.875
10132SOL     OW31294   3.489   0.610   4.094
10132SOL    HW131295   3.473   0.667   4.174
10132SOL    HW231296   3.521   0.520   4.123
10133SOL     OW31297   3.992   6.425   0.184
10133SOL    HW131298   3.918   6.404   0.248
10133SOL    HW231299   4.010   6.523   0.183
10134SOL     OW31300   6.526   7.018   2.364
10134SOL    HW131301   6.498   6.936   2.414
10134SOL    HW231302   6.602   6.995   2.303
10135SOL     OW31303   4.895   3.340   3.216
10135SOL    HW131304   4.873   3.246   3.240
10135SOL    HW231305   4.889   3.351   3.116
10136SOL     OW31306   5.200   1.492   2.390
10136SOL    HW131307   5.291   1.457   2.366
10136SOL    HW231308   5.137   1.476   2.314
10137SOL     OW31309   6.987   3.202   4.335
10137SOL    HW131310   0.007   3.113   4.328
10137SOL    HW231311   0.021   3.272   4.294
10138SOL     OW31312   5.486   3.596   0.574
10138SOL    HW131313   5.424   3.629   0.502
10138SOL    HW231314   5.524   3.674   0.623
10139SOL     OW31315   3.116   3.436   3.581
10139SOL    HW131316   3.100   3.456   3.678
10139SOL    HW231317   3.148   3.519   3.535
10140SOL     OW31318   6.560   5.902   7.012
10140SOL    HW131319   6.572   5.874   0.083
10140SOL    HW231320   6.601   5.992   6.998
10141SOL     OW31321   3.910   0.933   5.943
10141SOL    HW131322   3.934   0.845   5.986
10141SOL    HW231323   3.974   0.951   5.868
10142SOL     OW31324   6.689   0.149   5.741
10142SOL    HW131325   6.634   0.198   5.808
10142SOL    HW231326   6.637   0.138   5.657
10143SOL     OW31327   5.234   1.515   0.398
10143SOL    HW131328   5.242   1.612   0.424
10143SOL    HW231329   5.138   1.494   0.379
10144SOL     OW31330   3.646   0.755   6.022
10144SOL    HW131331   3.727   0.749   6.081
10144SOL    HW231332   3.625   0.851   6.005
10145SOL     OW31333   3.400   5.333   3.671
10145SOL    HW131334   3.328   5.361   3.607
10145SOL    HW231335   3.450   5.255   3.632
10146SOL     OW31336   4.607   4.502   4.877
10146SOL    HW131337   4.520   4.496   4.926
10146SOL    HW231338   4.672   4.435   4.916
10147SOL     OW31339   5.045   4.105   6.152
10147SOL    HW131340   5.140   4.075   6.156
10147SOL    HW231341   5.008   4.088   6.060
10148SOL     OW31342   5.065   4.463   6.306
10148SOL    HW131343   5.000   4.513   6.362
10148SOL    HW231344   5.067   4.367   6.335
10149SOL     OW31345   5.782   3.607   1.834
10149SOL    HW131346   5.869   3.590   1.787
10149SOL    HW231347   5.731   3.677   1.784
10150SOL     OW31348   3.539   3.219   1.161
10150SOL    HW131349   3.477   3.208   1.239
10150SOL    HW231350   3.506   3.292   1.102
10151SOL     OW31351   0.748   5.750   0.008
10151SOL    HW131352   0.796   5.662   0.001
10151SOL    HW231353   0.786   5.802   0.085
10152SOL     OW31354   6.600   6.200   4.348
10152SOL    HW131355   6.612   6.278   4.286
10152SOL    HW231356   6.562   6.123   4.297
10153SOL     OW31357   4.700   5.867   3.078
10153SOL    HW131358   4.775   5.864   3.144
10153SOL    HW231359   4.625   5.811   3.111
10154SOL     OW31360   3.922   6.004   4.736
10154SOL    HW131361   3.843   5.960   4.693
10154SOL    HW231362   4.000   6.000   4.673
10155SOL     OW31363   3.634   2.295   6.322
10155SOL    HW131364   3.690   2.363   6.370
10155SOL    HW231365   3.673   2.204   6.338
10156SOL     OW31366   5.238   0.828   2.140
10156SOL    HW131367   5.179   0.909   2.139
10156SOL    HW231368   5.196   0.757   2.196
10157SOL     OW31369   0.392   1.852   0.315
10157SOL    HW131370   0.417   1.851   0.218
10157SOL    HW231371   0.306   1.901   0.327
10158SOL     OW31372   6.334   5.832   0.786
10158SOL    HW131373   6.254   5.790   0.742
10158SOL    HW231374   6.329   5.932   0.775
10159SOL     OW31375   2.650   2.915   0.621
10159SOL    HW131376   2.675   2.880   0.531
10159SOL    HW231377   2.599   3.001   0.611
10160SOL     OW31378   1.418   2.772   2.185
10160SOL    HW131379   1.346   2.711   2.154
10160SOL    HW231380   1.507   2.735   2.160
10161SOL     OW31381   4.291   3.911   0.810
10161SOL    HW131382   4.302   3.835   0.746
10161SOL    HW231383   4.245   3.878   0.893
10162SOL     OW31384   3.945   4.795   0.730
10162SOL    HW131385   3.942   4.702   0.695
10162SOL    HW231386   4.021   4.845   0.689
10163SOL     OW31387   6.577   3.941   0.216
10163SOL    HW131388   6.635   4.019   0.241
10163SOL    HW231389   6.482   3.963   0.236
10164SOL     OW31390   5.904   3.457   3.953
10164SOL    HW131391   6.001   3.455   3.928
10164SOL    HW231392   5.894   3.423   4.047
10165SOL     OW31393   6.474   1.134   3.653
10165SOL    HW131394   6.419   1.175   3.726
10165SOL    HW231395   6.528   1.205   3.608
10166SOL     OW31396   3.587   1.766   2.018
10166SOL    HW131397   3.614   1.859   1.991
10166SOL    HW231398   3.634   1.700   1.960
10167SOL     OW31399   1.162   4.579   0.116
10167SOL    HW131400   1.195   4.603   0.207
10167SOL    HW231401   1.227   4.516   0.073
10168SOL     OW31402   6.315   2.552   6.056
10168SOL    HW131403   6.309   2.636   6.001
10168SOL    HW231404   6.393   2.498   6.025
10169SOL     OW31405   0.216   3.953   3.810
10169SOL    HW131406   0.316   3.960   3.816
10169SOL    HW231407   0.192   3.875   3.753
10170SOL     OW31408   6.382   5.448   5.654
10170SOL    HW131409   6.365   5.435   5.751
10170SOL    HW231410   6.480   5.450   5.637
10171SOL     OW31411   0.375   2.313   5.163
10171SOL    HW131412   0.426   2.393   5.131
10171SOL    HW231413   0.303   2.291   5.097
10172SOL     OW31414   1.138   5.635   5.270
10172SOL    HW131415   1.050   5.608   5.230
10172SOL    HW231416   1.163   5.569   5.341
10173SOL     OW31417   2.358   2.417   0.615
10173SOL    HW131418   2.259   2.431   0.617
10173SOL    HW231419   2.381   2.329   0.657
10174SOL     OW31420   5.020   4.942   3.537
10174SOL    HW131421   4.949   4.940   3.466
10174SOL    HW231422   4.997   5.012   3.605
10175SOL     OW31423   5.157   2.397   3.188
10175SOL    HW131424   5.071   2.402   3.239
10175SOL    HW231425   5.139   2.408   3.091
10176SOL     OW31426   0.547   3.127   5.023
10176SOL    HW131427   0.562   3.220   4.989
10176SOL    HW231428   0.562   3.126   5.122
10177SOL     OW31429   2.081   1.073   1.577
10177SOL    HW131430   1.990   1.065   1.617
10177SOL    HW231431   2.075   1.124   1.491
10178SOL     OW31432   6.798   0.659   0.158
10178SOL    HW131433   6.733   0.584   0.174
10178SOL    HW231434   6.859   0.635   0.083
10179SOL     OW31435   0.431   2.450   6.896
10179SOL    HW131436   0.384   2.516   6.955
10179SOL    HW231437   0.484   2.498   6.827
10180SOL     OW31438   4.181   0.878   6.082
10180SOL    HW131439   4.183   0.778   6.081
10180SOL    HW231440   4.154   0.910   6.173
10181SOL     OW31441   6.491   3.282   1.949
10181SOL    HW131442   6.518   3.246   2.038
10181SOL    HW231443   6.451   3.373   1.960
10182SOL     OW31444   4.468   0.784   1.701
10182SOL    HW131445   4.385   0.748   1.660
10182SOL    HW231446   4.467   0.884   1.695
10183SOL     OW31447   6.716   2.771   6.187
10183SOL    HW131448   6.755   2.858   6.156
10183SOL    HW231449   6.618   2.782   6.203
10184SOL     OW31450   4.286   1.536   6.334
10184SOL    HW131451   4.374   1.582   6.346
10184SOL    HW231452   4.293   1.469   6.260
10185SOL     OW31453   6.087   6.129   3.187
10185SOL    HW131454   6.000   6.159   3.227
10185SOL    HW231455   6.091   6.157   3.091
10186SOL     OW31456   5.047   4.013   4.259
10186SOL    HW131457   5.038   3.963   4.173
10186SOL    HW231458   4.964   4.064   4.277
10187SOL     OW31459   1.417   3.844   6.504
10187SOL    HW131460   1.340   3.825   6.443
10187SOL    HW231461   1.445   3.759   6.550
10188SOL     OW31462   4.054   4.402   0.382
10188SOL    HW131463   4.044   4.475   0.314
10188SOL    HW231464   4.150   4.375   0.388
10189SOL     OW31465   0.460   0.889   0.041
10189SOL    HW131466   0.377   0.875   0.095
10189SOL    HW231467   0.439   0.945   6.986
10190SOL     OW31468   3.931   3.044   1.285
10190SOL    HW131469   3.986   2.970   1.325
10190SOL    HW231470   3.855   3.004   1.234
10191SOL     OW31471   4.490   5.712   6.796
10191SOL    HW131472   4.429   5.654   6.850
10191SOL    HW231473   4.450   5.727   6.705
10192SOL     OW31474   3.993   1.623   5.516
10192SOL    HW131475   3.948   1.663   5.596
10192SOL    HW231476   3.924   1.581   5.456
10193SOL     OW31477   3.826   2.979   1.954
10193SOL    HW131478   3.753   3.011   2.015
10193SOL    HW231479   3.914   3.016   1.985
10194SOL     OW31480   4.873   0.093   5.402
10194SOL    HW131481   4.806   0.022   5.425
10194SOL    HW231482   4.960   0.072   5.447
10195SOL     OW31483   6.689   6.123   0.424
10195SOL    HW131484   6.787   6.113   0.406
10195SOL    HW231485   6.669   6.095   0.518
10196SOL     OW31486   3.839   2.161   3.815
10196SOL    HW131487   3.796   2.079   3.776
10196SOL    HW231488   3.780   2.199   3.886
10197SOL     OW31489   5.431   1.940   4.613
10197SOL    HW131490   5.414   1.977   4.705
10197SOL    HW231491   5.511   1.880   4.616
10198SOL     OW31492   2.801   6.710   2.412
10198SOL    HW131493   2.703   6.718   2.397
10198SOL    HW231494   2.824   6.746   2.503
10199SOL     OW31495   1.282   2.793   0.796
10199SOL    HW131496   1.253   2.739   0.717
10199SOL    HW231497   1.350   2.741   0.849
10200SOL     OW31498   4.615   3.237   5.483
10200SOL    HW131499   4.612   3.204   5.578
10200SOL    HW231500   4.559   3.177   5.426
10201SOL     OW31501   1.553   5.463   6.947
10201SOL    HW131502   1.540   5.553   6.989
10201SOL    HW231503   1.639   5.423   6.979
10202SOL     OW31504   3.125   5.044   0.026
10202SOL    HW131505   3.108   5.007   6.959
10202SOL    HW231506   3.106   4.973   0.095
10203SOL     OW31507   6.980   3.286   2.185
10203SOL    HW131508   6.907   3.354   2.187
10203SOL    HW231509   6.965   3.218   2.256
10204SOL     OW31510   4.347   5.211   6.484
10204SOL    HW131511   4.341   5.240   6.389
10204SOL    HW231512   4.295   5.126   6.497
10205SOL     OW31513   2.512   1.226   2.379
10205SOL    HW131514   2.465   1.151   2.332
10205SOL    HW231515   2.446   1.299   2.399
10206SOL     OW31516   6.810   0.357   6.844
10206SOL    HW131517   6.872   0.397   6.775
10206SOL    HW231518   6.822   0.406   6.931
10207SOL     OW31519   0.967   1.807   0.120
10207SOL    HW131520   0.884   1.751   0.130
10207SOL    HW231521   0.963   1.856   0.032
10208SOL     OW31522   6.369   5.487   4.002
10208SOL    HW131523   6.367   5.420   3.928
10208SOL    HW231524   6.439   5.460   4.068
10209SOL     OW31525   0.129   6.818   6.803
10209SOL    HW131526   0.052   6.875   6.775
10209SOL    HW231527   0.191   6.805   6.726
10210SOL     OW31528   4.546   6.252   0.743
10210SOL    HW131529   4.644   6.269   0.749
10210SOL    HW231530   4.501   6.286   0.826
10211SOL     OW31531   4.635   6.276   4.654
10211SOL    HW131532   4.558   6.242   4.599
10211SOL    HW231533   4.651   6.214   4.731
10212SOL     OW31534   6.902   6.979   5.479
10212SOL    HW131535   6.841   0.030   5.457
10212SOL    HW231536   6.862   6.923   5.553
10213SOL     OW31537   5.220   3.231   1.845
10213SOL    HW131538   5.136   3.253   1.795
10213SOL    HW231539   5.239   3.133   1.838
10214SOL     OW31540   0.409   1.470   1.807
10214SOL    HW131541   0.398   1.547   1.869
10214SOL    HW231542   0.347   1.396   1.833
10215SOL     OW31543   3.747   3.215   3.691
10215SOL    HW131544   3.705   3.184   3.777
10215SOL    HW231545   3.776   3.136   3.637
10216SOL     OW31546   0.358   1.255   0.865
10216SOL    HW131547   0.391   1.349   0.855
10216SOL    HW231548   0.353   1.232   0.962
10217SOL     OW31549   1.929   2.241   4.001
10217SOL    HW131550   1.958   2.328   3.963
10217SOL    HW231551   1.899   2.254   4.096
10218SOL     OW31552   0.790   0.713   1.369
10218SOL    HW131553   0.878   0.670   1.390
10218SOL    HW231554   0.763   0.689   1.276
10219SOL     OW31555   0.038   2.354   2.582
10219SOL    HW131556   0.022   2.407   2.666
10219SOL    HW231557   6.989   2.287   2.570
10220SOL     OW31558   4.542   1.304   1.549
10220SOL    HW131559   4.461   1.246   1.560
10220SOL    HW231560   4.516   1.388   1.502
10221SOL     OW31561   1.801   3.881   4.783
10221SOL    HW131562   1.828   3.972   4.815
10221SOL    HW231563   1.871   3.845   4.722
10222SOL     OW31564   3.111   4.230   5.520
10222SOL    HW131565   3.204   4.248   5.550
10222SOL    HW231566   3.083   4.300   5.454
10223SOL     OW31567   2.769   5.364   0.437
10223SOL    HW131568   2.868   5.351   0.425
10223SOL    HW231569   2.734   5.294   0.499
10224SOL     OW31570   6.600   2.201   5.549
10224SOL    HW131571   6.633   2.272   5.488
10224SOL    HW231572   6.590   2.115   5.499
10225SOL     OW31573   1.693   6.134   5.984
10225SOL    HW131574   1.653   6.046   6.008
10225SOL    HW231575   1.793   6.127   5.983
10226SOL     OW31576   2.077   0.306   6.253
10226SOL    HW131577   2.047   0.223   6.300
10226SOL    HW231578   1.999   0.365   6.236
10227SOL     OW31579   4.897   4.272   7.010
10227SOL    HW131580   4.875   4.272   6.912
10227SOL    HW231581   4.935   4.361   0.011
10228SOL     OW31582   1.241   5.957   2.139
10228SOL    HW131583   1.290   6.033   2.182
10228SOL    HW231584   1.235   5.973   2.041
10229SOL     OW31585   1.947   2.509   4.441
10229SOL    HW131586   2.017   2.522   4.512
10229SOL    HW231587   1.945   2.413   4.413
10230SOL     OW31588   6.489   6.889   3.268
10230SOL    HW131589   6.587   6.900   3.286
10230SOL    HW231590   6.474   6.867   3.172
10231SOL     OW31591   6.498   4.671   5.189
10231SOL    HW131592   6.510   4.747   5.125
10231SOL    HW231593   6.542   4.692   5.276
10232SOL     OW31594   3.173   1.428   3.921
10232SOL    HW131595   3.172   1.464   4.015
10232SOL    HW231596   3.250   1.469   3.872
10233SOL     OW31597   4.141   3.919   5.483
10233SOL    HW131598   4.203   3.869   5.423
10233SOL    HW231599   4.053   3.931   5.438
10234SOL     OW31600   5.927   1.175   0.495
10234SOL    HW131601   5.847   1.117   0.483
10234SOL    HW231602   5.905   1.251   0.556
10235SOL     OW31603   3.192   1.727   1.040
10235SOL    HW131604   3.232   1.645   1.080
10235SOL    HW231605   3.253   1.804   1.054
10236SOL     OW31606   1.694   1.213   1.387
10236SOL    HW131607   1.606   1.167   1.398
10236SOL    HW231608   1.683   1.292   1.327
10237SOL     OW31609   0.196   3.778   6.579
10237SOL    HW131610   0.216   3.765   6.676
10237SOL    HW231611   0.104   3.746   6.559
10238SOL     OW31612   3.824   3.846   2.280
10238SOL    HW131613   3.923   3.847   2.269
10238SOL    HW231614   3.789   3.939   2.280
10239SOL     OW31615   2.076   3.511   5.953
10239SOL    HW131616   2.143   3.476   6.018
10239SOL    HW231617   2.106   3.600   5.918
10240SOL     OW31618   2.190   3.900   2.890
10240SOL    HW131619   2.218   3.993   2.868
10240SOL    HW231620   2.230   3.836   2.825
10241SOL     OW31621   0.003   6.095   3.170
10241SOL    HW131622   0.039   6.021   3.227
10241SOL    HW231623   0.077   6.135   3.116
10242SOL     OW31624   0.516   1.353   1.587
10242SOL    HW131625   0.575   1.393   1.517
10242SOL    HW231626   0.499   1.420   1.660
10243SOL     OW31627   2.237   4.922   2.310
10243SOL    HW131628   2.199   4.864   2.238
10243SOL    HW231629   2.229   4.876   2.398
10244SOL     OW31630   1.883   4.600   0.975
10244SOL    HW131631   1.878   4.700   0.975
10244SOL    HW231632   1.879   4.567   1.069
10245SOL     OW31633   3.714   4.871   0.833
10245SOL    HW131634   3.652   4.932   0.785
10245SOL    HW231635   3.784   4.837   0.770
10246SOL     OW31636   3.006   3.461   3.873
10246SOL    HW131637   2.935   3.420   3.931
10246SOL    HW231638   3.095   3.422   3.897
10247SOL     OW31639   0.117   3.828   6.309
10247SOL    HW131640   0.165   3.816   6.395
10247SOL    HW231641   0.035   3.771   6.308
10248SOL     OW31642   1.899   0.131   2.889
10248SOL    HW131643   1.888   0.035   2.867
10248SOL    HW231644   1.973   0.143   2.955
10249SOL     OW31645   2.279   6.683   6.660
10249SOL    HW131646   2.267   6.594   6.616
10249SOL    HW231647   2.205   6.744   6.633
10250SOL     OW31648   6.160   2.794   2.022
10250SOL    HW131649   6.219   2.875   2.013
10250SOL    HW231650   6.079   2.806   1.965
10251SOL     OW31651   2.371   1.450   4.349
10251SOL    HW131652   2.413   1.502   4.424
10251SOL    HW231653   2.394   1.353   4.358
10252SOL     OW31654   3.993   5.329   6.256
10252SOL    HW131655   3.959   5.237   6.274
10252SOL    HW231656   3.920   5.395   6.271
10253SOL     OW31657   3.170   7.008   0.449
10253SOL    HW131658   3.094   6.945   0.462
10253SOL    HW231659   3.138   0.065   0.400
10254SOL     OW31660   4.636   1.080   5.456
10254SOL    HW131661   4.571   1.093   5.530
10254SOL    HW231662   4.635   0.984   5.427
10255SOL     OW31663   2.357   6.270   0.652
10255SOL    HW131664   2.359   6.171   0.670
10255SOL    HW231665   2.285   6.312   0.706
10256SOL     OW31666   5.447   1.365   1.584
10256SOL    HW131667   5.394   1.283   1.562
10256SOL    HW231668   5.389   1.446   1.572
10257SOL     OW31669   1.956   4.902   4.536
10257SOL    HW131670   2.039   4.907   4.592
10257SOL    HW231671   1.963   4.825   4.472
10258SOL     OW31672   3.269   1.006   4.056
10258SOL    HW131673   3.343   1.054   4.011
10258SOL    HW231674   3.183   1.056   4.043
10259SOL     OW31675   0.435   5.109   3.322
10259SOL    HW131676   0.441   5.145   3.415
10259SOL    HW231677   0.388   5.175   3.264
10260SOL     OW31678   1.291   0.891   3.939
10260SOL    HW131679   1.249   0.975   3.975
10260SOL    HW231680   1.259   0.813   3.992
10261SOL     OW31681   6.977   5.051   2.994
10261SOL    HW131682   6.919   5.022   2.919
10261SOL    HW231683   6.922   5.066   3.076
10262SOL     OW31684   1.988   6.997   5.351
10262SOL    HW131685   2.070   6.985   5.295
10262SOL    HW231686   1.919   6.930   5.322
10263SOL     OW31687   5.329   0.417   6.772
10263SOL    HW131688   5.383   0.361   6.835
10263SOL    HW231689   5.240   0.374   6.758
10264SOL     OW31690   5.873   0.197   6.685
10264SOL    HW131691   5.892   0.287   6.726
10264SOL    HW231692   5.818   0.143   6.748
10265SOL     OW31693   2.269   2.955   1.317
10265SOL    HW131694   2.282   2.882   1.384
10265SOL    HW231695   2.196   3.017   1.348
10266SOL     OW31696   4.156   3.455   3.952
10266SOL    HW131697   4.245   3.471   3.908
10266SOL    HW231698   4.160   3.483   4.047
10267SOL     OW31699   5.564   2.473   6.391
10267SOL    HW131700   5.622   2.392   6.389
10267SOL    HW231701   5.510   2.474   6.475
10268SOL     OW31702   6.259   5.950   2.281
10268SOL    HW131703   6.186   5.985   2.340
10268SOL    HW231704   6.266   5.851   2.292
10269SOL     OW31705   0.305   3.232   6.974
10269SOL    HW131706   0.284   3.227   0.047
10269SOL    HW231707   0.346   3.145   6.944
10270SOL     OW31708   4.033   4.989   2.642
10270SOL    HW131709   4.006   4.951   2.730
10270SOL    HW231710   3.983   4.943   2.569
10271SOL     OW31711   3.132   2.832   5.685
10271SOL    HW131712   3.052   2.842   5.745
10271SOL    HW231713   3.106   2.858   5.592
10272SOL     OW31714   1.386   1.298   4.879
10272SOL    HW131715   1.332   1.360   4.937
10272SOL    HW231716   1.469   1.346   4.849
10273SOL     OW31717   2.961   5.875   2.507
10273SOL    HW131718   3.016   5.934   2.448
10273SOL    HW231719   2.958   5.783   2.468
10274SOL     OW31720   0.647   5.300   4.855
10274SOL    HW131721   0.569   5.240   4.874
10274SOL    HW231722   0.696   5.265   4.775
10275SOL     OW31723   0.287   6.255   1.485
10275SOL    HW131724   0.306   6.297   1.397
10275SOL    HW231725   0.264   6.325   1.552
10276SOL     OW31726   5.490   4.824   5.579
10276SOL    HW131727   5.438   4.777   5.507
10276SOL    HW231728   5.566   4.766   5.608
10277SOL     OW31729   1.326   5.222   3.528
10277SOL    HW131730   1.230   5.195   3.521
10277SOL    HW231731   1.354   5.267   3.443
10278SOL     OW31732   0.111   1.905   4.647
10278SOL    HW131733   0.022   1.900   4.692
10278SOL    HW231734   0.178   1.944   4.710
10279SOL     OW31735   2.377   5.217   4.042
10279SOL    HW131736   2.387   5.186   3.947
10279SOL    HW231737   2.449   5.177   4.098
10280SOL     OW31738   0.401   3.304   0.763
10280SOL    HW131739   0.495   3.329   0.740
10280SOL    HW231740   0.371   3.358   0.842
10281SOL     OW31741   5.809   1.718   2.257
10281SOL    HW131742   5.714   1.729   2.229
10281SOL    HW231743   5.821   1.627   2.297
10282SOL     OW31744   5.200   3.281   4.448
10282SOL    HW131745   5.152   3.355   4.401
10282SOL    HW231746   5.290   3.313   4.478
10283SOL     OW31747   1.580   3.345   0.567
10283SOL    HW131748   1.632   3.261   0.583
10283SOL    HW231749   1.519   3.361   0.645
10284SOL     OW31750   5.103   2.829   4.989
10284SOL    HW131751   5.193   2.791   4.970
10284SOL    HW231752   5.034   2.778   4.937
10285SOL     OW31753   5.856   0.140   2.154
10285SOL    HW131754   5.843   0.051   2.110
10285SOL    HW231755   5.953   0.162   2.158
10286SOL     OW31756   3.295   1.638   3.381
10286SOL    HW131757   3.307   1.736   3.365
10286SOL    HW231758   3.267   1.594   3.296
10287SOL     OW31759   1.652   6.952   1.147
10287SOL    HW131760   1.629   6.874   1.205
10287SOL    HW231761   1.701   7.020   1.201
10288SOL     OW31762   4.719   6.568   3.169
10288SOL    HW131763   4.654   6.540   3.240
10288SOL    HW231764   4.719   6.501   3.096
10289SOL     OW31765   2.020   6.466   0.562
10289SOL    HW131766   1.993   6.488   0.656
10289SOL    HW231767   2.056   6.373   0.559
10290SOL     OW31768   3.086   4.004   2.716
10290SOL    HW131769   3.141   4.068   2.663
10290SOL    HW231770   3.090   3.913   2.674
10291SOL     OW31771   4.426   1.433   3.338
10291SOL    HW131772   4.466   1.467   3.423
10291SOL    HW231773   4.330   1.408   3.355
10292SOL     OW31774   1.608   0.970   5.143
10292SOL    HW131775   1.594   0.995   5.047
10292SOL    HW231776   1.706   0.961   5.161
10293SOL     OW31777   2.261   4.164   2.781
10293SOL    HW131778   2.322   4.242   2.794
10293SOL    HW231779   2.172   4.196   2.751
10294SOL     OW31780   5.878   3.090   3.091
10294SOL    HW131781   5.810   3.079   3.019
10294SOL    HW231782   5.881   3.185   3.120
10295SOL     OW31783   6.362   4.478   5.946
10295SOL    HW131784   6.362   4.378   5.936
10295SOL    HW231785   6.434   4.504   6.010
10296SOL     OW31786   4.900   1.574   0.451
10296SOL    HW131787   4.916   1.486   0.406
10296SOL    HW231788   4.910   1.648   0.385
10297SOL     OW31789   2.126   6.852   6.544
10297SOL    HW131790   2.137   6.790   6.466
10297SOL    HW231791   2.059   6.922   6.521
10298SOL     OW31792   2.907   4.579   1.483
10298SOL    HW131793   2.936   4.591   1.388
10298SOL    HW231794   2.984   4.544   1.537
10299SOL     OW31795   5.238   4.796   3.255
10299SOL    HW131796   5.306   4.847   3.308
10299SOL    HW231797   5.259   4.804   3.157
10300SOL     OW31798   1.426   3.594   3.543
10300SOL    HW131799   1.360   3.540   3.595
10300SOL    HW231800   1.380   3.670   3.498
10301SOL     OW31801   5.027   2.564   4.615
10301SOL    HW131802   5.003   2.563   4.712
10301SOL    HW231803   5.087   2.642   4.596
10302SOL     OW31804   2.034   6.470   4.248
10302SOL    HW131805   1.991   6.421   4.324
10302SOL    HW231806   2.111   6.417   4.214
10303SOL     OW31807   1.783   6.365   2.981
10303SOL    HW131808   1.769   6.464   2.987
10303SOL    HW231809   1.829   6.333   3.064
10304SOL     OW31810   5.085   0.300   1.875
10304SOL    HW131811   5.174   0.272   1.910
10304SOL    HW231812   5.018   0.228   1.894
10305SOL     OW31813   1.185   4.443   6.692
10305SOL    HW131814   1.221   4.514   6.631
10305SOL    HW231815   1.194   4.354   6.648
10306SOL     OW31816   4.759   6.595   6.199
10306SOL    HW131817   4.751   6.498   6.222
10306SOL    HW231818   4.790   6.646   6.279
10307SOL     OW31819   2.526   2.117   5.667
10307SOL    HW131820   2.444   2.115   5.609
10307SOL    HW231821   2.503   2.084   5.759
10308SOL     OW31822   2.735   4.719   3.551
10308SOL    HW131823   2.756   4.731   3.454
10308SOL    HW231824   2.674   4.792   3.581
10309SOL     OW31825   6.605   1.884   5.150
10309SOL    HW131826   6.602   1.983   5.137
10309SOL    HW231827   6.700   1.854   5.153
10310SOL     OW31828   3.067   3.708   0.964
10310SOL    HW131829   3.084   3.708   1.063
10310SOL    HW231830   2.985   3.763   0.945
10311SOL     OW31831   6.923   6.097   0.307
10311SOL    HW131832   6.960   6.169   0.366
10311SOL    HW231833   6.995   6.062   0.248
10312SOL     OW31834   3.465   6.180   2.161
10312SOL    HW131835   3.537   6.246   2.140
10312SOL    HW231836   3.376   6.225   2.155
10313SOL     OW31837   5.113   6.600   1.541
10313SOL    HW131838   5.116   6.550   1.627
10313SOL    HW231839   5.201   6.646   1.526
10314SOL     OW31840   6.542   0.431   1.657
10314SOL    HW131841   6.542   0.367   1.734
10314SOL    HW231842   6.519   0.382   1.573
10315SOL     OW31843   5.028   6.207   4.912
10315SOL    HW131844   4.978   6.245   4.990
10315SOL    HW231845   5.080   6.127   4.941
10316SOL     OW31846   6.453   1.770   4.233
10316SOL    HW131847   6.445   1.797   4.137
10316SOL    HW231848   6.368   1.792   4.282
10317SOL     OW31849   4.304   5.259   4.812
10317SOL    HW131850   4.309   5.358   4.802
10317SOL    HW231851   4.223   5.235   4.865
10318SOL     OW31852   4.890   5.597   6.109
10318SOL    HW131853   4.956   5.555   6.170
10318SOL    HW231854   4.937   5.661   6.048
10319SOL     OW31855   1.420   2.267   5.542
10319SOL    HW131856   1.496   2.245   5.480
10319SOL    HW231857   1.351   2.320   5.492
10320SOL     OW31858   0.313   0.626   2.990
10320SOL    HW131859   0.281   0.672   3.073
10320SOL    HW231860   0.398   0.668   2.960
10321SOL     OW31861   3.786   1.289   2.290
10321SOL    HW131862   3.836   1.373   2.311
10321SOL    HW231863   3.852   1.215   2.273
10322SOL     OW31864   6.238   5.697   6.063
10322SOL    HW131865   6.268   5.774   6.007
10322SOL    HW231866   6.156   5.657   6.022
10323SOL     OW31867   6.211   2.985   5.798
10323SOL    HW131868   6.170   2.982   5.707
10323SOL    HW231869   6.286   2.919   5.802
10324SOL     OW31870   3.178   3.377   2.519
10324SOL    HW131871   3.243   3.308   2.552
10324SOL    HW231872   3.228   3.448   2.470
10325SOL     OW31873   0.563   3.884   2.880
10325SOL    HW131874   0.554   3.982   2.860
10325SOL    HW231875   0.651   3.867   2.924
10326SOL     OW31876   4.261   3.554   0.233
10326SOL    HW131877   4.249   3.615   0.155
10326SOL    HW231878   4.350   3.507   0.225
10327SOL     OW31879   2.561   2.241   1.401
10327SOL    HW131880   2.598   2.160   1.446
10327SOL    HW231881   2.463   2.245   1.415
10328SOL     OW31882   6.236   2.567   1.134
10328SOL    HW131883   6.223   2.626   1.054
10328SOL    HW231884   6.197   2.477   1.115
10329SOL     OW31885   3.576   0.207   4.012
10329SOL    HW131886   3.518   0.272   3.962
10329SOL    HW231887   3.534   0.117   4.010
10330SOL     OW31888   4.261   0.077   2.226
10330SOL    HW131889   4.316   0.158   2.250
10330SOL    HW231890   4.190   0.102   2.161
10331SOL     OW31891   0.079   1.673   4.916
10331SOL    HW131892   0.027   1.754   4.890
10331SOL    HW231893   0.063   1.653   5.013
10332SOL     OW31894   6.241   0.927   0.891
10332SOL    HW131895   6.329   0.915   0.938
10332SOL    HW231896   6.251   0.902   0.795
10333SOL     OW31897   6.128   4.272   4.752
10333SOL    HW131898   6.199   4.230   4.694
10333SOL    HW231899   6.153   4.367   4.770
10334SOL     OW31900   4.138   6.179   3.493
10334SOL    HW131901   4.150   6.164   3.395
10334SOL    HW231902   4.225   6.166   3.540
10335SOL     OW31903   2.903   4.501   6.451
10335SOL    HW131904   2.913   4.441   6.530
10335SOL    HW231905   2.857   4.452   6.377
10336SOL     OW31906   6.484   6.816   2.576
10336SOL    HW131907   6.396   6.793   2.616
10336SOL    HW231908   6.551   6.830   2.649
10337SOL     OW31909   0.137   6.988   5.817
10337SOL    HW131910   0.039   6.989   5.837
10337SOL    HW231911   0.161   6.902   5.770
10338SOL     OW31912   2.429   6.488   2.213
10338SOL    HW131913   2.402   6.560   2.149
10338SOL    HW231914   2.351   6.463   2.271
10339SOL     OW31915   3.266   5.659   0.439
10339SOL    HW131916   3.217   5.742   0.467
10339SOL    HW231917   3.323   5.627   0.515
10340SOL     OW31918   2.063   5.543   1.165
10340SOL    HW131919   2.082   5.524   1.261
10340SOL    HW231920   1.990   5.611   1.158
10341SOL     OW31921   1.931   3.690   1.764
10341SOL    HW131922   1.887   3.780   1.755
10341SOL    HW231923   2.027   3.697   1.738
10342SOL     OW31924   0.782   0.038   5.159
10342SOL    HW131925   0.814   0.012   5.068
10342SOL    HW231926   0.850   0.096   5.203
10343SOL     OW31927   3.246   5.586   0.174
10343SOL    HW131928   3.254   5.582   0.273
10343SOL    HW231929   3.241   5.681   0.144
10344SOL     OW31930   4.335   4.559   1.935
10344SOL    HW131931   4.356   4.463   1.919
10344SOL    HW231932   4.354   4.582   2.030
10345SOL     OW31933   1.583   1.329   6.827
10345SOL    HW131934   1.651   1.300   6.895
10345SOL    HW231935   1.630   1.364   6.746
10346SOL     OW31936   6.339   6.955   1.296
10346SOL    HW131937   6.366   6.886   1.362
10346SOL    HW231938   6.243   6.942   1.272
10347SOL     OW31939   5.023   2.330   2.096
10347SOL    HW131940   5.058   2.373   2.012
10347SOL    HW231941   5.099   2.290   2.147
10348SOL     OW31942   6.599   1.659   0.430
10348SOL    HW131943   6.557   1.728   0.370
10348SOL    HW231944   6.679   1.620   0.384
10349SOL     OW31945   6.816   1.575   1.583
10349SOL    HW131946   6.853   1.608   1.670
10349SOL    HW231947   6.728   1.619   1.565
10350SOL     OW31948   1.939   6.552   5.481
10350SOL    HW131949   2.017   6.537   5.541
10350SOL    HW231950   1.920   6.469   5.429
10351SOL     OW31951   4.709   4.984   6.205
10351SOL    HW131952   4.713   5.067   6.260
10351SOL    HW231953   4.752   5.002   6.116
10352SOL     OW31954   4.738   2.466   6.556
10352SOL    HW131955   4.833   2.487   6.579
10352SOL    HW231956   4.679   2.482   6.635
10353SOL     OW31957   6.995   2.703   5.715
10353SOL    HW131958   0.062   2.689   5.676
10353SOL    HW231959   6.928   2.651   5.662
10354SOL     OW31960   5.772   2.240   2.574
10354SOL    HW131961   5.820   2.225   2.659
10354SOL    HW231962   5.832   2.220   2.497
10355SOL     OW31963   2.290   0.704   2.121
10355SOL    HW131964   2.205   0.734   2.078
10355SOL    HW231965   2.285   0.605   2.139
10356SOL     OW31966   0.276   4.036   5.823
10356SOL    HW131967   0.263   4.003   5.917
10356SOL    HW231968   0.229   3.974   5.760
10357SOL     OW31969   3.112   2.910   6.664
10357SOL    HW131970   3.096   2.862   6.578
10357SOL    HW231971   3.120   3.008   6.646
10358SOL     OW31972   6.076   2.936   3.708
10358SOL    HW131973   6.042   2.889   3.627
10358SOL    HW231974   6.147   2.881   3.751
10359SOL     OW31975   6.888   1.614   1.861
10359SOL    HW131976   6.834   1.530   1.857
10359SOL    HW231977   6.930   1.623   1.952
10360SOL     OW31978   4.677   5.640   1.770
10360SOL    HW131979   4.617   5.574   1.726
10360SOL    HW231980   4.698   5.609   1.863
10361SOL     OW31981   2.514   0.701   2.778
10361SOL    HW131982   2.592   0.660   2.826
10361SOL    HW231983   2.543   0.732   2.688
10362SOL     OW31984   0.403   5.268   3.890
10362SOL    HW131985   0.452   5.348   3.856
10362SOL    HW231986   0.308   5.271   3.858
10363SOL     OW31987   4.557   2.699   0.989
10363SOL    HW131988   4.526   2.689   1.084
10363SOL    HW231989   4.488   2.661   0.928
10364SOL     OW31990   3.649   3.689   2.425
10364SOL    HW131991   3.699   3.750   2.363
10364SOL    HW231992   3.575   3.741   2.469
10365SOL     OW31993   5.456   4.470   5.380
10365SOL    HW131994   5.415   4.462   5.471
10365SOL    HW231995   5.391   4.440   5.311
10366SOL     OW31996   4.371   0.114   4.366
10366SOL    HW131997   4.286   0.166   4.369
10366SOL    HW231998   4.440   0.165   4.315
10367SOL     OW31999   6.631   1.596   2.023
10367SOL    HW132000   6.652   1.598   1.925
10367SOL    HW232001   6.547   1.647   2.040
10368SOL     OW32002   2.346   0.999   2.264
10368SOL    HW132003   2.274   0.958   2.320
10368SOL    HW232004   2.417   0.931   2.246
10369SOL     OW32005   3.663   1.307   5.481
10369SOL    HW132006   3.731   1.283   5.551
10369SOL    HW232007   3.626   1.223   5.442
10370SOL     OW32008   5.298   1.566   5.487
10370SOL    HW132009   5.350   1.617   5.419
10370SOL    HW232010   5.252   1.630   5.549
10371SOL     OW32011   2.240   5.779   4.230
10371SOL    HW132012   2.239   5.878   4.241
10371SOL    HW232013   2.146   5.746   4.220
10372SOL     OW32014   1.694   0.879   0.757
10372SOL    HW132015   1.738   0.966   0.734
10372SOL    HW232016   1.727   0.808   0.694
10373SOL     OW32017   1.589   6.504   4.985
10373SOL    HW132018   1.559   6.525   5.077
10373SOL    HW232019   1.681   6.464   4.988
10374SOL     OW32020   3.396   1.225   3.324
10374SOL    HW132021   3.387   1.254   3.419
10374SOL    HW232022   3.492   1.218   3.299
10375SOL     OW32023   2.780   1.756   6.576
10375SOL    HW132024   2.841   1.700   6.633
10375SOL    HW232025   2.832   1.796   6.501
10376SOL     OW32026   1.258   5.621   3.703
10376SOL    HW132027   1.275   5.698   3.765
10376SOL    HW232028   1.168   5.582   3.722
10377SOL     OW32029   6.917   0.730   3.679
10377SOL    HW132030   6.954   0.733   3.772
10377SOL    HW232031   6.853   0.653   3.672
10378SOL     OW32032   6.025   0.188   5.274
10378SOL    HW132033   5.969   0.193   5.192
10378SOL    HW232034   6.121   0.205   5.251
10379SOL     OW32035   3.327   6.781   4.132
10379SOL    HW132036   3.322   6.706   4.065
10379SOL    HW232037   3.331   6.743   4.224
10380SOL     OW32038   0.417   2.297   4.738
10380SOL    HW132039   0.320   2.274   4.731
10380SOL    HW232040   0.472   2.216   4.719
10381SOL     OW32041   4.440   4.554   0.753
10381SOL    HW132042   4.494   4.473   0.774
10381SOL    HW232043   4.441   4.571   0.655
10382SOL     OW32044   2.272   5.005   1.089
10382SOL    HW132045   2.331   5.072   1.043
10382SOL    HW232046   2.205   5.054   1.145
10383SOL     OW32047   0.524   3.942   0.709
10383SOL    HW132048   0.595   3.939   0.639
10383SOL    HW232049   0.439   3.904   0.673
10384SOL     OW32050   6.817   0.520   1.359
10384SOL    HW132051   6.801   0.565   1.447
10384SOL    HW232052   6.908   0.543   1.326
10385SOL     OW32053   3.681   6.872   5.833
10385SOL    HW132054   3.581   6.877   5.825
10385SOL    HW232055   3.712   6.783   5.799
10386SOL     OW32056   6.320   1.722   5.312
10386SOL    HW132057   6.297   1.627   5.334
10386SOL    HW232058   6.353   1.768   5.395
10387SOL     OW32059   4.613   1.841   2.342
10387SOL    HW132060   4.703   1.879   2.322
10387SOL    HW232061   4.620   1.772   2.414
10388SOL     OW32062   2.135   5.736   2.350
10388SOL    HW132063   2.224   5.780   2.355
10388SOL    HW232064   2.074   5.789   2.291
10389SOL     OW32065   6.923   6.564   1.228
10389SOL    HW132066   6.842   6.533   1.179
10389SOL    HW232067   6.895   6.618   1.308
10390SOL     OW32068   2.144   2.380   1.317
10390SOL    HW132069   2.135   2.412   1.411
10390SOL    HW232070   2.152   2.459   1.256
10391SOL     OW32071   0.127   5.704   3.879
10391SOL    HW132072   0.151   5.685   3.784
10391SOL    HW232073   0.164   5.632   3.938
10392SOL     OW32074   6.847   3.849   6.418
10392SOL    HW132075   6.871   3.759   6.381
10392SOL    HW232076   6.920   3.880   6.479
10393SOL     OW32077   2.360   2.591   2.136
10393SOL    HW132078   2.400   2.647   2.063
10393SOL    HW232079   2.429   2.528   2.171
10394SOL     OW32080   2.417   6.322   4.722
10394SOL    HW132081   2.421   6.254   4.795
10394SOL    HW232082   2.506   6.328   4.676
10395SOL     OW32083   0.032   0.919   3.311
10395SOL    HW132084   0.067   0.975   3.386
10395SOL    HW232085   0.004   0.830   3.346
10396SOL     OW32086   2.616   0.177   3.965
10396SOL    HW132087   2.710   0.159   3.934
10396SOL    HW232088   2.602   0.135   4.054
10397SOL     OW32089   2.998   1.977   4.095
10397SOL    HW132090   2.906   1.962   4.059
10397SOL    HW232091   3.062   1.988   4.019
10398SOL     OW32092   5.230   2.234   0.659
10398SOL    HW132093   5.188   2.279   0.580
10398SOL    HW232094   5.321   2.201   0.634
10399SOL     OW32095   4.105   1.920   4.794
10399SOL    HW132096   4.194   1.960   4.819
10399SOL    HW232097   4.053   1.987   4.741
10400SOL     OW32098   4.087   5.813   0.932
10400SOL    HW132099   4.128   5.901   0.955
10400SOL    HW232100   4.011   5.795   0.995
10401SOL     OW32101   0.344   0.418   2.446
10401SOL    HW132102   0.405   0.428   2.524
10401SOL    HW232103   0.391   0.447   2.362
10402SOL     OW32104   0.106   2.423   5.822
10402SOL    HW132105   0.021   2.388   5.783
10402SOL    HW232106   0.141   2.498   5.766
10403SOL     OW32107   4.453   1.038   2.949
10403SOL    HW132108   4.419   1.110   3.009
10403SOL    HW232109   4.463   0.953   3.001
10404SOL     OW32110   6.946   0.141   4.487
10404SOL    HW132111   0.004   0.090   4.512
10404SOL    HW232112   6.972   0.219   4.430
10405SOL     OW32113   1.370   5.579   5.134
10405SOL    HW132114   1.274   5.604   5.146
10405SOL    HW232115   1.411   5.638   5.065
10406SOL     OW32116   2.186   3.276   5.452
10406SOL    HW132117   2.251   3.207   5.484
10406SOL    HW232118   2.166   3.339   5.527
10407SOL     OW32119   2.349   0.583   6.544
10407SOL    HW132120   2.301   0.570   6.457
10407SOL    HW232121   2.437   0.536   6.541
10408SOL     OW32122   3.818   6.724   2.235
10408SOL    HW132123   3.848   6.695   2.326
10408SOL    HW232124   3.889   6.703   2.168
10409SOL     OW32125   0.962   3.823   0.678
10409SOL    HW132126   0.884   3.761   0.674
10409SOL    HW232127   1.031   3.795   0.612
10410SOL     OW32128   5.469   2.253   1.393
10410SOL    HW132129   5.435   2.164   1.360
10410SOL    HW232130   5.522   2.297   1.321
10411SOL     OW32131   3.937   6.043   4.335
10411SOL    HW132132   3.908   5.953   4.302
10411SOL    HW232133   3.858   6.096   4.364
10412SOL     OW32134   6.670   1.119   0.485
10412SOL    HW132135   6.736   1.073   0.544
10412SOL    HW232136   6.603   1.167   0.541
10413SOL     OW32137   0.038   1.801   1.758
10413SOL    HW132138   7.003   1.725   1.784
10413SOL    HW232139   0.115   1.768   1.704
10414SOL     OW32140   4.054   6.064   5.918
10414SOL    HW132141   4.051   6.024   5.827
10414SOL    HW232142   4.090   6.157   5.913
10415SOL     OW32143   2.211   4.025   3.792
10415SOL    HW132144   2.253   4.111   3.820
10415SOL    HW232145   2.184   3.974   3.874
10416SOL     OW32146   6.320   0.365   4.850
10416SOL    HW132147   6.254   0.292   4.864
10416SOL    HW232148   6.336   0.413   4.936
10417SOL     OW32149   4.711   5.260   4.158
10417SOL    HW132150   4.619   5.282   4.192
10417SOL    HW232151   4.714   5.164   4.131
10418SOL     OW32152   6.005   3.967   5.963
10418SOL    HW132153   6.026   3.971   6.061
10418SOL    HW232154   5.969   4.055   5.933
10419SOL     OW32155   2.882   0.027   5.308
10419SOL    HW132156   2.785   0.022   5.333
10419SOL    HW232157   2.898   0.110   5.254
10420SOL     OW32158   6.875   3.610   3.997
10420SOL    HW132159   6.791   3.568   3.965
10420SOL    HW232160   6.869   3.709   3.986
10421SOL     OW32161   1.561   3.315   4.875
10421SOL    HW132162   1.471   3.345   4.842
10421SOL    HW232163   1.618   3.395   4.893
10422SOL     OW32164   6.980   3.683   4.974
10422SOL    HW132165   6.896   3.641   5.008
10422SOL    HW232166   0.003   3.618   4.914
10423SOL     OW32167   4.826   4.780   5.147
10423SOL    HW132168   4.781   4.798   5.059
10423SOL    HW232169   4.896   4.709   5.134
10424SOL     OW32170   4.153   2.875   0.390
10424SOL    HW132171   4.095   2.956   0.386
10424SOL    HW232172   4.211   2.872   0.308
10425SOL     OW32173   0.895   5.753   2.550
10425SOL    HW132174   0.932   5.765   2.642
10425SOL    HW232175   0.804   5.795   2.545
10426SOL     OW32176   5.208   4.255   5.803
10426SOL    HW132177   5.141   4.191   5.840
10426SOL    HW232178   5.164   4.315   5.737
10427SOL     OW32179   5.058   0.191   0.170
10427SOL    HW132180   5.133   0.211   0.106
10427SOL    HW232181   5.006   0.275   0.186
10428SOL     OW32182   2.831   1.836   4.339
10428SOL    HW132183   2.884   1.766   4.293
10428SOL    HW232184   2.736   1.804   4.350
10429SOL     OW32185   0.871   3.846   2.735
10429SOL    HW132186   0.798   3.899   2.690
10429SOL    HW232187   0.866   3.859   2.834
10430SOL     OW32188   3.643   6.582   4.501
10430SOL    HW132189   3.720   6.617   4.448
10430SOL    HW232190   3.568   6.558   4.439
10431SOL     OW32191   2.829   0.200   4.424
10431SOL    HW132192   2.781   0.272   4.374
10431SOL    HW232193   2.784   0.185   4.512
10432SOL     OW32194   6.874   1.897   5.302
10432SOL    HW132195   6.832   1.901   5.392
10432SOL    HW232196   6.875   1.988   5.261
10433SOL     OW32197   6.984   6.505   2.692
10433SOL    HW132198   6.888   6.524   2.671
10433SOL    HW232199   0.000   6.585   2.735
10434SOL     OW32200   3.898   6.287   4.625
10434SOL    HW132201   3.931   6.223   4.694
10434SOL    HW232202   3.828   6.347   4.665
10435SOL     OW32203   2.095   1.964   6.272
10435SOL    HW132204   2.025   1.972   6.344
10435SOL    HW232205   2.145   2.050   6.264
10436SOL     OW32206   6.394   3.965   4.265
10436SOL    HW132207   6.298   3.975   4.293
10436SOL    HW232208   6.405   3.999   4.172
10437SOL     OW32209   6.305   5.048   5.041
10437SOL    HW132210   6.265   5.050   5.133
10437SOL    HW232211   6.242   5.091   4.976
10438SOL     OW32212   0.384   6.023   6.285
10438SOL    HW132213   0.285   6.010   6.288
10438SOL    HW232214   0.427   5.968   6.357
10439SOL     OW32215   5.233   1.268   4.625
10439SOL    HW132216   5.210   1.307   4.714
10439SOL    HW232217   5.328   1.239   4.625
10440SOL     OW32218   0.206   0.045   7.001
10440SOL    HW132219   0.295   0.061   0.019
10440SOL    HW232220   0.198   6.973   6.976
10441SOL     OW32221   2.781   1.617   1.388
10441SOL    HW132222   2.706   1.568   1.343
10441SOL    HW232223   2.787   1.589   1.484
10442SOL     OW32224   4.097   6.818   5.104
10442SOL    HW132225   4.178   6.827   5.046
10442SOL    HW232226   4.015   6.831   5.048
10443SOL     OW32227   5.872   2.566   2.928
10443SOL    HW132228   5.966   2.532   2.920
10443SOL    HW232229   5.814   2.522   2.860
10444SOL     OW32230   4.209   5.470   2.090
10444SOL    HW132231   4.208   5.438   1.995
10444SOL    HW232232   4.143   5.544   2.101
10445SOL     OW32233   0.618   3.723   3.103
10445SOL    HW132234   0.688   3.721   3.175
10445SOL    HW232235   0.641   3.657   3.032
10446SOL     OW32236   1.926   3.659   6.299
10446SOL    HW132237   1.839   3.635   6.343
10446SOL    HW232238   1.910   3.728   6.229
10447SOL     OW32239   0.066   0.851   2.865
10447SOL    HW132240   0.160   0.817   2.863
10447SOL    HW232241   0.056   0.916   2.941
10448SOL     OW32242   3.532   0.701   1.964
10448SOL    HW132243   3.631   0.709   1.955
10448SOL    HW232244   3.509   0.676   2.058
10449SOL     OW32245   2.361   5.640   6.538
10449SOL    HW132246   2.444   5.695   6.548
10449SOL    HW232247   2.386   5.544   6.525
10450SOL     OW32248   0.256   1.708   6.906
10450SOL    HW132249   0.236   1.739   6.813
10450SOL    HW232250   0.269   1.609   6.906
10451SOL     OW32251   2.778   6.414   3.188
10451SOL    HW132252   2.782   6.424   3.089
10451SOL    HW232253   2.865   6.445   3.228
10452SOL     OW32254   6.284   2.999   3.095
10452SOL    HW132255   6.223   2.920   3.104
10452SOL    HW232256   6.235   3.082   3.121
10453SOL     OW32257   5.187   6.385   1.755
10453SOL    HW132258   5.137   6.299   1.748
10453SOL    HW232259   5.242   6.398   1.673
10454SOL     OW32260   5.493   2.074   0.663
10454SOL    HW132261   5.486   2.031   0.753
10454SOL    HW232262   5.501   2.004   0.593
10455SOL     OW32263   0.044   6.392   3.767
10455SOL    HW132264   0.112   6.439   3.712
10455SOL    HW232265   0.071   6.395   3.863
10456SOL     OW32266   1.068   5.347   1.067
10456SOL    HW132267   1.015   5.409   1.009
10456SOL    HW232268   1.024   5.257   1.069
10457SOL     OW32269   4.535   3.084   0.478
10457SOL    HW132270   4.446   3.068   0.521
10457SOL    HW232271   4.606   3.086   0.549
10458SOL     OW32272   6.421   0.371   6.464
10458SOL    HW132273   6.498   0.381   6.526
10458SOL    HW232274   6.426   0.282   6.419
10459SOL     OW32275   4.452   5.703   1.422
10459SOL    HW132276   4.518   5.753   1.365
10459SOL    HW232277   4.365   5.752   1.424
10460SOL     OW32278   2.041   4.268   1.802
10460SOL    HW132279   2.083   4.358   1.805
10460SOL    HW232280   2.018   4.239   1.895
10461SOL     OW32281   6.191   4.686   5.233
10461SOL    HW132282   6.162   4.603   5.281
10461SOL    HW232283   6.291   4.695   5.240
10462SOL     OW32284   5.794   2.494   3.212
10462SOL    HW132285   5.810   2.558   3.136
10462SOL    HW232286   5.795   2.544   3.298
10463SOL     OW32287   3.928   2.158   6.210
10463SOL    HW132288   3.865   2.122   6.278
10463SOL    HW232289   3.968   2.244   6.244
10464SOL     OW32290   5.895   6.491   2.216
10464SOL    HW132291   5.907   6.536   2.304
10464SOL    HW232292   5.869   6.559   2.147
10465SOL     OW32293   5.351   5.568   1.051
10465SOL    HW132294   5.316   5.622   0.974
10465SOL    HW232295   5.328   5.614   1.137
10466SOL     OW32296   4.687   4.612   5.320
10466SOL    HW132297   4.751   4.535   5.327
10466SOL    HW232298   4.735   4.692   5.286
10467SOL     OW32299   1.919   1.867   0.728
10467SOL    HW132300   1.900   1.783   0.778
10467SOL    HW232301   2.015   1.894   0.743
10468SOL     OW32302   3.694   4.853   3.138
10468SOL    HW132303   3.743   4.911   3.202
10468SOL    HW232304   3.740   4.765   3.129
10469SOL     OW32305   4.136   4.431   5.630
10469SOL    HW132306   4.160   4.417   5.726
10469SOL    HW232307   4.171   4.356   5.575
10470SOL     OW32308   2.017   1.897   3.568
10470SOL    HW132309   2.106   1.884   3.524
10470SOL    HW232310   2.017   1.986   3.615
10471SOL     OW32311   2.351   7.014   0.552
10471SOL    HW132312   2.410   0.049   0.497
10471SOL    HW232313   2.264   0.036   0.568
10472SOL     OW32314   3.161   6.065   0.502
10472SOL    HW132315   3.151   5.996   0.574
10472SOL    HW232316   3.111   6.036   0.421
10473SOL     OW32317   6.255   6.799   6.262
10473SOL    HW132318   6.194   6.850   6.323
10473SOL    HW232319   6.334   6.766   6.315
10474SOL     OW32320   4.086   0.891   4.482
10474SOL    HW132321   4.164   0.953   4.471
10474SOL    HW232322   4.006   0.944   4.510
10475SOL     OW32323   3.859   6.847   1.833
10475SOL    HW132324   3.839   6.860   1.736
10475SOL    HW232325   3.774   6.846   1.885
10476SOL     OW32326   5.614   6.480   5.906
10476SOL    HW132327   5.636   6.555   5.967
10476SOL    HW232328   5.627   6.509   5.811
10477SOL     OW32329   6.887   1.421   4.795
10477SOL    HW132330   6.962   1.470   4.751
10477SOL    HW232331   6.911   1.324   4.803
10478SOL     OW32332   6.307   6.919   0.233
10478SOL    HW132333   6.342   6.938   0.325
10478SOL    HW232334   6.349   6.981   0.167
10479SOL     OW32335   6.963   1.723   2.360
10479SOL    HW132336   6.949   1.810   2.407
10479SOL    HW232337   6.955   1.648   2.426
10480SOL     OW32338   0.616   0.860   2.390
10480SOL    HW132339   0.701   0.816   2.419
10480SOL    HW232340   0.632   0.914   2.308
10481SOL     OW32341   2.047   6.330   3.822
10481SOL    HW132342   2.096   6.357   3.739
10481SOL    HW232343   2.001   6.410   3.861
10482SOL     OW32344   6.382   5.075   4.283
10482SOL    HW132345   6.387   5.058   4.381
10482SOL    HW232346   6.395   4.989   4.233
10483SOL     OW32347   6.080   5.163   0.625
10483SOL    HW132348   6.086   5.229   0.699
10483SOL    HW232349   6.014   5.092   0.649
10484SOL     OW32350   5.613   1.738   1.723
10484SOL    HW132351   5.565   1.692   1.798
10484SOL    HW232352   5.695   1.686   1.699
10485SOL     OW32353   3.593   4.068   0.418
10485SOL    HW132354   3.623   4.003   0.488
10485SOL    HW232355   3.668   4.128   0.394
10486SOL     OW32356   0.072   0.607   0.589
10486SOL    HW132357   0.023   0.527   0.623
10486SOL    HW232358   0.015   0.655   0.523
10487SOL     OW32359   5.003   0.359   1.433
10487SOL    HW132360   5.009   0.431   1.364
10487SOL    HW232361   4.926   0.378   1.494
10488SOL     OW32362   3.466   1.215   5.867
10488SOL    HW132363   3.415   1.196   5.784
10488SOL    HW232364   3.528   1.291   5.852
10489SOL     OW32365   0.839   6.775   5.495
10489SOL    HW132366   0.859   6.863   5.537
10489SOL    HW232367   0.873   6.774   5.402
10490SOL     OW32368   6.005   1.832   0.886
10490SOL    HW132369   5.917   1.879   0.889
10490SOL    HW232370   6.078   1.897   0.906
10491SOL     OW32371   2.278   2.640   0.333
10491SOL    HW132372   2.255   2.731   0.297
10491SOL    HW232373   2.202   2.578   0.317
10492SOL     OW32374   5.854   4.426   5.741
10492SOL    HW132375   5.943   4.471   5.737
10492SOL    HW232376   5.814   4.422   5.649
10493SOL     OW32377   3.180   0.817   2.139
10493SOL    HW132378   3.150   0.850   2.049
10493SOL    HW232379   3.260   0.869   2.168
10494SOL     OW32380   5.471   4.237   5.828
10494SOL    HW132381   5.488   4.183   5.910
10494SOL    HW232382   5.375   4.262   5.823
10495SOL     OW32383   1.886   6.857   0.105
10495SOL    HW132384   1.983   6.855   0.128
10495SOL    HW232385   1.874   6.836   0.008
10496SOL     OW32386   0.481   3.765   6.465
10496SOL    HW132387   0.391   3.728   6.490
10496SOL    HW232388   0.487   3.861   6.492
10497SOL     OW32389   1.898   0.273   2.168
10497SOL    HW132390   1.837   0.256   2.090
10497SOL    HW232391   1.978   0.324   2.138
10498SOL     OW32392   3.262   5.563   1.242
10498SOL    HW132393   3.182   5.610   1.279
10498SOL    HW232394   3.239   5.520   1.155
10499SOL     OW32395   3.460   6.814   2.852
10499SOL    HW132396   3.437   6.718   2.840
10499SOL    HW232397   3.447   6.840   2.948
10500SOL     OW32398   6.579   1.744   6.391
10500SOL    HW132399   6.659   1.687   6.371
10500SOL    HW232400   6.558   1.739   6.489
10501SOL     OW32401   2.071   5.674   2.594
10501SOL    HW132402   2.114   5.688   2.505
10501SOL    HW232403   1.983   5.722   2.598
10502SOL     OW32404   2.403   0.548   1.261
10502SOL    HW132405   2.502   0.544   1.247
10502SOL    HW232406   2.382   0.544   1.359
10503SOL     OW32407   4.581   2.850   0.295
10503SOL    HW132408   4.550   2.935   0.338
10503SOL    HW232409   4.598   2.782   0.366
10504SOL     OW32410   1.566   1.745   6.091
10504SOL    HW132411   1.502   1.716   6.162
10504SOL    HW232412   1.652   1.775   6.134
10505SOL     OW32413   5.527   5.484   0.321
10505SOL    HW132414   5.585   5.403   0.335
10505SOL    HW232415   5.444   5.458   0.273
10506SOL     OW32416   0.393   4.974   0.476
10506SOL    HW132417   0.468   4.910   0.489
10506SOL    HW232418   0.430   5.065   0.455
10507SOL     OW32419   2.181   0.506   6.956
10507SOL    HW132420   2.095   0.521   7.004
10507SOL    HW232421   2.164   0.460   6.869
10508SOL     OW32422   6.011   6.692   4.829
10508SOL    HW132423   5.962   6.615   4.787
10508SOL    HW232424   6.102   6.700   4.789
10509SOL     OW32425   0.613   5.788   4.085
10509SOL    HW132426   0.604   5.698   4.128
10509SOL    HW232427   0.593   5.780   3.987
10510SOL     OW32428   4.476   5.965   6.079
10510SOL    HW132429   4.459   6.047   6.024
10510SOL    HW232430   4.567   5.929   6.059
10511SOL     OW32431   4.131   1.084   2.097
10511SOL    HW132432   4.091   1.148   2.032
10511SOL    HW232433   4.065   1.065   2.170
10512SOL     OW32434   4.299   0.388   5.920
10512SOL    HW132435   4.331   0.478   5.891
10512SOL    HW232436   4.199   0.389   5.926
10513SOL     OW32437   6.397   2.776   4.359
10513SOL    HW132438   6.451   2.747   4.438
10513SOL    HW232439   6.454   2.774   4.277
10514SOL     OW32440   0.296   3.850   0.547
10514SOL    HW132441   0.212   3.837   0.494
10514SOL    HW232442   0.295   3.789   0.626
10515SOL     OW32443   0.995   3.148   2.993
10515SOL    HW132444   0.921   3.205   3.030
10515SOL    HW232445   1.007   3.170   2.896
10516SOL     OW32446   4.105   1.057   0.695
10516SOL    HW132447   4.028   0.994   0.687
10516SOL    HW232448   4.168   1.043   0.619
10517SOL     OW32449   0.978   2.539   2.639
10517SOL    HW132450   0.894   2.572   2.596
10517SOL    HW232451   1.006   2.604   2.710
10518SOL     OW32452   0.892   5.469   6.634
10518SOL    HW132453   0.974   5.413   6.645
10518SOL    HW232454   0.917   5.561   6.606
10519SOL     OW32455   2.392   3.068   6.823
10519SOL    HW132456   2.481   3.043   6.787
10519SOL    HW232457   2.328   3.083   6.748
10520SOL     OW32458   0.914   2.449   6.849
10520SOL    HW132459   0.827   2.403   6.867
10520SOL    HW232460   0.912   2.540   6.889
10521SOL     OW32461   6.261   6.678   2.168
10521SOL    HW132462   6.304   6.746   2.110
10521SOL    HW232463   6.283   6.586   2.134
10522SOL     OW32464   0.027   0.154   5.579
10522SOL    HW132465   0.046   0.138   5.676
10522SOL    HW232466   7.001   0.077   5.542
10523SOL     OW32467   0.068   4.837   3.699
10523SOL    HW132468   0.059   4.739   3.683
10523SOL    HW232469   7.009   4.883   3.670
10524SOL     OW32470   1.501   0.615   4.780
10524SOL    HW132471   1.479   0.713   4.785
10524SOL    HW232472   1.600   0.604   4.774
10525SOL     OW32473   3.612   6.532   6.409
10525SOL    HW132474   3.678   6.601   6.438
10525SOL    HW232475   3.636   6.444   6.449
10526SOL     OW32476   1.175   6.912   3.977
10526SOL    HW132477   1.187   6.924   4.075
10526SOL    HW232478   1.135   6.822   3.959
10527SOL     OW32479   6.946   1.872   4.839
10527SOL    HW132480   6.929   1.950   4.899
10527SOL    HW232481   6.863   1.816   4.832
10528SOL     OW32482   1.747   3.298   6.218
10528SOL    HW132483   1.828   3.313   6.275
10528SOL    HW232484   1.747   3.364   6.143
10529SOL     OW32485   2.590   5.774   3.942
10529SOL    HW132486   2.499   5.734   3.956
10529SOL    HW232487   2.582   5.874   3.938
10530SOL     OW32488   2.370   0.304   6.336
10530SOL    HW132489   2.276   0.293   6.303
10530SOL    HW232490   2.377   0.268   6.428
10531SOL     OW32491   1.463   3.005   4.168
10531SOL    HW132492   1.549   2.959   4.190
10531SOL    HW232493   1.482   3.097   4.135
10532SOL     OW32494   1.078   5.245   5.601
10532SOL    HW132495   0.992   5.217   5.557
10532SOL    HW232496   1.154   5.227   5.540
10533SOL     OW32497   2.609   1.381   4.994
10533SOL    HW132498   2.577   1.387   5.089
10533SOL    HW232499   2.606   1.472   4.953
10534SOL     OW32500   6.385   6.129   1.314
10534SOL    HW132501   6.382   6.030   1.323
10534SOL    HW232502   6.468   6.164   1.357
10535SOL     OW32503   0.737   2.082   1.303
10535SOL    HW132504   0.828   2.105   1.337
10535SOL    HW232505   0.669   2.105   1.373
10536SOL     OW32506   3.870   0.494   3.148
10536SOL    HW132507   3.798   0.451   3.203
10536SOL    HW232508   3.919   0.423   3.097
10537SOL     OW32509   4.073   5.513   4.032
10537SOL    HW132510   4.017   5.511   3.949
10537SOL    HW232511   4.015   5.501   4.112
10538SOL     OW32512   5.131   1.755   0.672
10538SOL    HW132513   5.129   1.742   0.771
10538SOL    HW232514   5.171   1.674   0.628
10539SOL     OW32515   1.079   3.840   0.439
10539SOL    HW132516   1.140   3.834   0.360
10539SOL    HW232517   1.031   3.928   0.438
10540SOL     OW32518   1.919   2.660   4.949
10540SOL    HW132519   1.946   2.645   5.044
10540SOL    HW232520   1.842   2.725   4.946
10541SOL     OW32521   3.669   4.069   2.281
10541SOL    HW132522   3.662   4.084   2.380
10541SOL    HW232523   3.664   4.157   2.234
10542SOL     OW32524   0.023   0.504   5.383
10542SOL    HW132525   0.058   0.410   5.384
10542SOL    HW232526   0.090   0.566   5.424
10543SOL     OW32527   0.676   1.030   5.434
10543SOL    HW132528   0.735   1.080   5.370
10543SOL    HW232529   0.723   1.024   5.523
10544SOL     OW32530   2.139   6.757   2.199
10544SOL    HW132531   2.157   6.706   2.114
10544SOL    HW232532   2.102   6.847   2.176
10545SOL     OW32533   6.119   1.081   2.421
10545SOL    HW132534   6.020   1.075   2.429
10545SOL    HW232535   6.160   1.082   2.512
10546SOL     OW32536   1.908   1.010   6.934
10546SOL    HW132537   1.864   0.958   6.861
10546SOL    HW232538   1.997   1.042   6.903
10547SOL     OW32539   5.952   2.443   2.611
10547SOL    HW132540   5.950   2.506   2.533
10547SOL    HW232541   5.878   2.375   2.601
10548SOL     OW32542   5.551   4.755   4.535
10548SOL    HW132543   5.586   4.687   4.599
10548SOL    HW232544   5.603   4.750   4.449
10549SOL     OW32545   6.915   6.626   1.782
10549SOL    HW132546   7.008   6.588   1.782
10549SOL    HW232547   6.920   6.725   1.798
10550SOL     OW32548   4.187   5.756   3.494
10550SOL    HW132549   4.166   5.673   3.441
10550SOL    HW232550   4.284   5.755   3.520
10551SOL     OW32551   1.263   2.561   5.767
10551SOL    HW132552   1.293   2.637   5.824
10551SOL    HW232553   1.163   2.551   5.775
10552SOL     OW32554   3.218   1.407   6.802
10552SOL    HW132555   3.184   1.391   6.709
10552SOL    HW232556   3.266   1.494   6.805
10553SOL     OW32557   0.800   4.757   1.573
10553SOL    HW132558   0.860   4.740   1.495
10553SOL    HW232559   0.742   4.678   1.588
10554SOL     OW32560   5.764   4.821   0.136
10554SOL    HW132561   5.795   4.746   0.078
10554SOL    HW232562   5.785   4.908   0.092
10555SOL     OW32563   1.981   3.392   0.274
10555SOL    HW132564   2.020   3.300   0.285
10555SOL    HW232565   1.885   3.384   0.249
10556SOL     OW32566   2.184   1.775   5.341
10556SOL    HW132567   2.215   1.811   5.428
10556SOL    HW232568   2.219   1.683   5.328
10557SOL     OW32569   2.265   2.465   2.956
10557SOL    HW132570   2.232   2.557   2.978
10557SOL    HW232571   2.193   2.399   2.974
10558SOL     OW32572   3.656   1.698   3.747
10558SOL    HW132573   3.708   1.778   3.716
10558SOL    HW232574   3.710   1.615   3.734
10559SOL     OW32575   5.164   0.271   0.951
10559SOL    HW132576   5.100   0.194   0.941
10559SOL    HW232577   5.253   0.237   0.981
10560SOL     OW32578   3.762   6.151   3.038
10560SOL    HW132579   3.666   6.164   3.013
10560SOL    HW232580   3.776   6.181   3.132
10561SOL     OW32581   3.161   4.357   0.344
10561SOL    HW132582   3.218   4.414   0.284
10561SOL    HW232583   3.079   4.329   0.294
10562SOL     OW32584   4.729   5.520   0.281
10562SOL    HW132585   4.656   5.581   0.314
10562SOL    HW232586   4.772   5.561   0.201
10563SOL     OW32587   0.904   1.385   3.532
10563SOL    HW132588   0.913   1.340   3.621
10563SOL    HW232589   0.962   1.339   3.465
10564SOL     OW32590   5.643   6.668   1.376
10564SOL    HW132591   5.697   6.623   1.447
10564SOL    HW232592   5.649   6.615   1.291
10565SOL     OW32593   0.294   0.582   6.187
10565SOL    HW132594   0.231   0.657   6.167
10565SOL    HW232595   0.270   0.503   6.130
10566SOL     OW32596   3.636   2.245   0.321
10566SOL    HW132597   3.559   2.306   0.303
10566SOL    HW232598   3.698   2.246   0.243
10567SOL     OW32599   3.283   1.946   4.358
10567SOL    HW132600   3.316   2.008   4.287
10567SOL    HW232601   3.217   1.994   4.415
10568SOL     OW32602   6.447   2.527   1.758
10568SOL    HW132603   6.448   2.603   1.693
10568SOL    HW232604   6.528   2.470   1.744
10569SOL     OW32605   5.724   1.901   1.972
10569SOL    HW132606   5.816   1.883   2.006
10569SOL    HW232607   5.711   1.853   1.885
10570SOL     OW32608   1.756   5.131   3.100
10570SOL    HW132609   1.743   5.058   3.167
10570SOL    HW232610   1.810   5.096   3.023
10571SOL     OW32611   0.081   4.565   5.932
10571SOL    HW132612   0.045   4.572   5.839
10571SOL    HW232613   0.004   4.558   5.997
10572SOL     OW32614   6.959   3.984   3.705
10572SOL    HW132615   0.020   3.979   3.757
10572SOL    HW232616   6.975   4.035   3.620
10573SOL     OW32617   4.345   6.828   4.969
10573SOL    HW132618   4.439   6.862   4.964
10573SOL    HW232619   4.344   6.729   4.957
10574SOL     OW32620   1.329   0.885   3.652
10574SOL    HW132621   1.412   0.934   3.625
10574SOL    HW232622   1.315   0.894   3.751
10575SOL     OW32623   6.357   1.291   3.003
10575SOL    HW132624   6.428   1.225   2.980
10575SOL    HW232625   6.330   1.341   2.921
10576SOL     OW32626   6.888   6.189   5.084
10576SOL    HW132627   6.940   6.106   5.063
10576SOL    HW232628   6.818   6.168   5.152
10577SOL     OW32629   2.032   3.047   0.568
10577SOL    HW132630   2.025   3.070   0.665
10577SOL    HW232631   2.003   2.953   0.554
10578SOL     OW32632   5.799   1.012   3.009
10578SOL    HW132633   5.894   1.038   2.992
10578SOL    HW232634   5.766   0.956   2.933
10579SOL     OW32635   3.960   2.006   1.399
10579SOL    HW132636   3.921   1.993   1.490
10579SOL    HW232637   4.052   2.046   1.407
10580SOL     OW32638   6.662   0.411   6.585
10580SOL    HW132639   6.688   0.359   6.667
10580SOL    HW232640   6.739   0.468   6.556
10581SOL     OW32641   6.859   6.935   3.848
10581SOL    HW132642   6.804   7.017   3.861
10581SOL    HW232643   6.812   6.856   3.887
10582SOL     OW32644   5.666   4.667   6.591
10582SOL    HW132645   5.650   4.593   6.526
10582SOL    HW232646   5.760   4.699   6.581
10583SOL     OW32647   3.857   1.461   4.955
10583SOL    HW132648   3.883   1.469   4.859
10583SOL    HW232649   3.883   1.371   4.990
10584SOL     OW32650   6.657   6.547   1.401
10584SOL    HW132651   6.689   6.539   1.496
10584SOL    HW232652   6.562   6.580   1.400
10585SOL     OW32653   2.259   2.871   6.370
10585SOL    HW132654   2.338   2.810   6.360
10585SOL    HW232655   2.291   2.963   6.394
10586SOL     OW32656   6.539   4.943   5.096
10586SOL    HW132657   6.458   4.974   5.045
10586SOL    HW232658   6.580   5.020   5.144
10587SOL     OW32659   6.240   4.169   0.478
10587SOL    HW132660   6.180   4.248   0.462
10587SOL    HW232661   6.239   4.146   0.575
10588SOL     OW32662   0.388   3.053   3.610
10588SOL    HW132663   0.442   2.968   3.608
10588SOL    HW232664   0.313   3.044   3.675
10589SOL     OW32665   5.823   1.357   4.324
10589SOL    HW132666   5.861   1.371   4.233
10589SOL    HW232667   5.819   1.259   4.344
10590SOL     OW32668   0.951   0.264   1.975
10590SOL    HW132669   0.974   0.188   2.036
10590SOL    HW232670   0.886   0.324   2.022
10591SOL     OW32671   0.889   2.102   6.467
10591SOL    HW132672   0.969   2.152   6.499
10591SOL    HW232673   0.910   2.004   6.460
10592SOL     OW32674   5.947   3.908   1.736
10592SOL    HW132675   6.043   3.935   1.725
10592SOL    HW232676   5.926   3.900   1.833
10593SOL     OW32677   2.493   5.176   0.452
10593SOL    HW132678   2.546   5.106   0.403
10593SOL    HW232679   2.516   5.266   0.415
10594SOL     OW32680   4.559   0.168   2.297
10594SOL    HW132681   4.556   0.128   2.388
10594SOL    HW232682   4.480   0.228   2.285
10595SOL     OW32683   3.768   6.641   5.676
10595SOL    HW132684   3.776   6.573   5.749
10595SOL    HW232685   3.681   6.629   5.629
10596SOL     OW32686   4.431   0.127   6.730
10596SOL    HW132687   4.362   0.055   6.718
10596SOL    HW232688   4.429   0.159   6.825
10597SOL     OW32689   3.452   1.167   5.327
10597SOL    HW132690   3.435   1.258   5.364
10597SOL    HW232691   3.517   1.174   5.251
10598SOL     OW32692   2.993   2.388   0.663
10598SOL    HW132693   3.052   2.366   0.740
10598SOL    HW232694   3.048   2.405   0.582
10599SOL     OW32695   5.441   2.674   5.784
10599SOL    HW132696   5.426   2.646   5.879
10599SOL    HW232697   5.527   2.725   5.778
10600SOL     OW32698   1.988   2.229   0.716
10600SOL    HW132699   2.035   2.315   0.694
10600SOL    HW232700   1.968   2.180   0.631
10601SOL     OW32701   1.551   4.602   5.754
10601SOL    HW132702   1.621   4.660   5.794
10601SOL    HW232703   1.517   4.643   5.669
10602SOL     OW32704   3.454   1.474   2.571
10602SOL    HW132705   3.516   1.400   2.543
10602SOL    HW232706   3.425   1.460   2.665
10603SOL     OW32707   3.317   5.787   3.307
10603SOL    HW132708   3.273   5.839   3.234
10603SOL    HW232709   3.248   5.759   3.374
10604SOL     OW32710   6.120   4.746   5.528
10604SOL    HW132711   6.150   4.842   5.535
10604SOL    HW232712   6.196   4.690   5.495
10605SOL     OW32713   1.849   5.972   0.638
10605SOL    HW132714   1.921   5.930   0.693
10605SOL    HW232715   1.834   5.918   0.555
10606SOL     OW32716   6.782   0.759   2.519
10606SOL    HW132717   6.858   0.735   2.460
10606SOL    HW232718   6.733   0.676   2.547
10607SOL     OW32719   4.322   4.934   5.888
10607SOL    HW132720   4.344   4.986   5.805
10607SOL    HW232721   4.349   4.987   5.969
10608SOL     OW32722   5.193   2.181   5.573
10608SOL    HW132723   5.203   2.227   5.485
10608SOL    HW232724   5.103   2.136   5.576
10609SOL     OW32725   3.288   6.607   0.605
10609SOL    HW132726   3.313   6.700   0.634
10609SOL    HW232727   3.224   6.568   0.671
10610SOL     OW32728   1.483   2.515   5.639
10610SOL    HW132729   1.392   2.545   5.665
10610SOL    HW232730   1.478   2.424   5.596
10611SOL     OW32731   4.192   3.681   5.944
10611SOL    HW132732   4.219   3.714   5.854
10611SOL    HW232733   4.121   3.612   5.934
10612SOL     OW32734   2.940   0.877   5.526
10612SOL    HW132735   3.016   0.814   5.543
10612SOL    HW232736   2.975   0.970   5.516
10613SOL     OW32737   5.963   6.942   4.734
10613SOL    HW132738   6.054   6.981   4.742
10613SOL    HW232739   5.963   6.850   4.773
10614SOL     OW32740   6.299   2.148   3.867
10614SOL    HW132741   6.380   2.115   3.818
10614SOL    HW232742   6.284   2.091   3.948
10615SOL     OW32743   3.203   6.444   6.198
10615SOL    HW132744   3.296   6.408   6.200
10615SOL    HW232745   3.184   6.494   6.283
10616SOL     OW32746   2.726   6.225   1.103
10616SOL    HW132747   2.707   6.287   1.027
10616SOL    HW232748   2.709   6.131   1.074
10617SOL     OW32749   2.410   2.438   1.111
10617SOL    HW132750   2.353   2.516   1.136
10617SOL    HW232751   2.352   2.363   1.079
10618SOL     OW32752   0.089   3.484   6.327
10618SOL    HW132753   0.068   3.432   6.410
10618SOL    HW232754   0.183   3.466   6.299
10619SOL     OW32755   0.321   4.362   1.747
10619SOL    HW132756   0.300   4.273   1.788
10619SOL    HW232757   0.258   4.379   1.671
10620SOL     OW32758   1.416   5.379   5.315
10620SOL    HW132759   1.500   5.324   5.312
10620SOL    HW232760   1.411   5.437   5.234
10621SOL     OW32761   1.070   6.285   1.999
10621SOL    HW132762   1.065   6.186   2.012
10621SOL    HW232763   1.041   6.331   2.082
10622SOL     OW32764   5.111   1.342   1.049
10622SOL    HW132765   5.069   1.267   0.998
10622SOL    HW232766   5.043   1.415   1.062
10623SOL     OW32767   6.876   4.654   5.123
10623SOL    HW132768   6.841   4.647   5.217
10623SOL    HW232769   6.854   4.744   5.086
10624SOL     OW32770   0.319   2.564   4.608
10624SOL    HW132771   0.336   2.487   4.670
10624SOL    HW232772   0.343   2.538   4.515
10625SOL     OW32773   0.545   4.345   0.061
10625SOL    HW132774   0.551   4.307   0.153
10625SOL    HW232775   0.556   4.271   7.018
10626SOL     OW32776   2.581   3.298   0.798
10626SOL    HW132777   2.583   3.251   0.710
10626SOL    HW232778   2.580   3.231   0.872
10627SOL     OW32779   5.461   6.881   0.012
10627SOL    HW132780   5.501   6.953   0.069
10627SOL    HW232781   5.505   6.880   6.947
10628SOL     OW32782   4.599   5.767   0.330
10628SOL    HW132783   4.502   5.742   0.341
10628SOL    HW232784   4.626   5.830   0.404
10629SOL     OW32785   2.593   4.839   5.129
10629SOL    HW132786   2.636   4.803   5.047
10629SOL    HW232787   2.604   4.773   5.204
10630SOL     OW32788   6.662   1.543   3.819
10630SOL    HW132789   6.719   1.615   3.778
10630SOL    HW232790   6.691   1.528   3.913
10631SOL     OW32791   2.931   4.791   4.696
10631SOL    HW132792   2.959   4.730   4.623
10631SOL    HW232793   2.873   4.863   4.659
10632SOL     OW32794   6.478   1.862   3.967
10632SOL    HW132795   6.380   1.880   3.953
10632SOL    HW232796   6.528   1.885   3.884
10633SOL     OW32797   2.758   3.450   1.528
10633SOL    HW132798   2.837   3.486   1.579
10633SOL    HW232799   2.680   3.442   1.589
10634SOL     OW32800   2.972   5.744   0.869
10634SOL    HW132801   2.888   5.691   0.860
10634SOL    HW232802   2.970   5.796   0.954
10635SOL     OW32803   3.462   1.612   1.084
10635SOL    HW132804   3.461   1.655   1.174
10635SOL    HW232805   3.520   1.666   1.022
10636SOL     OW32806   0.985   1.449   1.675
10636SOL    HW132807   0.981   1.398   1.589
10636SOL    HW232808   0.937   1.397   1.747
10637SOL     OW32809   2.283   4.611   5.827
10637SOL    HW132810   2.352   4.588   5.759
10637SOL    HW232811   2.292   4.550   5.906
10638SOL     OW32812   0.134   5.461   2.702
10638SOL    HW132813   0.047   5.486   2.744
10638SOL    HW232814   0.144   5.362   2.700
10639SOL     OW32815   1.237   3.401   2.791
10639SOL    HW132816   1.314   3.465   2.801
10639SOL    HW232817   1.179   3.430   2.714
10640SOL     OW32818   3.516   0.271   5.476
10640SOL    HW132819   3.495   0.187   5.527
10640SOL    HW232820   3.439   0.294   5.417
10641SOL     OW32821   3.595   1.914   0.606
10641SOL    HW132822   3.613   1.816   0.598
10641SOL    HW232823   3.539   1.943   0.528
10642SOL     OW32824   0.117   3.128   1.764
10642SOL    HW132825   0.050   3.144   1.692
10642SOL    HW232826   0.106   3.197   1.836
10643SOL     OW32827   2.095   5.302   5.228
10643SOL    HW132828   2.093   5.215   5.278
10643SOL    HW232829   2.026   5.364   5.266
10644SOL     OW32830   5.014   2.716   3.226
10644SOL    HW132831   5.012   2.814   3.208
10644SOL    HW232832   4.937   2.692   3.286
10645SOL     OW32833   0.992   1.765   5.022
10645SOL    HW132834   1.086   1.750   5.051
10645SOL    HW232835   0.930   1.717   5.083
10646SOL     OW32836   6.830   0.790   6.797
10646SOL    HW132837   6.845   0.748   6.886
10646SOL    HW232838   6.876   0.879   6.793
10647SOL     OW32839   3.107   5.299   6.157
10647SOL    HW132840   3.179   5.286   6.089
10647SOL    HW232841   3.040   5.225   6.148
10648SOL     OW32842   5.321   4.505   5.941
10648SOL    HW132843   5.234   4.479   5.900
10648SOL    HW232844   5.306   4.575   6.010
10649SOL     OW32845   0.443   3.905   3.460
10649SOL    HW132846   0.427   3.892   3.362
10649SOL    HW232847   0.421   4.000   3.485
10650SOL     OW32848   1.112   6.080   3.530
10650SOL    HW132849   1.119   6.110   3.435
10650SOL    HW232850   1.096   6.159   3.589
10651SOL     OW32851   4.325   6.885   6.300
10651SOL    HW132852   4.330   6.984   6.288
10651SOL    HW232853   4.298   6.842   6.214
10652SOL     OW32854   3.768   6.605   6.084
10652SOL    HW132855   3.688   6.565   6.130
10652SOL    HW232856   3.758   6.704   6.081
10653SOL     OW32857   5.300   3.789   3.963
10653SOL    HW132858   5.222   3.836   4.005
10653SOL    HW232859   5.379   3.851   3.961
10654SOL     OW32860   4.663   1.371   0.472
10654SOL    HW132861   4.744   1.362   0.415
10654SOL    HW232862   4.637   1.468   0.479
10655SOL     OW32863   2.740   5.616   0.771
10655SOL    HW132864   2.706   5.553   0.841
10655SOL    HW232865   2.670   5.685   0.751
10656SOL     OW32866   0.317   2.196   1.798
10656SOL    HW132867   0.339   2.256   1.721
10656SOL    HW232868   0.267   2.247   1.868
10657SOL     OW32869   6.188   0.305   6.228
10657SOL    HW132870   6.202   0.306   6.130
10657SOL    HW232871   6.248   0.238   6.271
10658SOL     OW32872   6.480   4.252   5.240
10658SOL    HW132873   6.446   4.316   5.171
10658SOL    HW232874   6.576   4.273   5.261
10659SOL     OW32875   6.803   6.389   0.750
10659SOL    HW132876   6.706   6.366   0.759
10659SOL    HW232877   6.855   6.345   0.823
10660SOL     OW32878   5.653   3.967   0.018
10660SOL    HW132879   5.596   4.048   0.035
10660SOL    HW232880   5.604   3.885   0.047
10661SOL     OW32881   6.707   6.491   2.656
10661SOL    HW132882   6.702   6.391   2.644
10661SOL    HW232883   6.710   6.513   2.753
10662SOL     OW32884   5.396   0.546   2.854
10662SOL    HW132885   5.386   0.639   2.820
10662SOL    HW232886   5.491   0.530   2.881
10663SOL     OW32887   0.500   0.626   1.642
10663SOL    HW132888   0.454   0.602   1.556
10663SOL    HW232889   0.434   0.625   1.717
10664SOL     OW32890   1.045   4.966   4.558
10664SOL    HW132891   1.135   5.008   4.572
10664SOL    HW232892   1.045   4.912   4.474
10665SOL     OW32893   0.486   0.977   0.895
10665SOL    HW132894   0.397   1.004   0.858
10665SOL    HW232895   0.475   0.896   0.953
10666SOL     OW32896   2.975   4.236   0.158
10666SOL    HW132897   2.959   4.141   0.131
10666SOL    HW232898   3.022   4.284   0.084
10667SOL     OW32899   4.234   3.215   5.235
10667SOL    HW132900   4.233   3.259   5.324
10667SOL    HW232901   4.153   3.157   5.224
10668SOL     OW32902   1.541   1.388   5.367
10668SOL    HW132903   1.589   1.431   5.291
10668SOL    HW232904   1.592   1.403   5.452
10669SOL     OW32905   5.809   6.636   0.852
10669SOL    HW132906   5.830   6.712   0.914
10669SOL    HW232907   5.767   6.671   0.769
10670SOL     OW32908   4.947   4.010   4.764
10670SOL    HW132909   5.018   4.078   4.745
10670SOL    HW232910   4.929   3.957   4.681
10671SOL     OW32911   2.422   1.818   2.914
10671SOL    HW132912   2.347   1.783   2.971
10671SOL    HW232913   2.398   1.808   2.818
10672SOL     OW32914   6.544   2.571   0.699
10672SOL    HW132915   6.616   2.578   0.768
10672SOL    HW232916   6.459   2.607   0.736
10673SOL     OW32917   0.940   1.345   6.860
10673SOL    HW132918   0.952   1.430   6.809
10673SOL    HW232919   0.965   1.359   6.956
10674SOL     OW32920   3.068   4.814   0.981
10674SOL    HW132921   3.119   4.773   1.056
10674SOL    HW232922   3.089   4.766   0.896
10675SOL     OW32923   1.813   0.120   6.120
10675SOL    HW132924   1.897   0.113   6.065
10675SOL    HW232925   1.763   0.202   6.094
10676SOL     OW32926   6.249   6.708   5.844
10676SOL    HW132927   6.153   6.702   5.818
10676SOL    HW232928   6.298   6.628   5.809
10677SOL     OW32929   0.753   0.585   2.198
10677SOL    HW132930   0.740   0.540   2.109
10677SOL    HW232931   0.788   0.677   2.184
10678SOL     OW32932   3.804   5.806   2.461
10678SOL    HW132933   3.791   5.709   2.441
10678SOL    HW232934   3.900   5.822   2.485
10679SOL     OW32935   5.460   4.637   6.198
10679SOL    HW132936   5.363   4.662   6.200
10679SOL    HW232937   5.510   4.701   6.139
10680SOL     OW32938   2.720   1.706   3.691
10680SOL    HW132939   2.680   1.719   3.600
10680SOL    HW232940   2.814   1.742   3.692
10681SOL     OW32941   0.289   3.784   6.902
10681SOL    HW132942   0.316   3.877   6.927
10681SOL    HW232943   0.190   3.780   6.887
10682SOL     OW32944   1.759   1.927   3.466
10682SOL    HW132945   1.708   1.953   3.548
10682SOL    HW232946   1.857   1.937   3.483
10683SOL     OW32947   3.456   2.080   3.762
10683SOL    HW132948   3.502   2.160   3.800
10683SOL    HW232949   3.469   2.002   3.822
10684SOL     OW32950   4.925   3.470   1.051
10684SOL    HW132951   4.833   3.502   1.028
10684SOL    HW232952   4.946   3.388   0.998
10685SOL     OW32953   6.891   4.799   2.813
10685SOL    HW132954   6.803   4.764   2.782
10685SOL    HW232955   6.944   4.831   2.734
10686SOL     OW32956   2.676   4.866   6.417
10686SOL    HW132957   2.760   4.816   6.398
10686SOL    HW232958   2.697   4.961   6.439
10687SOL     OW32959   6.879   5.296   1.768
10687SOL    HW132960   6.795   5.272   1.719
10687SOL    HW232961   6.877   5.256   1.859
10688SOL     OW32962   0.213   4.456   2.891
10688SOL    HW132963   0.250   4.496   2.976
10688SOL    HW232964   0.287   4.437   2.828
10689SOL     OW32965   0.299   0.139   4.356
10689SOL    HW132966   0.229   0.163   4.289
10689SOL    HW232967   0.295   0.041   4.376
10690SOL     OW32968   6.761   5.430   3.438
10690SOL    HW132969   6.729   5.481   3.358
10690SOL    HW232970   6.715   5.341   3.441
10691SOL     OW32971   0.563   1.087   2.841
10691SOL    HW132972   0.515   1.138   2.771
10691SOL    HW232973   0.498   1.032   2.894
10692SOL     OW32974   3.440   4.859   2.655
10692SOL    HW132975   3.473   4.820   2.741
10692SOL    HW232976   3.511   4.916   2.614
10693SOL     OW32977   1.799   0.142   1.311
10693SOL    HW132978   1.893   0.161   1.282
10693SOL    HW232979   1.754   0.227   1.336
10694SOL     OW32980   4.448   6.334   1.490
10694SOL    HW132981   4.399   6.391   1.424
10694SOL    HW232982   4.409   6.349   1.581
10695SOL     OW32983   5.533   2.049   2.636
10695SOL    HW132984   5.622   2.095   2.630
10695SOL    HW232985   5.476   2.094   2.705
10696SOL     OW32986   6.822   4.296   2.936
10696SOL    HW132987   6.899   4.233   2.926
10696SOL    HW232988   6.852   4.389   2.916
10697SOL     OW32989   6.914   6.529   4.734
10697SOL    HW132990   6.826   6.570   4.708
10697SOL    HW232991   6.899   6.437   4.769
10698SOL     OW32992   3.905   6.234   3.650
10698SOL    HW132993   3.876   6.145   3.684
10698SOL    HW232994   3.993   6.224   3.604
10699SOL     OW32995   4.160   2.047   2.425
10699SOL    HW132996   4.150   2.107   2.504
10699SOL    HW232997   4.165   2.103   2.342
10700SOL     OW32998   1.278   0.190   0.402
10700SOL    HW132999   1.270   0.286   0.428
10700SOL    HW233000   1.311   0.183   0.307
10701SOL     OW33001   3.478   6.040   0.106
10701SOL    HW133002   3.437   6.053   0.196
10701SOL    HW233003   3.503   5.944   0.094
10702SOL     OW33004   6.763   2.744   2.758
10702SOL    HW133005   6.762   2.663   2.816
10702SOL    HW233006   6.857   2.776   2.746
10703SOL     OW33007   3.841   3.290   4.109
10703SOL    HW133008   3.824   3.387   4.095
10703SOL    HW233009   3.898   3.255   4.035
10704SOL     OW33010   5.485   5.683   1.525
10704SOL    HW133011   5.483   5.779   1.499
10704SOL    HW233012   5.533   5.673   1.612
10705SOL     OW33013   6.758   3.896   1.843
10705SOL    HW133014   6.741   3.993   1.823
10705SOL    HW233015   6.835   3.887   1.905
10706SOL     OW33016   4.764   6.586   1.735
10706SOL    HW133017   4.775   6.511   1.670
10706SOL    HW233018   4.677   6.632   1.719
10707SOL     OW33019   0.552   6.967   4.823
10707SOL    HW133020   0.540   0.005   4.899
10707SOL    HW233021   0.605   6.887   4.853
10708SOL     OW33022   4.687   0.852   2.565
10708SOL    HW133023   4.759   0.876   2.500
10708SOL    HW233024   4.727   0.803   2.642
10709SOL     OW33025   6.733   1.408   5.042
10709SOL    HW133026   6.766   1.431   4.950
10709SOL    HW233027   6.809   1.371   5.096
10710SOL     OW33028   0.635   6.313   4.772
10710SOL    HW133029   0.677   6.285   4.858
10710SOL    HW233030   0.706   6.336   4.705
10711SOL     OW33031   1.866   6.554   3.893
10711SOL    HW133032   1.892   6.630   3.953
10711SOL    HW233033   1.835   6.591   3.806
10712SOL     OW33034   3.530   0.367   2.411
10712SOL    HW133035   3.611   0.376   2.468
10712SOL    HW233036   3.479   0.453   2.411
10713SOL     OW33037   1.491   4.065   2.135
10713SOL    HW133038   1.406   4.084   2.183
10713SOL    HW233039   1.535   3.984   2.175
10714SOL     OW33040   6.467   2.872   5.010
10714SOL    HW133041   6.378   2.889   4.967
10714SOL    HW233042   6.523   2.816   4.950
10715SOL     OW33043   3.752   0.732   3.078
10715SOL    HW133044   3.782   0.640   3.103
10715SOL    HW233045   3.653   0.737   3.083
10716SOL     OW33046   0.115   2.833   3.283
10716SOL    HW133047   0.157   2.904   3.226
10716SOL    HW233048   0.023   2.813   3.249
10717SOL     OW33049   0.894   2.126   0.556
10717SOL    HW133050   0.825   2.189   0.522
10717SOL    HW233051   0.888   2.039   0.506
10718SOL     OW33052   6.533   4.195   0.054
10718SOL    HW133053   6.484   4.268   0.102
10718SOL    HW233054   6.620   4.177   0.100
10719SOL     OW33055   4.577   5.795   1.136
10719SOL    HW133056   4.511   5.857   1.094
10719SOL    HW233057   4.628   5.844   1.206
10720SOL     OW33058   0.731   3.809   6.684
10720SOL    HW133059   0.691   3.871   6.616
10720SOL    HW233060   0.797   3.749   6.639
10721SOL     OW33061   6.240   2.543   4.557
10721SOL    HW133062   6.204   2.553   4.650
10721SOL    HW233063   6.337   2.570   4.556
10722SOL     OW33064   6.931   3.072   0.410
10722SOL    HW133065   6.934   2.972   0.413
10722SOL    HW233066   6.857   3.102   0.350
10723SOL     OW33067   6.023   3.990   0.307
10723SOL    HW133068   6.046   3.945   0.393
10723SOL    HW233069   6.097   3.976   0.241
10724SOL     OW33070   3.194   6.989   6.408
10724SOL    HW133071   3.101   6.955   6.397
10724SOL    HW233072   3.253   6.913   6.437
10725SOL     OW33073   6.859   4.994   3.946
10725SOL    HW133074   6.951   5.023   3.972
10725SOL    HW233075   6.797   5.008   4.023
10726SOL     OW33076   5.698   6.694   5.291
10726SOL    HW133077   5.612   6.659   5.327
10726SOL    HW233078   5.739   6.756   5.358
10727SOL     OW33079   1.844   4.932   4.882
10727SOL    HW133080   1.813   4.903   4.973
10727SOL    HW233081   1.809   4.868   4.813
10728SOL     OW33082   5.979   6.778   2.184
10728SOL    HW133083   6.070   6.740   2.165
10728SOL    HW233084   5.956   6.845   2.113
10729SOL     OW33085   6.517   1.259   2.522
10729SOL    HW133086   6.596   1.257   2.584
10729SOL    HW233087   6.532   1.330   2.452
10730SOL     OW33088   2.761   6.858   1.294
10730SOL    HW133089   2.778   6.899   1.384
10730SOL    HW233090   2.669   6.820   1.292
10731SOL     OW33091   2.239   5.569   0.102
10731SOL    HW133092   2.181   5.603   0.028
10731SOL    HW233093   2.307   5.505   0.064
10732SOL     OW33094   5.898   6.858   2.817
10732SOL    HW133095   5.890   6.900   2.726
10732SOL    HW233096   5.854   6.768   2.816
10733SOL     OW33097   6.056   2.640   0.075
10733SOL    HW133098   5.971   2.691   0.084
10733SOL    HW233099   6.051   2.556   0.128
10734SOL     OW33100   1.643   0.659   6.711
10734SOL    HW133101   1.625   0.604   6.630
10734SOL    HW233102   1.557   0.685   6.754
10735SOL     OW33103   1.554   4.730   2.142
10735SOL    HW133104   1.525   4.650   2.195
10735SOL    HW233105   1.559   4.705   2.045
10736SOL     OW33106   0.478   1.187   3.660
10736SOL    HW133107   0.402   1.127   3.635
10736SOL    HW233108   0.564   1.145   3.632
10737SOL     OW33109   0.919   2.685   0.765
10737SOL    HW133110   0.887   2.757   0.827
10737SOL    HW233111   0.882   2.701   0.674
10738SOL     OW33112   2.372   0.399   1.981
10738SOL    HW133113   2.391   0.312   1.935
10738SOL    HW233114   2.394   0.475   1.921
10739SOL     OW33115   7.019   1.347   3.007
10739SOL    HW133116   0.081   1.396   3.005
10739SOL    HW233117   6.948   1.403   2.964
10740SOL     OW33118   1.065   5.651   5.833
10740SOL    HW133119   1.094   5.747   5.828
10740SOL    HW233120   1.142   5.592   5.809
10741SOL     OW33121   1.164   1.095   3.552
10741SOL    HW133122   1.214   1.181   3.558
10741SOL    HW233123   1.228   1.019   3.561
10742SOL     OW33124   5.838   6.922   2.003
10742SOL    HW133125   5.756   6.973   1.978
10742SOL    HW233126   5.902   6.923   1.926
10743SOL     OW33127   2.560   2.553   3.415
10743SOL    HW133128   2.565   2.454   3.402
10743SOL    HW233129   2.642   2.584   3.464
10744SOL     OW33130   3.147   1.421   2.715
10744SOL    HW133131   3.072   1.377   2.764
10744SOL    HW233132   3.119   1.441   2.621
10745SOL     OW33133   1.709   4.689   6.524
10745SOL    HW133134   1.758   4.769   6.560
10745SOL    HW233135   1.611   4.709   6.522
10746SOL     OW33136   1.862   5.595   1.467
10746SOL    HW133137   1.786   5.551   1.419
10746SOL    HW233138   1.942   5.536   1.464
10747SOL     OW33139   5.129   1.469   3.576
10747SOL    HW133140   5.133   1.512   3.666
10747SOL    HW233141   5.105   1.372   3.586
10748SOL     OW33142   6.135   5.947   1.012
10748SOL    HW133143   6.054   5.951   0.953
10748SOL    HW233144   6.145   5.855   1.049
10749SOL     OW33145   0.243   5.118   2.866
10749SOL    HW133146   0.247   5.018   2.860
10749SOL    HW233147   0.157   5.145   2.909
10750SOL     OW33148   4.620   4.483   4.568
10750SOL    HW133149   4.564   4.421   4.514
10750SOL    HW233150   4.584   4.488   4.662
10751SOL     OW33151   0.937   3.294   5.303
10751SOL    HW133152   0.924   3.307   5.205
10751SOL    HW233153   0.964   3.199   5.321
10752SOL     OW33154   5.944   3.669   6.459
10752SOL    HW133155   5.912   3.576   6.480
10752SOL    HW233156   5.956   3.678   6.360
10753SOL     OW33157   6.260   6.954   3.926
10753SOL    HW133158   6.321   7.022   3.887
10753SOL    HW233159   6.187   7.001   3.977
10754SOL     OW33160   2.054   2.055   2.356
10754SOL    HW133161   2.122   2.108   2.406
10754SOL    HW233162   1.966   2.060   2.404
10755SOL     OW33163   0.012   1.659   0.623
10755SOL    HW133164   0.109   1.677   0.607
10755SOL    HW233165   0.001   1.605   0.707
10756SOL     OW33166   6.276   3.535   0.844
10756SOL    HW133167   6.204   3.544   0.776
10756SOL    HW233168   6.364   3.558   0.802
10757SOL     OW33169   0.070   3.597   6.985
10757SOL    HW133170   0.059   3.557   0.052
10757SOL    HW233171   0.133   3.540   6.931
10758SOL     OW33172   0.716   5.990   5.501
10758SOL    HW133173   0.796   6.049   5.511
10758SOL    HW233174   0.713   5.925   5.577
10759SOL     OW33175   2.000   2.804   0.428
10759SOL    HW133176   2.070   2.811   0.357
10759SOL    HW233177   1.942   2.725   0.410
10760SOL     OW33178   6.970   7.020   0.895
10760SOL    HW133179   7.019   0.025   0.977
10760SOL    HW233180   6.931   6.929   0.911
10761SOL     OW33181   0.704   2.351   6.484
10761SOL    HW133182   0.767   2.425   6.506
10761SOL    HW233183   0.756   2.265   6.474
10762SOL     OW33184   4.694   0.957   4.591
10762SOL    HW133185   4.789   0.982   4.568
10762SOL    HW233186   4.631   1.012   4.536
10763SOL     OW33187   4.188   6.830   1.212
10763SOL    HW133188   4.153   6.889   1.285
10763SOL    HW233189   4.155   6.864   1.124
10764SOL     OW33190   5.185   1.831   6.326
10764SOL    HW133191   5.179   1.798   6.420
10764SOL    HW233192   5.279   1.821   6.292
10765SOL     OW33193   5.712   1.631   1.390
10765SOL    HW133194   5.744   1.604   1.299
10765SOL    HW233195   5.729   1.728   1.405
10766SOL     OW33196   2.683   3.725   0.247
10766SOL    HW133197   2.584   3.710   0.246
10766SOL    HW233198   2.702   3.820   0.221
10767SOL     OW33199   1.347   0.339   0.749
10767SOL    HW133200   1.272   0.279   0.722
10767SOL    HW233201   1.370   0.323   0.845
10768SOL     OW33202   5.518   5.683   0.501
10768SOL    HW133203   5.530   5.619   0.425
10768SOL    HW233204   5.581   5.760   0.490
10769SOL     OW33205   2.772   5.109   5.200
10769SOL    HW133206   2.782   5.010   5.193
10769SOL    HW233207   2.846   5.154   5.148
10770SOL     OW33208   5.368   0.655   4.798
10770SOL    HW133209   5.360   0.743   4.751
10770SOL    HW233210   5.449   0.657   4.858
10771SOL     OW33211   4.341   0.407   5.291
10771SOL    HW133212   4.419   0.435   5.347
10771SOL    HW233213   4.313   0.483   5.233
10772SOL     OW33214   6.575   0.389   4.084
10772SOL    HW133215   6.557   0.474   4.133
10772SOL    HW233216   6.494   0.332   4.086
10773SOL     OW33217   0.042   4.972   0.088
10773SOL    HW133218   0.107   4.954   0.162
10773SOL    HW233219   6.978   4.998   0.127
10774SOL     OW33220   1.300   2.319   0.374
10774SOL    HW133221   1.224   2.285   0.429
10774SOL    HW233222   1.386   2.290   0.415
10775SOL     OW33223   2.329   4.567   0.680
10775SOL    HW133224   2.253   4.537   0.737
10775SOL    HW233225   2.409   4.584   0.738
10776SOL     OW33226   0.831   6.365   1.104
10776SOL    HW133227   0.779   6.392   1.023
10776SOL    HW233228   0.768   6.338   1.177
10777SOL     OW33229   4.342   0.428   3.330
10777SOL    HW133230   4.302   0.474   3.251
10777SOL    HW233231   4.439   0.450   3.336
10778SOL     OW33232   6.127   6.530   4.343
10778SOL    HW133233   6.122   6.584   4.259
10778SOL    HW233234   6.123   6.433   4.319
10779SOL     OW33235   0.409   4.464   3.152
10779SOL    HW133236   0.375   4.513   3.232
10779SOL    HW233237   0.370   4.371   3.151
10780SOL     OW33238   0.702   6.570   2.799
10780SOL    HW133239   0.743   6.558   2.708
10780SOL    HW233240   0.702   6.482   2.847
10781SOL     OW33241   4.343   1.740   4.227
10781SOL    HW133242   4.371   1.700   4.314
10781SOL    HW233243   4.269   1.806   4.242
10782SOL     OW33244   6.334   2.778   3.522
10782SOL    HW133245   6.323   2.777   3.621
10782SOL    HW233246   6.245   2.792   3.478
10783SOL     OW33247   1.912   3.027   2.294
10783SOL    HW133248   1.999   3.017   2.343
10783SOL    HW233249   1.842   3.059   2.357
10784SOL     OW33250   2.266   0.190   1.429
10784SOL    HW133251   2.345   0.252   1.433
10784SOL    HW233252   2.234   0.170   1.521
10785SOL     OW33253   1.882   5.133   1.617
10785SOL    HW133254   1.943   5.114   1.540
10785SOL    HW233255   1.936   5.159   1.697
10786SOL     OW33256   5.323   2.844   1.613
10786SOL    HW133257   5.252   2.802   1.555
10786SOL    HW233258   5.317   2.807   1.705
10787SOL     OW33259   3.516   1.475   4.866
10787SOL    HW133260   3.583   1.480   4.940
10787SOL    HW233261   3.424   1.472   4.906
10788SOL     OW33262   2.507   4.191   6.952
10788SOL    HW133263   2.461   4.111   6.990
10788SOL    HW233264   2.450   4.272   6.964
10789SOL     OW33265   5.630   1.351   0.438
10789SOL    HW133266   5.539   1.334   0.402
10789SOL    HW233267   5.667   1.266   0.476
10790SOL     OW33268   0.512   0.770   5.640
10790SOL    HW133269   0.469   0.838   5.580
10790SOL    HW233270   0.499   0.679   5.600
10791SOL     OW33271   0.989   1.710   1.390
10791SOL    HW133272   0.959   1.782   1.452
10791SOL    HW233273   1.030   1.751   1.308
10792SOL     OW33274   3.076   3.173   1.798
10792SOL    HW133275   3.099   3.161   1.895
10792SOL    HW233276   3.018   3.097   1.768
10793SOL     OW33277   5.743   2.246   4.059
10793SOL    HW133278   5.721   2.321   4.122
10793SOL    HW233279   5.660   2.195   4.038
10794SOL     OW33280   3.451   3.754   2.136
10794SOL    HW133281   3.466   3.833   2.077
10794SOL    HW233282   3.494   3.674   2.096
10795SOL     OW33283   6.293   4.286   3.168
10795SOL    HW133284   6.288   4.385   3.172
10795SOL    HW233285   6.212   4.249   3.122
10796SOL     OW33286   3.365   6.864   6.632
10796SOL    HW133287   3.393   6.798   6.701
10796SOL    HW233288   3.361   6.955   6.672
10797SOL     OW33289   4.032   2.786   1.009
10797SOL    HW133290   4.096   2.713   1.033
10797SOL    HW233291   3.938   2.751   1.012
10798SOL     OW33292   1.902   0.066   1.025
10798SOL    HW133293   1.808   0.033   1.029
10798SOL    HW233294   1.902   0.166   1.018
10799SOL     OW33295   3.876   1.971   1.688
10799SOL    HW133296   3.905   1.876   1.680
10799SOL    HW233297   3.891   2.003   1.782
10800SOL     OW33298   1.794   6.438   0.089
10800SOL    HW133299   1.879   6.476   0.126
10800SOL    HW233300   1.773   6.352   0.136
10801SOL     OW33301   1.098   0.463   4.587
10801SOL    HW133302   1.079   0.561   4.599
10801SOL    HW233303   1.194   0.451   4.561
10802SOL     OW33304   2.215   3.225   4.895
10802SOL    HW133305   2.299   3.179   4.924
10802SOL    HW233306   2.150   3.229   4.971
10803SOL     OW33307   5.195   4.555   4.821
10803SOL    HW133308   5.152   4.503   4.746
10803SOL    HW233309   5.236   4.638   4.784
10804SOL     OW33310   6.924   4.229   1.303
10804SOL    HW133311   6.935   4.328   1.309
10804SOL    HW233312   6.828   4.205   1.317
10805SOL     OW33313   3.542   0.104   6.437
10805SOL    HW133314   3.527   0.198   6.407
10805SOL    HW233315   3.488   0.085   6.519
10806SOL     OW33316   5.724   4.243   0.435
10806SOL    HW133317   5.635   4.201   0.454
10806SOL    HW233318   5.793   4.206   0.498
10807SOL     OW33319   3.250   0.013   3.482
10807SOL    HW133320   3.340   0.048   3.458
10807SOL    HW233321   3.245   6.939   3.464
10808SOL     OW33322   0.047   3.848   0.464
10808SOL    HW133323   0.045   3.942   0.430
10808SOL    HW233324   7.007   3.792   0.413
10809SOL     OW33325   2.683   0.340   4.247
10809SOL    HW133326   2.623   0.260   4.243
10809SOL    HW233327   2.696   0.376   4.155
10810SOL     OW33328   1.263   1.264   5.868
10810SOL    HW133329   1.313   1.349   5.886
10810SOL    HW233330   1.317   1.187   5.901
10811SOL     OW33331   3.951   5.006   5.018
10811SOL    HW133332   3.857   4.973   5.014
10811SOL    HW233333   3.953   5.104   4.994
10812SOL     OW33334   0.362   3.313   2.043
10812SOL    HW133335   0.285   3.279   1.990
10812SOL    HW233336   0.349   3.291   2.139
10813SOL     OW33337   2.641   6.167   6.825
10813SOL    HW133338   2.651   6.232   6.750
10813SOL    HW233339   2.621   6.217   6.910
10814SOL     OW33340   1.370   0.570   5.401
10814SOL    HW133341   1.270   0.565   5.397
10814SOL    HW233342   1.408   0.488   5.358
10815SOL     OW33343   4.942   5.138   3.730
10815SOL    HW133344   5.003   5.218   3.730
10815SOL    HW233345   4.852   5.165   3.696
10816SOL     OW33346   1.618   1.484   2.350
10816SOL    HW133347   1.561   1.403   2.342
10816SOL    HW233348   1.711   1.463   2.319
10817SOL     OW33349   5.773   6.543   3.016
10817SOL    HW133350   5.704   6.470   3.009
10817SOL    HW233351   5.777   6.593   2.930
10818SOL     OW33352   5.469   2.799   5.403
10818SOL    HW133353   5.529   2.876   5.379
10818SOL    HW233354   5.525   2.718   5.421
10819SOL     OW33355   0.874   4.231   6.858
10819SOL    HW133356   0.947   4.165   6.841
10819SOL    HW233357   0.912   4.315   6.895
10820SOL     OW33358   0.123   0.138   4.120
10820SOL    HW133359   0.112   0.045   4.085
10820SOL    HW233360   0.038   0.166   4.166
10821SOL     OW33361   5.483   6.438   2.531
10821SOL    HW133362   5.563   6.457   2.474
10821SOL    HW233363   5.449   6.524   2.571
10822SOL     OW33364   1.154   2.201   2.857
10822SOL    HW133365   1.204   2.261   2.919
10822SOL    HW233366   1.197   2.111   2.856
10823SOL     OW33367   1.627   5.437   1.274
10823SOL    HW133368   1.575   5.420   1.357
10823SOL    HW233369   1.644   5.351   1.227
10824SOL     OW33370   4.879   0.202   3.896
10824SOL    HW133371   4.880   0.105   3.919
10824SOL    HW233372   4.835   0.253   3.969
10825SOL     OW33373   2.553   0.826   0.773
10825SOL    HW133374   2.510   0.736   0.766
10825SOL    HW233375   2.628   0.833   0.708
10826SOL     OW33376   0.270   3.614   3.422
10826SOL    HW133377   0.362   3.586   3.395
10826SOL    HW233378   0.205   3.540   3.404
10827SOL     OW33379   6.081   3.792   4.115
10827SOL    HW133380   6.006   3.782   4.049
10827SOL    HW233381   6.083   3.712   4.175
10828SOL     OW33382   1.128   5.626   2.767
10828SOL    HW133383   1.167   5.538   2.791
10828SOL    HW233384   1.179   5.665   2.690
10829SOL     OW33385   3.373   3.495   0.600
10829SOL    HW133386   3.408   3.408   0.633
10829SOL    HW233387   3.296   3.524   0.658
10830SOL     OW33388   5.057   1.841   3.219
10830SOL    HW133389   5.022   1.920   3.269
10830SOL    HW233390   4.981   1.780   3.195
10831SOL     OW33391   5.210   6.576   1.966
10831SOL    HW133392   5.294   6.586   2.019
10831SOL    HW233393   5.231   6.540   1.876
10832SOL     OW33394   0.118   2.776   0.943
10832SOL    HW133395   0.198   2.799   0.889
10832SOL    HW233396   0.037   2.772   0.885
10833SOL     OW33397   1.501   0.692   3.941
10833SOL    HW133398   1.473   0.619   4.003
10833SOL    HW233399   1.440   0.770   3.952
10834SOL     OW33400   0.883   2.048   5.947
10834SOL    HW133401   0.954   2.026   5.880
10834SOL    HW233402   0.834   1.964   5.972
10835SOL     OW33403   5.347   1.597   1.032
10835SOL    HW133404   5.410   1.638   0.966
10835SOL    HW233405   5.399   1.549   1.102
10836SOL     OW33406   0.022   1.254   5.513
10836SOL    HW133407   6.947   1.259   5.525
10836SOL    HW233408   0.050   1.315   5.440
10837SOL     OW33409   0.669   5.090   0.424
10837SOL    HW133410   0.752   5.131   0.385
10837SOL    HW233411   0.675   5.090   0.524
10838SOL     OW33412   5.627   6.900   4.265
10838SOL    HW133413   5.539   6.947   4.263
10838SOL    HW233414   5.701   6.966   4.254
10839SOL     OW33415   3.178   3.092   0.891
10839SOL    HW133416   3.109   3.024   0.918
10839SOL    HW233417   3.158   3.126   0.799
10840SOL     OW33418   4.000   5.876   1.817
10840SOL    HW133419   3.985   5.835   1.728
10840SOL    HW233420   3.929   5.946   1.834
10841SOL     OW33421   3.694   6.029   6.607
10841SOL    HW133422   3.664   5.988   6.521
10841SOL    HW233423   3.697   6.129   6.596
10842SOL     OW33424   6.682   3.725   0.922
10842SOL    HW133425   6.754   3.760   0.982
10842SOL    HW233426   6.709   3.736   0.827
10843SOL     OW33427   0.293   1.798   2.207
10843SOL    HW133428   0.275   1.793   2.305
10843SOL    HW233429   0.284   1.893   2.176
10844SOL     OW33430   0.546   6.778   4.522
10844SOL    HW133431   0.527   6.760   4.618
10844SOL    HW233432   0.475   6.837   4.484
10845SOL     OW33433   1.801   0.796   0.998
10845SOL    HW133434   1.722   0.763   1.049
10845SOL    HW233435   1.772   0.826   0.907
10846SOL     OW33436   4.517   2.822   0.658
10846SOL    HW133437   4.507   2.770   0.743
10846SOL    HW233438   4.435   2.877   0.643
10847SOL     OW33439   2.377   2.072   6.701
10847SOL    HW133440   2.462   2.032   6.666
10847SOL    HW233441   2.393   2.109   6.793
10848SOL     OW33442   3.039   2.381   6.365
10848SOL    HW133443   3.135   2.405   6.376
10848SOL    HW233444   3.022   2.353   6.271
10849SOL     OW33445   3.701   4.930   3.659
10849SOL    HW133446   3.606   4.924   3.692
10849SOL    HW233447   3.707   4.892   3.567
10850SOL     OW33448   4.485   6.520   6.637
10850SOL    HW133449   4.436   6.604   6.660
10850SOL    HW233450   4.489   6.462   6.719
10851SOL     OW33451   2.885   2.667   6.450
10851SOL    HW133452   2.978   2.702   6.437
10851SOL    HW233453   2.852   2.626   6.365
10852SOL     OW33454   0.538   0.068   6.007
10852SOL    HW133455   0.586   7.006   5.993
10852SOL    HW233456   0.440   0.052   6.014
10853SOL     OW33457   3.462   1.803   5.022
10853SOL    HW133458   3.509   1.838   5.103
10853SOL    HW233459   3.491   1.855   4.941
10854SOL     OW33460   6.501   0.016   6.113
10854SOL    HW133461   6.449   6.977   6.057
10854SOL    HW233462   6.532   0.093   6.058
10855SOL     OW33463   2.743   6.315   2.540
10855SOL    HW133464   2.688   6.324   2.456
10855SOL    HW233465   2.706   6.240   2.596
10856SOL     OW33466   6.077   1.111   1.264
10856SOL    HW133467   6.091   1.016   1.294
10856SOL    HW233468   6.000   1.114   1.200
10857SOL     OW33469   5.380   3.409   3.555
10857SOL    HW133470   5.370   3.412   3.654
10857SOL    HW233471   5.366   3.315   3.523
10858SOL     OW33472   1.383   2.870   6.804
10858SOL    HW133473   1.307   2.843   6.745
10858SOL    HW233474   1.462   2.896   6.747
10859SOL     OW33475   2.284   4.426   3.663
10859SOL    HW133476   2.240   4.407   3.575
10859SOL    HW233477   2.371   4.473   3.648
10860SOL     OW33478   6.887   1.355   5.957
10860SOL    HW133479   6.812   1.289   5.955
10860SOL    HW233480   6.880   1.416   5.878
10861SOL     OW33481   3.677   2.756   1.901
10861SOL    HW133482   3.708   2.678   1.848
10861SOL    HW233483   3.753   2.819   1.917
10862SOL     OW33484   2.942   1.656   6.779
10862SOL    HW133485   2.920   1.576   6.835
10862SOL    HW233486   3.041   1.658   6.760
10863SOL     OW33487   3.392   1.148   2.754
10863SOL    HW133488   3.423   1.085   2.825
10863SOL    HW233489   3.435   1.237   2.767
10864SOL     OW33490   2.821   4.860   1.182
10864SOL    HW133491   2.830   4.761   1.196
10864SOL    HW233492   2.899   4.906   1.223
10865SOL     OW33493   6.046   2.373   3.626
10865SOL    HW133494   6.052   2.433   3.546
10865SOL    HW233495   6.039   2.278   3.595
10866SOL     OW33496   6.341   3.539   1.147
10866SOL    HW133497   6.362   3.442   1.164
10866SOL    HW233498   6.335   3.555   1.049
10867SOL     OW33499   2.984   3.635   0.095
10867SOL    HW133500   3.018   3.624   0.189
10867SOL    HW233501   2.913   3.566   0.078
10868SOL     OW33502   1.394   1.909   3.052
10868SOL    HW133503   1.305   1.914   3.007
10868SOL    HW233504   1.387   1.851   3.134
10869NA      NA33505   0.533   2.421   5.930
10870NA      NA33506   4.475   4.511   5.220
10871NA      NA33507   2.167   4.390   2.173
10872NA      NA33508   5.066   4.704   3.628
10873NA      NA33509   4.063   2.325   5.248
10874NA      NA33510   3.494   4.332   1.455
10875NA      NA33511   1.185   4.552   0.476
10876NA      NA33512   4.154   4.354   1.520
10877NA      NA33513   5.016   4.604   0.757
10878NA      NA33514   3.043   0.279   5.431
10879NA      NA33515   5.659   5.518   1.136
10880NA      NA33516   1.305   0.617   5.846
10881NA      NA33517   4.950   4.910   2.079
10882NA      NA33518   3.649   3.073   1.007
   7.02448   7.02448   7.02448
