Generated by trjconv : CNT in water t= 170.00000
33518
    1C        C    1   2.836   2.758   4.743
    1C        C    2   2.893   2.712   4.864
    1C        C    3   2.837   2.763   4.981
    1C        C    4   2.845   2.771   4.259
    1C        C    5   2.897   2.722   4.381
    1C        C    6   2.843   2.769   4.503
    1C        C    7   3.008   2.630   4.623
    1C        C    8   2.893   2.712   4.622
    1C        C    9   3.072   2.597   4.745
    1C        C   10   3.008   2.630   4.866
    1C        C   11   3.179   2.491   4.977
    1C        C   12   3.057   2.561   4.978
    1C        C   13   2.847   2.767   3.770
    1C        C   14   2.901   2.720   3.892
    1C        C   15   2.850   2.771   4.013
    1C        C   16   3.018   2.646   4.135
    1C        C   17   2.900   2.725   4.137
    1C        C   18   3.082   2.618   4.258
    1C        C   19   3.016   2.645   4.379
    1C        C   20   3.203   2.549   4.504
    1C        C   21   3.071   2.599   4.501
    1C        C   22   3.273   2.529   4.625
    1C        C   23   3.205   2.546   4.747
    1C        C   24   3.410   2.478   4.862
    1C        C   25   3.268   2.499   4.866
    1C        C   26   3.487   2.468   4.979
    1C        C   27   2.848   2.767   3.279
    1C        C   28   2.902   2.720   3.401
    1C        C   29   2.850   2.768   3.523
    1C        C   30   3.018   2.643   3.648
    1C        C   31   2.902   2.724   3.647
    1C        C   32   3.079   2.604   3.770
    1C        C   33   3.015   2.636   3.891
    1C        C   34   3.206   2.549   4.013
    1C        C   35   3.076   2.602   4.014
    1C        C   36   3.277   2.535   4.135
    1C        C   37   3.211   2.561   4.257
    1C        C   38   3.411   2.508   4.380
    1C        C   39   3.273   2.535   4.381
    1C        C   40   3.483   2.498   4.501
    1C        C   41   3.412   2.503   4.623
    1C        C   42   3.627   2.481   4.741
    1C        C   43   3.484   2.478   4.741
    1C        C   44   3.701   2.491   4.861
    1C        C   45   3.626   2.472   4.977
    1C        C   46   2.835   2.749   2.790
    1C        C   47   2.890   2.708   2.913
    1C        C   48   2.844   2.762   3.036
    1C        C   49   3.015   2.634   3.157
    1C        C   50   2.900   2.716   3.158
    1C        C   51   3.079   2.602   3.279
    1C        C   52   3.015   2.636   3.401
    1C        C   53   3.204   2.546   3.525
    1C        C   54   3.075   2.603   3.525
    1C        C   55   3.274   2.522   3.646
    1C        C   56   3.206   2.543   3.768
    1C        C   57   3.412   2.500   3.890
    1C        C   58   3.273   2.523   3.891
    1C        C   59   3.483   2.495   4.012
    1C        C   60   3.415   2.507   4.136
    1C        C   61   3.626   2.501   4.259
    1C        C   62   3.484   2.499   4.259
    1C        C   63   3.697   2.506   4.381
    1C        C   64   3.624   2.495   4.501
    1C        C   65   3.833   2.543   4.622
    1C        C   66   3.698   2.502   4.621
    1C        C   67   3.902   2.562   4.743
    1C        C   68   3.838   2.527   4.864
    1C        C   69   4.045   2.586   4.980
    1C        C   70   3.918   2.527   4.979
    1C        C   71   2.822   2.732   2.307
    1C        C   72   2.881   2.689   2.427
    1C        C   73   2.832   2.745   2.547
    1C        C   74   3.009   2.627   2.671
    1C        C   75   2.886   2.698   2.669
    1C        C   76   3.069   2.591   2.793
    1C        C   77   3.005   2.626   2.914
    1C        C   78   3.204   2.544   3.033
    1C        C   79   3.073   2.596   3.034
    1C        C   80   3.273   2.525   3.155
    1C        C   81   3.209   2.547   3.279
    1C        C   82   3.410   2.494   3.400
    1C        C   83   3.272   2.522   3.403
    1C        C   84   3.482   2.492   3.522
    1C        C   85   3.413   2.499   3.645
    1C        C   86   3.624   2.505   3.767
    1C        C   87   3.483   2.496   3.768
    1C        C   88   3.693   2.514   3.890
    1C        C   89   3.624   2.500   4.013
    1C        C   90   3.829   2.550   4.135
    1C        C   91   3.694   2.509   4.136
    1C        C   92   3.896   2.575   4.257
    1C        C   93   3.832   2.548   4.379
    1C        C   94   4.025   2.637   4.501
    1C        C   95   3.900   2.570   4.501
    1C        C   96   4.093   2.666   4.621
    1C        C   97   4.031   2.622   4.740
    1C        C   98   4.187   2.763   4.864
    1C        C   99   4.094   2.654   4.864
    1C        C  100   4.210   2.842   4.977
    1C        C  101   2.820   2.727   2.068
    1C        C  102   2.987   2.589   2.190
    1C        C  103   2.873   2.676   2.187
    1C        C  104   3.062   2.571   2.310
    1C        C  105   3.000   2.613   2.430
    1C        C  106   3.198   2.529   2.549
    1C        C  107   3.069   2.585   2.550
    1C        C  108   3.270   2.516   2.670
    1C        C  109   3.199   2.535   2.791
    1C        C  110   3.410   2.493   2.912
    1C        C  111   3.271   2.519   2.912
    1C        C  112   3.482   2.492   3.034
    1C        C  113   3.413   2.504   3.157
    1C        C  114   3.624   2.498   3.278
    1C        C  115   3.483   2.493   3.279
    1C        C  116   3.693   2.511   3.400
    1C        C  117   3.622   2.505   3.523
    1C        C  118   3.832   2.542   3.644
    1C        C  119   3.693   2.514   3.645
    1C        C  120   3.897   2.564   3.767
    1C        C  121   3.831   2.545   3.890
    1C        C  122   4.023   2.634   4.013
    1C        C  123   3.896   2.572   4.012
    1C        C  124   4.084   2.673   4.134
    1C        C  125   4.023   2.637   4.257
    1C        C  126   4.194   2.764   4.375
    1C        C  127   4.083   2.677   4.379
    1C        C  128   4.243   2.815   4.498
    1C        C  129   4.198   2.761   4.621
    1C        C  130   4.327   2.929   4.739
    1C        C  131   4.243   2.814   4.743
    1C        C  132   4.354   2.998   4.859
    1C        C  133   4.281   2.962   4.972
    1C        C  134   3.169   2.464   2.081
    1C        C  135   3.034   2.502   2.087
    1C        C  136   3.259   2.484   2.186
    1C        C  137   3.194   2.519   2.306
    1C        C  138   3.403   2.473   2.426
    1C        C  139   3.264   2.497   2.427
    1C        C  140   3.478   2.474   2.546
    1C        C  141   3.409   2.492   2.668
    1C        C  142   3.621   2.490   2.787
    1C        C  143   3.480   2.483   2.790
    1C        C  144   3.691   2.502   2.909
    1C        C  145   3.623   2.494   3.033
    1C        C  146   3.830   2.539   3.155
    1C        C  147   3.693   2.503   3.155
    1C        C  148   3.895   2.567   3.277
    1C        C  149   3.830   2.543   3.401
    1C        C  150   4.027   2.625   3.521
    1C        C  151   3.901   2.561   3.522
    1C        C  152   4.078   2.671   3.644
    1C        C  153   4.020   2.635   3.768
    1C        C  154   4.190   2.761   3.884
    1C        C  155   4.080   2.672   3.890
    1C        C  156   4.243   2.809   4.006
    1C        C  157   4.196   2.758   4.130
    1C        C  158   4.335   2.918   4.252
    1C        C  159   4.245   2.809   4.252
    1C        C  160   4.370   2.982   4.372
    1C        C  161   4.327   2.928   4.495
    1C        C  162   4.436   3.111   4.613
    1C        C  163   4.366   2.988   4.617
    1C        C  164   4.466   3.181   4.733
    1C        C  165   4.430   3.117   4.853
    1C        C  166   4.517   3.316   4.970
    1C        C  167   4.468   3.186   4.970
    1C        C  168   3.472   2.425   2.073
    1C        C  169   3.398   2.457   2.188
    1C        C  170   3.618   2.471   2.302
    1C        C  171   3.476   2.466   2.305
    1C        C  172   3.689   2.484   2.423
    1C        C  173   3.618   2.484   2.546
    1C        C  174   3.828   2.535   2.663
    1C        C  175   3.691   2.500   2.666
    1C        C  176   3.894   2.562   2.785
    1C        C  177   3.827   2.541   2.907
    1C        C  178   4.022   2.621   3.028
    1C        C  179   3.893   2.563   3.030
    1C        C  180   4.082   2.659   3.150
    1C        C  181   4.022   2.628   3.274
    1C        C  182   4.196   2.746   3.396
    1C        C  183   4.085   2.659   3.396
    1C        C  184   4.245   2.799   3.517
    1C        C  185   4.192   2.755   3.640
    1C        C  186   4.331   2.916   3.762
    1C        C  187   4.242   2.806   3.761
    1C        C  188   4.373   2.973   3.884
    1C        C  189   4.332   2.919   4.008
    1C        C  190   4.441   3.102   4.127
    1C        C  191   4.374   2.977   4.129
    1C        C  192   4.469   3.171   4.246
    1C        C  193   4.440   3.105   4.368
    1C        C  194   4.503   3.308   4.488
    1C        C  195   4.469   3.171   4.490
    1C        C  196   4.518   3.383   4.607
    1C        C  197   4.510   3.316   4.731
    1C        C  198   4.557   3.528   4.847
    1C        C  199   4.540   3.386   4.851
    1C        C  200   4.579   3.613   4.960
    1C        C  201   3.612   2.417   2.069
    1C        C  202   3.825   2.512   2.178
    1C        C  203   3.688   2.469   2.178
    1C        C  204   3.895   2.536   2.299
    1C        C  205   3.827   2.514   2.420
    1C        C  206   4.019   2.617   2.540
    1C        C  207   3.895   2.549   2.539
    1C        C  208   4.080   2.659   2.660
    1C        C  209   4.020   2.624   2.783
    1C        C  210   4.196   2.743   2.905
    1C        C  211   4.081   2.661   2.906
    1C        C  212   4.247   2.792   3.027
    1C        C  213   4.194   2.746   3.150
    1C        C  214   4.333   2.905   3.270
    1C        C  215   4.246   2.793   3.272
    1C        C  216   4.372   2.965   3.391
    1C        C  217   4.332   2.911   3.515
    1C        C  218   4.435   3.096   3.638
    1C        C  219   4.372   2.969   3.637
    1C        C  220   4.463   3.163   3.759
    1C        C  221   4.438   3.098   3.882
    1C        C  222   4.504   3.301   3.999
    1C        C  223   4.470   3.164   4.003
    1C        C  224   4.514   3.374   4.119
    1C        C  225   4.506   3.307   4.244
    1C        C  226   4.516   3.520   4.362
    1C        C  227   4.511   3.379   4.366
    1C        C  228   4.513   3.593   4.483
    1C        C  229   4.531   3.523   4.605
    1C        C  230   4.500   3.735   4.725
    1C        C  231   4.538   3.598   4.725
    1C        C  232   4.487   3.812   4.843
    1C        C  233   4.543   3.748   4.954
    1C        C  234   4.018   2.605   2.061
    1C        C  235   3.891   2.548   2.059
    1C        C  236   4.084   2.644   2.178
    1C        C  237   4.020   2.604   2.298
    1C        C  238   4.199   2.728   2.417
    1C        C  239   4.082   2.646   2.417
    1C        C  240   4.250   2.781   2.538
    1C        C  241   4.198   2.737   2.662
    1C        C  242   4.339   2.898   2.782
    1C        C  243   4.250   2.788   2.783
    1C        C  244   4.375   2.960   2.903
    1C        C  245   4.333   2.905   3.026
    1C        C  246   4.441   3.088   3.149
    1C        C  247   4.372   2.964   3.148
    1C        C  248   4.465   3.156   3.270
    1C        C  249   4.433   3.093   3.392
    1C        C  250   4.494   3.297   3.510
    1C        C  251   4.459   3.160   3.514
    1C        C  252   4.508   3.366   3.633
    1C        C  253   4.504   3.298   3.756
    1C        C  254   4.514   3.513   3.873
    1C        C  255   4.516   3.371   3.877
    1C        C  256   4.510   3.585   3.994
    1C        C  257   4.514   3.515   4.117
    1C        C  258   4.492   3.728   4.239
    1C        C  259   4.513   3.588   4.238
    1C        C  260   4.472   3.797   4.360
    1C        C  261   4.486   3.731   4.485
    1C        C  262   4.419   3.935   4.601
    1C        C  263   4.473   3.804   4.605
    1C        C  264   4.391   4.003   4.721
    1C        C  265   4.428   3.940   4.842
    1C        C  266   4.311   4.124   4.955
    1C        C  267   4.382   4.005   4.958
    1C        C  268   4.262   2.770   2.061
    1C        C  269   4.196   2.729   2.178
    1C        C  270   4.347   2.885   2.296
    1C        C  271   4.256   2.776   2.297
    1C        C  272   4.381   2.949   2.418
    1C        C  273   4.340   2.890   2.539
    1C        C  274   4.449   3.078   2.658
    1C        C  275   4.380   2.954   2.659
    1C        C  276   4.473   3.146   2.779
    1C        C  277   4.445   3.083   2.902
    1C        C  278   4.501   3.286   3.020
    1C        C  279   4.470   3.148   3.025
    1C        C  280   4.509   3.358   3.141
    1C        C  281   4.495   3.294   3.266
    1C        C  282   4.510   3.507   3.385
    1C        C  283   4.503   3.366   3.388
    1C        C  284   4.506   3.578   3.506
    1C        C  285   4.511   3.508   3.629
    1C        C  286   4.485   3.720   3.751
    1C        C  287   4.510   3.581   3.749
    1C        C  288   4.467   3.789   3.873
    1C        C  289   4.482   3.723   3.997
    1C        C  290   4.419   3.928   4.113
    1C        C  291   4.471   3.797   4.117
    1C        C  292   4.394   3.995   4.235
    1C        C  293   4.421   3.928   4.357
    1C        C  294   4.315   4.115   4.477
    1C        C  295   4.386   3.993   4.477
    1C        C  296   4.278   4.182   4.595
    1C        C  297   4.323   4.128   4.718
    1C        C  298   4.199   4.311   4.835
    1C        C  299   4.280   4.193   4.837
    1C        C  300   4.164   4.395   4.945
    1C        C  301   4.345   2.881   2.058
    1C        C  302   4.469   3.063   2.170
    1C        C  303   4.397   2.939   2.175
    1C        C  304   4.483   3.135   2.292
    1C        C  305   4.447   3.074   2.414
    1C        C  306   4.508   3.279   2.532
    1C        C  307   4.475   3.141   2.535
    1C        C  308   4.518   3.353   2.652
    1C        C  309   4.505   3.284   2.775
    1C        C  310   4.518   3.495   2.895
    1C        C  311   4.515   3.354   2.898
    1C        C  312   4.513   3.569   3.016
    1C        C  313   4.514   3.500   3.139
    1C        C  314   4.475   3.711   3.260
    1C        C  315   4.504   3.573   3.260
    1C        C  316   4.456   3.779   3.382
    1C        C  317   4.479   3.717   3.507
    1C        C  318   4.415   3.920   3.626
    1C        C  319   4.462   3.787   3.629
    1C        C  320   4.389   3.987   3.747
    1C        C  321   4.425   3.924   3.868
    1C        C  322   4.310   4.106   3.989
    1C        C  323   4.390   3.989   3.989
    1C        C  324   4.269   4.165   4.110
    1C        C  325   4.314   4.111   4.233
    1C        C  326   4.180   4.278   4.353
    1C        C  327   4.272   4.170   4.354
    1C        C  328   4.136   4.339   4.472
    1C        C  329   4.189   4.292   4.594
    1C        C  330   4.024   4.434   4.710
    1C        C  331   4.139   4.350   4.713
    1C        C  332   3.967   4.488   4.828
    1C        C  333   4.050   4.477   4.940
    1C        C  334   4.553   3.261   2.061
    1C        C  335   4.540   3.121   2.061
    1C        C  336   4.538   3.344   2.173
    1C        C  337   4.517   3.273   2.293
    1C        C  338   4.520   3.491   2.409
    1C        C  339   4.523   3.350   2.411
    1C        C  340   4.513   3.564   2.530
    1C        C  341   4.525   3.494   2.652
    1C        C  342   4.485   3.704   2.772
    1C        C  343   4.516   3.566   2.773
    1C        C  344   4.474   3.777   2.893
    1C        C  345   4.486   3.708   3.015
    1C        C  346   4.413   3.910   3.136
    1C        C  347   4.460   3.777   3.136
    1C        C  348   4.383   3.975   3.258
    1C        C  349   4.412   3.913   3.381
    1C        C  350   4.312   4.101   3.498
    1C        C  351   4.389   3.983   3.502
    1C        C  352   4.267   4.158   3.619
    1C        C  353   4.308   4.103   3.742
    1C        C  354   4.170   4.262   3.864
    1C        C  355   4.265   4.157   3.865
    1C        C  356   4.118   4.313   3.985
    1C        C  357   4.175   4.270   4.107
    1C        C  358   4.016   4.410   4.228
    1C        C  359   4.129   4.324   4.229
    1C        C  360   3.956   4.454   4.348
    1C        C  361   4.019   4.418   4.470
    1C        C  362   3.826   4.515   4.591
    1C        C  363   3.952   4.451   4.590
    1C        C  364   3.760   4.550   4.711
    1C        C  365   3.837   4.542   4.829
    1C        C  366   3.628   4.590   4.947
    1C        C  367   3.766   4.573   4.945
    1C        C  368   4.512   3.559   2.050
    1C        C  369   4.519   3.483   2.168
    1C        C  370   4.491   3.700   2.287
    1C        C  371   4.511   3.560   2.286
    1C        C  372   4.477   3.774   2.407
    1C        C  373   4.492   3.703   2.529
    1C        C  374   4.419   3.904   2.647
    1C        C  375   4.469   3.772   2.650
    1C        C  376   4.391   3.972   2.768
    1C        C  377   4.424   3.909   2.890
    1C        C  378   4.315   4.092   3.007
    1C        C  379   4.392   3.974   3.012
    1C        C  380   4.270   4.150   3.128
    1C        C  381   4.309   4.095   3.252
    1C        C  382   4.173   4.258   3.375
    1C        C  383   4.269   4.154   3.374
    1C        C  384   4.117   4.306   3.495
    1C        C  385   4.171   4.262   3.617
    1C        C  386   4.008   4.395   3.743
    1C        C  387   4.122   4.311   3.740
    1C        C  388   3.945   4.435   3.863
    1C        C  389   4.006   4.399   3.986
    1C        C  390   3.820   4.498   4.105
    1C        C  391   3.950   4.441   4.108
    1C        C  392   3.753   4.518   4.227
    1C        C  393   3.824   4.504   4.348
    1C        C  394   3.617   4.552   4.474
    1C        C  395   3.757   4.535   4.469
    1C        C  396   3.545   4.565   4.594
    1C        C  397   3.620   4.567   4.714
    1C        C  398   3.407   4.545   4.837
    1C        C  399   3.547   4.568   4.835
    1C        C  400   3.340   4.519   4.957
    1C        C  401   4.506   3.698   2.050
    1C        C  402   4.447   3.909   2.165
    1C        C  403   4.484   3.773   2.167
    1C        C  404   4.410   3.976   2.284
    1C        C  405   4.432   3.907   2.405
    1C        C  406   4.317   4.090   2.523
    1C        C  407   4.395   3.972   2.525
    1C        C  408   4.271   4.148   2.643
    1C        C  409   4.314   4.090   2.765
    1C        C  410   4.169   4.247   2.888
    1C        C  411   4.271   4.149   2.886
    1C        C  412   4.119   4.298   3.009
    1C        C  413   4.171   4.251   3.132
    1C        C  414   3.997   4.376   3.251
    1C        C  415   4.118   4.303   3.252
    1C        C  416   3.940   4.416   3.374
    1C        C  417   3.999   4.384   3.498
    1C        C  418   3.816   4.486   3.620
    1C        C  419   3.944   4.427   3.621
    1C        C  420   3.749   4.513   3.741
    1C        C  421   3.817   4.494   3.864
    1C        C  422   3.609   4.540   3.986
    1C        C  423   3.749   4.519   3.985
    1C        C  424   3.540   4.541   4.110
    1C        C  425   3.613   4.538   4.231
    1C        C  426   3.402   4.545   4.354
    1C        C  427   3.544   4.546   4.353
    1C        C  428   3.332   4.544   4.476
    1C        C  429   3.404   4.557   4.597
    1C        C  430   3.192   4.519   4.720
    1C        C  431   3.332   4.540   4.718
    1C        C  432   3.123   4.495   4.842
    1C        C  433   3.203   4.493   4.957
    1C        C  434   4.376   4.118   2.049
    1C        C  435   4.437   3.992   2.052
    1C        C  436   4.295   4.159   2.160
    1C        C  437   4.336   4.097   2.282
    1C        C  438   4.178   4.247   2.400
    1C        C  439   4.277   4.147   2.400
    1C        C  440   4.122   4.296   2.520
    1C        C  441   4.171   4.247   2.643
    1C        C  442   4.006   4.382   2.764
    1C        C  443   4.116   4.293   2.765
    1C        C  444   3.942   4.416   2.886
    1C        C  445   4.001   4.376   3.008
    1C        C  446   3.810   4.474   3.128
    1C        C  447   3.936   4.411   3.128
    1C        C  448   3.747   4.498   3.252
    1C        C  449   3.812   4.475   3.375
    1C        C  450   3.610   4.532   3.496
    1C        C  451   3.749   4.508   3.497
    1C        C  452   3.540   4.537   3.618
    1C        C  453   3.610   4.540   3.741
    1C        C  454   3.399   4.538   3.864
    1C        C  455   3.540   4.547   3.863
    1C        C  456   3.329   4.532   3.987
    1C        C  457   3.399   4.538   4.110
    1C        C  458   3.194   4.493   4.235
    1C        C  459   3.331   4.529   4.233
    1C        C  460   3.127   4.477   4.359
    1C        C  461   3.195   4.508   4.478
    1C        C  462   2.999   4.427   4.600
    1C        C  463   3.124   4.493   4.599
    1C        C  464   2.930   4.399   4.720
    1C        C  465   2.989   4.445   4.841
    1C        C  466   2.804   4.334   4.957
    1C        C  467   2.908   4.428   4.958
    1C        C  468   4.125   4.290   2.037
    1C        C  469   4.186   4.251   2.157
    1C        C  470   4.003   4.369   2.276
    1C        C  471   4.125   4.295   2.278
    1C        C  472   3.939   4.402   2.397
    1C        C  473   4.006   4.377   2.519
    1C        C  474   3.811   4.461   2.641
    1C        C  475   3.943   4.410   2.641
    1C        C  476   3.746   4.492   2.762
    1C        C  477   3.812   4.472   2.885
    1C        C  478   3.604   4.524   3.008
    1C        C  479   3.743   4.496   3.005
    1C        C  480   3.534   4.533   3.130
    1C        C  481   3.608   4.524   3.250
    1C        C  482   3.398   4.528   3.376
    1C        C  483   3.539   4.531   3.373
    1C        C  484   3.327   4.524   3.498
    1C        C  485   3.399   4.534   3.619
    1C        C  486   3.192   4.493   3.743
    1C        C  487   3.329   4.529   3.742
    1C        C  488   3.131   4.464   3.867
    1C        C  489   3.193   4.495   3.990
    1C        C  490   3.002   4.406   4.114
    1C        C  491   3.127   4.471   4.113
    1C        C  492   2.941   4.375   4.238
    1C        C  493   2.999   4.417   4.360
    1C        C  494   2.825   4.297   4.483
    1C        C  495   2.937   4.383   4.482
    1C        C  496   2.769   4.252   4.605
    1C        C  497   2.817   4.312   4.724
    1C        C  498   2.663   4.163   4.842
    1C        C  499   2.751   4.273   4.842
    1C        C  500   2.594   4.117   4.955
    1C        C  501   4.004   4.359   2.035
    1C        C  502   3.812   4.459   2.155
    1C        C  503   3.941   4.400   2.153
    1C        C  504   3.744   4.483   2.276
    1C        C  505   3.809   4.455   2.398
    1C        C  506   3.603   4.512   2.519
    1C        C  507   3.741   4.481   2.520
    1C        C  508   3.534   4.516   2.642
    1C        C  509   3.607   4.517   2.763
    1C        C  510   3.395   4.525   2.885
    1C        C  511   3.536   4.532   2.884
    1C        C  512   3.324   4.520   3.007
    1C        C  513   3.392   4.531   3.130
    1C        C  514   3.190   4.483   3.254
    1C        C  515   3.327   4.520   3.254
    1C        C  516   3.123   4.462   3.376
    1C        C  517   3.190   4.489   3.497
    1C        C  518   3.000   4.406   3.623
    1C        C  519   3.123   4.474   3.621
    1C        C  520   2.941   4.367   3.746
    1C        C  521   3.003   4.404   3.867
    1C        C  522   2.834   4.280   3.993
    1C        C  523   2.947   4.364   3.991
    1C        C  524   2.784   4.233   4.117
    1C        C  525   2.830   4.287   4.239
    1C        C  526   2.687   4.134   4.361
    1C        C  527   2.774   4.245   4.362
    1C        C  528   2.645   4.076   4.483
    1C        C  529   2.682   4.141   4.602
    1C        C  530   2.579   3.958   4.730
    1C        C  531   2.639   4.087   4.725
    1C        C  532   2.535   3.897   4.850
    1C        C  533   2.525   3.995   4.954
    1C        C  534   3.614   4.556   2.034
    1C        C  535   3.745   4.507   2.042
    1C        C  536   3.536   4.538   2.153
    1C        C  537   3.604   4.508   2.274
    1C        C  538   3.394   4.510   2.397
    1C        C  539   3.535   4.523   2.396
    1C        C  540   3.321   4.504   2.518
    1C        C  541   3.393   4.514   2.639
    1C        C  542   3.187   4.477   2.763
    1C        C  543   3.325   4.509   2.763
    1C        C  544   3.125   4.451   2.887
    1C        C  545   3.189   4.476   3.011
    1C        C  546   2.995   4.393   3.132
    1C        C  547   3.123   4.453   3.133
    1C        C  548   2.939   4.356   3.256
    1C        C  549   2.997   4.397   3.378
    1C        C  550   2.833   4.270   3.504
    1C        C  551   2.940   4.362   3.502
    1C        C  552   2.778   4.227   3.627
    1C        C  553   2.834   4.276   3.748
    1C        C  554   2.696   4.118   3.874
    1C        C  555   2.787   4.226   3.871
    1C        C  556   2.655   4.061   3.997
    1C        C  557   2.694   4.125   4.117
    1C        C  558   2.591   3.942   4.243
    1C        C  559   2.653   4.069   4.240
    1C        C  560   2.564   3.877   4.365
    1C        C  561   2.592   3.945   4.486
    1C        C  562   2.526   3.749   4.611
    1C        C  563   2.558   3.886   4.610
    1C        C  564   2.516   3.678   4.733
    1C        C  565   2.517   3.755   4.852
    1C        C  566   2.532   3.544   4.976
    1C        C  567   2.515   3.682   4.972
    1C        C  568   3.329   4.471   2.041
    1C        C  569   3.396   4.514   2.156
    1C        C  570   3.184   4.469   2.278
    1C        C  571   3.321   4.505   2.276
    1C        C  572   3.114   4.455   2.400
    1C        C  573   3.182   4.481   2.521
    1C        C  574   2.987   4.399   2.645
    1C        C  575   3.115   4.459   2.643
    1C        C  576   2.929   4.360   2.768
    1C        C  577   2.996   4.395   2.887
    1C        C  578   2.827   4.267   3.014
    1C        C  579   2.935   4.357   3.009
    1C        C  580   2.775   4.221   3.137
    1C        C  581   2.829   4.267   3.260
    1C        C  582   2.691   4.109   3.384
    1C        C  583   2.780   4.219   3.383
    1C        C  584   2.656   4.051   3.508
    1C        C  585   2.690   4.117   3.628
    1C        C  586   2.591   3.934   3.753
    1C        C  587   2.650   4.062   3.752
    1C        C  588   2.568   3.868   3.876
    1C        C  589   2.598   3.932   3.999
    1C        C  590   2.530   3.735   4.124
    1C        C  591   2.571   3.870   4.123
    1C        C  592   2.518   3.668   4.248
    1C        C  593   2.523   3.742   4.368
    1C        C  594   2.512   3.533   4.496
    1C        C  595   2.513   3.674   4.492
    1C        C  596   2.526   3.463   4.618
    1C        C  597   2.520   3.536   4.739
    1C        C  598   2.530   3.323   4.861
    1C        C  599   2.527   3.464   4.861
    1C        C  600   2.544   3.245   4.977
    1C        C  601   3.195   4.437   2.041
    1C        C  602   2.982   4.388   2.158
    1C        C  603   3.117   4.436   2.157
    1C        C  604   2.924   4.354   2.283
    1C        C  605   2.986   4.395   2.403
    1C        C  606   2.817   4.267   2.529
    1C        C  607   2.924   4.360   2.525
    1C        C  608   2.768   4.216   2.651
    1C        C  609   2.819   4.271   2.770
    1C        C  610   2.687   4.105   2.894
    1C        C  611   2.773   4.217   2.893
    1C        C  612   2.652   4.048   3.018
    1C        C  613   2.689   4.109   3.140
    1C        C  614   2.592   3.921   3.263
    1C        C  615   2.655   4.048   3.262
    1C        C  616   2.558   3.863   3.387
    1C        C  617   2.586   3.929   3.509
    1C        C  618   2.522   3.730   3.636
    1C        C  619   2.563   3.865   3.633
    1C        C  620   2.508   3.661   3.759
    1C        C  621   2.524   3.734   3.879
    1C        C  622   2.507   3.524   4.006
    1C        C  623   2.515   3.665   4.002
    1C        C  624   2.508   3.455   4.129
    1C        C  625   2.509   3.527   4.251
    1C        C  626   2.535   3.321   4.377
    1C        C  627   2.516   3.461   4.375
    1C        C  628   2.551   3.250   4.498
    1C        C  629   2.538   3.322   4.619
    1C        C  630   2.594   3.117   4.741
    1C        C  631   2.546   3.252   4.740
    1C        C  632   2.613   3.043   4.861
    1C        C  633   2.560   3.106   4.978
    1C        C  634   2.779   4.303   2.057
    1C        C  635   2.887   4.391   2.051
    1C        C  636   2.745   4.224   2.167
    1C        C  637   2.810   4.269   2.284
    1C        C  638   2.679   4.105   2.409
    1C        C  639   2.766   4.216   2.408
    1C        C  640   2.640   4.045   2.531
    1C        C  641   2.682   4.103   2.653
    1C        C  642   2.581   3.916   2.774
    1C        C  643   2.645   4.042   2.774
    1C        C  644   2.562   3.853   2.899
    1C        C  645   2.588   3.922   3.020
    1C        C  646   2.523   3.719   3.146
    1C        C  647   2.563   3.855   3.142
    1C        C  648   2.507   3.654   3.270
    1C        C  649   2.518   3.728   3.390
    1C        C  650   2.506   3.519   3.516
    1C        C  651   2.506   3.661   3.514
    1C        C  652   2.514   3.448   3.638
    1C        C  653   2.505   3.520   3.760
    1C        C  654   2.530   3.313   3.888
    1C        C  655   2.508   3.453   3.884
    1C        C  656   2.547   3.246   4.011
    1C        C  657   2.531   3.316   4.133
    1C        C  658   2.603   3.118   4.254
    1C        C  659   2.551   3.249   4.256
    1C        C  660   2.636   3.056   4.376
    1C        C  661   2.607   3.120   4.498
    1C        C  662   2.707   2.934   4.622
    1C        C  663   2.634   3.055   4.621
    1C        C  664   2.744   2.866   4.740
    1C        C  665   2.698   2.928   4.860
    1C        C  666   2.745   2.868   4.977
    1C        C  667   2.684   4.019   2.051
    1C        C  668   2.677   4.101   2.164
    1C        C  669   2.587   3.911   2.289
    1C        C  670   2.642   4.042   2.288
    1C        C  671   2.561   3.844   2.410
    1C        C  672   2.580   3.917   2.530
    1C        C  673   2.514   3.716   2.656
    1C        C  674   2.555   3.851   2.652
    1C        C  675   2.506   3.647   2.779
    1C        C  676   2.526   3.716   2.900
    1C        C  677   2.501   3.509   3.026
    1C        C  678   2.511   3.650   3.024
    1C        C  679   2.507   3.441   3.150
    1C        C  680   2.504   3.513   3.272
    1C        C  681   2.533   3.306   3.398
    1C        C  682   2.508   3.445   3.396
    1C        C  683   2.550   3.238   3.521
    1C        C  684   2.533   3.309   3.642
    1C        C  685   2.601   3.112   3.769
    1C        C  686   2.548   3.243   3.767
    1C        C  687   2.638   3.049   3.890
    1C        C  688   2.600   3.115   4.009
    1C        C  689   2.712   2.936   4.136
    1C        C  690   2.634   3.054   4.132
    1C        C  691   2.755   2.880   4.258
    1C        C  692   2.712   2.936   4.379
    1C        C  693   2.751   2.876   4.501
    1C        C  694   2.621   3.894   2.056
    1C        C  695   2.517   3.703   2.173
    1C        C  696   2.570   3.834   2.172
    1C        C  697   2.497   3.636   2.295
    1C        C  698   2.522   3.708   2.414
    1C        C  699   2.488   3.500   2.539
    1C        C  700   2.501   3.641   2.536
    1C        C  701   2.496   3.431   2.662
    1C        C  702   2.497   3.506   2.781
    1C        C  703   2.521   3.297   2.906
    1C        C  704   2.501   3.437   2.904
    1C        C  705   2.544   3.232   3.030
    1C        C  706   2.533   3.302   3.152
    1C        C  707   2.599   3.104   3.277
    1C        C  708   2.554   3.238   3.276
    1C        C  709   2.630   3.043   3.400
    1C        C  710   2.606   3.108   3.523
    1C        C  711   2.708   2.928   3.647
    1C        C  712   2.629   3.045   3.648
    1C        C  713   2.754   2.873   3.769
    1C        C  714   2.717   2.932   3.892
    1C        C  715   2.757   2.877   4.016
    1C        C  716   2.452   3.494   2.058
    1C        C  717   2.487   3.630   2.057
    1C        C  718   2.461   3.418   2.179
    1C        C  719   2.476   3.495   2.297
    1C        C  720   2.505   3.286   2.422
    1C        C  721   2.483   3.425   2.420
    1C        C  722   2.530   3.219   2.544
    1C        C  723   2.521   3.292   2.664
    1C        C  724   2.592   3.093   2.789
    1C        C  725   2.539   3.224   2.787
    1C        C  726   2.624   3.033   2.913
    1C        C  727   2.593   3.100   3.033
    1C        C  728   2.703   2.919   3.158
    1C        C  729   2.629   3.039   3.155
    1C        C  730   2.754   2.872   3.281
    1C        C  731   2.710   2.927   3.404
    1C        C  732   2.752   2.869   3.526
    1C        C  733   2.485   3.194   2.068
    1C        C  734   2.485   3.277   2.182
    1C        C  735   2.572   3.079   2.302
    1C        C  736   2.516   3.210   2.303
    1C        C  737   2.609   3.018   2.425
    1C        C  738   2.585   3.088   2.545
    1C        C  739   2.697   2.909   2.668
    1C        C  740   2.619   3.027   2.667
    1C        C  741   2.740   2.853   2.791
    1C        C  742   2.697   2.912   2.912
    1C        C  743   2.743   2.860   3.036
    1C        C  744   2.540   3.067   2.070
    1C        C  745   2.683   2.895   2.183
    1C        C  746   2.596   3.007   2.183
    1C        C  747   2.728   2.838   2.304
    1C        C  748   2.688   2.901   2.424
    1C        C  749   2.736   2.850   2.547
    1C        C  750   2.735   2.837   2.067
    1C        C  751   3.663   2.300   1.993
    1C        O  752   3.720   2.201   2.045
    1C        O  753   3.718   2.308   1.864
    1C        C  754   4.652   3.045   2.001
    1C        O  755   4.653   3.029   1.876
    1C        O  756   4.773   3.019   2.066
    1C        C  757   4.448   4.221   1.971
    1C        O  758   4.526   4.299   2.032
    1C        O  759   4.466   4.216   1.832
    1C        C  760   3.599   4.661   1.931
    1C        O  761   3.545   4.770   1.965
    1C        O  762   3.565   4.626   1.800
    1C        C  763   2.882   4.499   1.949
    1C        O  764   2.958   4.493   1.849
    1C        O  765   2.833   4.629   1.965
    1C        C  766   2.337   3.481   1.966
    1C        O  767   2.353   3.452   1.844
    1C        O  768   2.206   3.469   2.012
    1C        C  769   4.681   3.582   5.063
    1C        O  770   4.651   3.535   5.176
    1C        O  771   4.817   3.607   5.044
    1C        C  772   4.254   4.414   5.061
    1C        O  773   4.217   4.371   5.173
    1C        O  774   4.344   4.522   5.069
    1C        C  775   4.140   2.523   5.074
    1C        O  776   4.175   2.402   5.063
    1C        O  777   4.163   2.576   5.201
    1C        C  778   2.870   4.538   5.049
    1C        O  779   2.777   4.618   5.022
    1C        O  780   2.919   4.537   5.180
    1C        C  781   2.466   3.031   5.065
    1C        O  782   2.350   2.993   5.033
    1C        O  783   2.495   2.960   5.181
    1C        C  784   2.400   4.002   5.032
    1C        O  785   2.293   4.007   4.964
    1C        O  786   2.398   3.979   5.170
    1C        C  787   2.939   2.410   2.021
    1C        O  788   2.896   2.420   1.903
    1C        O  789   2.907   2.286   2.077
    1C        C  790   3.209   2.391   5.082
    1C        O  791   3.167   2.272   5.076
    1C        O  792   3.232   2.424   5.216
    1C        H  793   4.255   3.034   5.046
    1C        H  794   4.203   2.789   5.069
    1C        H  795   4.468   3.132   5.062
    1C        H  796   4.557   3.355   5.061
    1C        H  797   4.578   3.812   5.033
    1C        H  798   4.414   3.973   5.055
    1C        H  799   4.252   4.145   5.041
    1C        H  800   4.019   4.517   5.034
    1C        H  801   3.819   4.609   5.031
    1C        H  802   3.589   4.642   5.032
    1C        H  803   3.395   4.486   5.042
    1C        H  804   3.169   4.434   5.040
    1C        H  805   3.910   2.437   5.036
    1C        H  806   3.676   2.434   5.064
    1C        H  807   3.025   2.597   5.073
    1C        H  808   3.440   2.500   5.070
    1C        H  809   2.841   2.708   5.073
    1C        H  810   2.676   2.870   5.059
    1C        H  811   2.579   3.298   5.063
    1C        H  812   2.593   3.512   5.058
    1C        H  813   2.492   3.732   5.064
    1C        H  814   2.562   4.188   5.028
    1C        H  815   2.744   4.326   5.046
    1C        H  816   2.695   2.866   1.971
    1C        H  817   2.810   2.658   1.986
    1C        H  818   3.197   2.404   1.996
    1C        H  819   3.419   2.416   1.981
    1C        H  820   3.864   2.506   1.965
    1C        H  821   4.079   2.581   1.976
    1C        H  822   4.213   2.753   1.968
    1C        H  823   4.389   2.909   1.964
    1C        H  824   4.601   3.302   1.975
    1C        H  825   4.558   3.521   1.961
    1C        H  826   4.580   3.737   1.983
    1C        H  827   3.793   4.496   1.946
    1C        H  828   3.954   4.355   1.941
    1C        H  829   4.161   4.245   1.946
    1C        H  830   4.445   3.940   1.959
    1C        H  831   2.647   3.826   1.977
    1C        H  832   2.723   4.057   1.959
    1C        H  833   2.703   4.313   1.982
    1C        H  834   3.370   4.497   1.946
    1C        H  835   3.163   4.385   1.953
    1C        H  836   2.537   3.014   1.977
    1C        H  837   2.490   3.242   1.972
    1C        H  838   2.500   3.674   1.961
    2V3OU   H29  839   2.795   3.537   1.732
    2V3OU   C27  840   2.781   3.502   1.837
    2V3OU   H27  841   2.724   3.576   1.899
    2V3OU   H28  842   2.725   3.405   1.839
    2V3OU   O11  843   2.910   3.477   1.893
    2V3OU   C15  844   2.922   3.393   2.002
    2V3OU   C13  845   3.049   3.371   2.060
    2V3OU   C14  846   3.074   3.266   2.148
    2V3OU   C16  847   2.970   3.185   2.193
    2V3OU    H6  848   2.990   3.105   2.264
    2V3OU   C12  849   3.209   3.228   2.197
    2V3OU    O2  850   3.228   3.129   2.270
    2V3OU   C10  851   3.325   3.309   2.158
    2V3OU    C8  852   3.455   3.271   2.189
    2V3OU   O10  853   3.485   3.162   2.264
    2V3OU   H26  854   3.403   3.110   2.272
    2V3OU    C6  855   3.562   3.350   2.135
    2V3OU    C5  856   3.534   3.463   2.059
    2V3OU    C4  857   3.699   3.291   2.126
    2V3OU    H4  858   3.722   3.231   2.219
    2V3OU    H5  859   3.705   3.224   2.036
    2V3OU    C2  860   3.813   3.392   2.116
    2V3OU    O6  861   3.807   3.471   2.236
    2V3OU   H21  862   3.756   3.548   2.207
    2V3OU    C3  863   3.781   3.497   2.010
    2V3OU    H2  864   3.860   3.576   2.003
    2V3OU    H3  865   3.780   3.440   1.914
    2V3OU   C25  866   3.948   3.323   2.098
    2V3OU    O7  867   3.998   3.296   1.989
    2V3OU   C26  868   4.026   3.283   2.222
    2V3OU   H22  869   4.065   3.377   2.270
    2V3OU   H23  870   4.114   3.219   2.195
    2V3OU    O8  871   3.961   3.211   2.325
    2V3OU   H24  872   3.931   3.267   2.399
    2V3OU    C1  873   3.645   3.561   2.034
    2V3OU    H1  874   3.622   3.617   1.938
    2V3OU    O3  875   3.656   3.653   2.143
    2V3OU   C19  876   3.618   3.790   2.132
    2V3OU    H9  877   3.518   3.804   2.081
    2V3OU    O4  878   3.714   3.850   2.049
    2V3OU   C20  879   3.844   3.875   2.103
    2V3OU   H10  880   3.888   3.771   2.105
    2V3OU   C24  881   3.608   3.851   2.272
    2V3OU   H16  882   3.543   3.787   2.338
    2V3OU   H17  883   3.559   3.951   2.261
    2V3OU   C23  884   3.748   3.871   2.332
    2V3OU   H15  885   3.792   3.767   2.345
    2V3OU    N1  886   3.730   3.947   2.454
    2V3OU   H19  887   3.810   3.925   2.510
    2V3OU   H20  888   3.647   3.935   2.508
    2V3OU   C21  889   3.843   3.949   2.237
    2V3OU   H11  890   3.949   3.933   2.274
    2V3OU    O5  891   3.813   4.088   2.244
    2V3OU   H18  892   3.774   4.108   2.330
    2V3OU   C22  893   3.909   3.949   1.986
    2V3OU   H12  894   3.856   4.046   1.967
    2V3OU   H13  895   3.902   3.887   1.893
    2V3OU   H14  896   4.019   3.960   2.005
    2V3OU   C11  897   3.160   3.466   2.039
    2V3OU    O1  898   3.128   3.580   2.001
    2V3OU    C9  899   3.296   3.422   2.077
    2V3OU    C7  900   3.400   3.499   2.024
    2V3OU    O9  901   3.382   3.615   1.953
    2V3OU   H25  902   3.287   3.628   1.939
    2V3OU   C17  903   2.816   3.315   2.051
    2V3OU    H7  904   2.713   3.343   2.026
    2V3OU   C18  905   2.843   3.215   2.144
    2V3OU    H8  906   2.765   3.160   2.197
    3SOL     OW  907   2.609   4.434   0.914
    3SOL    HW1  908   2.639   4.423   1.009
    3SOL    HW2  909   2.514   4.403   0.905
    4SOL     OW  910   6.300   5.454   1.714
    4SOL    HW1  911   6.313   5.362   1.678
    4SOL    HW2  912   6.203   5.478   1.710
    5SOL     OW  913   3.562   1.506   3.374
    5SOL    HW1  914   3.642   1.447   3.380
    5SOL    HW2  915   3.529   1.528   3.466
    6SOL     OW  916   4.685   1.489   1.828
    6SOL    HW1  917   4.645   1.553   1.763
    6SOL    HW2  918   4.782   1.474   1.806
    7SOL     OW  919   6.118   3.343   2.398
    7SOL    HW1  920   6.177   3.386   2.329
    7SOL    HW2  921   6.023   3.349   2.368
    8SOL     OW  922   2.591   6.621   5.748
    8SOL    HW1  923   2.555   6.529   5.764
    8SOL    HW2  924   2.691   6.619   5.755
    9SOL     OW  925   0.350   5.029   5.725
    9SOL    HW1  926   0.315   5.057   5.636
    9SOL    HW2  927   0.321   4.935   5.745
   10SOL     OW  928   1.180   4.820   5.507
   10SOL    HW1  929   1.107   4.858   5.449
   10SOL    HW2  930   1.139   4.767   5.581
   11SOL     OW  931   2.895   0.370   7.008
   11SOL    HW1  932   2.969   0.361   6.940
   11SOL    HW2  933   2.903   0.458   0.036
   12SOL     OW  934   4.206   6.292   3.875
   12SOL    HW1  935   4.282   6.349   3.846
   12SOL    HW2  936   4.241   6.209   3.918
   13SOL     OW  937   3.213   5.634   4.012
   13SOL    HW1  938   3.309   5.657   3.997
   13SOL    HW2  939   3.201   5.595   4.103
   14SOL     OW  940   4.820   5.415   6.549
   14SOL    HW1  941   4.754   5.347   6.517
   14SOL    HW2  942   4.799   5.503   6.508
   15SOL     OW  943   1.077   4.998   0.645
   15SOL    HW1  944   1.109   4.948   0.564
   15SOL    HW2  945   0.995   5.050   0.622
   16SOL     OW  946   5.467   2.985   5.602
   16SOL    HW1  947   5.487   3.054   5.672
   16SOL    HW2  948   5.532   2.995   5.526
   17SOL     OW  949   5.404   5.930   5.051
   17SOL    HW1  950   5.474   5.927   5.123
   17SOL    HW2  951   5.314   5.944   5.092
   18SOL     OW  952   3.100   1.090   6.638
   18SOL    HW1  953   3.035   1.027   6.595
   18SOL    HW2  954   3.086   1.089   6.737
   19SOL     OW  955   0.039   0.061   3.062
   19SOL    HW1  956   0.069   6.988   3.090
   19SOL    HW2  957   0.115   0.126   3.074
   20SOL     OW  958   4.515   1.634   4.188
   20SOL    HW1  959   4.569   1.561   4.230
   20SOL    HW2  960   4.542   1.722   4.228
   21SOL     OW  961   3.317   2.097   2.143
   21SOL    HW1  962   3.311   2.129   2.049
   21SOL    HW2  963   3.399   2.042   2.155
   22SOL     OW  964   2.504   0.013   0.797
   22SOL    HW1  965   2.555   6.991   0.721
   22SOL    HW2  966   2.417   6.982   0.808
   23SOL     OW  967   4.285   6.753   3.368
   23SOL    HW1  968   4.319   6.748   3.274
   23SOL    HW2  969   4.360   6.734   3.431
   24SOL     OW  970   4.881   1.213   3.255
   24SOL    HW1  971   4.839   1.179   3.170
   24SOL    HW2  972   4.811   1.256   3.312
   25SOL     OW  973   3.492   6.697   5.687
   25SOL    HW1  974   3.401   6.656   5.694
   25SOL    HW2  975   3.491   6.787   5.731
   26SOL     OW  976   6.411   0.893   0.218
   26SOL    HW1  977   6.481   0.953   0.181
   26SOL    HW2  978   6.446   0.846   0.299
   27SOL     OW  979   0.536   1.519   1.739
   27SOL    HW1  980   0.470   1.539   1.811
   27SOL    HW2  981   0.535   1.421   1.719
   28SOL     OW  982   3.975   1.082   0.162
   28SOL    HW1  983   4.054   1.136   0.136
   28SOL    HW2  984   3.894   1.114   0.113
   29SOL     OW  985   6.008   2.785   2.002
   29SOL    HW1  986   6.006   2.696   2.047
   29SOL    HW2  987   6.101   2.809   1.976
   30SOL     OW  988   4.226   0.577   5.023
   30SOL    HW1  989   4.167   0.508   4.980
   30SOL    HW2  990   4.293   0.609   4.956
   31SOL     OW  991   0.373   1.949   5.971
   31SOL    HW1  992   0.445   2.018   5.983
   31SOL    HW2  993   0.415   1.861   5.952
   32SOL     OW  994   6.740   1.070   2.914
   32SOL    HW1  995   6.678   0.997   2.883
   32SOL    HW2  996   6.822   1.029   2.954
   33SOL     OW  997   2.512   3.525   0.223
   33SOL    HW1  998   2.460   3.569   0.150
   33SOL    HW2  999   2.539   3.434   0.194
   34SOL     OW 1000   2.063   1.545   3.828
   34SOL    HW1 1001   2.001   1.493   3.770
   34SOL    HW2 1002   2.009   1.604   3.889
   35SOL     OW 1003   3.674   1.872   6.787
   35SOL    HW1 1004   3.658   1.810   6.711
   35SOL    HW2 1005   3.679   1.966   6.753
   36SOL     OW 1006   0.139   1.026   6.446
   36SOL    HW1 1007   0.192   1.079   6.379
   36SOL    HW2 1008   0.070   0.971   6.398
   37SOL     OW 1009   1.510   0.787   0.352
   37SOL    HW1 1010   1.486   0.884   0.345
   37SOL    HW2 1011   1.573   0.774   0.428
   38SOL     OW 1012   0.323   4.573   2.196
   38SOL    HW1 1013   0.277   4.659   2.220
   38SOL    HW2 1014   0.418   4.592   2.172
   39SOL     OW 1015   6.716   4.954   6.585
   39SOL    HW1 1016   6.646   4.902   6.536
   39SOL    HW2 1017   6.676   4.994   6.667
   40SOL     OW 1018   5.924   2.469   1.233
   40SOL    HW1 1019   5.834   2.493   1.269
   40SOL    HW2 1020   5.982   2.437   1.307
   41SOL     OW 1021   0.622   6.257   4.271
   41SOL    HW1 1022   0.601   6.197   4.194
   41SOL    HW2 1023   0.582   6.347   4.255
   42SOL     OW 1024   2.674   5.733   6.095
   42SOL    HW1 1025   2.740   5.665   6.064
   42SOL    HW2 1026   2.581   5.700   6.077
   43SOL     OW 1027   5.496   6.333   5.661
   43SOL    HW1 1028   5.501   6.420   5.709
   43SOL    HW2 1029   5.401   6.314   5.636
   44SOL     OW 1030   5.649   2.681   6.228
   44SOL    HW1 1031   5.561   2.720   6.257
   44SOL    HW2 1032   5.643   2.654   6.132
   45SOL     OW 1033   3.336   6.988   3.466
   45SOL    HW1 1034   3.432   6.975   3.440
   45SOL    HW2 1035   3.288   6.901   3.461
   46SOL     OW 1036   1.349   3.284   4.192
   46SOL    HW1 1037   1.399   3.370   4.190
   46SOL    HW2 1038   1.329   3.255   4.099
   47SOL     OW 1039   5.137   4.541   2.345
   47SOL    HW1 1040   5.140   4.458   2.289
   47SOL    HW2 1041   5.066   4.530   2.415
   48SOL     OW 1042   0.229   2.841   5.766
   48SOL    HW1 1043   0.237   2.804   5.858
   48SOL    HW2 1044   0.235   2.941   5.769
   49SOL     OW 1045   4.438   3.995   1.670
   49SOL    HW1 1046   4.392   4.023   1.586
   49SOL    HW2 1047   4.438   4.072   1.734
   50SOL     OW 1048   6.421   2.753   6.003
   50SOL    HW1 1049   6.451   2.840   5.964
   50SOL    HW2 1050   6.361   2.706   5.938
   51SOL     OW 1051   3.200   6.239   2.685
   51SOL    HW1 1052   3.182   6.335   2.665
   51SOL    HW2 1053   3.163   6.217   2.776
   52SOL     OW 1054   4.908   2.744   3.380
   52SOL    HW1 1055   4.819   2.734   3.336
   52SOL    HW2 1056   4.938   2.839   3.371
   53SOL     OW 1057   4.288   0.401   4.696
   53SOL    HW1 1058   4.336   0.488   4.714
   53SOL    HW2 1059   4.278   0.389   4.598
   54SOL     OW 1060   3.882   5.000   0.614
   54SOL    HW1 1061   3.871   4.901   0.610
   54SOL    HW2 1062   3.840   5.034   0.698
   55SOL     OW 1063   3.673   1.271   6.276
   55SOL    HW1 1064   3.676   1.370   6.285
   55SOL    HW2 1065   3.684   1.246   6.180
   56SOL     OW 1066   0.751   0.352   1.443
   56SOL    HW1 1067   0.836   0.369   1.394
   56SOL    HW2 1068   0.744   0.416   1.520
   57SOL     OW 1069   5.402   0.700   0.764
   57SOL    HW1 1070   5.397   0.760   0.684
   57SOL    HW2 1071   5.484   0.643   0.757
   58SOL     OW 1072   6.513   6.713   5.299
   58SOL    HW1 1073   6.563   6.707   5.213
   58SOL    HW2 1074   6.471   6.803   5.307
   59SOL     OW 1075   1.877   1.345   6.181
   59SOL    HW1 1076   1.940   1.412   6.219
   59SOL    HW2 1077   1.828   1.299   6.255
   60SOL     OW 1078   5.943   1.263   6.105
   60SOL    HW1 1079   5.907   1.351   6.135
   60SOL    HW2 1080   5.874   1.215   6.050
   61SOL     OW 1081   5.171   2.153   4.584
   61SOL    HW1 1082   5.137   2.228   4.641
   61SOL    HW2 1083   5.124   2.068   4.609
   62SOL     OW 1084   0.131   0.594   3.382
   62SOL    HW1 1085   0.142   0.495   3.389
   62SOL    HW2 1086   0.118   0.619   3.286
   63SOL     OW 1087   6.434   1.536   3.980
   63SOL    HW1 1088   6.404   1.443   3.999
   63SOL    HW2 1089   6.431   1.590   4.064
   64SOL     OW 1090   0.331   3.789   6.630
   64SOL    HW1 1091   0.408   3.821   6.575
   64SOL    HW2 1092   0.338   3.691   6.644
   65SOL     OW 1093   6.883   4.588   5.362
   65SOL    HW1 1094   6.885   4.489   5.369
   65SOL    HW2 1095   6.942   4.628   5.432
   66SOL     OW 1096   3.797   0.645   6.787
   66SOL    HW1 1097   3.764   0.739   6.786
   66SOL    HW2 1098   3.877   0.638   6.727
   67SOL     OW 1099   5.289   4.433   5.531
   67SOL    HW1 1100   5.239   4.518   5.516
   67SOL    HW2 1101   5.341   4.410   5.449
   68SOL     OW 1102   5.777   0.805   6.662
   68SOL    HW1 1103   5.863   0.855   6.674
   68SOL    HW2 1104   5.724   0.847   6.589
   69SOL     OW 1105   0.935   3.435   6.647
   69SOL    HW1 1106   0.936   3.534   6.634
   69SOL    HW2 1107   1.027   3.398   6.634
   70SOL     OW 1108   6.152   4.677   3.464
   70SOL    HW1 1109   6.105   4.725   3.538
   70SOL    HW2 1110   6.246   4.655   3.492
   71SOL     OW 1111   4.477   1.836   2.834
   71SOL    HW1 1112   4.573   1.824   2.857
   71SOL    HW2 1113   4.453   1.779   2.755
   72SOL     OW 1114   3.128   5.950   5.025
   72SOL    HW1 1115   3.066   5.996   5.089
   72SOL    HW2 1116   3.137   6.005   4.942
   73SOL     OW 1117   3.556   1.399   0.897
   73SOL    HW1 1118   3.456   1.404   0.901
   73SOL    HW2 1119   3.595   1.464   0.962
   74SOL     OW 1120   4.849   6.216   6.123
   74SOL    HW1 1121   4.941   6.251   6.137
   74SOL    HW2 1122   4.834   6.136   6.182
   75SOL     OW 1123   3.974   0.186   6.787
   75SOL    HW1 1124   3.874   0.197   6.792
   75SOL    HW2 1125   4.001   0.109   6.845
   76SOL     OW 1126   2.453   2.560   1.565
   76SOL    HW1 1127   2.458   2.508   1.480
   76SOL    HW2 1128   2.444   2.658   1.544
   77SOL     OW 1129   5.506   6.061   4.150
   77SOL    HW1 1130   5.538   5.968   4.167
   77SOL    HW2 1131   5.406   6.061   4.146
   78SOL     OW 1132   5.884   1.021   5.735
   78SOL    HW1 1133   5.968   1.057   5.696
   78SOL    HW2 1134   5.906   0.951   5.803
   79SOL     OW 1135   3.330   6.797   0.733
   79SOL    HW1 1136   3.370   6.792   0.642
   79SOL    HW2 1137   3.273   6.879   0.740
   80SOL     OW 1138   5.707   1.798   4.399
   80SOL    HW1 1139   5.610   1.825   4.406
   80SOL    HW2 1140   5.713   1.700   4.384
   81SOL     OW 1141   2.085   0.252   2.878
   81SOL    HW1 1142   2.082   0.293   2.786
   81SOL    HW2 1143   2.175   0.265   2.917
   82SOL     OW 1144   6.595   5.618   0.546
   82SOL    HW1 1145   6.549   5.631   0.634
   82SOL    HW2 1146   6.663   5.691   0.534
   83SOL     OW 1147   6.777   0.492   0.530
   83SOL    HW1 1148   6.858   0.505   0.587
   83SOL    HW2 1149   6.755   0.394   0.525
   84SOL     OW 1150   5.279   3.260   3.725
   84SOL    HW1 1151   5.344   3.334   3.709
   84SOL    HW2 1152   5.226   3.244   3.642
   85SOL     OW 1153   1.900   1.890   5.051
   85SOL    HW1 1154   1.945   1.893   4.962
   85SOL    HW2 1155   1.844   1.972   5.064
   86SOL     OW 1156   0.265   0.797   5.877
   86SOL    HW1 1157   0.338   0.833   5.935
   86SOL    HW2 1158   0.294   0.711   5.836
   87SOL     OW 1159   4.857   3.673   0.796
   87SOL    HW1 1160   4.820   3.710   0.881
   87SOL    HW2 1161   4.895   3.747   0.741
   88SOL     OW 1162   3.989   1.559   6.179
   88SOL    HW1 1163   4.061   1.572   6.248
   88SOL    HW2 1164   3.974   1.645   6.130
   89SOL     OW 1165   0.890   2.519   5.840
   89SOL    HW1 1166   0.955   2.565   5.899
   89SOL    HW2 1167   0.826   2.465   5.896
   90SOL     OW 1168   4.259   6.422   3.461
   90SOL    HW1 1169   4.248   6.516   3.493
   90SOL    HW2 1170   4.187   6.364   3.499
   91SOL     OW 1171   4.764   4.348   4.650
   91SOL    HW1 1172   4.701   4.397   4.710
   91SOL    HW2 1173   4.712   4.299   4.580
   92SOL     OW 1174   2.829   3.733   0.790
   92SOL    HW1 1175   2.744   3.769   0.827
   92SOL    HW2 1176   2.904   3.754   0.853
   93SOL     OW 1177   2.305   3.712   6.479
   93SOL    HW1 1178   2.251   3.763   6.546
   93SOL    HW2 1179   2.279   3.615   6.481
   94SOL     OW 1180   2.777   6.222   6.166
   94SOL    HW1 1181   2.850   6.203   6.231
   94SOL    HW2 1182   2.782   6.157   6.090
   95SOL     OW 1183   1.050   0.889   2.869
   95SOL    HW1 1184   1.012   0.967   2.919
   95SOL    HW2 1185   1.100   0.830   2.932
   96SOL     OW 1186   3.751   7.018   5.238
   96SOL    HW1 1187   3.746   0.099   5.233
   96SOL    HW2 1188   3.718   6.979   5.152
   97SOL     OW 1189   1.407   3.345   6.238
   97SOL    HW1 1190   1.355   3.420   6.197
   97SOL    HW2 1191   1.423   3.274   6.170
   98SOL     OW 1192   6.392   4.058   0.488
   98SOL    HW1 1193   6.343   4.070   0.574
   98SOL    HW2 1194   6.350   3.983   0.436
   99SOL     OW 1195   4.607   3.764   1.268
   99SOL    HW1 1196   4.679   3.697   1.289
   99SOL    HW2 1197   4.615   3.842   1.331
  100SOL     OW 1198   0.205   0.301   5.587
  100SOL    HW1 1199   0.170   0.209   5.605
  100SOL    HW2 1200   0.303   0.297   5.570
  101SOL     OW 1201   1.367   5.795   2.543
  101SOL    HW1 1202   1.447   5.844   2.578
  101SOL    HW2 1203   1.366   5.798   2.443
  102SOL     OW 1204   4.108   0.578   2.454
  102SOL    HW1 1205   4.184   0.617   2.402
  102SOL    HW2 1206   4.075   0.496   2.408
  103SOL     OW 1207   3.200   1.053   2.573
  103SOL    HW1 1208   3.279   1.071   2.631
  103SOL    HW2 1209   3.122   1.108   2.605
  104SOL     OW 1210   0.028   5.463   2.663
  104SOL    HW1 1211   0.105   5.402   2.683
  104SOL    HW2 1212   6.993   5.425   2.587
  105SOL     OW 1213   6.703   2.663   6.225
  105SOL    HW1 1214   6.707   2.735   6.155
  105SOL    HW2 1215   6.750   2.582   6.190
  106SOL     OW 1216   3.575   6.183   4.619
  106SOL    HW1 1217   3.622   6.129   4.689
  106SOL    HW2 1218   3.501   6.129   4.578
  107SOL     OW 1219   1.537   1.360   2.026
  107SOL    HW1 1220   1.573   1.267   2.025
  107SOL    HW2 1221   1.595   1.418   1.968
  108SOL     OW 1222   3.932   5.208   5.512
  108SOL    HW1 1223   4.006   5.275   5.512
  108SOL    HW2 1224   3.970   5.116   5.503
  109SOL     OW 1225   0.768   1.090   1.508
  109SOL    HW1 1226   0.796   1.186   1.502
  109SOL    HW2 1227   0.669   1.084   1.498
  110SOL     OW 1228   4.031   6.286   5.199
  110SOL    HW1 1229   4.128   6.264   5.204
  110SOL    HW2 1230   4.019   6.385   5.209
  111SOL     OW 1231   3.287   0.561   5.063
  111SOL    HW1 1232   3.303   0.622   4.986
  111SOL    HW2 1233   3.375   0.531   5.100
  112SOL     OW 1234   5.724   6.522   6.538
  112SOL    HW1 1235   5.778   6.549   6.618
  112SOL    HW2 1236   5.732   6.592   6.467
  113SOL     OW 1237   6.186   4.773   3.210
  113SOL    HW1 1238   6.165   4.744   3.304
  113SOL    HW2 1239   6.246   4.853   3.213
  114SOL     OW 1240   1.104   0.065   1.252
  114SOL    HW1 1241   1.103   0.013   1.338
  114SOL    HW2 1242   1.012   0.066   1.213
  115SOL     OW 1243   3.862   1.562   3.386
  115SOL    HW1 1244   3.831   1.649   3.347
  115SOL    HW2 1245   3.891   1.576   3.480
  116SOL     OW 1246   6.247   5.024   1.845
  116SOL    HW1 1247   6.227   4.931   1.814
  116SOL    HW2 1248   6.343   5.030   1.873
  117SOL     OW 1249   1.248   1.198   6.731
  117SOL    HW1 1250   1.295   1.227   6.648
  117SOL    HW2 1251   1.262   1.100   6.745
  118SOL     OW 1252   1.608   1.482   3.174
  118SOL    HW1 1253   1.680   1.412   3.169
  118SOL    HW2 1254   1.591   1.506   3.269
  119SOL     OW 1255   1.035   1.803   6.362
  119SOL    HW1 1256   1.034   1.799   6.462
  119SOL    HW2 1257   1.083   1.724   6.326
  120SOL     OW 1258   6.221   6.689   0.406
  120SOL    HW1 1259   6.226   6.742   0.490
  120SOL    HW2 1260   6.126   6.663   0.389
  121SOL     OW 1261   2.285   3.567   6.183
  121SOL    HW1 1262   2.364   3.554   6.123
  121SOL    HW2 1263   2.258   3.663   6.183
  122SOL     OW 1264   1.621   4.569   6.846
  122SOL    HW1 1265   1.703   4.571   6.902
  122SOL    HW2 1266   1.624   4.643   6.779
  123SOL     OW 1267   0.164   1.569   1.726
  123SOL    HW1 1268   0.241   1.595   1.784
  123SOL    HW2 1269   0.148   1.640   1.657
  124SOL     OW 1270   5.078   3.191   0.603
  124SOL    HW1 1271   4.982   3.215   0.587
  124SOL    HW2 1272   5.082   3.110   0.662
  125SOL     OW 1273   2.585   1.663   2.177
  125SOL    HW1 1274   2.678   1.651   2.142
  125SOL    HW2 1275   2.581   1.745   2.234
  126SOL     OW 1276   2.509   3.764   1.200
  126SOL    HW1 1277   2.600   3.802   1.219
  126SOL    HW2 1278   2.439   3.830   1.229
  127SOL     OW 1279   0.491   5.479   5.948
  127SOL    HW1 1280   0.446   5.544   6.009
  127SOL    HW2 1281   0.580   5.515   5.921
  128SOL     OW 1282   4.673   2.408   1.520
  128SOL    HW1 1283   4.673   2.471   1.443
  128SOL    HW2 1284   4.684   2.314   1.487
  129SOL     OW 1285   3.584   3.013   5.787
  129SOL    HW1 1286   3.518   3.076   5.745
  129SOL    HW2 1287   3.610   3.047   5.877
  130SOL     OW 1288   0.467   1.049   4.085
  130SOL    HW1 1289   0.564   1.044   4.110
  130SOL    HW2 1290   0.415   1.087   4.162
  131SOL     OW 1291   5.100   1.840   3.262
  131SOL    HW1 1292   5.094   1.839   3.362
  131SOL    HW2 1293   5.097   1.747   3.228
  132SOL     OW 1294   2.525   2.695   0.775
  132SOL    HW1 1295   2.426   2.714   0.773
  132SOL    HW2 1296   2.546   2.637   0.854
  133SOL     OW 1297   4.904   6.857   4.022
  133SOL    HW1 1298   4.913   6.927   4.093
  133SOL    HW2 1299   4.980   6.866   3.957
  134SOL     OW 1300   6.360   1.685   2.424
  134SOL    HW1 1301   6.329   1.748   2.354
  134SOL    HW2 1302   6.371   1.594   2.385
  135SOL     OW 1303   5.763   3.760   2.678
  135SOL    HW1 1304   5.794   3.837   2.734
  135SOL    HW2 1305   5.685   3.716   2.724
  136SOL     OW 1306   3.081   4.053   6.538
  136SOL    HW1 1307   3.087   4.052   6.439
  136SOL    HW2 1308   3.173   4.047   6.577
  137SOL     OW 1309   5.364   1.622   4.706
  137SOL    HW1 1310   5.353   1.525   4.682
  137SOL    HW2 1311   5.332   1.637   4.799
  138SOL     OW 1312   0.544   4.523   3.178
  138SOL    HW1 1313   0.520   4.426   3.173
  138SOL    HW2 1314   0.529   4.566   3.089
  139SOL     OW 1315   2.696   6.773   4.855
  139SOL    HW1 1316   2.730   6.845   4.795
  139SOL    HW2 1317   2.724   6.793   4.949
  140SOL     OW 1318   0.349   5.251   3.538
  140SOL    HW1 1319   0.421   5.241   3.607
  140SOL    HW2 1320   0.372   5.197   3.457
  141SOL     OW 1321   6.318   3.330   4.782
  141SOL    HW1 1322   6.283   3.244   4.745
  141SOL    HW2 1323   6.266   3.356   4.863
  142SOL     OW 1324   1.916   4.245   0.578
  142SOL    HW1 1325   1.862   4.254   0.661
  142SOL    HW2 1326   1.878   4.172   0.521
  143SOL     OW 1327   5.502   4.412   1.727
  143SOL    HW1 1328   5.486   4.428   1.824
  143SOL    HW2 1329   5.473   4.493   1.675
  144SOL     OW 1330   1.557   6.255   6.880
  144SOL    HW1 1331   1.457   6.257   6.881
  144SOL    HW2 1332   1.591   6.306   6.800
  145SOL     OW 1333   0.367   5.190   0.250
  145SOL    HW1 1334   0.267   5.185   0.249
  145SOL    HW2 1335   0.395   5.268   0.306
  146SOL     OW 1336   4.983   0.685   6.280
  146SOL    HW1 1337   4.990   0.586   6.273
  146SOL    HW2 1338   5.050   0.728   6.219
  147SOL     OW 1339   5.894   3.712   6.516
  147SOL    HW1 1340   5.920   3.809   6.522
  147SOL    HW2 1341   5.812   3.697   6.571
  148SOL     OW 1342   0.224   5.272   6.480
  148SOL    HW1 1343   0.317   5.297   6.505
  148SOL    HW2 1344   0.163   5.350   6.493
  149SOL     OW 1345   3.039   1.996   4.672
  149SOL    HW1 1346   3.026   2.023   4.577
  149SOL    HW2 1347   3.040   2.077   4.731
  150SOL     OW 1348   5.857   5.649   6.456
  150SOL    HW1 1349   5.786   5.608   6.399
  150SOL    HW2 1350   5.815   5.695   6.534
  151SOL     OW 1351   3.534   2.462   1.104
  151SOL    HW1 1352   3.493   2.418   1.183
  151SOL    HW2 1353   3.540   2.396   1.028
  152SOL     OW 1354   1.407   1.364   3.450
  152SOL    HW1 1355   1.322   1.362   3.399
  152SOL    HW2 1356   1.454   1.450   3.434
  153SOL     OW 1357   3.051   0.469   1.863
  153SOL    HW1 1358   2.967   0.461   1.918
  153SOL    HW2 1359   3.035   0.532   1.787
  154SOL     OW 1360   0.350   2.140   3.064
  154SOL    HW1 1361   0.298   2.146   2.979
  154SOL    HW2 1362   0.287   2.126   3.140
  155SOL     OW 1363   6.610   1.652   3.599
  155SOL    HW1 1364   6.522   1.700   3.606
  155SOL    HW2 1365   6.594   1.553   3.603
  156SOL     OW 1366   6.985   1.957   0.461
  156SOL    HW1 1367   6.993   2.038   0.403
  156SOL    HW2 1368   0.053   1.941   0.508
  157SOL     OW 1369   6.294   3.219   1.808
  157SOL    HW1 1370   6.366   3.170   1.857
  157SOL    HW2 1371   6.298   3.316   1.833
  158SOL     OW 1372   2.483   5.868   1.729
  158SOL    HW1 1373   2.445   5.912   1.810
  158SOL    HW2 1374   2.575   5.833   1.749
  159SOL     OW 1375   4.497   4.563   1.959
  159SOL    HW1 1376   4.410   4.561   1.909
  159SOL    HW2 1377   4.512   4.475   2.003
  160SOL     OW 1378   6.406   5.704   0.235
  160SOL    HW1 1379   6.415   5.771   0.161
  160SOL    HW2 1380   6.492   5.655   0.246
  161SOL     OW 1381   2.035   5.596   4.755
  161SOL    HW1 1382   2.011   5.563   4.664
  161SOL    HW2 1383   1.951   5.607   4.809
  162SOL     OW 1384   4.010   6.805   6.921
  162SOL    HW1 1385   4.016   6.849   6.831
  162SOL    HW2 1386   4.092   6.751   6.937
  163SOL     OW 1387   5.328   5.858   0.924
  163SOL    HW1 1388   5.263   5.934   0.916
  163SOL    HW2 1389   5.297   5.782   0.866
  164SOL     OW 1390   6.462   4.970   0.474
  164SOL    HW1 1391   6.487   5.001   0.382
  164SOL    HW2 1392   6.454   4.871   0.475
  165SOL     OW 1393   5.427   2.747   1.687
  165SOL    HW1 1394   5.496   2.815   1.711
  165SOL    HW2 1395   5.350   2.753   1.749
  166SOL     OW 1396   6.851   5.423   3.814
  166SOL    HW1 1397   6.934   5.479   3.800
  166SOL    HW2 1398   6.874   5.326   3.804
  167SOL     OW 1399   5.782   2.613   6.853
  167SOL    HW1 1400   5.863   2.628   6.909
  167SOL    HW2 1401   5.707   2.581   6.910
  168SOL     OW 1402   2.121   3.448   1.542
  168SOL    HW1 1403   2.190   3.413   1.479
  168SOL    HW2 1404   2.138   3.411   1.634
  169SOL     OW 1405   4.205   0.626   1.875
  169SOL    HW1 1406   4.270   0.664   1.941
  169SOL    HW2 1407   4.195   0.690   1.798
  170SOL     OW 1408   0.611   0.781   3.408
  170SOL    HW1 1409   0.665   0.857   3.371
  170SOL    HW2 1410   0.540   0.817   3.468
  171SOL     OW 1411   3.902   4.702   0.720
  171SOL    HW1 1412   3.977   4.672   0.778
  171SOL    HW2 1413   3.885   4.633   0.649
  172SOL     OW 1414   6.123   1.840   4.482
  172SOL    HW1 1415   6.080   1.880   4.401
  172SOL    HW2 1416   6.217   1.814   4.461
  173SOL     OW 1417   6.797   2.278   4.490
  173SOL    HW1 1418   6.816   2.183   4.464
  173SOL    HW2 1419   6.699   2.289   4.507
  174SOL     OW 1420   3.483   5.639   4.388
  174SOL    HW1 1421   3.539   5.722   4.380
  174SOL    HW2 1422   3.542   5.558   4.386
  175SOL     OW 1423   2.353   6.883   2.181
  175SOL    HW1 1424   2.265   6.863   2.226
  175SOL    HW2 1425   2.409   6.800   2.179
  176SOL     OW 1426   1.104   4.354   1.502
  176SOL    HW1 1427   1.064   4.437   1.463
  176SOL    HW2 1428   1.148   4.376   1.589
  177SOL     OW 1429   5.607   3.052   2.797
  177SOL    HW1 1430   5.656   3.016   2.717
  177SOL    HW2 1431   5.545   3.125   2.769
  178SOL     OW 1432   3.075   2.642   6.279
  178SOL    HW1 1433   3.059   2.565   6.342
  178SOL    HW2 1434   3.079   2.608   6.185
  179SOL     OW 1435   2.657   1.561   6.170
  179SOL    HW1 1436   2.620   1.596   6.256
  179SOL    HW2 1437   2.744   1.514   6.188
  180SOL     OW 1438   1.631   0.108   6.555
  180SOL    HW1 1439   1.726   0.140   6.546
  180SOL    HW2 1440   1.606   0.055   6.474
  181SOL     OW 1441   3.434   1.978   5.968
  181SOL    HW1 1442   3.426   1.986   6.067
  181SOL    HW2 1443   3.353   1.933   5.931
  182SOL     OW 1444   3.447   1.822   4.068
  182SOL    HW1 1445   3.506   1.769   4.006
  182SOL    HW2 1446   3.374   1.865   4.016
  183SOL     OW 1447   3.396   2.016   3.461
  183SOL    HW1 1448   3.307   2.057   3.437
  183SOL    HW2 1449   3.418   1.944   3.395
  184SOL     OW 1450   1.700   6.117   4.004
  184SOL    HW1 1451   1.601   6.112   4.014
  184SOL    HW2 1452   1.740   6.143   4.092
  185SOL     OW 1453   0.513   1.890   6.552
  185SOL    HW1 1454   0.508   1.790   6.558
  185SOL    HW2 1455   0.608   1.918   6.543
  186SOL     OW 1456   5.867   1.173   3.989
  186SOL    HW1 1457   5.862   1.101   3.920
  186SOL    HW2 1458   5.850   1.262   3.946
  187SOL     OW 1459   4.499   0.703   2.883
  187SOL    HW1 1460   4.531   0.661   2.968
  187SOL    HW2 1461   4.400   0.691   2.875
  188SOL     OW 1462   0.198   1.869   2.367
  188SOL    HW1 1463   0.133   1.852   2.442
  188SOL    HW2 1464   0.291   1.866   2.402
  189SOL     OW 1465   2.101   5.073   1.756
  189SOL    HW1 1466   2.009   5.095   1.723
  189SOL    HW2 1467   2.095   5.003   1.828
  190SOL     OW 1468   4.241   1.488   4.164
  190SOL    HW1 1469   4.243   1.587   4.145
  190SOL    HW2 1470   4.173   1.445   4.106
  191SOL     OW 1471   5.590   5.911   6.676
  191SOL    HW1 1472   5.633   5.992   6.636
  191SOL    HW2 1473   5.584   5.839   6.606
  192SOL     OW 1474   0.145   5.733   1.920
  192SOL    HW1 1475   0.242   5.710   1.920
  192SOL    HW2 1476   0.092   5.657   1.957
  193SOL     OW 1477   4.476   2.683   5.829
  193SOL    HW1 1478   4.564   2.657   5.868
  193SOL    HW2 1479   4.481   2.676   5.729
  194SOL     OW 1480   3.691   0.707   2.608
  194SOL    HW1 1481   3.603   0.752   2.621
  194SOL    HW2 1482   3.675   0.610   2.588
  195SOL     OW 1483   1.897   6.765   4.877
  195SOL    HW1 1484   1.856   6.812   4.799
  195SOL    HW2 1485   1.880   6.817   4.961
  196SOL     OW 1486   2.596   1.407   6.450
  196SOL    HW1 1487   2.670   1.370   6.394
  196SOL    HW2 1488   2.628   1.417   6.545
  197SOL     OW 1489   2.133   0.418   0.670
  197SOL    HW1 1490   2.038   0.387   0.673
  197SOL    HW2 1491   2.144   0.482   0.594
  198SOL     OW 1492   4.678   0.898   2.798
  198SOL    HW1 1493   4.629   0.811   2.811
  198SOL    HW2 1494   4.683   0.918   2.700
  199SOL     OW 1495   1.128   2.102   4.097
  199SOL    HW1 1496   1.204   2.076   4.156
  199SOL    HW2 1497   1.150   2.079   4.002
  200SOL     OW 1498   1.185   3.568   0.484
  200SOL    HW1 1499   1.160   3.541   0.577
  200SOL    HW2 1500   1.153   3.662   0.467
  201SOL     OW 1501   0.401   6.193   5.615
  201SOL    HW1 1502   0.491   6.188   5.659
  201SOL    HW2 1503   0.401   6.268   5.548
  202SOL     OW 1504   3.395   1.653   6.271
  202SOL    HW1 1505   3.432   1.684   6.359
  202SOL    HW2 1506   3.354   1.731   6.223
  203SOL     OW 1507   6.259   2.092   5.310
  203SOL    HW1 1508   6.274   2.002   5.270
  203SOL    HW2 1509   6.172   2.093   5.360
  204SOL     OW 1510   0.825   0.187   4.348
  204SOL    HW1 1511   0.872   0.272   4.371
  204SOL    HW2 1512   0.760   0.203   4.274
  205SOL     OW 1513   1.040   2.525   2.920
  205SOL    HW1 1514   1.048   2.504   3.018
  205SOL    HW2 1515   0.951   2.566   2.901
  206SOL     OW 1516   0.604   3.606   1.227
  206SOL    HW1 1517   0.635   3.608   1.322
  206SOL    HW2 1518   0.650   3.678   1.176
  207SOL     OW 1519   5.523   1.281   4.098
  207SOL    HW1 1520   5.505   1.188   4.064
  207SOL    HW2 1521   5.614   1.283   4.141
  208SOL     OW 1522   0.176   4.072   5.744
  208SOL    HW1 1523   0.211   3.982   5.769
  208SOL    HW2 1524   0.081   4.063   5.712
  209SOL     OW 1525   6.920   5.110   3.315
  209SOL    HW1 1526   6.938   5.042   3.244
  209SOL    HW2 1527   7.004   5.126   3.367
  210SOL     OW 1528   4.418   2.089   0.506
  210SOL    HW1 1529   4.501   2.105   0.452
  210SOL    HW2 1530   4.344   2.061   0.445
  211SOL     OW 1531   1.261   6.317   1.979
  211SOL    HW1 1532   1.206   6.339   1.898
  211SOL    HW2 1533   1.220   6.359   2.060
  212SOL     OW 1534   1.367   3.377   2.506
  212SOL    HW1 1535   1.305   3.302   2.485
  212SOL    HW2 1536   1.343   3.416   2.596
  213SOL     OW 1537   2.572   6.376   0.745
  213SOL    HW1 1538   2.540   6.343   0.834
  213SOL    HW2 1539   2.545   6.311   0.674
  214SOL     OW 1540   3.282   5.358   3.043
  214SOL    HW1 1541   3.321   5.434   3.095
  214SOL    HW2 1542   3.243   5.393   2.958
  215SOL     OW 1543   3.039   3.762   0.959
  215SOL    HW1 1544   3.112   3.803   0.904
  215SOL    HW2 1545   3.042   3.799   1.052
  216SOL     OW 1546   0.519   6.099   3.195
  216SOL    HW1 1547   0.437   6.156   3.191
  216SOL    HW2 1548   0.581   6.124   3.121
  217SOL     OW 1549   1.559   2.384   4.905
  217SOL    HW1 1550   1.551   2.294   4.862
  217SOL    HW2 1551   1.476   2.437   4.887
  218SOL     OW 1552   0.814   2.362   4.709
  218SOL    HW1 1553   0.854   2.395   4.623
  218SOL    HW2 1554   0.716   2.347   4.696
  219SOL     OW 1555   3.833   6.840   0.325
  219SOL    HW1 1556   3.776   6.873   0.400
  219SOL    HW2 1557   3.929   6.854   0.348
  220SOL     OW 1558   2.776   0.131   1.640
  220SOL    HW1 1559   2.699   0.146   1.577
  220SOL    HW2 1560   2.745   0.147   1.734
  221SOL     OW 1561   5.738   4.060   0.993
  221SOL    HW1 1562   5.782   4.124   0.930
  221SOL    HW2 1563   5.756   4.087   1.087
  222SOL     OW 1564   1.368   4.615   5.401
  222SOL    HW1 1565   1.442   4.659   5.350
  222SOL    HW2 1566   1.307   4.684   5.439
  223SOL     OW 1567   0.034   3.187   5.983
  223SOL    HW1 1568   7.016   3.174   6.075
  223SOL    HW2 1569   0.064   3.281   5.972
  224SOL     OW 1570   3.025   1.482   6.082
  224SOL    HW1 1571   3.026   1.555   6.150
  224SOL    HW2 1572   2.979   1.515   5.999
  225SOL     OW 1573   4.330   4.444   6.704
  225SOL    HW1 1574   4.282   4.363   6.671
  225SOL    HW2 1575   4.407   4.464   6.642
  226SOL     OW 1576   0.255   1.525   5.884
  226SOL    HW1 1577   0.330   1.560   5.827
  226SOL    HW2 1578   0.175   1.510   5.827
  227SOL     OW 1579   1.036   4.010   2.139
  227SOL    HW1 1580   1.065   4.105   2.154
  227SOL    HW2 1581   1.082   3.973   2.059
  228SOL     OW 1582   1.979   0.295   2.612
  228SOL    HW1 1583   1.904   0.353   2.580
  228SOL    HW2 1584   2.043   0.279   2.537
  229SOL     OW 1585   5.687   5.530   6.301
  229SOL    HW1 1586   5.769   5.539   6.245
  229SOL    HW2 1587   5.627   5.459   6.263
  230SOL     OW 1588   4.438   5.776   4.353
  230SOL    HW1 1589   4.389   5.789   4.267
  230SOL    HW2 1590   4.504   5.851   4.365
  231SOL     OW 1591   6.090   1.134   6.642
  231SOL    HW1 1592   6.186   1.146   6.668
  231SOL    HW2 1593   6.083   1.054   6.582
  232SOL     OW 1594   7.003   3.525   6.927
  232SOL    HW1 1595   6.928   3.503   6.864
  232SOL    HW2 1596   0.040   3.599   6.888
  233SOL     OW 1597   3.865   1.203   2.768
  233SOL    HW1 1598   3.814   1.149   2.701
  233SOL    HW2 1599   3.820   1.197   2.857
  234SOL     OW 1600   5.071   0.828   6.662
  234SOL    HW1 1601   5.120   0.854   6.745
  234SOL    HW2 1602   5.117   0.750   6.618
  235SOL     OW 1603   4.860   2.958   2.335
  235SOL    HW1 1604   4.910   2.873   2.350
  235SOL    HW2 1605   4.819   2.957   2.244
  236SOL     OW 1606   5.192   3.324   6.886
  236SOL    HW1 1607   5.108   3.319   6.940
  236SOL    HW2 1608   5.248   3.244   6.905
  237SOL     OW 1609   0.086   4.299   2.297
  237SOL    HW1 1610   0.030   4.262   2.223
  237SOL    HW2 1611   0.182   4.282   2.277
  238SOL     OW 1612   6.062   1.607   0.517
  238SOL    HW1 1613   6.129   1.680   0.531
  238SOL    HW2 1614   6.095   1.545   0.446
  239SOL     OW 1615   0.911   4.289   6.967
  239SOL    HW1 1616   0.970   4.271   0.028
  239SOL    HW2 1617   0.964   4.338   6.897
  240SOL     OW 1618   0.835   2.939   3.462
  240SOL    HW1 1619   0.818   2.840   3.462
  240SOL    HW2 1620   0.751   2.988   3.440
  241SOL     OW 1621   2.989   2.233   4.788
  241SOL    HW1 1622   2.936   2.283   4.719
  241SOL    HW2 1623   3.035   2.298   4.848
  242SOL     OW 1624   3.384   3.750   4.059
  242SOL    HW1 1625   3.304   3.713   4.013
  242SOL    HW2 1626   3.403   3.842   4.025
  243SOL     OW 1627   4.782   1.076   0.163
  243SOL    HW1 1628   4.704   1.057   0.222
  243SOL    HW2 1629   4.850   1.129   0.214
  244SOL     OW 1630   6.031   3.817   5.532
  244SOL    HW1 1631   6.006   3.790   5.625
  244SOL    HW2 1632   6.129   3.835   5.528
  245SOL     OW 1633   4.612   1.888   4.287
  245SOL    HW1 1634   4.655   1.940   4.213
  245SOL    HW2 1635   4.653   1.916   4.374
  246SOL     OW 1636   4.527   2.156   3.198
  246SOL    HW1 1637   4.525   2.057   3.180
  246SOL    HW2 1638   4.492   2.174   3.289
  247SOL     OW 1639   2.692   1.912   0.771
  247SOL    HW1 1640   2.729   2.004   0.768
  247SOL    HW2 1641   2.748   1.855   0.832
  248SOL     OW 1642   3.625   1.513   3.097
  248SOL    HW1 1643   3.602   1.501   3.194
  248SOL    HW2 1644   3.559   1.575   3.055
  249SOL     OW 1645   5.396   6.773   5.130
  249SOL    HW1 1646   5.429   6.762   5.224
  249SOL    HW2 1647   5.469   6.811   5.073
  250SOL     OW 1648   4.483   3.357   0.315
  250SOL    HW1 1649   4.388   3.336   0.339
  250SOL    HW2 1650   4.524   3.280   0.266
  251SOL     OW 1651   4.441   3.537   5.331
  251SOL    HW1 1652   4.383   3.611   5.299
  251SOL    HW2 1653   4.510   3.515   5.262
  252SOL     OW 1654   6.901   6.325   5.037
  252SOL    HW1 1655   6.991   6.292   5.008
  252SOL    HW2 1656   6.912   6.396   5.107
  253SOL     OW 1657   3.463   5.489   6.291
  253SOL    HW1 1658   3.475   5.421   6.219
  253SOL    HW2 1659   3.408   5.565   6.256
  254SOL     OW 1660   6.619   2.414   4.068
  254SOL    HW1 1661   6.640   2.371   3.980
  254SOL    HW2 1662   6.574   2.347   4.128
  255SOL     OW 1663   2.598   5.162   5.379
  255SOL    HW1 1664   2.655   5.086   5.347
  255SOL    HW2 1665   2.644   5.249   5.359
  256SOL     OW 1666   5.645   4.233   6.189
  256SOL    HW1 1667   5.681   4.323   6.165
  256SOL    HW2 1668   5.555   4.221   6.146
  257SOL     OW 1669   5.079   0.708   3.346
  257SOL    HW1 1670   5.041   0.781   3.290
  257SOL    HW2 1671   5.013   0.634   3.355
  258SOL     OW 1672   2.174   4.766   5.100
  258SOL    HW1 1673   2.209   4.699   5.034
  258SOL    HW2 1674   2.081   4.742   5.126
  259SOL     OW 1675   6.386   1.266   2.793
  259SOL    HW1 1676   6.421   1.342   2.738
  259SOL    HW2 1677   6.416   1.179   2.754
  260SOL     OW 1678   4.295   6.465   2.824
  260SOL    HW1 1679   4.301   6.379   2.876
  260SOL    HW2 1680   4.203   6.474   2.786
  261SOL     OW 1681   6.123   3.525   0.716
  261SOL    HW1 1682   6.100   3.576   0.799
  261SOL    HW2 1683   6.040   3.511   0.662
  262SOL     OW 1684   1.183   3.810   6.923
  262SOL    HW1 1685   1.132   3.893   6.903
  262SOL    HW2 1686   1.167   3.783   7.018
  263SOL     OW 1687   2.048   0.419   4.968
  263SOL    HW1 1688   1.949   0.410   4.964
  263SOL    HW2 1689   2.072   0.511   5.001
  264SOL     OW 1690   6.108   3.020   6.523
  264SOL    HW1 1691   6.032   3.007   6.459
  264SOL    HW2 1692   6.129   3.117   6.531
  265SOL     OW 1693   5.356   6.661   2.897
  265SOL    HW1 1694   5.368   6.753   2.860
  265SOL    HW2 1695   5.431   6.603   2.866
  266SOL     OW 1696   3.892   2.792   5.722
  266SOL    HW1 1697   3.918   2.773   5.628
  266SOL    HW2 1698   3.954   2.860   5.761
  267SOL     OW 1699   0.517   1.765   5.825
  267SOL    HW1 1700   0.470   1.696   5.769
  267SOL    HW2 1701   0.615   1.746   5.825
  268SOL     OW 1702   3.370   1.191   6.268
  268SOL    HW1 1703   3.276   1.226   6.263
  268SOL    HW2 1704   3.384   1.126   6.194
  269SOL     OW 1705   1.610   3.859   1.163
  269SOL    HW1 1706   1.627   3.809   1.248
  269SOL    HW2 1707   1.681   3.838   1.097
  270SOL     OW 1708   1.264   6.022   0.558
  270SOL    HW1 1709   1.362   6.002   0.549
  270SOL    HW2 1710   1.220   5.949   0.610
  271SOL     OW 1711   6.928   1.192   6.386
  271SOL    HW1 1712   6.988   1.131   6.436
  271SOL    HW2 1713   6.941   1.180   6.287
  272SOL     OW 1714   3.880   5.844   4.190
  272SOL    HW1 1715   3.888   5.936   4.151
  272SOL    HW2 1716   3.861   5.851   4.288
  273SOL     OW 1717   2.493   4.701   4.464
  273SOL    HW1 1718   2.516   4.649   4.381
  273SOL    HW2 1719   2.446   4.641   4.528
  274SOL     OW 1720   4.043   1.742   3.035
  274SOL    HW1 1721   4.063   1.722   2.939
  274SOL    HW2 1722   3.987   1.668   3.073
  275SOL     OW 1723   6.619   5.467   3.672
  275SOL    HW1 1724   6.572   5.381   3.691
  275SOL    HW2 1725   6.708   5.468   3.717
  276SOL     OW 1726   0.028   6.601   2.430
  276SOL    HW1 1727   0.047   6.527   2.366
  276SOL    HW2 1728   7.003   6.565   2.512
  277SOL     OW 1729   1.062   3.813   0.419
  277SOL    HW1 1730   0.996   3.749   0.460
  277SOL    HW2 1731   1.016   3.900   0.399
  278SOL     OW 1732   0.187   4.398   1.463
  278SOL    HW1 1733   0.285   4.396   1.442
  278SOL    HW2 1734   0.163   4.488   1.500
  279SOL     OW 1735   5.786   2.909   4.366
  279SOL    HW1 1736   5.859   2.930   4.301
  279SOL    HW2 1737   5.700   2.897   4.316
  280SOL     OW 1738   2.506   5.587   3.032
  280SOL    HW1 1739   2.596   5.619   3.003
  280SOL    HW2 1740   2.442   5.665   3.033
  281SOL     OW 1741   2.459   4.435   1.825
  281SOL    HW1 1742   2.483   4.484   1.741
  281SOL    HW2 1743   2.474   4.337   1.812
  282SOL     OW 1744   3.443   1.448   5.433
  282SOL    HW1 1745   3.415   1.536   5.469
  282SOL    HW2 1746   3.537   1.453   5.401
  283SOL     OW 1747   5.819   2.618   6.424
  283SOL    HW1 1748   5.761   2.628   6.343
  283SOL    HW2 1749   5.914   2.604   6.396
  284SOL     OW 1750   1.255   3.973   3.592
  284SOL    HW1 1751   1.251   3.908   3.515
  284SOL    HW2 1752   1.350   4.002   3.605
  285SOL     OW 1753   5.711   5.131   4.171
  285SOL    HW1 1754   5.798   5.123   4.220
  285SOL    HW2 1755   5.704   5.059   4.103
  286SOL     OW 1756   3.132   4.768   6.716
  286SOL    HW1 1757   3.165   4.750   6.623
  286SOL    HW2 1758   3.205   4.811   6.769
  287SOL     OW 1759   1.186   3.285   1.103
  287SOL    HW1 1760   1.100   3.242   1.076
  287SOL    HW2 1761   1.171   3.381   1.123
  288SOL     OW 1762   3.191   1.560   6.986
  288SOL    HW1 1763   3.238   1.478   0.002
  288SOL    HW2 1764   3.194   1.559   6.886
  289SOL     OW 1765   2.160   4.194   6.016
  289SOL    HW1 1766   2.201   4.115   5.971
  289SOL    HW2 1767   2.127   4.258   5.947
  290SOL     OW 1768   6.696   2.029   4.689
  290SOL    HW1 1769   6.608   2.022   4.735
  290SOL    HW2 1770   6.769   2.034   4.757
  291SOL     OW 1771   1.256   2.120   4.806
  291SOL    HW1 1772   1.341   2.133   4.755
  291SOL    HW2 1773   1.179   2.114   4.742
  292SOL     OW 1774   1.686   2.174   3.107
  292SOL    HW1 1775   1.767   2.134   3.065
  292SOL    HW2 1776   1.630   2.218   3.036
  293SOL     OW 1777   4.263   6.012   3.293
  293SOL    HW1 1778   4.191   5.983   3.230
  293SOL    HW2 1779   4.331   5.939   3.301
  294SOL     OW 1780   0.319   6.019   6.527
  294SOL    HW1 1781   0.331   5.923   6.505
  294SOL    HW2 1782   0.274   6.029   6.616
  295SOL     OW 1783   3.723   1.075   3.684
  295SOL    HW1 1784   3.779   1.100   3.763
  295SOL    HW2 1785   3.675   1.155   3.651
  296SOL     OW 1786   3.788   1.851   2.949
  296SOL    HW1 1787   3.745   1.878   2.863
  296SOL    HW2 1788   3.880   1.816   2.930
  297SOL     OW 1789   2.527   4.627   4.059
  297SOL    HW1 1790   2.480   4.565   4.122
  297SOL    HW2 1791   2.603   4.671   4.106
  298SOL     OW 1792   3.879   5.781   2.261
  298SOL    HW1 1793   3.808   5.767   2.331
  298SOL    HW2 1794   3.841   5.836   2.186
  299SOL     OW 1795   5.536   3.437   6.272
  299SOL    HW1 1796   5.525   3.352   6.323
  299SOL    HW2 1797   5.454   3.454   6.218
  300SOL     OW 1798   5.952   1.065   2.606
  300SOL    HW1 1799   5.883   1.069   2.534
  300SOL    HW2 1800   5.911   1.090   2.694
  301SOL     OW 1801   4.786   3.544   1.348
  301SOL    HW1 1802   4.807   3.449   1.325
  301SOL    HW2 1803   4.852   3.577   1.415
  302SOL     OW 1804   1.178   0.385   2.886
  302SOL    HW1 1805   1.200   0.477   2.852
  302SOL    HW2 1806   1.127   0.393   2.972
  303SOL     OW 1807   6.180   0.673   2.373
  303SOL    HW1 1808   6.159   0.756   2.425
  303SOL    HW2 1809   6.274   0.678   2.339
  304SOL     OW 1810   1.989   0.268   3.260
  304SOL    HW1 1811   2.081   0.301   3.243
  304SOL    HW2 1812   1.975   0.181   3.212
  305SOL     OW 1813   0.299   3.508   0.171
  305SOL    HW1 1814   0.261   3.455   0.095
  305SOL    HW2 1815   0.355   3.582   0.135
  306SOL     OW 1816   1.582   0.665   3.602
  306SOL    HW1 1817   1.645   0.607   3.550
  306SOL    HW2 1818   1.553   0.742   3.545
  307SOL     OW 1819   4.749   6.577   0.883
  307SOL    HW1 1820   4.665   6.593   0.935
  307SOL    HW2 1821   4.800   6.501   0.923
  308SOL     OW 1822   6.716   3.513   4.827
  308SOL    HW1 1823   6.642   3.580   4.840
  308SOL    HW2 1824   6.717   3.450   4.905
  309SOL     OW 1825   4.058   4.049   5.749
  309SOL    HW1 1826   4.124   4.019   5.818
  309SOL    HW2 1827   3.969   4.006   5.768
  310SOL     OW 1828   6.336   6.547   5.962
  310SOL    HW1 1829   6.304   6.452   5.967
  310SOL    HW2 1830   6.414   6.558   6.024
  311SOL     OW 1831   6.611   4.923   1.656
  311SOL    HW1 1832   6.516   4.890   1.654
  311SOL    HW2 1833   6.648   4.923   1.563
  312SOL     OW 1834   4.840   2.344   5.926
  312SOL    HW1 1835   4.773   2.282   5.884
  312SOL    HW2 1836   4.931   2.326   5.888
  313SOL     OW 1837   2.837   4.209   1.716
  313SOL    HW1 1838   2.871   4.260   1.795
  313SOL    HW2 1839   2.893   4.231   1.636
  314SOL     OW 1840   3.489   5.602   0.441
  314SOL    HW1 1841   3.403   5.590   0.391
  314SOL    HW2 1842   3.544   5.673   0.398
  315SOL     OW 1843   1.003   2.432   3.510
  315SOL    HW1 1844   0.918   2.387   3.484
  315SOL    HW2 1845   1.008   2.522   3.466
  316SOL     OW 1846   2.019   1.935   4.374
  316SOL    HW1 1847   1.969   1.972   4.453
  316SOL    HW2 1848   2.116   1.927   4.397
  317SOL     OW 1849   0.909   1.393   0.033
  317SOL    HW1 1850   0.960   1.333   0.094
  317SOL    HW2 1851   0.826   1.425   0.078
  318SOL     OW 1852   1.041   4.827   0.854
  318SOL    HW1 1853   1.078   4.735   0.868
  318SOL    HW2 1854   1.090   4.872   0.780
  319SOL     OW 1855   0.284   0.365   2.307
  319SOL    HW1 1856   0.366   0.312   2.285
  319SOL    HW2 1857   0.304   0.462   2.298
  320SOL     OW 1858   5.093   2.423   0.028
  320SOL    HW1 1859   5.108   2.520   0.044
  320SOL    HW2 1860   5.150   2.391   6.970
  321SOL     OW 1861   2.556   1.230   2.211
  321SOL    HW1 1862   2.521   1.290   2.283
  321SOL    HW2 1863   2.498   1.238   2.130
  322SOL     OW 1864   2.989   3.501   4.327
  322SOL    HW1 1865   2.961   3.595   4.306
  322SOL    HW2 1866   3.087   3.491   4.309
  323SOL     OW 1867   0.814   4.032   6.940
  323SOL    HW1 1868   0.825   4.131   6.948
  323SOL    HW2 1869   0.728   4.011   6.894
  324SOL     OW 1870   1.533   3.007   3.999
  324SOL    HW1 1871   1.440   3.043   3.995
  324SOL    HW2 1872   1.565   2.986   3.907
  325SOL     OW 1873   1.789   2.898   1.283
  325SOL    HW1 1874   1.714   2.915   1.219
  325SOL    HW2 1875   1.814   2.801   1.280
  326SOL     OW 1876   1.795   5.844   0.043
  326SOL    HW1 1877   1.818   5.772   6.995
  326SOL    HW2 1878   1.872   5.906   0.053
  327SOL     OW 1879   0.525   5.094   3.696
  327SOL    HW1 1880   0.455   5.021   3.699
  327SOL    HW2 1881   0.545   5.124   3.789
  328SOL     OW 1882   3.369   5.000   2.781
  328SOL    HW1 1883   3.305   4.982   2.856
  328SOL    HW2 1884   3.460   5.017   2.818
  329SOL     OW 1885   3.299   4.137   3.696
  329SOL    HW1 1886   3.269   4.155   3.602
  329SOL    HW2 1887   3.300   4.038   3.713
  330SOL     OW 1888   3.352   5.939   1.993
  330SOL    HW1 1889   3.433   5.998   1.988
  330SOL    HW2 1890   3.284   5.971   1.927
  331SOL     OW 1891   4.832   5.016   6.609
  331SOL    HW1 1892   4.889   4.978   6.536
  331SOL    HW2 1893   4.873   5.102   6.641
  332SOL     OW 1894   3.653   2.100   4.195
  332SOL    HW1 1895   3.672   2.179   4.137
  332SOL    HW2 1896   3.614   2.027   4.139
  333SOL     OW 1897   3.633   0.171   0.294
  333SOL    HW1 1898   3.724   0.133   0.277
  333SOL    HW2 1899   3.630   0.213   0.385
  334SOL     OW 1900   2.809   6.777   1.164
  334SOL    HW1 1901   2.749   6.851   1.134
  334SOL    HW2 1902   2.803   6.701   1.099
  335SOL     OW 1903   3.008   6.180   3.935
  335SOL    HW1 1904   3.068   6.104   3.907
  335SOL    HW2 1905   2.916   6.165   3.899
  336SOL     OW 1906   2.075   0.635   3.680
  336SOL    HW1 1907   2.150   0.660   3.619
  336SOL    HW2 1908   2.057   0.711   3.743
  337SOL     OW 1909   7.001   3.712   1.237
  337SOL    HW1 1910   0.032   3.636   1.197
  337SOL    HW2 1911   6.913   3.723   1.191
  338SOL     OW 1912   2.980   3.094   1.522
  338SOL    HW1 1913   2.932   3.074   1.607
  338SOL    HW2 1914   3.027   3.182   1.530
  339SOL     OW 1915   4.131   0.018   3.706
  339SOL    HW1 1916   4.124   0.106   3.659
  339SOL    HW2 1917   4.148   0.034   3.804
  340SOL     OW 1918   5.308   4.067   4.976
  340SOL    HW1 1919   5.389   4.023   5.014
  340SOL    HW2 1920   5.320   4.167   4.978
  341SOL     OW 1921   6.136   6.706   3.979
  341SOL    HW1 1922   6.222   6.727   3.934
  341SOL    HW2 1923   6.100   6.789   4.023
  342SOL     OW 1924   5.884   4.166   0.250
  342SOL    HW1 1925   5.797   4.127   0.281
  342SOL    HW2 1926   5.884   4.265   0.266
  343SOL     OW 1927   3.127   5.800   1.637
  343SOL    HW1 1928   3.189   5.840   1.570
  343SOL    HW2 1929   3.074   5.727   1.594
  344SOL     OW 1930   2.529   5.315   1.327
  344SOL    HW1 1931   2.599   5.385   1.319
  344SOL    HW2 1932   2.475   5.332   1.410
  345SOL     OW 1933   0.006   0.490   5.617
  345SOL    HW1 1934   0.078   0.424   5.598
  345SOL    HW2 1935   6.943   0.441   5.649
  346SOL     OW 1936   2.071   6.994   2.081
  346SOL    HW1 1937   1.997   0.042   2.066
  346SOL    HW2 1938   2.057   6.948   2.168
  347SOL     OW 1939   4.989   0.248   6.242
  347SOL    HW1 1940   5.029   0.293   6.322
  347SOL    HW2 1941   4.995   0.310   6.164
  348SOL     OW 1942   4.369   4.832   1.797
  348SOL    HW1 1943   4.325   4.758   1.848
  348SOL    HW2 1944   4.356   4.818   1.699
  349SOL     OW 1945   0.084   4.746   2.267
  349SOL    HW1 1946   0.045   4.703   2.348
  349SOL    HW2 1947   0.014   4.752   2.195
  350SOL     OW 1948   3.642   3.807   1.769
  350SOL    HW1 1949   3.679   3.815   1.862
  350SOL    HW2 1950   3.554   3.854   1.764
  351SOL     OW 1951   2.745   2.479   0.749
  351SOL    HW1 1952   2.752   2.550   0.678
  351SOL    HW2 1953   2.724   2.523   0.837
  352SOL     OW 1954   3.752   0.039   4.811
  352SOL    HW1 1955   3.763   0.135   4.788
  352SOL    HW2 1956   3.747   7.003   4.727
  353SOL     OW 1957   2.552   0.287   0.753
  353SOL    HW1 1958   2.535   0.189   0.758
  353SOL    HW2 1959   2.467   0.336   0.772
  354SOL     OW 1960   4.100   2.638   0.489
  354SOL    HW1 1961   4.017   2.679   0.528
  354SOL    HW2 1962   4.129   2.691   0.409
  355SOL     OW 1963   6.372   3.144   2.740
  355SOL    HW1 1964   6.442   3.171   2.807
  355SOL    HW2 1965   6.397   3.056   2.701
  356SOL     OW 1966   4.146   5.556   4.820
  356SOL    HW1 1967   4.152   5.646   4.778
  356SOL    HW2 1968   4.060   5.548   4.871
  357SOL     OW 1969   6.946   6.664   5.061
  357SOL    HW1 1970   6.937   6.602   5.139
  357SOL    HW2 1971   7.013   6.735   5.082
  358SOL     OW 1972   6.267   0.172   1.219
  358SOL    HW1 1973   6.230   0.100   1.160
  358SOL    HW2 1974   6.255   0.147   1.315
  359SOL     OW 1975   1.394   2.558   2.438
  359SOL    HW1 1976   1.408   2.604   2.525
  359SOL    HW2 1977   1.480   2.555   2.387
  360SOL     OW 1978   2.973   6.188   6.566
  360SOL    HW1 1979   2.930   6.273   6.537
  360SOL    HW2 1980   2.992   6.131   6.485
  361SOL     OW 1981   5.816   5.781   2.947
  361SOL    HW1 1982   5.868   5.697   2.928
  361SOL    HW2 1983   5.835   5.849   2.877
  362SOL     OW 1984   3.424   4.096   0.588
  362SOL    HW1 1985   3.416   4.074   0.491
  362SOL    HW2 1986   3.367   4.175   0.609
  363SOL     OW 1987   3.553   5.348   3.978
  363SOL    HW1 1988   3.457   5.341   3.952
  363SOL    HW2 1989   3.610   5.308   3.906
  364SOL     OW 1990   0.373   5.563   5.062
  364SOL    HW1 1991   0.333   5.503   4.992
  364SOL    HW2 1992   0.345   5.532   5.152
  365SOL     OW 1993   4.445   6.601   3.001
  365SOL    HW1 1994   4.392   6.547   2.935
  365SOL    HW2 1995   4.400   6.690   3.014
  366SOL     OW 1996   5.519   1.185   0.419
  366SOL    HW1 1997   5.555   1.116   0.482
  366SOL    HW2 1998   5.596   1.232   0.374
  367SOL     OW 1999   5.092   2.980   0.732
  367SOL    HW1 2000   5.056   2.931   0.653
  367SOL    HW2 2001   5.091   2.920   0.812
  368SOL     OW 2002   1.180   4.529   4.817
  368SOL    HW1 2003   1.125   4.455   4.854
  368SOL    HW2 2004   1.186   4.603   4.884
  369SOL     OW 2005   6.543   4.560   1.977
  369SOL    HW1 2006   6.479   4.561   2.054
  369SOL    HW2 2007   6.636   4.549   2.011
  370SOL     OW 2008   2.591   1.239   5.062
  370SOL    HW1 2009   2.601   1.338   5.075
  370SOL    HW2 2010   2.667   1.205   5.007
  371SOL     OW 2011   1.923   3.784   6.475
  371SOL    HW1 2012   1.991   3.858   6.473
  371SOL    HW2 2013   1.935   3.730   6.558
  372SOL     OW 2014   6.926   0.337   5.006
  372SOL    HW1 2015   6.882   0.248   4.995
  372SOL    HW2 2016   6.989   0.333   5.084
  373SOL     OW 2017   0.222   6.832   5.835
  373SOL    HW1 2018   0.298   6.779   5.797
  373SOL    HW2 2019   0.232   6.838   5.934
  374SOL     OW 2020   4.148   6.985   2.013
  374SOL    HW1 2021   4.090   6.903   2.006
  374SOL    HW2 2022   4.178   6.995   2.108
  375SOL     OW 2023   6.788   4.702   3.774
  375SOL    HW1 2024   6.836   4.670   3.856
  375SOL    HW2 2025   6.804   4.638   3.699
  376SOL     OW 2026   1.479   3.232   3.582
  376SOL    HW1 2027   1.465   3.272   3.672
  376SOL    HW2 2028   1.393   3.191   3.550
  377SOL     OW 2029   5.731   2.950   2.576
  377SOL    HW1 2030   5.766   3.021   2.516
  377SOL    HW2 2031   5.742   2.861   2.532
  378SOL     OW 2032   4.049   3.225   5.457
  378SOL    HW1 2033   4.065   3.131   5.427
  378SOL    HW2 2034   4.130   3.259   5.504
  379SOL     OW 2035   5.575   3.206   1.200
  379SOL    HW1 2036   5.641   3.178   1.269
  379SOL    HW2 2037   5.566   3.135   1.131
  380SOL     OW 2038   2.200   1.679   1.643
  380SOL    HW1 2039   2.111   1.693   1.687
  380SOL    HW2 2040   2.212   1.583   1.621
  381SOL     OW 2041   2.174   4.414   1.922
  381SOL    HW1 2042   2.206   4.370   1.838
  381SOL    HW2 2043   2.250   4.465   1.963
  382SOL     OW 2044   3.783   6.041   0.059
  382SOL    HW1 2045   3.741   6.018   6.990
  382SOL    HW2 2046   3.787   5.959   0.116
  383SOL     OW 2047   6.393   2.836   6.490
  383SOL    HW1 2048   6.317   2.898   6.510
  383SOL    HW2 2049   6.380   2.749   6.538
  384SOL     OW 2050   1.181   4.707   5.027
  384SOL    HW1 2051   1.126   4.784   4.995
  384SOL    HW2 2052   1.239   4.738   5.103
  385SOL     OW 2053   5.117   6.596   6.992
  385SOL    HW1 2054   5.134   6.630   0.066
  385SOL    HW2 2055   5.072   6.507   6.996
  386SOL     OW 2056   4.096   6.821   5.564
  386SOL    HW1 2057   4.126   6.839   5.471
  386SOL    HW2 2058   4.117   6.726   5.588
  387SOL     OW 2059   0.260   6.943   4.033
  387SOL    HW1 2060   0.271   0.023   4.016
  387SOL    HW2 2061   0.169   6.926   4.072
  388SOL     OW 2062   6.939   2.202   5.378
  388SOL    HW1 2063   6.867   2.137   5.402
  388SOL    HW2 2064   7.004   2.209   5.454
  389SOL     OW 2065   4.270   4.333   1.693
  389SOL    HW1 2066   4.208   4.256   1.687
  389SOL    HW2 2067   4.350   4.307   1.747
  390SOL     OW 2068   3.340   1.052   0.559
  390SOL    HW1 2069   3.358   1.007   0.646
  390SOL    HW2 2070   3.376   0.996   0.484
  391SOL     OW 2071   2.772   4.045   5.640
  391SOL    HW1 2072   2.786   4.127   5.585
  391SOL    HW2 2073   2.680   4.008   5.624
  392SOL     OW 2074   1.702   3.393   2.263
  392SOL    HW1 2075   1.608   3.411   2.234
  392SOL    HW2 2076   1.762   3.464   2.227
  393SOL     OW 2077   0.752   4.339   0.827
  393SOL    HW1 2078   0.802   4.347   0.913
  393SOL    HW2 2079   0.777   4.414   0.766
  394SOL     OW 2080   0.097   3.375   0.331
  394SOL    HW1 2081   0.092   3.277   0.351
  394SOL    HW2 2082   0.188   3.397   0.295
  395SOL     OW 2083   5.488   4.179   2.331
  395SOL    HW1 2084   5.439   4.233   2.400
  395SOL    HW2 2085   5.518   4.238   2.257
  396SOL     OW 2086   2.746   2.105   1.971
  396SOL    HW1 2087   2.793   2.025   1.934
  396SOL    HW2 2088   2.812   2.163   2.018
  397SOL     OW 2089   4.739   1.298   5.435
  397SOL    HW1 2090   4.701   1.382   5.394
  397SOL    HW2 2091   4.694   1.281   5.523
  398SOL     OW 2092   0.921   6.948   4.287
  398SOL    HW1 2093   0.894   0.021   4.320
  398SOL    HW2 2094   0.959   6.956   4.195
  399SOL     OW 2095   5.824   6.163   3.907
  399SOL    HW1 2096   5.737   6.138   3.864
  399SOL    HW2 2097   5.856   6.086   3.962
  400SOL     OW 2098   6.416   0.052   4.784
  400SOL    HW1 2099   6.341   7.012   4.812
  400SOL    HW2 2100   6.480   0.000   4.727
  401SOL     OW 2101   6.469   0.852   5.886
  401SOL    HW1 2102   6.554   0.805   5.912
  401SOL    HW2 2103   6.489   0.948   5.867
  402SOL     OW 2104   6.037   0.471   2.481
  402SOL    HW1 2105   6.088   0.540   2.430
  402SOL    HW2 2106   6.058   0.479   2.578
  403SOL     OW 2107   2.565   0.367   5.917
  403SOL    HW1 2108   2.511   0.430   5.973
  403SOL    HW2 2109   2.577   0.281   5.967
  404SOL     OW 2110   3.733   6.644   5.591
  404SOL    HW1 2111   3.765   6.737   5.610
  404SOL    HW2 2112   3.636   6.636   5.617
  405SOL     OW 2113   1.778   3.833   3.649
  405SOL    HW1 2114   1.828   3.885   3.580
  405SOL    HW2 2115   1.840   3.808   3.723
  406SOL     OW 2116   0.740   5.464   5.047
  406SOL    HW1 2117   0.722   5.561   5.036
  406SOL    HW2 2118   0.681   5.412   4.985
  407SOL     OW 2119   1.717   3.436   3.606
  407SOL    HW1 2120   1.773   3.490   3.544
  407SOL    HW2 2121   1.679   3.358   3.557
  408SOL     OW 2122   3.679   1.923   2.709
  408SOL    HW1 2123   3.711   1.995   2.647
  408SOL    HW2 2124   3.579   1.920   2.708
  409SOL     OW 2125   0.677   3.669   1.910
  409SOL    HW1 2126   0.772   3.685   1.936
  409SOL    HW2 2127   0.634   3.756   1.887
  410SOL     OW 2128   1.663   2.332   1.334
  410SOL    HW1 2129   1.598   2.373   1.398
  410SOL    HW2 2130   1.751   2.317   1.380
  411SOL     OW 2131   0.118   2.109   2.003
  411SOL    HW1 2132   0.211   2.121   1.968
  411SOL    HW2 2133   0.121   2.104   2.103
  412SOL     OW 2134   2.829   4.761   2.932
  412SOL    HW1 2135   2.754   4.720   2.881
  412SOL    HW2 2136   2.877   4.827   2.873
  413SOL     OW 2137   3.711   4.881   2.377
  413SOL    HW1 2138   3.662   4.931   2.305
  413SOL    HW2 2139   3.645   4.834   2.436
  414SOL     OW 2140   2.925   6.847   4.042
  414SOL    HW1 2141   2.850   6.819   4.102
  414SOL    HW2 2142   3.000   6.884   4.097
  415SOL     OW 2143   6.710   1.329   0.182
  415SOL    HW1 2144   6.634   1.371   0.233
  415SOL    HW2 2145   6.724   1.380   0.097
  416SOL     OW 2146   5.105   3.873   5.093
  416SOL    HW1 2147   5.151   3.788   5.067
  416SOL    HW2 2148   5.128   3.945   5.027
  417SOL     OW 2149   2.710   2.237   6.903
  417SOL    HW1 2150   2.741   2.295   6.978
  417SOL    HW2 2151   2.654   2.162   6.939
  418SOL     OW 2152   3.428   7.007   4.397
  418SOL    HW1 2153   3.513   6.980   4.353
  418SOL    HW2 2154   3.353   7.001   4.331
  419SOL     OW 2155   0.274   6.961   1.602
  419SOL    HW1 2156   0.302   6.874   1.643
  419SOL    HW2 2157   0.185   6.988   1.638
  420SOL     OW 2158   5.473   0.780   6.666
  420SOL    HW1 2159   5.560   0.791   6.715
  420SOL    HW2 2160   5.490   0.732   6.580
  421SOL     OW 2161   5.048   4.190   4.692
  421SOL    HW1 2162   5.052   4.091   4.710
  421SOL    HW2 2163   4.956   4.223   4.709
  422SOL     OW 2164   4.820   2.152   1.594
  422SOL    HW1 2165   4.823   2.071   1.535
  422SOL    HW2 2166   4.899   2.210   1.575
  423SOL     OW 2167   3.020   1.005   6.118
  423SOL    HW1 2168   2.943   0.955   6.077
  423SOL    HW2 2169   3.054   0.955   6.197
  424SOL     OW 2170   1.549   4.545   2.972
  424SOL    HW1 2171   1.615   4.613   3.006
  424SOL    HW2 2172   1.474   4.537   3.037
  425SOL     OW 2173   4.612   0.892   4.831
  425SOL    HW1 2174   4.695   0.881   4.886
  425SOL    HW2 2175   4.537   0.924   4.890
  426SOL     OW 2176   2.723   2.126   4.920
  426SOL    HW1 2177   2.780   2.142   4.839
  426SOL    HW2 2178   2.781   2.121   5.001
  427SOL     OW 2179   4.576   1.546   3.533
  427SOL    HW1 2180   4.528   1.522   3.618
  427SOL    HW2 2181   4.642   1.619   3.552
  428SOL     OW 2182   2.999   1.083   5.010
  428SOL    HW1 2183   2.963   0.990   5.013
  428SOL    HW2 2184   3.034   1.108   5.101
  429SOL     OW 2185   1.151   6.098   3.841
  429SOL    HW1 2186   1.236   6.070   3.796
  429SOL    HW2 2187   1.077   6.037   3.812
  430SOL     OW 2188   1.894   6.910   3.977
  430SOL    HW1 2189   1.842   6.992   4.003
  430SOL    HW2 2190   1.978   6.906   4.030
  431SOL     OW 2191   2.880   2.066   1.105
  431SOL    HW1 2192   2.795   2.057   1.158
  431SOL    HW2 2193   2.942   2.128   1.152
  432SOL     OW 2194   4.579   2.006   1.767
  432SOL    HW1 2195   4.552   2.034   1.675
  432SOL    HW2 2196   4.664   2.052   1.792
  433SOL     OW 2197   3.099   6.514   6.618
  433SOL    HW1 2198   3.062   6.484   6.530
  433SOL    HW2 2199   3.104   6.614   6.620
  434SOL     OW 2200   3.835   6.625   3.736
  434SOL    HW1 2201   3.844   6.714   3.691
  434SOL    HW2 2202   3.867   6.631   3.831
  435SOL     OW 2203   3.647   1.762   6.104
  435SOL    HW1 2204   3.743   1.766   6.130
  435SOL    HW2 2205   3.597   1.836   6.150
  436SOL     OW 2206   3.714   6.248   3.425
  436SOL    HW1 2207   3.745   6.180   3.359
  436SOL    HW2 2208   3.615   6.239   3.439
  437SOL     OW 2209   0.193   0.385   4.279
  437SOL    HW1 2210   0.112   0.349   4.234
  437SOL    HW2 2211   0.174   0.396   4.377
  438SOL     OW 2212   1.028   5.012   2.896
  438SOL    HW1 2213   1.043   5.061   2.982
  438SOL    HW2 2214   1.063   5.067   2.820
  439SOL     OW 2215   6.095   0.424   2.783
  439SOL    HW1 2216   6.136   0.471   2.862
  439SOL    HW2 2217   6.140   0.335   2.771
  440SOL     OW 2218   4.165   0.208   0.206
  440SOL    HW1 2219   4.245   0.268   0.212
  440SOL    HW2 2220   4.194   0.119   0.170
  441SOL     OW 2221   6.603   4.123   2.729
  441SOL    HW1 2222   6.537   4.138   2.655
  441SOL    HW2 2223   6.555   4.120   2.817
  442SOL     OW 2224   5.221   3.571   5.654
  442SOL    HW1 2225   5.308   3.549   5.610
  442SOL    HW2 2226   5.181   3.652   5.611
  443SOL     OW 2227   5.088   4.178   3.443
  443SOL    HW1 2228   5.153   4.192   3.369
  443SOL    HW2 2229   5.089   4.257   3.505
  444SOL     OW 2230   3.945   1.230   1.141
  444SOL    HW1 2231   3.986   1.174   1.213
  444SOL    HW2 2232   4.004   1.229   1.061
  445SOL     OW 2233   2.084   5.591   3.025
  445SOL    HW1 2234   2.118   5.591   3.119
  445SOL    HW2 2235   2.153   5.552   2.965
  446SOL     OW 2236   5.880   5.978   2.760
  446SOL    HW1 2237   5.977   5.996   2.775
  446SOL    HW2 2238   5.853   6.012   2.670
  447SOL     OW 2239   6.086   3.933   6.733
  447SOL    HW1 2240   6.153   4.005   6.751
  447SOL    HW2 2241   6.014   3.969   6.673
  448SOL     OW 2242   3.063   1.349   2.549
  448SOL    HW1 2243   2.976   1.376   2.508
  448SOL    HW2 2244   3.136   1.356   2.482
  449SOL     OW 2245   1.683   2.621   3.848
  449SOL    HW1 2246   1.630   2.566   3.783
  449SOL    HW2 2247   1.650   2.715   3.847
  450SOL     OW 2248   1.027   4.506   2.753
  450SOL    HW1 2249   1.042   4.553   2.839
  450SOL    HW2 2250   1.114   4.497   2.705
  451SOL     OW 2251   0.866   2.058   3.565
  451SOL    HW1 2252   0.957   2.093   3.587
  451SOL    HW2 2253   0.871   1.997   3.486
  452SOL     OW 2254   3.834   6.689   3.205
  452SOL    HW1 2255   3.927   6.666   3.175
  452SOL    HW2 2256   3.783   6.604   3.221
  453SOL     OW 2257   4.170   6.811   0.195
  453SOL    HW1 2258   4.111   6.731   0.206
  453SOL    HW2 2259   4.221   6.804   0.110
  454SOL     OW 2260   0.133   4.754   6.394
  454SOL    HW1 2261   0.198   4.804   6.336
  454SOL    HW2 2262   0.184   4.703   6.463
  455SOL     OW 2263   6.713   4.530   5.835
  455SOL    HW1 2264   6.639   4.596   5.819
  455SOL    HW2 2265   6.793   4.578   5.871
  456SOL     OW 2266   2.134   0.945   3.069
  456SOL    HW1 2267   2.188   1.008   3.125
  456SOL    HW2 2268   2.174   0.940   2.977
  457SOL     OW 2269   2.152   5.869   6.251
  457SOL    HW1 2270   2.117   5.915   6.170
  457SOL    HW2 2271   2.198   5.935   6.310
  458SOL     OW 2272   2.336   1.099   3.266
  458SOL    HW1 2273   2.340   1.087   3.365
  458SOL    HW2 2274   2.415   1.152   3.236
  459SOL     OW 2275   2.392   6.926   5.092
  459SOL    HW1 2276   2.467   6.965   5.039
  459SOL    HW2 2277   2.346   6.998   5.144
  460SOL     OW 2278   1.589   1.731   5.195
  460SOL    HW1 2279   1.645   1.685   5.264
  460SOL    HW2 2280   1.609   1.692   5.105
  461SOL     OW 2281   0.502   4.752   5.560
  461SOL    HW1 2282   0.408   4.777   5.583
  461SOL    HW2 2283   0.537   4.687   5.628
  462SOL     OW 2284   3.634   3.415   4.464
  462SOL    HW1 2285   3.635   3.322   4.500
  462SOL    HW2 2286   3.569   3.421   4.388
  463SOL     OW 2287   6.094   6.313   2.238
  463SOL    HW1 2288   6.021   6.265   2.189
  463SOL    HW2 2289   6.175   6.254   2.243
  464SOL     OW 2290   3.509   6.220   6.089
  464SOL    HW1 2291   3.472   6.309   6.116
  464SOL    HW2 2292   3.596   6.205   6.136
  465SOL     OW 2293   1.060   2.082   0.733
  465SOL    HW1 2294   1.131   2.065   0.665
  465SOL    HW2 2295   0.973   2.099   0.686
  466SOL     OW 2296   3.290   6.200   4.765
  466SOL    HW1 2297   3.359   6.217   4.836
  466SOL    HW2 2298   3.304   6.108   4.727
  467SOL     OW 2299   6.709   1.281   2.674
  467SOL    HW1 2300   6.801   1.320   2.686
  467SOL    HW2 2301   6.695   1.210   2.743
  468SOL     OW 2302   3.957   0.597   6.551
  468SOL    HW1 2303   3.916   0.649   6.476
  468SOL    HW2 2304   3.917   0.506   6.554
  469SOL     OW 2305   2.556   4.239   5.820
  469SOL    HW1 2306   2.618   4.249   5.742
  469SOL    HW2 2307   2.576   4.153   5.868
  470SOL     OW 2308   2.547   5.304   3.341
  470SOL    HW1 2309   2.622   5.352   3.296
  470SOL    HW2 2310   2.463   5.315   3.287
  471SOL     OW 2311   2.782   2.318   4.050
  471SOL    HW1 2312   2.841   2.273   3.982
  471SOL    HW2 2313   2.708   2.365   4.002
  472SOL     OW 2314   6.372   4.502   5.878
  472SOL    HW1 2315   6.425   4.471   5.957
  472SOL    HW2 2316   6.289   4.446   5.870
  473SOL     OW 2317   6.984   2.366   2.851
  473SOL    HW1 2318   6.906   2.388   2.909
  473SOL    HW2 2319   6.958   2.375   2.755
  474SOL     OW 2320   6.396   6.220   4.368
  474SOL    HW1 2321   6.336   6.293   4.334
  474SOL    HW2 2322   6.473   6.208   4.304
  475SOL     OW 2323   6.198   1.451   0.349
  475SOL    HW1 2324   6.282   1.434   0.297
  475SOL    HW2 2325   6.128   1.386   0.321
  476SOL     OW 2326   0.620   3.922   1.761
  476SOL    HW1 2327   0.715   3.946   1.743
  476SOL    HW2 2328   0.564   4.006   1.761
  477SOL     OW 2329   1.816   5.286   3.407
  477SOL    HW1 2330   1.877   5.212   3.434
  477SOL    HW2 2331   1.816   5.295   3.307
  478SOL     OW 2332   4.334   5.501   3.334
  478SOL    HW1 2333   4.337   5.600   3.348
  478SOL    HW2 2334   4.326   5.481   3.236
  479SOL     OW 2335   4.121   3.523   3.450
  479SOL    HW1 2336   4.064   3.442   3.464
  479SOL    HW2 2337   4.180   3.535   3.530
  480SOL     OW 2338   1.241   6.992   2.588
  480SOL    HW1 2339   1.182   0.022   2.653
  480SOL    HW2 2340   1.308   6.938   2.638
  481SOL     OW 2341   0.824   6.312   0.556
  481SOL    HW1 2342   0.832   6.258   0.472
  481SOL    HW2 2343   0.855   6.406   0.538
  482SOL     OW 2344   5.387   4.586   2.234
  482SOL    HW1 2345   5.293   4.580   2.268
  482SOL    HW2 2346   5.450   4.559   2.307
  483SOL     OW 2347   5.959   2.645   3.759
  483SOL    HW1 2348   5.886   2.600   3.810
  483SOL    HW2 2349   6.021   2.692   3.822
  484SOL     OW 2350   2.322   4.259   4.109
  484SOL    HW1 2351   2.296   4.276   4.014
  484SOL    HW2 2352   2.300   4.164   4.132
  485SOL     OW 2353   5.398   3.474   2.899
  485SOL    HW1 2354   5.426   3.401   2.837
  485SOL    HW2 2355   5.354   3.435   2.980
  486SOL     OW 2356   6.375   6.428   5.638
  486SOL    HW1 2357   6.367   6.334   5.673
  486SOL    HW2 2358   6.286   6.473   5.645
  487SOL     OW 2359   0.376   6.102   4.178
  487SOL    HW1 2360   0.417   6.032   4.237
  487SOL    HW2 2361   0.294   6.139   4.222
  488SOL     OW 2362   1.861   6.663   3.330
  488SOL    HW1 2363   1.882   6.622   3.241
  488SOL    HW2 2364   1.763   6.684   3.334
  489SOL     OW 2365   0.089   5.755   4.743
  489SOL    HW1 2366   0.119   5.687   4.676
  489SOL    HW2 2367   0.135   5.737   4.831
  490SOL     OW 2368   1.638   4.856   5.790
  490SOL    HW1 2369   1.691   4.940   5.778
  490SOL    HW2 2370   1.698   4.784   5.826
  491SOL     OW 2371   0.219   2.637   0.874
  491SOL    HW1 2372   0.246   2.542   0.888
  491SOL    HW2 2373   0.300   2.695   0.872
  492SOL     OW 2374   1.731   1.652   5.627
  492SOL    HW1 2375   1.646   1.616   5.666
  492SOL    HW2 2376   1.808   1.623   5.682
  493SOL     OW 2377   2.198   6.306   4.676
  493SOL    HW1 2378   2.264   6.234   4.654
  493SOL    HW2 2379   2.227   6.353   4.760
  494SOL     OW 2380   2.299   0.130   5.192
  494SOL    HW1 2381   2.315   0.225   5.166
  494SOL    HW2 2382   2.227   0.126   5.262
  495SOL     OW 2383   4.305   6.178   5.202
  495SOL    HW1 2384   4.389   6.149   5.157
  495SOL    HW2 2385   4.318   6.268   5.242
  496SOL     OW 2386   5.771   2.358   2.818
  496SOL    HW1 2387   5.801   2.448   2.851
  496SOL    HW2 2388   5.706   2.318   2.883
  497SOL     OW 2389   3.370   1.109   6.628
  497SOL    HW1 2390   3.406   1.017   6.641
  497SOL    HW2 2391   3.270   1.105   6.629
  498SOL     OW 2392   0.666   5.438   2.091
  498SOL    HW1 2393   0.630   5.361   2.143
  498SOL    HW2 2394   0.621   5.443   2.002
  499SOL     OW 2395   3.817   5.419   0.090
  499SOL    HW1 2396   3.801   5.324   0.062
  499SOL    HW2 2397   3.784   5.480   0.018
  500SOL     OW 2398   5.694   1.984   6.817
  500SOL    HW1 2399   5.698   2.055   6.887
  500SOL    HW2 2400   5.729   1.898   6.856
  501SOL     OW 2401   0.996   6.648   2.912
  501SOL    HW1 2402   1.011   6.658   2.813
  501SOL    HW2 2403   1.004   6.552   2.937
  502SOL     OW 2404   1.807   4.587   6.520
  502SOL    HW1 2405   1.840   4.578   6.426
  502SOL    HW2 2406   1.867   4.538   6.582
  503SOL     OW 2407   3.583   4.976   6.942
  503SOL    HW1 2408   3.616   5.025   0.004
  503SOL    HW2 2409   3.496   4.932   6.964
  504SOL     OW 2410   6.224   5.954   2.007
  504SOL    HW1 2411   6.300   5.914   2.058
  504SOL    HW2 2412   6.171   5.882   1.962
  505SOL     OW 2413   5.214   6.742   5.672
  505SOL    HW1 2414   5.150   6.670   5.699
  505SOL    HW2 2415   5.174   6.796   5.597
  506SOL     OW 2416   3.079   6.123   2.912
  506SOL    HW1 2417   3.004   6.071   2.872
  506SOL    HW2 2418   3.120   6.069   2.986
  507SOL     OW 2419   3.949   1.263   1.545
  507SOL    HW1 2420   4.035   1.301   1.580
  507SOL    HW2 2421   3.968   1.182   1.490
  508SOL     OW 2422   0.636   4.668   4.921
  508SOL    HW1 2423   0.578   4.604   4.871
  508SOL    HW2 2424   0.652   4.750   4.865
  509SOL     OW 2425   4.319   0.784   5.984
  509SOL    HW1 2426   4.300   0.865   5.930
  509SOL    HW2 2427   4.313   0.806   6.082
  510SOL     OW 2428   6.056   4.438   6.083
  510SOL    HW1 2429   6.114   4.508   6.125
  510SOL    HW2 2430   6.094   4.413   5.994
  511SOL     OW 2431   1.444   1.559   0.546
  511SOL    HW1 2432   1.371   1.554   0.478
  511SOL    HW2 2433   1.425   1.632   0.611
  512SOL     OW 2434   5.827   1.920   0.281
  512SOL    HW1 2435   5.773   1.879   0.208
  512SOL    HW2 2436   5.803   2.017   0.290
  513SOL     OW 2437   5.813   0.392   2.703
  513SOL    HW1 2438   5.799   0.343   2.617
  513SOL    HW2 2439   5.911   0.394   2.724
  514SOL     OW 2440   6.970   6.898   4.072
  514SOL    HW1 2441   6.986   6.799   4.066
  514SOL    HW2 2442   6.936   6.920   4.163
  515SOL     OW 2443   3.397   0.084   6.578
  515SOL    HW1 2444   3.441   0.003   6.538
  515SOL    HW2 2445   3.410   0.084   6.677
  516SOL     OW 2446   2.871   4.925   1.440
  516SOL    HW1 2447   2.838   4.851   1.381
  516SOL    HW2 2448   2.955   4.897   1.485
  517SOL     OW 2449   2.736   5.079   2.394
  517SOL    HW1 2450   2.720   4.981   2.405
  517SOL    HW2 2451   2.680   5.130   2.459
  518SOL     OW 2452   1.940   2.733   3.381
  518SOL    HW1 2453   1.872   2.801   3.352
  518SOL    HW2 2454   1.908   2.685   3.462
  519SOL     OW 2455   0.130   6.352   3.620
  519SOL    HW1 2456   0.092   6.442   3.640
  519SOL    HW2 2457   0.161   6.350   3.525
  520SOL     OW 2458   0.868   2.767   0.067
  520SOL    HW1 2459   0.907   2.839   0.010
  520SOL    HW2 2460   0.899   2.678   0.035
  521SOL     OW 2461   4.898   4.966   5.033
  521SOL    HW1 2462   4.970   5.021   5.074
  521SOL    HW2 2463   4.928   4.871   5.026
  522SOL     OW 2464   4.351   3.418   1.266
  522SOL    HW1 2465   4.312   3.495   1.317
  522SOL    HW2 2466   4.433   3.448   1.218
  523SOL     OW 2467   0.168   6.130   1.901
  523SOL    HW1 2468   0.161   6.082   1.989
  523SOL    HW2 2469   0.100   6.092   1.837
  524SOL     OW 2470   0.265   2.512   2.382
  524SOL    HW1 2471   0.303   2.603   2.395
  524SOL    HW2 2472   0.187   2.517   2.320
  525SOL     OW 2473   1.018   3.377   6.940
  525SOL    HW1 2474   0.974   3.407   6.856
  525SOL    HW2 2475   1.097   3.320   6.918
  526SOL     OW 2476   3.310   0.053   5.166
  526SOL    HW1 2477   3.226   0.104   5.150
  526SOL    HW2 2478   3.378   0.078   5.098
  527SOL     OW 2479   1.456   2.322   6.657
  527SOL    HW1 2480   1.387   2.362   6.597
  527SOL    HW2 2481   1.449   2.363   6.748
  528SOL     OW 2482   0.000   3.148   4.405
  528SOL    HW1 2483   6.994   3.170   4.500
  528SOL    HW2 2484   6.985   3.057   4.382
  529SOL     OW 2485   2.472   6.387   5.817
  529SOL    HW1 2486   2.421   6.356   5.898
  529SOL    HW2 2487   2.428   6.351   5.735
  530SOL     OW 2488   3.493   3.249   1.761
  530SOL    HW1 2489   3.502   3.340   1.720
  530SOL    HW2 2490   3.574   3.194   1.740
  531SOL     OW 2491   2.443   0.889   2.196
  531SOL    HW1 2492   2.418   0.985   2.206
  531SOL    HW2 2493   2.422   0.841   2.281
  532SOL     OW 2494   2.954   2.727   0.149
  532SOL    HW1 2495   2.885   2.697   0.215
  532SOL    HW2 2496   2.954   2.827   0.144
  533SOL     OW 2497   3.935   0.351   3.756
  533SOL    HW1 2498   3.885   0.306   3.829
  533SOL    HW2 2499   3.975   0.436   3.790
  534SOL     OW 2500   0.951   5.524   1.044
  534SOL    HW1 2501   1.050   5.539   1.052
  534SOL    HW2 2502   0.918   5.563   0.958
  535SOL     OW 2503   5.274   4.258   3.264
  535SOL    HW1 2504   5.338   4.193   3.223
  535SOL    HW2 2505   5.286   4.347   3.220
  536SOL     OW 2506   6.465   6.371   3.089
  536SOL    HW1 2507   6.438   6.404   3.180
  536SOL    HW2 2508   6.442   6.274   3.082
  537SOL     OW 2509   3.347   0.176   3.949
  537SOL    HW1 2510   3.372   0.243   4.019
  537SOL    HW2 2511   3.350   0.220   3.858
  538SOL     OW 2512   2.726   4.968   5.675
  538SOL    HW1 2513   2.792   4.918   5.731
  538SOL    HW2 2514   2.633   4.947   5.705
  539SOL     OW 2515   1.058   5.586   0.454
  539SOL    HW1 2516   1.087   5.650   0.382
  539SOL    HW2 2517   1.095   5.495   0.435
  540SOL     OW 2518   1.404   0.279   3.546
  540SOL    HW1 2519   1.447   0.339   3.613
  540SOL    HW2 2520   1.432   0.307   3.454
  541SOL     OW 2521   4.163   6.722   4.352
  541SOL    HW1 2522   4.134   6.714   4.256
  541SOL    HW2 2523   4.194   6.632   4.384
  542SOL     OW 2524   3.267   5.801   6.271
  542SOL    HW1 2525   3.286   5.898   6.257
  542SOL    HW2 2526   3.237   5.786   6.365
  543SOL     OW 2527   5.982   2.992   4.186
  543SOL    HW1 2528   5.944   2.924   4.122
  543SOL    HW2 2529   6.021   3.068   4.134
  544SOL     OW 2530   0.079   5.203   0.218
  544SOL    HW1 2531   0.021   5.280   0.193
  544SOL    HW2 2532   0.031   5.144   0.283
  545SOL     OW 2533   5.369   1.563   1.032
  545SOL    HW1 2534   5.272   1.546   1.011
  545SOL    HW2 2535   5.402   1.640   0.976
  546SOL     OW 2536   0.341   4.263   2.237
  546SOL    HW1 2537   0.418   4.199   2.244
  546SOL    HW2 2538   0.376   4.357   2.242
  547SOL     OW 2539   3.406   1.673   0.146
  547SOL    HW1 2540   3.415   1.702   0.050
  547SOL    HW2 2541   3.324   1.714   0.186
  548SOL     OW 2542   3.930   3.265   0.318
  548SOL    HW1 2543   3.859   3.293   0.383
  548SOL    HW2 2544   3.966   3.345   0.271
  549SOL     OW 2545   5.652   2.563   0.595
  549SOL    HW1 2546   5.687   2.653   0.571
  549SOL    HW2 2547   5.567   2.572   0.647
  550SOL     OW 2548   0.070   4.374   3.373
  550SOL    HW1 2549   7.007   4.315   3.369
  550SOL    HW2 2550   0.077   4.426   3.288
  551SOL     OW 2551   0.023   1.066   0.427
  551SOL    HW1 2552   0.063   0.975   0.416
  551SOL    HW2 2553   0.066   1.113   0.503
  552SOL     OW 2554   5.322   5.598   5.929
  552SOL    HW1 2555   5.289   5.508   5.901
  552SOL    HW2 2556   5.311   5.608   6.028
  553SOL     OW 2557   3.343   0.752   4.872
  553SOL    HW1 2558   3.375   0.833   4.922
  553SOL    HW2 2559   3.418   0.714   4.818
  554SOL     OW 2560   5.606   5.812   0.793
  554SOL    HW1 2561   5.626   5.904   0.829
  554SOL    HW2 2562   5.526   5.775   0.840
  555SOL     OW 2563   2.982   5.546   5.397
  555SOL    HW1 2564   2.987   5.631   5.345
  555SOL    HW2 2565   2.974   5.567   5.495
  556SOL     OW 2566   4.922   2.089   3.917
  556SOL    HW1 2567   4.934   2.155   3.842
  556SOL    HW2 2568   5.003   2.032   3.925
  557SOL     OW 2569   0.247   4.766   5.660
  557SOL    HW1 2570   0.173   4.785   5.725
  557SOL    HW2 2571   0.218   4.696   5.596
  558SOL     OW 2572   3.795   3.454   2.925
  558SOL    HW1 2573   3.719   3.489   2.979
  558SOL    HW2 2574   3.882   3.478   2.969
  559SOL     OW 2575   6.211   6.282   5.865
  559SOL    HW1 2576   6.222   6.277   5.964
  559SOL    HW2 2577   6.126   6.237   5.838
  560SOL     OW 2578   6.842   2.810   3.538
  560SOL    HW1 2579   6.929   2.815   3.489
  560SOL    HW2 2580   6.846   2.867   3.620
  561SOL     OW 2581   6.988   3.491   6.450
  561SOL    HW1 2582   0.004   3.509   6.357
  561SOL    HW2 2583   6.991   3.575   6.504
  562SOL     OW 2584   4.767   6.599   5.775
  562SOL    HW1 2585   4.733   6.642   5.859
  562SOL    HW2 2586   4.775   6.668   5.704
  563SOL     OW 2587   1.555   1.543   4.414
  563SOL    HW1 2588   1.556   1.478   4.338
  563SOL    HW2 2589   1.517   1.499   4.495
  564SOL     OW 2590   0.391   1.308   6.056
  564SOL    HW1 2591   0.431   1.286   5.967
  564SOL    HW2 2592   0.375   1.407   6.062
  565SOL     OW 2593   3.554   3.167   3.930
  565SOL    HW1 2594   3.518   3.143   4.020
  565SOL    HW2 2595   3.485   3.217   3.878
  566SOL     OW 2596   2.810   5.406   3.276
  566SOL    HW1 2597   2.869   5.487   3.266
  566SOL    HW2 2598   2.865   5.323   3.266
  567SOL     OW 2599   2.495   2.596   0.403
  567SOL    HW1 2600   2.404   2.610   0.363
  567SOL    HW2 2601   2.491   2.523   0.470
  568SOL     OW 2602   5.367   6.786   0.670
  568SOL    HW1 2603   5.380   6.688   0.659
  568SOL    HW2 2604   5.456   6.832   0.671
  569SOL     OW 2605   0.247   2.323   0.141
  569SOL    HW1 2606   0.159   2.316   0.094
  569SOL    HW2 2607   0.287   2.231   0.150
  570SOL     OW 2608   2.674   0.303   6.194
  570SOL    HW1 2609   2.758   0.280   6.145
  570SOL    HW2 2610   2.682   0.275   6.289
  571SOL     OW 2611   2.521   4.827   3.283
  571SOL    HW1 2612   2.554   4.893   3.351
  571SOL    HW2 2613   2.598   4.777   3.244
  572SOL     OW 2614   1.547   5.966   4.299
  572SOL    HW1 2615   1.527   5.940   4.205
  572SOL    HW2 2616   1.502   6.052   4.321
  573SOL     OW 2617   6.607   2.048   5.952
  573SOL    HW1 2618   6.688   2.030   6.009
  573SOL    HW2 2619   6.560   1.962   5.934
  574SOL     OW 2620   2.976   1.290   4.837
  574SOL    HW1 2621   3.069   1.316   4.809
  574SOL    HW2 2622   2.980   1.214   4.901
  575SOL     OW 2623   3.513   2.926   0.887
  575SOL    HW1 2624   3.499   2.834   0.923
  575SOL    HW2 2625   3.608   2.954   0.901
  576SOL     OW 2626   2.332   2.869   2.921
  576SOL    HW1 2627   2.349   2.771   2.922
  576SOL    HW2 2628   2.419   2.918   2.932
  577SOL     OW 2629   0.634   0.783   2.292
  577SOL    HW1 2630   0.685   0.754   2.211
  577SOL    HW2 2631   0.623   0.706   2.354
  578SOL     OW 2632   1.618   5.196   0.155
  578SOL    HW1 2633   1.677   5.203   0.075
  578SOL    HW2 2634   1.542   5.260   0.147
  579SOL     OW 2635   2.513   4.761   2.623
  579SOL    HW1 2636   2.415   4.782   2.623
  579SOL    HW2 2637   2.532   4.691   2.554
  580SOL     OW 2638   4.709   5.393   5.075
  580SOL    HW1 2639   4.806   5.391   5.049
  580SOL    HW2 2640   4.654   5.361   4.998
  581SOL     OW 2641   0.758   2.866   3.931
  581SOL    HW1 2642   0.749   2.963   3.910
  581SOL    HW2 2643   0.836   2.828   3.882
  582SOL     OW 2644   4.973   5.567   2.977
  582SOL    HW1 2645   5.052   5.619   3.009
  582SOL    HW2 2646   5.003   5.496   2.913
  583SOL     OW 2647   3.187   5.189   5.560
  583SOL    HW1 2648   3.135   5.257   5.611
  583SOL    HW2 2649   3.163   5.195   5.463
  584SOL     OW 2650   3.367   0.230   6.209
  584SOL    HW1 2651   3.398   0.267   6.297
  584SOL    HW2 2652   3.445   0.215   6.149
  585SOL     OW 2653   3.477   6.992   1.665
  585SOL    HW1 2654   3.490   0.014   1.575
  585SOL    HW2 2655   3.409   0.026   1.716
  586SOL     OW 2656   4.274   0.298   1.369
  586SOL    HW1 2657   4.255   0.339   1.458
  586SOL    HW2 2658   4.339   0.356   1.319
  587SOL     OW 2659   5.452   1.783   1.851
  587SOL    HW1 2660   5.531   1.833   1.814
  587SOL    HW2 2661   5.452   1.690   1.814
  588SOL     OW 2662   1.480   5.419   0.838
  588SOL    HW1 2663   1.513   5.503   0.794
  588SOL    HW2 2664   1.506   5.420   0.935
  589SOL     OW 2665   3.244   6.039   1.472
  589SOL    HW1 2666   3.259   6.039   1.373
  589SOL    HW2 2667   3.147   6.055   1.491
  590SOL     OW 2668   5.787   1.444   0.871
  590SOL    HW1 2669   5.766   1.454   0.774
  590SOL    HW2 2670   5.884   1.421   0.882
  591SOL     OW 2671   4.392   6.110   4.251
  591SOL    HW1 2672   4.316   6.099   4.316
  591SOL    HW2 2673   4.477   6.126   4.301
  592SOL     OW 2674   5.016   0.916   3.879
  592SOL    HW1 2675   5.107   0.955   3.863
  592SOL    HW2 2676   5.002   0.905   3.978
  593SOL     OW 2677   4.054   2.177   4.727
  593SOL    HW1 2678   4.067   2.178   4.827
  593SOL    HW2 2679   4.121   2.237   4.684
  594SOL     OW 2680   5.937   2.096   1.183
  594SOL    HW1 2681   6.004   2.149   1.236
  594SOL    HW2 2682   5.861   2.069   1.243
  595SOL     OW 2683   5.186   6.749   3.225
  595SOL    HW1 2684   5.225   6.694   3.299
  595SOL    HW2 2685   5.138   6.828   3.263
  596SOL     OW 2686   6.812   4.546   3.538
  596SOL    HW1 2687   6.861   4.461   3.519
  596SOL    HW2 2688   6.848   4.619   3.479
  597SOL     OW 2689   3.315   6.966   5.710
  597SOL    HW1 2690   3.314   0.047   5.694
  597SOL    HW2 2691   3.318   6.949   5.809
  598SOL     OW 2692   2.993   3.887   4.670
  598SOL    HW1 2693   2.979   3.904   4.768
  598SOL    HW2 2694   3.011   3.789   4.656
  599SOL     OW 2695   1.692   5.995   2.085
  599SOL    HW1 2696   1.776   6.025   2.039
  599SOL    HW2 2697   1.614   6.046   2.047
  600SOL     OW 2698   0.031   3.847   5.274
  600SOL    HW1 2699   0.116   3.817   5.318
  600SOL    HW2 2700   0.017   3.795   5.190
  601SOL     OW 2701   1.734   0.971   4.913
  601SOL    HW1 2702   1.684   0.994   4.996
  601SOL    HW2 2703   1.722   1.044   4.846
  602SOL     OW 2704   3.013   6.739   5.245
  602SOL    HW1 2705   2.950   6.752   5.321
  602SOL    HW2 2706   3.100   6.785   5.266
  603SOL     OW 2707   1.633   1.059   5.522
  603SOL    HW1 2708   1.715   1.116   5.520
  603SOL    HW2 2709   1.556   1.113   5.555
  604SOL     OW 2710   7.017   2.409   1.680
  604SOL    HW1 2711   0.038   2.497   1.707
  604SOL    HW2 2712   6.926   2.424   1.641
  605SOL     OW 2713   0.323   4.766   2.425
  605SOL    HW1 2714   0.246   4.705   2.445
  605SOL    HW2 2715   0.292   4.842   2.369
  606SOL     OW 2716   4.435   6.780   5.467
  606SOL    HW1 2717   4.506   6.835   5.423
  606SOL    HW2 2718   4.401   6.711   5.403
  607SOL     OW 2719   1.024   5.395   5.703
  607SOL    HW1 2720   0.961   5.460   5.746
  607SOL    HW2 2721   1.038   5.421   5.608
  608SOL     OW 2722   4.034   6.931   6.695
  608SOL    HW1 2723   4.091   7.012   6.686
  608SOL    HW2 2724   3.994   6.908   6.606
  609SOL     OW 2725   3.971   2.265   1.775
  609SOL    HW1 2726   4.023   2.349   1.761
  609SOL    HW2 2727   3.888   2.285   1.828
  610SOL     OW 2728   4.619   2.177   0.345
  610SOL    HW1 2729   4.587   2.184   0.251
  610SOL    HW2 2730   4.719   2.166   0.346
  611SOL     OW 2731   4.125   6.902   2.442
  611SOL    HW1 2732   4.093   6.988   2.482
  611SOL    HW2 2733   4.049   6.857   2.395
  612SOL     OW 2734   3.084   4.655   5.558
  612SOL    HW1 2735   3.153   4.611   5.500
  612SOL    HW2 2736   2.997   4.660   5.508
  613SOL     OW 2737   5.644   5.249   5.082
  613SOL    HW1 2738   5.573   5.316   5.061
  613SOL    HW2 2739   5.654   5.241   5.181
  614SOL     OW 2740   5.035   5.361   5.263
  614SOL    HW1 2741   5.003   5.361   5.168
  614SOL    HW2 2742   4.967   5.407   5.321
  615SOL     OW 2743   0.001   4.534   0.691
  615SOL    HW1 2744   6.979   4.505   0.604
  615SOL    HW2 2745   0.016   4.454   0.749
  616SOL     OW 2746   6.664   2.992   3.375
  616SOL    HW1 2747   6.594   3.010   3.445
  616SOL    HW2 2748   6.738   2.939   3.415
  617SOL     OW 2749   2.027   5.468   6.302
  617SOL    HW1 2750   1.957   5.402   6.276
  617SOL    HW2 2751   2.077   5.497   6.220
  618SOL     OW 2752   1.740   1.473   1.857
  618SOL    HW1 2753   1.831   1.438   1.835
  618SOL    HW2 2754   1.697   1.509   1.774
  619SOL     OW 2755   1.789   1.871   0.017
  619SOL    HW1 2756   1.814   1.775   0.020
  619SOL    HW2 2757   1.791   1.903   6.940
  620SOL     OW 2758   4.959   2.043   0.569
  620SOL    HW1 2759   5.049   2.011   0.600
  620SOL    HW2 2760   4.930   2.120   0.626
  621SOL     OW 2761   6.368   5.103   6.699
  621SOL    HW1 2762   6.285   5.090   6.753
  621SOL    HW2 2763   6.355   5.180   6.636
  622SOL     OW 2764   1.602   1.174   0.079
  622SOL    HW1 2765   1.551   1.090   0.096
  622SOL    HW2 2766   1.638   1.209   0.165
  623SOL     OW 2767   0.542   5.720   5.761
  623SOL    HW1 2768   0.595   5.647   5.717
  623SOL    HW2 2769   0.601   5.799   5.778
  624SOL     OW 2770   0.709   2.433   2.346
  624SOL    HW1 2771   0.657   2.395   2.423
  624SOL    HW2 2772   0.785   2.372   2.324
  625SOL     OW 2773   3.321   1.591   1.890
  625SOL    HW1 2774   3.245   1.536   1.857
  625SOL    HW2 2775   3.318   1.681   1.846
  626SOL     OW 2776   2.092   5.848   3.406
  626SOL    HW1 2777   2.120   5.752   3.410
  626SOL    HW2 2778   2.079   5.875   3.310
  627SOL     OW 2779   5.230   0.597   0.440
  627SOL    HW1 2780   5.232   0.688   0.481
  627SOL    HW2 2781   5.158   0.542   0.482
  628SOL     OW 2782   5.114   5.155   4.814
  628SOL    HW1 2783   5.141   5.226   4.749
  628SOL    HW2 2784   5.147   5.066   4.782
  629SOL     OW 2785   0.685   0.634   1.304
  629SOL    HW1 2786   0.643   0.724   1.293
  629SOL    HW2 2787   0.692   0.613   1.402
  630SOL     OW 2788   4.958   1.886   2.149
  630SOL    HW1 2789   4.994   1.834   2.227
  630SOL    HW2 2790   5.030   1.897   2.081
  631SOL     OW 2791   3.032   0.836   5.377
  631SOL    HW1 2792   3.127   0.865   5.363
  631SOL    HW2 2793   3.022   0.741   5.346
  632SOL     OW 2794   2.447   1.120   0.276
  632SOL    HW1 2795   2.353   1.126   0.310
  632SOL    HW2 2796   2.454   1.169   0.189
  633SOL     OW 2797   3.257   5.275   0.504
  633SOL    HW1 2798   3.229   5.279   0.600
  633SOL    HW2 2799   3.355   5.253   0.500
  634SOL     OW 2800   4.112   4.892   1.601
  634SOL    HW1 2801   4.197   4.880   1.549
  634SOL    HW2 2802   4.087   4.806   1.645
  635SOL     OW 2803   3.617   6.968   3.408
  635SOL    HW1 2804   3.656   0.040   3.391
  635SOL    HW2 2805   3.690   6.900   3.417
  636SOL     OW 2806   5.065   5.257   6.189
  636SOL    HW1 2807   4.974   5.286   6.159
  636SOL    HW2 2808   5.084   5.165   6.154
  637SOL     OW 2809   5.161   4.973   1.919
  637SOL    HW1 2810   5.068   4.948   1.891
  637SOL    HW2 2811   5.220   4.892   1.914
  638SOL     OW 2812   5.187   1.263   2.423
  638SOL    HW1 2813   5.122   1.217   2.363
  638SOL    HW2 2814   5.268   1.205   2.437
  639SOL     OW 2815   4.662   4.782   1.905
  639SOL    HW1 2816   4.638   4.807   1.811
  639SOL    HW2 2817   4.583   4.740   1.949
  640SOL     OW 2818   2.042   3.892   5.763
  640SOL    HW1 2819   1.980   3.851   5.696
  640SOL    HW2 2820   1.991   3.953   5.823
  641SOL     OW 2821   0.825   4.983   4.478
  641SOL    HW1 2822   0.923   4.999   4.465
  641SOL    HW2 2823   0.805   4.885   4.475
  642SOL     OW 2824   0.203   4.657   4.934
  642SOL    HW1 2825   0.233   4.751   4.954
  642SOL    HW2 2826   0.104   4.651   4.942
  643SOL     OW 2827   6.216   6.117   4.617
  643SOL    HW1 2828   6.231   6.023   4.646
  643SOL    HW2 2829   6.194   6.118   4.520
  644SOL     OW 2830   0.960   5.990   3.056
  644SOL    HW1 2831   0.892   6.012   2.985
  644SOL    HW2 2832   0.914   5.950   3.135
  645SOL     OW 2833   4.690   2.363   4.666
  645SOL    HW1 2834   4.631   2.443   4.656
  645SOL    HW2 2835   4.776   2.380   4.618
  646SOL     OW 2836   1.740   1.677   3.611
  646SOL    HW1 2837   1.813   1.640   3.554
  646SOL    HW2 2838   1.760   1.773   3.633
  647SOL     OW 2839   6.172   2.957   6.782
  647SOL    HW1 2840   6.182   2.858   6.785
  647SOL    HW2 2841   6.168   2.988   6.687
  648SOL     OW 2842   6.035   3.999   2.650
  648SOL    HW1 2843   6.025   4.072   2.717
  648SOL    HW2 2844   6.117   3.945   2.671
  649SOL     OW 2845   3.986   4.104   0.723
  649SOL    HW1 2846   3.961   4.016   0.683
  649SOL    HW2 2847   4.070   4.093   0.777
  650SOL     OW 2848   4.968   4.640   0.605
  650SOL    HW1 2849   5.010   4.689   0.529
  650SOL    HW2 2850   5.023   4.560   0.627
  651SOL     OW 2851   0.715   6.540   0.927
  651SOL    HW1 2852   0.643   6.531   0.858
  651SOL    HW2 2853   0.688   6.492   1.010
  652SOL     OW 2854   4.587   6.967   3.253
  652SOL    HW1 2855   4.668   6.911   3.273
  652SOL    HW2 2856   4.536   6.983   3.338
  653SOL     OW 2857   3.400   5.310   4.567
  653SOL    HW1 2858   3.437   5.243   4.632
  653SOL    HW2 2859   3.308   5.335   4.595
  654SOL     OW 2860   0.071   5.085   6.084
  654SOL    HW1 2861   0.014   5.062   6.163
  654SOL    HW2 2862   0.012   5.103   6.005
  655SOL     OW 2863   0.624   0.134   1.875
  655SOL    HW1 2864   0.716   0.097   1.862
  655SOL    HW2 2865   0.620   0.226   1.836
  656SOL     OW 2866   2.293   5.953   2.308
  656SOL    HW1 2867   2.304   6.039   2.259
  656SOL    HW2 2868   2.359   5.949   2.383
  657SOL     OW 2869   2.472   1.729   1.140
  657SOL    HW1 2870   2.432   1.806   1.090
  657SOL    HW2 2871   2.456   1.645   1.088
  658SOL     OW 2872   3.349   3.692   6.962
  658SOL    HW1 2873   3.265   3.654   6.924
  658SOL    HW2 2874   3.358   3.788   6.935
  659SOL     OW 2875   2.883   6.418   6.434
  659SOL    HW1 2876   2.920   6.458   6.350
  659SOL    HW2 2877   2.791   6.452   6.449
  660SOL     OW 2878   3.733   5.915   1.955
  660SOL    HW1 2879   3.662   5.892   2.022
  660SOL    HW2 2880   3.731   5.849   1.880
  661SOL     OW 2881   4.583   5.999   3.495
  661SOL    HW1 2882   4.663   5.993   3.436
  661SOL    HW2 2883   4.537   6.087   3.480
  662SOL     OW 2884   3.467   1.003   4.948
  662SOL    HW1 2885   3.541   1.037   4.889
  662SOL    HW2 2886   3.395   1.073   4.954
  663SOL     OW 2887   1.950   4.362   4.546
  663SOL    HW1 2888   1.883   4.391   4.615
  663SOL    HW2 2889   1.980   4.268   4.566
  664SOL     OW 2890   0.506   6.447   5.795
  664SOL    HW1 2891   0.535   6.533   5.752
  664SOL    HW2 2892   0.407   6.439   5.790
  665SOL     OW 2893   3.678   5.196   3.746
  665SOL    HW1 2894   3.680   5.212   3.648
  665SOL    HW2 2895   3.768   5.168   3.778
  666SOL     OW 2896   4.381   0.720   2.048
  666SOL    HW1 2897   4.475   0.747   2.026
  666SOL    HW2 2898   4.375   0.695   2.144
  667SOL     OW 2899   0.978   4.943   1.878
  667SOL    HW1 2900   1.074   4.974   1.880
  667SOL    HW2 2901   0.921   5.015   1.837
  668SOL     OW 2902   5.827   5.089   6.200
  668SOL    HW1 2903   5.834   4.996   6.236
  668SOL    HW2 2904   5.917   5.133   6.205
  669SOL     OW 2905   5.816   1.220   3.241
  669SOL    HW1 2906   5.851   1.187   3.328
  669SOL    HW2 2907   5.716   1.210   3.240
  670SOL     OW 2908   2.273   1.707   2.778
  670SOL    HW1 2909   2.277   1.789   2.722
  670SOL    HW2 2910   2.350   1.706   2.842
  671SOL     OW 2911   2.718   6.236   1.453
  671SOL    HW1 2912   2.696   6.161   1.391
  671SOL    HW2 2913   2.641   6.250   1.516
  672SOL     OW 2914   0.127   5.072   2.066
  672SOL    HW1 2915   0.111   4.991   2.010
  672SOL    HW2 2916   0.225   5.093   2.067
  673SOL     OW 2917   5.145   6.904   1.155
  673SOL    HW1 2918   5.222   6.897   1.091
  673SOL    HW2 2919   5.167   6.970   1.226
  674SOL     OW 2920   0.251   2.162   5.001
  674SOL    HW1 2921   0.222   2.257   4.996
  674SOL    HW2 2922   0.220   2.114   4.919
  675SOL     OW 2923   6.440   2.318   2.048
  675SOL    HW1 2924   6.418   2.339   2.144
  675SOL    HW2 2925   6.535   2.342   2.031
  676SOL     OW 2926   2.378   4.653   4.796
  676SOL    HW1 2927   2.466   4.696   4.818
  676SOL    HW2 2928   2.383   4.555   4.816
  677SOL     OW 2929   5.032   0.713   1.656
  677SOL    HW1 2930   5.112   0.772   1.670
  677SOL    HW2 2931   5.013   0.707   1.558
  678SOL     OW 2932   2.847   4.622   5.432
  678SOL    HW1 2933   2.775   4.569   5.478
  678SOL    HW2 2934   2.845   4.601   5.334
  679SOL     OW 2935   5.379   2.305   4.937
  679SOL    HW1 2936   5.290   2.302   4.891
  679SOL    HW2 2937   5.451   2.303   4.868
  680SOL     OW 2938   5.283   6.354   4.438
  680SOL    HW1 2939   5.302   6.376   4.533
  680SOL    HW2 2940   5.314   6.429   4.379
  681SOL     OW 2941   4.604   5.831   2.420
  681SOL    HW1 2942   4.630   5.927   2.417
  681SOL    HW2 2943   4.673   5.775   2.375
  682SOL     OW 2944   6.963   1.393   1.791
  682SOL    HW1 2945   0.025   1.443   1.757
  682SOL    HW2 2946   6.915   1.450   1.858
  683SOL     OW 2947   4.120   3.067   1.317
  683SOL    HW1 2948   4.027   3.034   1.337
  683SOL    HW2 2949   4.122   3.106   1.225
  684SOL     OW 2950   5.907   0.287   6.808
  684SOL    HW1 2951   6.006   0.284   6.794
  684SOL    HW2 2952   5.887   0.297   6.905
  685SOL     OW 2953   2.905   1.141   3.429
  685SOL    HW1 2954   2.926   1.124   3.526
  685SOL    HW2 2955   2.879   1.055   3.385
  686SOL     OW 2956   4.470   1.242   3.743
  686SOL    HW1 2957   4.416   1.312   3.789
  686SOL    HW2 2958   4.459   1.155   3.792
  687SOL     OW 2959   1.023   1.532   4.735
  687SOL    HW1 2960   1.103   1.507   4.789
  687SOL    HW2 2961   1.022   1.631   4.720
  688SOL     OW 2962   0.020   0.741   5.730
  688SOL    HW1 2963   0.119   0.733   5.741
  688SOL    HW2 2964   7.004   0.665   5.676
  689SOL     OW 2965   1.365   4.384   5.987
  689SOL    HW1 2966   1.462   4.395   5.966
  689SOL    HW2 2967   1.345   4.287   5.999
  690SOL     OW 2968   6.715   3.707   3.519
  690SOL    HW1 2969   6.693   3.805   3.514
  690SOL    HW2 2970   6.653   3.656   3.459
  691SOL     OW 2971   4.101   1.668   0.744
  691SOL    HW1 2972   4.003   1.664   0.723
  691SOL    HW2 2973   4.153   1.670   0.659
  692SOL     OW 2974   3.253   1.677   5.013
  692SOL    HW1 2975   3.316   1.729   5.071
  692SOL    HW2 2976   3.299   1.655   4.926
  693SOL     OW 2977   4.777   6.567   3.778
  693SOL    HW1 2978   4.697   6.507   3.773
  693SOL    HW2 2979   4.857   6.520   3.740
  694SOL     OW 2980   3.983   6.150   4.574
  694SOL    HW1 2981   3.908   6.179   4.633
  694SOL    HW2 2982   3.964   6.176   4.480
  695SOL     OW 2983   3.419   5.660   4.883
  695SOL    HW1 2984   3.424   5.695   4.789
  695SOL    HW2 2985   3.467   5.572   4.888
  696SOL     OW 2986   4.943   3.955   3.543
  696SOL    HW1 2987   5.013   4.024   3.523
  696SOL    HW2 2988   4.866   3.999   3.590
  697SOL     OW 2989   1.173   3.521   1.755
  697SOL    HW1 2990   1.151   3.593   1.689
  697SOL    HW2 2991   1.115   3.531   1.836
  698SOL     OW 2992   4.758   6.550   1.848
  698SOL    HW1 2993   4.706   6.547   1.763
  698SOL    HW2 2994   4.847   6.591   1.831
  699SOL     OW 2995   2.148   3.481   0.071
  699SOL    HW1 2996   2.064   3.535   0.067
  699SOL    HW2 2997   2.142   3.415   0.146
  700SOL     OW 2998   3.345   0.074   2.305
  700SOL    HW1 2999   3.337   7.002   2.347
  700SOL    HW2 3000   3.348   0.064   2.205
  701SOL     OW 3001   5.914   4.467   1.072
  701SOL    HW1 3002   5.888   4.472   1.169
  701SOL    HW2 3003   6.013   4.465   1.065
  702SOL     OW 3004   2.457   0.189   4.370
  702SOL    HW1 3005   2.529   0.125   4.400
  702SOL    HW2 3006   2.469   0.276   4.417
  703SOL     OW 3007   3.016   3.444   5.519
  703SOL    HW1 3008   3.073   3.363   5.511
  703SOL    HW2 3009   2.920   3.417   5.530
  704SOL     OW 3010   1.939   2.792   6.028
  704SOL    HW1 3011   1.901   2.715   6.079
  704SOL    HW2 3012   2.027   2.818   6.068
  705SOL     OW 3013   6.848   6.201   3.523
  705SOL    HW1 3014   6.835   6.112   3.566
  705SOL    HW2 3015   6.919   6.252   3.572
  706SOL     OW 3016   4.295   1.513   5.430
  706SOL    HW1 3017   4.303   1.576   5.352
  706SOL    HW2 3018   4.311   1.419   5.399
  707SOL     OW 3019   3.976   5.699   3.360
  707SOL    HW1 3020   3.916   5.771   3.326
  707SOL    HW2 3021   3.931   5.652   3.436
  708SOL     OW 3022   2.473   1.527   3.711
  708SOL    HW1 3023   2.412   1.557   3.637
  708SOL    HW2 3024   2.504   1.607   3.763
  709SOL     OW 3025   1.827   6.636   1.454
  709SOL    HW1 3026   1.790   6.690   1.378
  709SOL    HW2 3027   1.893   6.570   1.420
  710SOL     OW 3028   5.115   2.501   1.994
  710SOL    HW1 3029   5.032   2.459   2.033
  710SOL    HW2 3030   5.169   2.541   2.068
  711SOL     OW 3031   6.765   3.133   6.352
  711SOL    HW1 3032   6.734   3.079   6.431
  711SOL    HW2 3033   6.864   3.125   6.344
  712SOL     OW 3034   5.135   2.664   1.092
  712SOL    HW1 3035   5.149   2.606   1.011
  712SOL    HW2 3036   5.085   2.747   1.064
  713SOL     OW 3037   4.280   2.769   5.360
  713SOL    HW1 3038   4.274   2.748   5.457
  713SOL    HW2 3039   4.241   2.693   5.307
  714SOL     OW 3040   6.126   5.281   3.698
  714SOL    HW1 3041   6.092   5.375   3.704
  714SOL    HW2 3042   6.146   5.258   3.603
  715SOL     OW 3043   6.527   5.082   5.267
  715SOL    HW1 3044   6.463   5.051   5.337
  715SOL    HW2 3045   6.496   5.051   5.177
  716SOL     OW 3046   1.903   0.832   3.132
  716SOL    HW1 3047   1.973   0.892   3.093
  716SOL    HW2 3048   1.856   0.782   3.059
  717SOL     OW 3049   5.746   4.821   4.329
  717SOL    HW1 3050   5.838   4.805   4.294
  717SOL    HW2 3051   5.750   4.840   4.427
  718SOL     OW 3052   4.910   2.757   4.498
  718SOL    HW1 3053   5.003   2.792   4.505
  718SOL    HW2 3054   4.848   2.817   4.549
  719SOL     OW 3055   6.361   0.230   2.217
  719SOL    HW1 3056   6.454   0.194   2.222
  719SOL    HW2 3057   6.337   0.274   2.304
  720SOL     OW 3058   2.639   0.426   5.624
  720SOL    HW1 3059   2.560   0.433   5.564
  720SOL    HW2 3060   2.610   0.398   5.715
  721SOL     OW 3061   0.663   1.562   2.153
  721SOL    HW1 3062   0.684   1.658   2.167
  721SOL    HW2 3063   0.747   1.513   2.129
  722SOL     OW 3064   3.805   0.919   6.556
  722SOL    HW1 3065   3.729   0.921   6.490
  722SOL    HW2 3066   3.769   0.906   6.648
  723SOL     OW 3067   2.155   6.230   3.465
  723SOL    HW1 3068   2.113   6.184   3.387
  723SOL    HW2 3069   2.132   6.327   3.463
  724SOL     OW 3070   6.667   0.875   3.386
  724SOL    HW1 3071   6.618   0.956   3.353
  724SOL    HW2 3072   6.702   0.893   3.478
  725SOL     OW 3073   1.795   4.751   2.053
  725SOL    HW1 3074   1.730   4.735   1.979
  725SOL    HW2 3075   1.869   4.684   2.048
  726SOL     OW 3076   2.548   5.249   0.904
  726SOL    HW1 3077   2.569   5.169   0.847
  726SOL    HW2 3078   2.625   5.267   0.965
  727SOL     OW 3079   4.582   5.458   6.018
  727SOL    HW1 3080   4.521   5.414   5.954
  727SOL    HW2 3081   4.643   5.521   5.969
  728SOL     OW 3082   0.279   3.215   4.581
  728SOL    HW1 3083   0.281   3.314   4.564
  728SOL    HW2 3084   0.186   3.181   4.572
  729SOL     OW 3085   0.585   2.984   0.955
  729SOL    HW1 3086   0.511   2.978   1.022
  729SOL    HW2 3087   0.615   3.079   0.946
  730SOL     OW 3088   5.419   0.651   2.720
  730SOL    HW1 3089   5.348   0.637   2.788
  730SOL    HW2 3090   5.503   0.605   2.749
  731SOL     OW 3091   4.947   4.648   6.528
  731SOL    HW1 3092   4.875   4.680   6.467
  731SOL    HW2 3093   5.010   4.589   6.478
  732SOL     OW 3094   5.622   1.917   2.172
  732SOL    HW1 3095   5.540   1.972   2.186
  732SOL    HW2 3096   5.693   1.974   2.131
  733SOL     OW 3097   5.548   0.201   4.331
  733SOL    HW1 3098   5.479   0.185   4.401
  733SOL    HW2 3099   5.608   0.276   4.358
  734SOL     OW 3100   6.376   4.575   2.202
  734SOL    HW1 3101   6.342   4.653   2.254
  734SOL    HW2 3102   6.385   4.496   2.263
  735SOL     OW 3103   5.616   0.540   1.837
  735SOL    HW1 3104   5.692   0.584   1.883
  735SOL    HW2 3105   5.607   0.445   1.869
  736SOL     OW 3106   1.261   1.219   4.200
  736SOL    HW1 3107   1.166   1.190   4.213
  736SOL    HW2 3108   1.302   1.166   4.125
  737SOL     OW 3109   5.940   1.942   5.431
  737SOL    HW1 3110   6.027   1.923   5.385
  737SOL    HW2 3111   5.866   1.899   5.379
  738SOL     OW 3112   2.747   3.948   1.237
  738SOL    HW1 3113   2.773   3.993   1.152
  738SOL    HW2 3114   2.814   3.876   1.258
  739SOL     OW 3115   3.476   0.302   5.278
  739SOL    HW1 3116   3.497   0.205   5.291
  739SOL    HW2 3117   3.400   0.327   5.338
  740SOL     OW 3118   6.032   2.263   2.803
  740SOL    HW1 3119   6.002   2.190   2.865
  740SOL    HW2 3120   5.953   2.303   2.758
  741SOL     OW 3121   1.818   0.983   4.606
  741SOL    HW1 3122   1.915   0.963   4.616
  741SOL    HW2 3123   1.766   0.898   4.603
  742SOL     OW 3124   2.329   5.900   1.426
  742SOL    HW1 3125   2.285   5.983   1.459
  742SOL    HW2 3126   2.284   5.820   1.467
  743SOL     OW 3127   0.562   6.343   3.508
  743SOL    HW1 3128   0.575   6.442   3.499
  743SOL    HW2 3129   0.493   6.324   3.577
  744SOL     OW 3130   6.571   0.737   0.372
  744SOL    HW1 3131   6.657   0.787   0.380
  744SOL    HW2 3132   6.534   0.718   0.463
  745SOL     OW 3133   2.294   6.074   5.013
  745SOL    HW1 3134   2.347   6.057   4.930
  745SOL    HW2 3135   2.345   6.041   5.093
  746SOL     OW 3136   5.669   3.871   5.404
  746SOL    HW1 3137   5.610   3.808   5.353
  746SOL    HW2 3138   5.636   3.878   5.499
  747SOL     OW 3139   5.297   5.573   3.783
  747SOL    HW1 3140   5.282   5.527   3.871
  747SOL    HW2 3141   5.233   5.538   3.715
  748SOL     OW 3142   5.375   5.008   2.704
  748SOL    HW1 3143   5.366   5.100   2.742
  748SOL    HW2 3144   5.286   4.976   2.673
  749SOL     OW 3145   5.296   3.355   3.305
  749SOL    HW1 3146   5.376   3.392   3.351
  749SOL    HW2 3147   5.326   3.299   3.228
  750SOL     OW 3148   3.281   1.146   1.374
  750SOL    HW1 3149   3.313   1.238   1.395
  750SOL    HW2 3150   3.340   1.079   1.418
  751SOL     OW 3151   5.232   2.271   0.812
  751SOL    HW1 3152   5.230   2.304   0.718
  751SOL    HW2 3153   5.138   2.258   0.845
  752SOL     OW 3154   3.643   2.158   6.005
  752SOL    HW1 3155   3.582   2.084   5.975
  752SOL    HW2 3156   3.612   2.244   5.966
  753SOL     OW 3157   2.856   3.403   5.209
  753SOL    HW1 3158   2.826   3.426   5.301
  753SOL    HW2 3159   2.930   3.464   5.181
  754SOL     OW 3160   5.408   1.024   0.012
  754SOL    HW1 3161   5.503   1.055   0.004
  754SOL    HW2 3162   5.397   0.973   0.098
  755SOL     OW 3163   3.018   4.348   5.355
  755SOL    HW1 3164   3.085   4.410   5.397
  755SOL    HW2 3165   2.971   4.396   5.281
  756SOL     OW 3166   3.268   5.117   6.852
  756SOL    HW1 3167   3.350   5.131   6.797
  756SOL    HW2 3168   3.274   5.170   6.936
  757SOL     OW 3169   1.881   0.154   2.366
  757SOL    HW1 3170   1.813   0.224   2.389
  757SOL    HW2 3171   1.882   0.140   2.267
  758SOL     OW 3172   3.582   1.301   3.979
  758SOL    HW1 3173   3.595   1.347   4.067
  758SOL    HW2 3174   3.672   1.284   3.938
  759SOL     OW 3175   0.410   1.891   3.308
  759SOL    HW1 3176   0.440   1.863   3.399
  759SOL    HW2 3177   0.329   1.838   3.282
  760SOL     OW 3178   6.434   6.749   3.527
  760SOL    HW1 3179   6.482   6.752   3.439
  760SOL    HW2 3180   6.494   6.707   3.596
  761SOL     OW 3181   5.693   4.411   5.463
  761SOL    HW1 3182   5.686   4.327   5.410
  761SOL    HW2 3183   5.723   4.390   5.556
  762SOL     OW 3184   2.811   6.407   5.730
  762SOL    HW1 3185   2.868   6.486   5.752
  762SOL    HW2 3186   2.753   6.429   5.651
  763SOL     OW 3187   5.466   0.411   6.413
  763SOL    HW1 3188   5.438   0.502   6.444
  763SOL    HW2 3189   5.419   0.341   6.467
  764SOL     OW 3190   5.787   1.316   5.412
  764SOL    HW1 3191   5.785   1.271   5.323
  764SOL    HW2 3192   5.883   1.328   5.441
  765SOL     OW 3193   1.254   6.723   0.860
  765SOL    HW1 3194   1.311   6.780   0.801
  765SOL    HW2 3195   1.159   6.726   0.828
  766SOL     OW 3196   2.555   2.104   5.293
  766SOL    HW1 3197   2.620   2.178   5.306
  766SOL    HW2 3198   2.464   2.134   5.320
  767SOL     OW 3199   6.803   6.767   3.390
  767SOL    HW1 3200   6.888   6.818   3.399
  767SOL    HW2 3201   6.805   6.687   3.451
  768SOL     OW 3202   2.261   6.243   2.831
  768SOL    HW1 3203   2.201   6.317   2.799
  768SOL    HW2 3204   2.356   6.274   2.827
  769SOL     OW 3205   3.759   1.637   5.133
  769SOL    HW1 3206   3.716   1.707   5.191
  769SOL    HW2 3207   3.741   1.546   5.171
  770SOL     OW 3208   1.595   4.641   4.356
  770SOL    HW1 3209   1.694   4.647   4.361
  770SOL    HW2 3210   1.554   4.713   4.411
  771SOL     OW 3211   0.854   5.667   3.242
  771SOL    HW1 3212   0.849   5.642   3.339
  771SOL    HW2 3213   0.832   5.764   3.232
  772SOL     OW 3214   5.821   4.823   6.821
  772SOL    HW1 3215   5.724   4.809   6.804
  772SOL    HW2 3216   5.834   4.909   6.870
  773SOL     OW 3217   1.202   3.741   2.950
  773SOL    HW1 3218   1.112   3.720   2.912
  773SOL    HW2 3219   1.273   3.714   2.886
  774SOL     OW 3220   1.910   1.930   3.313
  774SOL    HW1 3221   1.948   1.841   3.336
  774SOL    HW2 3222   1.985   1.993   3.290
  775SOL     OW 3223   1.901   3.063   4.269
  775SOL    HW1 3224   1.978   3.040   4.209
  775SOL    HW2 3225   1.828   3.105   4.214
  776SOL     OW 3226   0.206   6.904   6.107
  776SOL    HW1 3227   0.108   6.906   6.124
  776SOL    HW2 3228   0.245   6.994   6.124
  777SOL     OW 3229   1.474   3.449   0.498
  777SOL    HW1 3230   1.383   3.486   0.478
  777SOL    HW2 3231   1.466   3.351   0.517
  778SOL     OW 3232   3.043   0.203   1.990
  778SOL    HW1 3233   2.953   0.162   1.979
  778SOL    HW2 3234   3.044   0.294   1.949
  779SOL     OW 3235   0.348   2.684   1.836
  779SOL    HW1 3236   0.438   2.676   1.793
  779SOL    HW2 3237   0.280   2.712   1.768
  780SOL     OW 3238   1.498   2.422   4.506
  780SOL    HW1 3239   1.582   2.475   4.493
  780SOL    HW2 3240   1.483   2.362   4.428
  781SOL     OW 3241   6.885   4.686   6.950
  781SOL    HW1 3242   6.868   4.747   0.009
  781SOL    HW2 3243   6.918   4.740   6.872
  782SOL     OW 3244   1.895   4.186   5.615
  782SOL    HW1 3245   1.993   4.196   5.630
  782SOL    HW2 3246   1.878   4.169   5.518
  783SOL     OW 3247   5.611   5.486   6.716
  783SOL    HW1 3248   5.664   5.548   6.658
  783SOL    HW2 3249   5.603   5.526   6.808
  784SOL     OW 3250   2.572   5.947   2.096
  784SOL    HW1 3251   2.477   5.919   2.084
  784SOL    HW2 3252   2.580   6.046   2.080
  785SOL     OW 3253   0.643   0.013   3.876
  785SOL    HW1 3254   0.662   0.107   3.848
  785SOL    HW2 3255   0.684   6.968   3.811
  786SOL     OW 3256   5.840   0.432   3.331
  786SOL    HW1 3257   5.743   0.409   3.342
  786SOL    HW2 3258   5.850   0.497   3.256
  787SOL     OW 3259   2.533   0.862   0.358
  787SOL    HW1 3260   2.496   0.950   0.330
  787SOL    HW2 3261   2.475   0.823   0.430
  788SOL     OW 3262   3.514   3.047   1.506
  788SOL    HW1 3263   3.529   2.967   1.565
  788SOL    HW2 3264   3.591   3.110   1.516
  789SOL     OW 3265   4.350   5.635   1.786
  789SOL    HW1 3266   4.437   5.672   1.816
  789SOL    HW2 3267   4.275   5.686   1.829
  790SOL     OW 3268   1.083   2.230   1.503
  790SOL    HW1 3269   1.164   2.235   1.444
  790SOL    HW2 3270   1.005   2.200   1.449
  791SOL     OW 3271   2.970   5.597   5.680
  791SOL    HW1 3272   2.971   5.697   5.683
  791SOL    HW2 3273   2.887   5.564   5.725
  792SOL     OW 3274   0.509   1.457   0.713
  792SOL    HW1 3275   0.575   1.528   0.738
  792SOL    HW2 3276   0.417   1.498   0.708
  793SOL     OW 3277   4.752   5.758   4.492
  793SOL    HW1 3278   4.810   5.773   4.573
  793SOL    HW2 3279   4.656   5.763   4.519
  794SOL     OW 3280   3.249   3.490   4.440
  794SOL    HW1 3281   3.233   3.410   4.497
  794SOL    HW2 3282   3.328   3.474   4.382
  795SOL     OW 3283   3.598   0.622   5.608
  795SOL    HW1 3284   3.679   0.568   5.586
  795SOL    HW2 3285   3.524   0.598   5.545
  796SOL     OW 3286   1.768   2.701   6.673
  796SOL    HW1 3287   1.824   2.712   6.590
  796SOL    HW2 3288   1.802   2.622   6.725
  797SOL     OW 3289   4.149   0.136   1.130
  797SOL    HW1 3290   4.230   0.168   1.179
  797SOL    HW2 3291   4.075   0.202   1.141
  798SOL     OW 3292   2.725   6.362   1.211
  798SOL    HW1 3293   2.750   6.335   1.304
  798SOL    HW2 3294   2.637   6.409   1.212
  799SOL     OW 3295   0.134   2.514   6.494
  799SOL    HW1 3296   0.176   2.424   6.504
  799SOL    HW2 3297   0.184   2.565   6.423
  800SOL     OW 3298   6.221   1.206   1.691
  800SOL    HW1 3299   6.149   1.163   1.746
  800SOL    HW2 3300   6.303   1.150   1.695
  801SOL     OW 3301   2.379   5.222   5.636
  801SOL    HW1 3302   2.470   5.210   5.598
  801SOL    HW2 3303   2.319   5.262   5.567
  802SOL     OW 3304   4.947   2.494   6.281
  802SOL    HW1 3305   4.900   2.407   6.291
  802SOL    HW2 3306   4.881   2.565   6.256
  803SOL     OW 3307   2.926   0.038   5.869
  803SOL    HW1 3308   2.832   0.004   5.877
  803SOL    HW2 3309   2.990   6.979   5.877
  804SOL     OW 3310   5.962   0.019   1.296
  804SOL    HW1 3311   6.048   0.035   1.246
  804SOL    HW2 3312   5.966   6.949   1.342
  805SOL     OW 3313   2.046   0.333   3.630
  805SOL    HW1 3314   2.114   0.270   3.667
  805SOL    HW2 3315   2.061   0.425   3.668
  806SOL     OW 3316   0.284   0.289   5.893
  806SOL    HW1 3317   0.214   0.232   5.851
  806SOL    HW2 3318   0.298   0.262   5.988
  807SOL     OW 3319   0.728   6.791   4.577
  807SOL    HW1 3320   0.699   6.759   4.487
  807SOL    HW2 3321   0.796   6.864   4.566
  808SOL     OW 3322   5.960   3.158   0.308
  808SOL    HW1 3323   6.024   3.189   0.378
  808SOL    HW2 3324   5.901   3.087   0.347
  809SOL     OW 3325   0.271   5.588   6.710
  809SOL    HW1 3326   0.297   5.493   6.695
  809SOL    HW2 3327   0.284   5.613   6.806
  810SOL     OW 3328   2.633   3.245   0.737
  810SOL    HW1 3329   2.646   3.344   0.736
  810SOL    HW2 3330   2.623   3.213   0.831
  811SOL     OW 3331   5.514   5.063   4.397
  811SOL    HW1 3332   5.487   4.989   4.335
  811SOL    HW2 3333   5.601   5.102   4.366
  812SOL     OW 3334   0.580   2.180   2.214
  812SOL    HW1 3335   0.675   2.185   2.183
  812SOL    HW2 3336   0.529   2.257   2.175
  813SOL     OW 3337   2.150   0.596   4.028
  813SOL    HW1 3338   2.177   0.586   4.124
  813SOL    HW2 3339   2.156   0.507   3.982
  814SOL     OW 3340   6.578   6.053   2.520
  814SOL    HW1 3341   6.483   6.054   2.551
  814SOL    HW2 3342   6.584   6.001   2.435
  815SOL     OW 3343   4.681   2.671   3.234
  815SOL    HW1 3344   4.687   2.693   3.136
  815SOL    HW2 3345   4.585   2.658   3.259
  816SOL     OW 3346   5.189   4.129   0.312
  816SOL    HW1 3347   5.234   4.068   0.377
  816SOL    HW2 3348   5.227   4.114   0.220
  817SOL     OW 3349   1.234   5.569   0.997
  817SOL    HW1 3350   1.222   5.546   0.900
  817SOL    HW2 3351   1.310   5.633   1.006
  818SOL     OW 3352   5.353   2.740   3.386
  818SOL    HW1 3353   5.306   2.703   3.306
  818SOL    HW2 3354   5.444   2.699   3.394
  819SOL     OW 3355   6.006   2.718   1.124
  819SOL    HW1 3356   5.976   2.780   1.197
  819SOL    HW2 3357   5.974   2.626   1.144
  820SOL     OW 3358   2.707   1.933   4.476
  820SOL    HW1 3359   2.719   1.998   4.551
  820SOL    HW2 3360   2.642   1.862   4.503
  821SOL     OW 3361   5.688   4.746   4.671
  821SOL    HW1 3362   5.721   4.700   4.753
  821SOL    HW2 3363   5.593   4.720   4.653
  822SOL     OW 3364   0.512   4.249   3.172
  822SOL    HW1 3365   0.504   4.242   3.271
  822SOL    HW2 3366   0.530   4.159   3.134
  823SOL     OW 3367   0.501   3.794   5.993
  823SOL    HW1 3368   0.582   3.778   5.936
  823SOL    HW2 3369   0.528   3.841   6.077
  824SOL     OW 3370   5.390   1.448   5.193
  824SOL    HW1 3371   5.463   1.426   5.258
  824SOL    HW2 3372   5.309   1.394   5.214
  825SOL     OW 3373   6.243   6.267   0.793
  825SOL    HW1 3374   6.335   6.306   0.782
  825SOL    HW2 3375   6.237   6.221   0.882
  826SOL     OW 3376   3.885   2.055   6.054
  826SOL    HW1 3377   3.918   2.114   6.127
  826SOL    HW2 3378   3.789   2.075   6.035
  827SOL     OW 3379   3.344   3.947   4.832
  827SOL    HW1 3380   3.375   3.861   4.791
  827SOL    HW2 3381   3.292   3.999   4.764
  828SOL     OW 3382   6.339   5.344   4.308
  828SOL    HW1 3383   6.379   5.364   4.218
  828SOL    HW2 3384   6.313   5.430   4.352
  829SOL     OW 3385   3.425   2.865   2.283
  829SOL    HW1 3386   3.522   2.860   2.260
  829SOL    HW2 3387   3.371   2.828   2.208
  830SOL     OW 3388   6.231   4.686   6.602
  830SOL    HW1 3389   6.310   4.745   6.587
  830SOL    HW2 3390   6.189   4.708   6.690
  831SOL     OW 3391   5.564   6.397   1.397
  831SOL    HW1 3392   5.468   6.414   1.419
  831SOL    HW2 3393   5.569   6.333   1.320
  832SOL     OW 3394   3.991   1.539   4.330
  832SOL    HW1 3395   3.969   1.521   4.235
  832SOL    HW2 3396   4.057   1.472   4.363
  833SOL     OW 3397   1.052   3.907   6.448
  833SOL    HW1 3398   1.116   3.929   6.523
  833SOL    HW2 3399   1.104   3.890   6.365
  834SOL     OW 3400   4.623   3.680   6.681
  834SOL    HW1 3401   4.678   3.730   6.614
  834SOL    HW2 3402   4.529   3.716   6.680
  835SOL     OW 3403   2.075   0.691   5.045
  835SOL    HW1 3404   2.076   0.764   4.977
  835SOL    HW2 3405   2.028   0.722   5.127
  836SOL     OW 3406   3.376   1.877   5.658
  836SOL    HW1 3407   3.398   1.971   5.629
  836SOL    HW2 3408   3.357   1.821   5.577
  837SOL     OW 3409   1.750   0.690   1.486
  837SOL    HW1 3410   1.788   0.608   1.529
  837SOL    HW2 3411   1.795   0.771   1.524
  838SOL     OW 3412   1.935   5.453   4.166
  838SOL    HW1 3413   2.003   5.381   4.181
  838SOL    HW2 3414   1.976   5.528   4.114
  839SOL     OW 3415   2.279   1.108   1.536
  839SOL    HW1 3416   2.369   1.064   1.542
  839SOL    HW2 3417   2.236   1.083   1.449
  840SOL     OW 3418   5.964   6.006   0.225
  840SOL    HW1 3419   5.926   6.081   0.171
  840SOL    HW2 3420   6.015   5.945   0.165
  841SOL     OW 3421   4.526   5.507   5.613
  841SOL    HW1 3422   4.566   5.522   5.522
  841SOL    HW2 3423   4.473   5.423   5.612
  842SOL     OW 3424   3.277   0.067   0.000
  842SOL    HW1 3425   3.195   0.112   6.984
  842SOL    HW2 3426   3.255   0.019   0.086
  843SOL     OW 3427   2.094   2.114   1.838
  843SOL    HW1 3428   2.011   2.066   1.813
  843SOL    HW2 3429   2.132   2.075   1.922
  844SOL     OW 3430   0.488   6.267   1.144
  844SOL    HW1 3431   0.503   6.185   1.088
  844SOL    HW2 3432   0.551   6.266   1.221
  845SOL     OW 3433   4.084   2.174   3.140
  845SOL    HW1 3434   4.004   2.141   3.090
  845SOL    HW2 3435   4.090   2.273   3.134
  846SOL     OW 3436   2.933   1.660   5.895
  846SOL    HW1 3437   2.836   1.683   5.885
  846SOL    HW2 3438   2.969   1.630   5.807
  847SOL     OW 3439   2.292   2.998   1.654
  847SOL    HW1 3440   2.349   3.080   1.661
  847SOL    HW2 3441   2.289   2.951   1.742
  848SOL     OW 3442   6.135   6.746   5.875
  848SOL    HW1 3443   6.196   6.679   5.918
  848SOL    HW2 3444   6.133   6.830   5.929
  849SOL     OW 3445   5.898   3.678   0.120
  849SOL    HW1 3446   5.889   3.710   0.026
  849SOL    HW2 3447   5.932   3.583   0.119
  850SOL     OW 3448   6.783   0.465   4.623
  850SOL    HW1 3449   6.765   0.544   4.681
  850SOL    HW2 3450   6.881   0.460   4.602
  851SOL     OW 3451   6.658   3.080   6.854
  851SOL    HW1 3452   6.570   3.054   6.895
  851SOL    HW2 3453   6.710   2.997   6.835
  852SOL     OW 3454   0.223   4.713   0.704
  852SOL    HW1 3455   0.135   4.676   0.675
  852SOL    HW2 3456   0.228   4.715   0.804
  853SOL     OW 3457   2.262   3.983   6.629
  853SOL    HW1 3458   2.262   4.079   6.656
  853SOL    HW2 3459   2.334   3.934   6.679
  854SOL     OW 3460   5.835   6.633   6.763
  854SOL    HW1 3461   5.890   6.684   6.829
  854SOL    HW2 3462   5.756   6.689   6.736
  855SOL     OW 3463   6.877   0.596   0.088
  855SOL    HW1 3464   6.877   0.614   0.187
  855SOL    HW2 3465   6.783   0.577   0.058
  856SOL     OW 3466   1.746   6.833   6.220
  856SOL    HW1 3467   1.810   6.766   6.258
  856SOL    HW2 3468   1.725   6.808   6.125
  857SOL     OW 3469   7.016   4.489   2.992
  857SOL    HW1 3470   6.964   4.548   2.930
  857SOL    HW2 3471   6.968   4.402   3.003
  858SOL     OW 3472   2.796   4.083   1.012
  858SOL    HW1 3473   2.712   4.076   0.960
  858SOL    HW2 3474   2.868   4.122   0.954
  859SOL     OW 3475   4.821   6.096   5.312
  859SOL    HW1 3476   4.845   6.144   5.396
  859SOL    HW2 3477   4.788   6.161   5.244
  860SOL     OW 3478   5.596   3.096   6.792
  860SOL    HW1 3479   5.673   3.146   6.831
  860SOL    HW2 3480   5.614   3.075   6.696
  861SOL     OW 3481   1.546   5.426   2.696
  861SOL    HW1 3482   1.451   5.428   2.726
  861SOL    HW2 3483   1.595   5.504   2.734
  862SOL     OW 3484   1.843   5.080   3.755
  862SOL    HW1 3485   1.879   5.056   3.665
  862SOL    HW2 3486   1.754   5.036   3.768
  863SOL     OW 3487   6.031   0.629   5.821
  863SOL    HW1 3488   6.116   0.664   5.783
  863SOL    HW2 3489   6.047   0.538   5.861
  864SOL     OW 3490   4.695   0.289   5.366
  864SOL    HW1 3491   4.616   0.347   5.348
  864SOL    HW2 3492   4.682   0.201   5.319
  865SOL     OW 3493   2.085   0.009   5.382
  865SOL    HW1 3494   2.002   0.049   5.343
  865SOL    HW2 3495   2.078   0.009   5.482
  866SOL     OW 3496   3.062   6.564   0.913
  866SOL    HW1 3497   3.141   6.614   0.948
  866SOL    HW2 3498   3.052   6.582   0.815
  867SOL     OW 3499   5.674   2.818   0.419
  867SOL    HW1 3500   5.713   2.864   0.338
  867SOL    HW2 3501   5.674   2.881   0.496
  868SOL     OW 3502   0.142   2.286   2.458
  868SOL    HW1 3503   0.060   2.320   2.503
  868SOL    HW2 3504   0.210   2.359   2.454
  869SOL     OW 3505   0.089   3.485   4.064
  869SOL    HW1 3506   0.014   3.419   4.072
  869SOL    HW2 3507   0.134   3.496   4.152
  870SOL     OW 3508   3.887   4.871   1.308
  870SOL    HW1 3509   3.911   4.821   1.391
  870SOL    HW2 3510   3.794   4.847   1.280
  871SOL     OW 3511   5.204   2.025   3.951
  871SOL    HW1 3512   5.208   2.102   4.015
  871SOL    HW2 3513   5.218   2.057   3.858
  872SOL     OW 3514   0.231   1.885   4.823
  872SOL    HW1 3515   0.331   1.885   4.830
  872SOL    HW2 3516   0.203   1.830   4.745
  873SOL     OW 3517   4.642   6.341   5.721
  873SOL    HW1 3518   4.715   6.313   5.659
  873SOL    HW2 3519   4.655   6.437   5.745
  874SOL     OW 3520   6.260   4.134   6.788
  874SOL    HW1 3521   6.210   4.220   6.796
  874SOL    HW2 3522   6.355   4.153   6.764
  875SOL     OW 3523   5.512   5.690   1.041
  875SOL    HW1 3524   5.594   5.633   1.034
  875SOL    HW2 3525   5.433   5.633   1.063
  876SOL     OW 3526   0.569   4.993   1.954
  876SOL    HW1 3527   0.487   5.050   1.952
  876SOL    HW2 3528   0.591   4.963   1.861
  877SOL     OW 3529   2.466   4.046   6.359
  877SOL    HW1 3530   2.408   3.992   6.419
  877SOL    HW2 3531   2.417   4.066   6.274
  878SOL     OW 3532   4.523   6.910   4.140
  878SOL    HW1 3533   4.505   6.876   4.233
  878SOL    HW2 3534   4.518   6.834   4.076
  879SOL     OW 3535   3.761   0.584   1.591
  879SOL    HW1 3536   3.812   0.535   1.521
  879SOL    HW2 3537   3.804   0.672   1.608
  880SOL     OW 3538   3.556   4.158   3.773
  880SOL    HW1 3539   3.540   4.162   3.871
  880SOL    HW2 3540   3.469   4.156   3.724
  881SOL     OW 3541   4.843   3.112   4.864
  881SOL    HW1 3542   4.835   3.211   4.862
  881SOL    HW2 3543   4.935   3.085   4.838
  882SOL     OW 3544   0.858   3.085   4.177
  882SOL    HW1 3545   0.922   3.031   4.121
  882SOL    HW2 3546   0.825   3.028   4.253
  883SOL     OW 3547   3.522   0.989   2.154
  883SOL    HW1 3548   3.427   1.020   2.164
  883SOL    HW2 3549   3.523   0.890   2.137
  884SOL     OW 3550   5.344   3.616   6.128
  884SOL    HW1 3551   5.294   3.628   6.042
  884SOL    HW2 3552   5.424   3.675   6.128
  885SOL     OW 3553   3.676   1.085   4.750
  885SOL    HW1 3554   3.714   1.177   4.761
  885SOL    HW2 3555   3.737   1.030   4.693
  886SOL     OW 3556   3.543   0.189   1.011
  886SOL    HW1 3557   3.534   0.274   0.958
  886SOL    HW2 3558   3.607   0.128   0.966
  887SOL     OW 3559   3.768   6.701   4.154
  887SOL    HW1 3560   3.740   6.796   4.168
  887SOL    HW2 3561   3.712   6.660   4.082
  888SOL     OW 3562   0.089   6.345   3.320
  888SOL    HW1 3563   0.030   6.266   3.306
  888SOL    HW2 3564   0.048   6.425   3.275
  889SOL     OW 3565   0.365   3.753   0.825
  889SOL    HW1 3566   0.394   3.849   0.827
  889SOL    HW2 3567   0.374   3.714   0.917
  890SOL     OW 3568   1.547   5.482   3.202
  890SOL    HW1 3569   1.555   5.393   3.157
  890SOL    HW2 3570   1.450   5.508   3.208
  891SOL     OW 3571   5.266   5.668   0.633
  891SOL    HW1 3572   5.284   5.611   0.713
  891SOL    HW2 3573   5.230   5.611   0.559
  892SOL     OW 3574   2.237   3.779   5.275
  892SOL    HW1 3575   2.291   3.853   5.236
  892SOL    HW2 3576   2.204   3.719   5.202
  893SOL     OW 3577   1.989   6.815   2.736
  893SOL    HW1 3578   2.004   6.879   2.660
  893SOL    HW2 3579   1.894   6.821   2.766
  894SOL     OW 3580   1.091   3.216   1.781
  894SOL    HW1 3581   1.147   3.157   1.839
  894SOL    HW2 3582   1.028   3.269   1.837
  895SOL     OW 3583   0.403   4.549   4.103
  895SOL    HW1 3584   0.434   4.619   4.167
  895SOL    HW2 3585   0.306   4.563   4.083
  896SOL     OW 3586   5.571   4.713   0.550
  896SOL    HW1 3587   5.510   4.755   0.482
  896SOL    HW2 3588   5.566   4.614   0.543
  897SOL     OW 3589   4.610   1.450   6.908
  897SOL    HW1 3590   4.550   1.505   6.850
  897SOL    HW2 3591   4.698   1.437   6.861
  898SOL     OW 3592   3.053   5.865   2.543
  898SOL    HW1 3593   3.141   5.830   2.509
  898SOL    HW2 3594   3.063   5.961   2.569
  899SOL     OW 3595   0.010   6.399   6.544
  899SOL    HW1 3596   0.076   6.326   6.523
  899SOL    HW2 3597   0.018   6.424   6.640
  900SOL     OW 3598   5.531   6.630   0.282
  900SOL    HW1 3599   5.507   6.726   0.298
  900SOL    HW2 3600   5.482   6.572   0.347
  901SOL     OW 3601   2.374   0.466   3.507
  901SOL    HW1 3602   2.353   0.560   3.479
  901SOL    HW2 3603   2.331   0.447   3.595
  902SOL     OW 3604   0.604   2.478   0.447
  902SOL    HW1 3605   0.592   2.577   0.452
  902SOL    HW2 3606   0.519   2.435   0.417
  903SOL     OW 3607   6.703   2.561   6.698
  903SOL    HW1 3608   6.701   2.608   6.786
  903SOL    HW2 3609   6.691   2.628   6.624
  904SOL     OW 3610   2.740   2.325   2.789
  904SOL    HW1 3611   2.697   2.414   2.773
  904SOL    HW2 3612   2.787   2.295   2.707
  905SOL     OW 3613   4.926   1.762   6.656
  905SOL    HW1 3614   4.990   1.705   6.707
  905SOL    HW2 3615   4.871   1.817   6.720
  906SOL     OW 3616   0.037   2.371   5.936
  906SOL    HW1 3617   7.005   2.397   6.018
  906SOL    HW2 3618   0.114   2.312   5.961
  907SOL     OW 3619   5.283   3.711   0.572
  907SOL    HW1 3620   5.255   3.618   0.548
  907SOL    HW2 3621   5.300   3.717   0.670
  908SOL     OW 3622   2.568   4.613   2.399
  908SOL    HW1 3623   2.535   4.518   2.400
  908SOL    HW2 3624   2.594   4.638   2.306
  909SOL     OW 3625   4.512   5.429   1.061
  909SOL    HW1 3626   4.482   5.521   1.084
  909SOL    HW2 3627   4.587   5.402   1.121
  910SOL     OW 3628   2.816   2.370   1.399
  910SOL    HW1 3629   2.805   2.469   1.411
  910SOL    HW2 3630   2.753   2.323   1.461
  911SOL     OW 3631   1.141   5.949   6.384
  911SOL    HW1 3632   1.180   5.894   6.311
  911SOL    HW2 3633   1.100   5.890   6.453
  912SOL     OW 3634   5.980   2.051   2.986
  912SOL    HW1 3635   5.944   1.961   2.961
  912SOL    HW2 3636   5.912   2.100   3.040
  913SOL     OW 3637   4.357   6.857   3.076
  913SOL    HW1 3638   4.279   6.912   3.104
  913SOL    HW2 3639   4.442   6.902   3.105
  914SOL     OW 3640   2.004   0.002   6.575
  914SOL    HW1 3641   1.969   6.927   6.572
  914SOL    HW2 3642   2.030   0.025   6.669
  915SOL     OW 3643   6.082   4.295   6.331
  915SOL    HW1 3644   6.110   4.320   6.238
  915SOL    HW2 3645   6.062   4.378   6.383
  916SOL     OW 3646   1.571   2.071   2.105
  916SOL    HW1 3647   1.656   2.108   2.068
  916SOL    HW2 3648   1.590   1.986   2.153
  917SOL     OW 3649   0.411   6.315   0.379
  917SOL    HW1 3650   0.458   6.330   0.466
  917SOL    HW2 3651   0.461   6.247   0.326
  918SOL     OW 3652   2.907   0.152   0.383
  918SOL    HW1 3653   2.836   0.186   0.444
  918SOL    HW2 3654   2.983   0.117   0.437
  919SOL     OW 3655   5.573   1.546   3.526
  919SOL    HW1 3656   5.583   1.449   3.549
  919SOL    HW2 3657   5.478   1.564   3.499
  920SOL     OW 3658   2.571   4.190   1.572
  920SOL    HW1 3659   2.649   4.136   1.604
  920SOL    HW2 3660   2.488   4.162   1.620
  921SOL     OW 3661   5.016   6.273   4.300
  921SOL    HW1 3662   5.111   6.271   4.333
  921SOL    HW2 3663   5.004   6.350   4.237
  922SOL     OW 3664   3.918   4.034   4.263
  922SOL    HW1 3665   3.992   3.971   4.286
  922SOL    HW2 3666   3.859   4.047   4.342
  923SOL     OW 3667   2.593   3.017   6.715
  923SOL    HW1 3668   2.613   3.001   6.812
  923SOL    HW2 3669   2.545   3.104   6.705
  924SOL     OW 3670   6.085   4.063   2.180
  924SOL    HW1 3671   6.023   4.005   2.127
  924SOL    HW2 3672   6.072   4.046   2.277
  925SOL     OW 3673   6.871   2.561   0.186
  925SOL    HW1 3674   6.946   2.627   0.188
  925SOL    HW2 3675   6.802   2.586   0.254
  926SOL     OW 3676   0.001   1.220   0.868
  926SOL    HW1 3677   6.949   1.276   0.913
  926SOL    HW2 3678   6.975   1.153   0.809
  927SOL     OW 3679   5.630   3.615   3.944
  927SOL    HW1 3680   5.675   3.599   3.856
  927SOL    HW2 3681   5.660   3.545   4.009
  928SOL     OW 3682   2.895   5.855   0.875
  928SOL    HW1 3683   2.954   5.876   0.797
  928SOL    HW2 3684   2.800   5.873   0.849
  929SOL     OW 3685   6.935   0.538   6.842
  929SOL    HW1 3686   6.926   0.440   6.829
  929SOL    HW2 3687   6.927   0.560   6.940
  930SOL     OW 3688   4.350   5.399   6.453
  930SOL    HW1 3689   4.313   5.439   6.537
  930SOL    HW2 3690   4.281   5.339   6.412
  931SOL     OW 3691   6.536   2.414   4.479
  931SOL    HW1 3692   6.499   2.388   4.568
  931SOL    HW2 3693   6.506   2.507   4.456
  932SOL     OW 3694   2.418   1.851   3.377
  932SOL    HW1 3695   2.364   1.911   3.436
  932SOL    HW2 3696   2.431   1.763   3.422
  933SOL     OW 3697   1.333   4.987   2.590
  933SOL    HW1 3698   1.429   4.962   2.574
  933SOL    HW2 3699   1.280   4.904   2.609
  934SOL     OW 3700   2.511   5.995   5.619
  934SOL    HW1 3701   2.469   5.913   5.579
  934SOL    HW2 3702   2.602   6.009   5.580
  935SOL     OW 3703   4.948   3.859   3.793
  935SOL    HW1 3704   4.972   3.908   3.710
  935SOL    HW2 3705   4.966   3.761   3.781
  936SOL     OW 3706   1.702   0.311   6.283
  936SOL    HW1 3707   1.786   0.359   6.308
  936SOL    HW2 3708   1.633   0.323   6.354
  937SOL     OW 3709   4.839   1.881   5.386
  937SOL    HW1 3710   4.927   1.921   5.410
  937SOL    HW2 3711   4.835   1.787   5.418
  938SOL     OW 3712   6.564   5.503   4.169
  938SOL    HW1 3713   6.540   5.592   4.207
  938SOL    HW2 3714   6.655   5.476   4.202
  939SOL     OW 3715   0.264   6.842   4.452
  939SOL    HW1 3716   0.227   6.904   4.382
  939SOL    HW2 3717   0.278   6.752   4.413
  940SOL     OW 3718   0.893   4.177   0.413
  940SOL    HW1 3719   0.900   4.120   0.331
  940SOL    HW2 3720   0.874   4.271   0.387
  941SOL     OW 3721   4.974   0.339   6.727
  941SOL    HW1 3722   4.889   0.381   6.696
  941SOL    HW2 3723   4.953   0.251   6.770
  942SOL     OW 3724   6.448   6.235   1.384
  942SOL    HW1 3725   6.414   6.310   1.327
  942SOL    HW2 3726   6.378   6.210   1.451
  943SOL     OW 3727   2.231   4.821   2.657
  943SOL    HW1 3728   2.170   4.883   2.707
  943SOL    HW2 3729   2.200   4.814   2.562
  944SOL     OW 3730   0.435   5.026   4.231
  944SOL    HW1 3731   0.509   5.047   4.294
  944SOL    HW2 3732   0.347   5.048   4.274
  945SOL     OW 3733   0.543   5.046   5.449
  945SOL    HW1 3734   0.588   5.103   5.517
  945SOL    HW2 3735   0.530   4.954   5.486
  946SOL     OW 3736   4.923   4.826   4.243
  946SOL    HW1 3737   4.894   4.766   4.317
  946SOL    HW2 3738   4.972   4.905   4.280
  947SOL     OW 3739   3.582   3.530   3.390
  947SOL    HW1 3740   3.589   3.486   3.479
  947SOL    HW2 3741   3.609   3.626   3.397
  948SOL     OW 3742   5.186   0.843   2.395
  948SOL    HW1 3743   5.152   0.836   2.489
  948SOL    HW2 3744   5.232   0.757   2.371
  949SOL     OW 3745   3.206   6.511   7.000
  949SOL    HW1 3746   3.127   6.572   7.002
  949SOL    HW2 3747   3.197   6.447   6.924
  950SOL     OW 3748   5.666   5.891   2.250
  950SOL    HW1 3749   5.648   5.828   2.326
  950SOL    HW2 3750   5.587   5.952   2.238
  951SOL     OW 3751   1.174   6.685   3.321
  951SOL    HW1 3752   1.230   6.763   3.292
  951SOL    HW2 3753   1.158   6.691   3.419
  952SOL     OW 3754   4.315   2.038   2.780
  952SOL    HW1 3755   4.365   1.970   2.834
  952SOL    HW2 3756   4.369   2.122   2.773
  953SOL     OW 3757   6.162   5.895   5.049
  953SOL    HW1 3758   6.185   5.818   4.989
  953SOL    HW2 3759   6.117   5.967   4.996
  954SOL     OW 3760   4.178   6.129   2.398
  954SOL    HW1 3761   4.118   6.152   2.322
  954SOL    HW2 3762   4.187   6.208   2.459
  955SOL     OW 3763   1.747   4.360   0.068
  955SOL    HW1 3764   1.797   4.443   0.093
  955SOL    HW2 3765   1.761   4.341   6.989
  956SOL     OW 3766   0.288   1.001   0.833
  956SOL    HW1 3767   0.281   1.100   0.844
  956SOL    HW2 3768   0.379   0.977   0.799
  957SOL     OW 3769   6.121   1.418   1.866
  957SOL    HW1 3770   6.187   1.353   1.828
  957SOL    HW2 3771   6.169   1.502   1.892
  958SOL     OW 3772   5.106   5.938   2.225
  958SOL    HW1 3773   5.102   6.023   2.278
  958SOL    HW2 3774   5.014   5.902   2.215
  959SOL     OW 3775   3.596   6.602   4.724
  959SOL    HW1 3776   3.552   6.566   4.641
  959SOL    HW2 3777   3.694   6.612   4.708
  960SOL     OW 3778   0.906   0.780   0.850
  960SOL    HW1 3779   0.851   0.706   0.888
  960SOL    HW2 3780   1.001   0.767   0.876
  961SOL     OW 3781   3.380   6.621   3.255
  961SOL    HW1 3782   3.322   6.685   3.205
  961SOL    HW2 3783   3.473   6.624   3.218
  962SOL     OW 3784   5.893   0.391   4.904
  962SOL    HW1 3785   5.909   0.426   4.811
  962SOL    HW2 3786   5.975   0.344   4.936
  963SOL     OW 3787   4.540   1.301   1.408
  963SOL    HW1 3788   4.526   1.377   1.345
  963SOL    HW2 3789   4.589   1.227   1.362
  964SOL     OW 3790   4.561   4.871   5.354
  964SOL    HW1 3791   4.526   4.788   5.311
  964SOL    HW2 3792   4.596   4.932   5.284
  965SOL     OW 3793   6.446   2.132   2.489
  965SOL    HW1 3794   6.532   2.131   2.539
  965SOL    HW2 3795   6.371   2.109   2.551
  966SOL     OW 3796   4.723   2.435   3.373
  966SOL    HW1 3797   4.623   2.434   3.375
  966SOL    HW2 3798   4.755   2.529   3.367
  967SOL     OW 3799   3.289   4.790   6.457
  967SOL    HW1 3800   3.278   4.888   6.475
  967SOL    HW2 3801   3.385   4.770   6.440
  968SOL     OW 3802   3.387   0.339   1.342
  968SOL    HW1 3803   3.449   0.303   1.411
  968SOL    HW2 3804   3.313   0.273   1.325
  969SOL     OW 3805   2.911   5.203   5.429
  969SOL    HW1 3806   2.893   5.120   5.377
  969SOL    HW2 3807   2.998   5.243   5.401
  970SOL     OW 3808   6.084   1.411   5.835
  970SOL    HW1 3809   6.052   1.327   5.879
  970SOL    HW2 3810   6.036   1.490   5.874
  971SOL     OW 3811   0.004   3.558   2.604
  971SOL    HW1 3812   0.093   3.598   2.628
  971SOL    HW2 3813   6.965   3.553   2.686
  972SOL     OW 3814   6.875   2.636   1.121
  972SOL    HW1 3815   6.889   2.695   1.200
  972SOL    HW2 3816   6.791   2.582   1.134
  973SOL     OW 3817   0.263   4.061   6.260
  973SOL    HW1 3818   0.257   3.962   6.254
  973SOL    HW2 3819   0.221   4.092   6.345
  974SOL     OW 3820   0.716   4.864   2.617
  974SOL    HW1 3821   0.695   4.795   2.548
  974SOL    HW2 3822   0.633   4.888   2.668
  975SOL     OW 3823   2.669   6.993   1.056
  975SOL    HW1 3824   2.739   0.045   1.070
  975SOL    HW2 3825   2.602   0.008   0.989
  976SOL     OW 3826   5.778   3.749   1.833
  976SOL    HW1 3827   5.850   3.738   1.901
  976SOL    HW2 3828   5.738   3.840   1.842
  977SOL     OW 3829   0.812   1.327   2.062
  977SOL    HW1 3830   0.831   1.306   1.967
  977SOL    HW2 3831   0.852   1.257   2.121
  978SOL     OW 3832   5.641   2.097   0.999
  978SOL    HW1 3833   5.612   2.020   1.055
  978SOL    HW2 3834   5.574   2.111   0.925
  979SOL     OW 3835   6.813   2.877   6.809
  979SOL    HW1 3836   6.817   2.798   6.869
  979SOL    HW2 3837   6.904   2.919   6.804
  980SOL     OW 3838   4.024   1.118   4.796
  980SOL    HW1 3839   4.113   1.076   4.816
  980SOL    HW2 3840   3.986   1.156   4.880
  981SOL     OW 3841   0.065   0.324   5.228
  981SOL    HW1 3842   0.138   0.390   5.248
  981SOL    HW2 3843   0.068   0.249   5.294
  982SOL     OW 3844   0.472   1.810   5.343
  982SOL    HW1 3845   0.472   1.722   5.391
  982SOL    HW2 3846   0.387   1.858   5.362
  983SOL     OW 3847   6.554   3.079   3.159
  983SOL    HW1 3848   6.455   3.074   3.174
  983SOL    HW2 3849   6.602   3.053   3.243
  984SOL     OW 3850   1.482   2.196   2.928
  984SOL    HW1 3851   1.394   2.161   2.959
  984SOL    HW2 3852   1.524   2.128   2.867
  985SOL     OW 3853   5.904   3.738   4.873
  985SOL    HW1 3854   5.827   3.710   4.929
  985SOL    HW2 3855   5.898   3.694   4.783
  986SOL     OW 3856   4.789   4.506   1.554
  986SOL    HW1 3857   4.832   4.574   1.614
  986SOL    HW2 3858   4.762   4.426   1.608
  987SOL     OW 3859   5.553   6.326   3.409
  987SOL    HW1 3860   5.545   6.423   3.387
  987SOL    HW2 3861   5.497   6.273   3.346
  988SOL     OW 3862   3.316   3.616   2.319
  988SOL    HW1 3863   3.295   3.664   2.404
  988SOL    HW2 3864   3.345   3.683   2.250
  989SOL     OW 3865   6.851   2.076   0.669
  989SOL    HW1 3866   6.892   2.017   0.599
  989SOL    HW2 3867   6.846   2.169   0.634
  990SOL     OW 3868   3.405   0.176   2.911
  990SOL    HW1 3869   3.466   0.249   2.940
  990SOL    HW2 3870   3.311   0.199   2.935
  991SOL     OW 3871   6.414   4.401   3.204
  991SOL    HW1 3872   6.363   4.330   3.254
  991SOL    HW2 3873   6.477   4.446   3.267
  992SOL     OW 3874   0.791   2.971   1.361
  992SOL    HW1 3875   0.798   2.990   1.459
  992SOL    HW2 3876   0.730   3.038   1.318
  993SOL     OW 3877   0.916   4.118   1.104
  993SOL    HW1 3878   0.922   4.044   1.037
  993SOL    HW2 3879   0.847   4.096   1.173
  994SOL     OW 3880   3.853   5.886   1.044
  994SOL    HW1 3881   3.803   5.973   1.043
  994SOL    HW2 3882   3.796   5.816   1.087
  995SOL     OW 3883   4.236   3.498   5.523
  995SOL    HW1 3884   4.308   3.495   5.454
  995SOL    HW2 3885   4.147   3.488   5.478
  996SOL     OW 3886   4.118   5.449   5.145
  996SOL    HW1 3887   4.197   5.440   5.084
  996SOL    HW2 3888   4.037   5.474   5.091
  997SOL     OW 3889   1.196   6.960   3.377
  997SOL    HW1 3890   1.149   0.007   3.318
  997SOL    HW2 3891   1.162   6.969   3.471
  998SOL     OW 3892   6.109   0.413   5.953
  998SOL    HW1 3893   6.082   0.319   5.930
  998SOL    HW2 3894   6.208   0.416   5.969
  999SOL     OW 3895   4.724   3.673   1.689
  999SOL    HW1 3896   4.633   3.698   1.656
  999SOL    HW2 3897   4.759   3.746   1.748
 1000SOL     OW 3898   4.282   1.519   1.393
 1000SOL    HW1 3899   4.347   1.544   1.321
 1000SOL    HW2 3900   4.292   1.581   1.470
 1001SOL     OW 3901   2.575   6.214   1.990
 1001SOL    HW1 3902   2.531   6.280   1.930
 1001SOL    HW2 3903   2.622   6.262   2.064
 1002SOL     OW 3904   5.612   1.971   1.665
 1002SOL    HW1 3905   5.656   2.004   1.581
 1002SOL    HW2 3906   5.639   2.029   1.742
 1003SOL     OW 3907   1.594   6.011   2.651
 1003SOL    HW1 3908   1.579   6.108   2.633
 1003SOL    HW2 3909   1.641   5.969   2.573
 1004SOL     OW 3910   6.298   1.395   2.501
 1004SOL    HW1 3911   6.381   1.373   2.451
 1004SOL    HW2 3912   6.222   1.340   2.467
 1005SOL     OW 3913   1.447   4.397   3.736
 1005SOL    HW1 3914   1.382   4.467   3.766
 1005SOL    HW2 3915   1.538   4.437   3.729
 1006SOL     OW 3916   2.206   3.420   0.521
 1006SOL    HW1 3917   2.118   3.455   0.555
 1006SOL    HW2 3918   2.243   3.484   0.454
 1007SOL     OW 3919   4.677   1.463   6.506
 1007SOL    HW1 3920   4.591   1.415   6.495
 1007SOL    HW2 3921   4.661   1.562   6.506
 1008SOL     OW 3922   0.254   3.771   5.415
 1008SOL    HW1 3923   0.290   3.848   5.466
 1008SOL    HW2 3924   0.310   3.690   5.431
 1009SOL     OW 3925   6.063   5.098   5.301
 1009SOL    HW1 3926   6.132   5.027   5.318
 1009SOL    HW2 3927   6.056   5.115   5.203
 1010SOL     OW 3928   2.495   2.336   1.734
 1010SOL    HW1 3929   2.557   2.264   1.703
 1010SOL    HW2 3930   2.486   2.406   1.663
 1011SOL     OW 3931   0.421   5.429   2.833
 1011SOL    HW1 3932   0.359   5.481   2.892
 1011SOL    HW2 3933   0.510   5.420   2.878
 1012SOL     OW 3934   6.542   6.673   2.466
 1012SOL    HW1 3935   6.498   6.755   2.428
 1012SOL    HW2 3936   6.530   6.597   2.402
 1013SOL     OW 3937   6.781   1.201   5.974
 1013SOL    HW1 3938   6.722   1.241   6.044
 1013SOL    HW2 3939   6.851   1.145   6.017
 1014SOL     OW 3940   0.790   4.376   4.756
 1014SOL    HW1 3941   0.866   4.319   4.789
 1014SOL    HW2 3942   0.791   4.463   4.804
 1015SOL     OW 3943   3.202   0.515   6.341
 1015SOL    HW1 3944   3.259   0.441   6.377
 1015SOL    HW2 3945   3.106   0.492   6.355
 1016SOL     OW 3946   4.885   4.328   1.329
 1016SOL    HW1 3947   4.889   4.233   1.359
 1016SOL    HW2 3948   4.898   4.389   1.407
 1017SOL     OW 3949   3.185   1.213   1.928
 1017SOL    HW1 3950   3.282   1.191   1.915
 1017SOL    HW2 3951   3.151   1.261   1.847
 1018SOL     OW 3952   6.690   4.390   3.739
 1018SOL    HW1 3953   6.785   4.384   3.711
 1018SOL    HW2 3954   6.631   4.401   3.659
 1019SOL     OW 3955   6.734   5.170   0.424
 1019SOL    HW1 3956   6.712   5.221   0.507
 1019SOL    HW2 3957   6.726   5.230   0.344
 1020SOL     OW 3958   6.524   0.832   1.046
 1020SOL    HW1 3959   6.497   0.927   1.027
 1020SOL    HW2 3960   6.442   0.774   1.046
 1021SOL     OW 3961   6.499   5.717   2.376
 1021SOL    HW1 3962   6.502   5.789   2.306
 1021SOL    HW2 3963   6.412   5.669   2.369
 1022SOL     OW 3964   3.047   6.034   6.017
 1022SOL    HW1 3965   2.957   5.994   6.035
 1022SOL    HW2 3966   3.036   6.115   5.959
 1023SOL     OW 3967   6.969   0.739   2.353
 1023SOL    HW1 3968   6.912   0.805   2.305
 1023SOL    HW2 3969   0.039   0.731   2.306
 1024SOL     OW 3970   0.767   1.148   4.487
 1024SOL    HW1 3971   0.819   1.113   4.566
 1024SOL    HW2 3972   0.767   1.248   4.489
 1025SOL     OW 3973   4.482   3.261   0.752
 1025SOL    HW1 3974   4.403   3.218   0.796
 1025SOL    HW2 3975   4.460   3.356   0.730
 1026SOL     OW 3976   3.087   2.490   1.714
 1026SOL    HW1 3977   3.027   2.472   1.792
 1026SOL    HW2 3978   3.040   2.464   1.630
 1027SOL     OW 3979   1.739   6.307   1.809
 1027SOL    HW1 3980   1.803   6.380   1.784
 1027SOL    HW2 3981   1.668   6.299   1.739
 1028SOL     OW 3982   1.539   6.339   3.018
 1028SOL    HW1 3983   1.577   6.376   2.933
 1028SOL    HW2 3984   1.467   6.400   3.051
 1029SOL     OW 3985   1.176   1.866   5.943
 1029SOL    HW1 3986   1.203   1.961   5.927
 1029SOL    HW2 3987   1.139   1.827   5.858
 1030SOL     OW 3988   3.261   3.122   1.703
 1030SOL    HW1 3989   3.246   3.113   1.605
 1030SOL    HW2 3990   3.342   3.179   1.719
 1031SOL     OW 3991   3.726   3.144   1.698
 1031SOL    HW1 3992   3.776   3.065   1.733
 1031SOL    HW2 3993   3.789   3.206   1.652
 1032SOL     OW 3994   2.357   1.104   5.087
 1032SOL    HW1 3995   2.309   1.151   5.013
 1032SOL    HW2 3996   2.446   1.147   5.103
 1033SOL     OW 3997   1.897   6.159   2.459
 1033SOL    HW1 3998   1.948   6.145   2.544
 1033SOL    HW2 3999   1.886   6.258   2.444
 1034SOL     OW 4000   2.139   6.065   4.164
 1034SOL    HW1 4001   2.149   6.152   4.213
 1034SOL    HW2 4002   2.050   6.025   4.184
 1035SOL     OW 4003   0.574   2.082   6.101
 1035SOL    HW1 4004   0.659   2.134   6.102
 1035SOL    HW2 4005   0.592   1.988   6.129
 1036SOL     OW 4006   5.221   1.147   1.631
 1036SOL    HW1 4007   5.178   1.169   1.718
 1036SOL    HW2 4008   5.241   1.232   1.582
 1037SOL     OW 4009   1.081   1.890   2.552
 1037SOL    HW1 4010   1.069   1.835   2.470
 1037SOL    HW2 4011   1.144   1.965   2.533
 1038SOL     OW 4012   1.792   1.497   6.433
 1038SOL    HW1 4013   1.755   1.429   6.370
 1038SOL    HW2 4014   1.872   1.541   6.392
 1039SOL     OW 4015   3.080   3.044   3.706
 1039SOL    HW1 4016   3.111   2.956   3.668
 1039SOL    HW2 4017   3.060   3.107   3.631
 1040SOL     OW 4018   5.120   1.012   3.441
 1040SOL    HW1 4019   5.130   0.955   3.359
 1040SOL    HW2 4020   5.122   1.109   3.414
 1041SOL     OW 4021   6.648   6.758   3.856
 1041SOL    HW1 4022   6.689   6.740   3.945
 1041SOL    HW2 4023   6.683   6.844   3.819
 1042SOL     OW 4024   4.715   5.110   2.857
 1042SOL    HW1 4025   4.787   5.049   2.824
 1042SOL    HW2 4026   4.752   5.169   2.929
 1043SOL     OW 4027   3.821   2.086   3.277
 1043SOL    HW1 4028   3.744   2.133   3.321
 1043SOL    HW2 4029   3.821   2.105   3.179
 1044SOL     OW 4030   6.280   5.759   1.280
 1044SOL    HW1 4031   6.288   5.763   1.379
 1044SOL    HW2 4032   6.190   5.791   1.252
 1045SOL     OW 4033   2.800   6.793   3.187
 1045SOL    HW1 4034   2.829   6.889   3.183
 1045SOL    HW2 4035   2.718   6.786   3.245
 1046SOL     OW 4036   2.694   1.456   1.124
 1046SOL    HW1 4037   2.708   1.548   1.161
 1046SOL    HW2 4038   2.783   1.410   1.115
 1047SOL     OW 4039   3.271   0.023   4.173
 1047SOL    HW1 4040   3.287   0.065   4.084
 1047SOL    HW2 4041   3.175   7.012   4.178
 1048SOL     OW 4042   3.077   5.211   2.665
 1048SOL    HW1 4043   3.151   5.261   2.709
 1048SOL    HW2 4044   3.116   5.150   2.595
 1049SOL     OW 4045   4.712   0.049   3.910
 1049SOL    HW1 4046   4.725   7.015   3.994
 1049SOL    HW2 4047   4.616   0.076   3.902
 1050SOL     OW 4048   4.044   5.286   3.030
 1050SOL    HW1 4049   3.961   5.324   3.073
 1050SOL    HW2 4050   4.093   5.360   2.984
 1051SOL     OW 4051   6.913   5.831   0.249
 1051SOL    HW1 4052   6.921   5.775   0.166
 1051SOL    HW2 4053   6.953   5.782   0.326
 1052SOL     OW 4054   4.712   1.040   5.416
 1052SOL    HW1 4055   4.783   1.019   5.484
 1052SOL    HW2 4056   4.704   1.139   5.405
 1053SOL     OW 4057   6.116   3.810   2.386
 1053SOL    HW1 4058   6.048   3.882   2.400
 1053SOL    HW2 4059   6.147   3.776   2.475
 1054SOL     OW 4060   2.889   3.384   0.933
 1054SOL    HW1 4061   2.860   3.305   0.987
 1054SOL    HW2 4062   2.863   3.468   0.980
 1055SOL     OW 4063   5.273   5.832   6.516
 1055SOL    HW1 4064   5.197   5.770   6.534
 1055SOL    HW2 4065   5.268   5.911   6.576
 1056SOL     OW 4066   1.432   3.753   0.179
 1056SOL    HW1 4067   1.336   3.726   0.166
 1056SOL    HW2 4068   1.491   3.688   0.131
 1057SOL     OW 4069   3.785   1.996   1.852
 1057SOL    HW1 4070   3.801   1.975   1.755
 1057SOL    HW2 4071   3.790   2.095   1.865
 1058SOL     OW 4072   4.260   2.369   2.876
 1058SOL    HW1 4073   4.333   2.360   2.807
 1058SOL    HW2 4074   4.197   2.441   2.848
 1059SOL     OW 4075   2.583   6.690   2.128
 1059SOL    HW1 4076   2.609   6.625   2.200
 1059SOL    HW2 4077   2.609   6.653   2.039
 1060SOL     OW 4078   7.009   4.828   4.110
 1060SOL    HW1 4079   6.949   4.854   4.185
 1060SOL    HW2 4080   0.032   4.910   4.070
 1061SOL     OW 4081   6.446   3.966   6.986
 1061SOL    HW1 4082   6.474   3.946   6.892
 1061SOL    HW2 4083   6.470   3.890   0.027
 1062SOL     OW 4084   4.191   6.568   5.711
 1062SOL    HW1 4085   4.186   6.521   5.622
 1062SOL    HW2 4086   4.229   6.506   5.779
 1063SOL     OW 4087   0.290   0.178   6.147
 1063SOL    HW1 4088   0.366   0.170   6.211
 1063SOL    HW2 4089   0.211   0.218   6.194
 1064SOL     OW 4090   0.457   4.147   1.771
 1064SOL    HW1 4091   0.452   4.205   1.690
 1064SOL    HW2 4092   0.380   4.166   1.831
 1065SOL     OW 4093   3.158   0.851   3.848
 1065SOL    HW1 4094   3.220   0.899   3.787
 1065SOL    HW2 4095   3.106   0.917   3.903
 1066SOL     OW 4096   4.778   6.785   2.187
 1066SOL    HW1 4097   4.784   6.790   2.287
 1066SOL    HW2 4098   4.684   6.802   2.158
 1067SOL     OW 4099   2.753   1.168   6.911
 1067SOL    HW1 4100   2.728   1.259   6.943
 1067SOL    HW2 4101   2.828   1.133   6.967
 1068SOL     OW 4102   5.839   3.869   1.218
 1068SOL    HW1 4103   5.804   3.873   1.124
 1068SOL    HW2 4104   5.937   3.891   1.218
 1069SOL     OW 4105   5.634   5.071   0.998
 1069SOL    HW1 4106   5.713   5.108   1.048
 1069SOL    HW2 4107   5.666   5.024   0.916
 1070SOL     OW 4108   2.236   0.191   2.496
 1070SOL    HW1 4109   2.263   0.159   2.405
 1070SOL    HW2 4110   2.237   0.114   2.560
 1071SOL     OW 4111   0.676   1.903   4.674
 1071SOL    HW1 4112   0.653   1.912   4.770
 1071SOL    HW2 4113   0.605   1.946   4.618
 1072SOL     OW 4114   1.983   0.827   1.545
 1072SOL    HW1 4115   2.047   0.811   1.470
 1072SOL    HW2 4116   2.011   0.907   1.597
 1073SOL     OW 4117   6.258   1.982   3.344
 1073SOL    HW1 4118   6.310   1.900   3.366
 1073SOL    HW2 4119   6.305   2.034   3.273
 1074SOL     OW 4120   2.846   5.114   1.654
 1074SOL    HW1 4121   2.847   5.020   1.620
 1074SOL    HW2 4122   2.756   5.134   1.692
 1075SOL     OW 4123   6.415   1.315   4.384
 1075SOL    HW1 4124   6.320   1.291   4.365
 1075SOL    HW2 4125   6.443   1.272   4.470
 1076SOL     OW 4126   1.797   3.575   5.270
 1076SOL    HW1 4127   1.720   3.551   5.330
 1076SOL    HW2 4128   1.838   3.661   5.301
 1077SOL     OW 4129   6.913   6.898   0.145
 1077SOL    HW1 4130   6.975   6.921   0.069
 1077SOL    HW2 4131   6.944   6.813   0.188
 1078SOL     OW 4132   6.667   0.087   2.853
 1078SOL    HW1 4133   6.630   0.032   2.928
 1078SOL    HW2 4134   6.764   0.065   2.840
 1079SOL     OW 4135   1.381   5.625   1.954
 1079SOL    HW1 4136   1.313   5.558   1.926
 1079SOL    HW2 4137   1.428   5.593   2.036
 1080SOL     OW 4138   2.233   5.632   5.209
 1080SOL    HW1 4139   2.291   5.610   5.130
 1080SOL    HW2 4140   2.166   5.701   5.182
 1081SOL     OW 4141   0.335   5.830   4.047
 1081SOL    HW1 4142   0.338   5.862   4.142
 1081SOL    HW2 4143   0.403   5.879   3.993
 1082SOL     OW 4144   6.114   1.609   6.072
 1082SOL    HW1 4145   6.178   1.582   6.144
 1082SOL    HW2 4146   6.046   1.672   6.109
 1083SOL     OW 4147   4.588   3.821   0.734
 1083SOL    HW1 4148   4.665   3.822   0.669
 1083SOL    HW2 4149   4.621   3.796   0.824
 1084SOL     OW 4150   6.421   0.029   6.642
 1084SOL    HW1 4151   6.498   0.084   6.610
 1084SOL    HW2 4152   6.442   7.010   6.732
 1085SOL     OW 4153   2.160   3.415   4.021
 1085SOL    HW1 4154   2.112   3.478   3.960
 1085SOL    HW2 4155   2.258   3.438   4.022
 1086SOL     OW 4156   6.523   4.871   6.299
 1086SOL    HW1 4157   6.513   4.776   6.270
 1086SOL    HW2 4158   6.564   4.924   6.224
 1087SOL     OW 4159   1.478   1.558   5.689
 1087SOL    HW1 4160   1.381   1.559   5.662
 1087SOL    HW2 4161   1.487   1.601   5.779
 1088SOL     OW 4162   0.250   5.362   3.185
 1088SOL    HW1 4163   0.321   5.299   3.217
 1088SOL    HW2 4164   0.251   5.445   3.241
 1089SOL     OW 4165   0.781   5.753   4.868
 1089SOL    HW1 4166   0.854   5.768   4.934
 1089SOL    HW2 4167   0.813   5.692   4.796
 1090SOL     OW 4168   5.462   1.830   3.362
 1090SOL    HW1 4169   5.558   1.809   3.348
 1090SOL    HW2 4170   5.425   1.872   3.279
 1091SOL     OW 4171   1.838   3.220   3.396
 1091SOL    HW1 4172   1.862   3.205   3.492
 1091SOL    HW2 4173   1.919   3.252   3.346
 1092SOL     OW 4174   0.899   4.635   0.598
 1092SOL    HW1 4175   0.935   4.645   0.505
 1092SOL    HW2 4176   0.858   4.722   0.627
 1093SOL     OW 4177   3.089   0.230   1.374
 1093SOL    HW1 4178   3.140   0.261   1.455
 1093SOL    HW2 4179   3.019   0.164   1.402
 1094SOL     OW 4180   0.693   6.652   2.724
 1094SOL    HW1 4181   0.752   6.698   2.658
 1094SOL    HW2 4182   0.724   6.557   2.735
 1095SOL     OW 4183   0.767   2.760   6.322
 1095SOL    HW1 4184   0.712   2.843   6.335
 1095SOL    HW2 4185   0.814   2.765   6.234
 1096SOL     OW 4186   2.836   4.989   0.830
 1096SOL    HW1 4187   2.757   5.026   0.782
 1096SOL    HW2 4188   2.807   4.921   0.897
 1097SOL     OW 4189   2.088   5.570   3.429
 1097SOL    HW1 4190   2.137   5.483   3.422
 1097SOL    HW2 4191   2.055   5.582   3.523
 1098SOL     OW 4192   5.772   4.173   6.746
 1098SOL    HW1 4193   5.804   4.267   6.736
 1098SOL    HW2 4194   5.774   4.146   6.842
 1099SOL     OW 4195   4.490   1.006   6.302
 1099SOL    HW1 4196   4.461   0.918   6.340
 1099SOL    HW2 4197   4.581   1.028   6.335
 1100SOL     OW 4198   3.099   1.192   3.927
 1100SOL    HW1 4199   3.195   1.180   3.904
 1100SOL    HW2 4200   3.090   1.258   4.002
 1101SOL     OW 4201   5.781   3.406   5.404
 1101SOL    HW1 4202   5.682   3.415   5.388
 1101SOL    HW2 4203   5.803   3.450   5.492
 1102SOL     OW 4204   2.339   0.815   4.466
 1102SOL    HW1 4205   2.350   0.914   4.477
 1102SOL    HW2 4206   2.374   0.768   4.547
 1103SOL     OW 4207   3.065   1.788   0.020
 1103SOL    HW1 4208   3.061   1.839   6.952
 1103SOL    HW2 4209   3.116   1.704   0.006
 1104SOL     OW 4210   1.379   4.256   3.482
 1104SOL    HW1 4211   1.411   4.314   3.557
 1104SOL    HW2 4212   1.286   4.225   3.501
 1105SOL     OW 4213   4.881   2.453   4.497
 1105SOL    HW1 4214   4.964   2.449   4.441
 1105SOL    HW2 4215   4.879   2.539   4.548
 1106SOL     OW 4216   0.302   1.336   0.340
 1106SOL    HW1 4217   0.333   1.266   0.404
 1106SOL    HW2 4218   0.347   1.423   0.360
 1107SOL     OW 4219   1.250   0.685   6.810
 1107SOL    HW1 4220   1.319   0.613   6.808
 1107SOL    HW2 4221   1.189   0.675   6.731
 1108SOL     OW 4222   3.771   6.353   4.540
 1108SOL    HW1 4223   3.796   6.331   4.446
 1108SOL    HW2 4224   3.697   6.293   4.570
 1109SOL     OW 4225   5.860   2.051   3.791
 1109SOL    HW1 4226   5.806   1.996   3.856
 1109SOL    HW2 4227   5.875   2.142   3.829
 1110SOL     OW 4228   3.277   0.848   3.051
 1110SOL    HW1 4229   3.210   0.802   2.994
 1110SOL    HW2 4230   3.350   0.784   3.076
 1111SOL     OW 4231   4.865   4.400   6.159
 1111SOL    HW1 4232   4.880   4.301   6.158
 1111SOL    HW2 4233   4.776   4.419   6.202
 1112SOL     OW 4234   6.312   0.007   3.545
 1112SOL    HW1 4235   6.242   6.953   3.539
 1112SOL    HW2 4236   6.386   6.995   3.605
 1113SOL     OW 4237   6.084   4.181   1.782
 1113SOL    HW1 4238   6.084   4.102   1.844
 1113SOL    HW2 4239   6.005   4.176   1.722
 1114SOL     OW 4240   3.789   2.473   5.790
 1114SOL    HW1 4241   3.712   2.515   5.838
 1114SOL    HW2 4242   3.781   2.491   5.692
 1115SOL     OW 4243   4.006   4.333   5.626
 1115SOL    HW1 4244   4.020   4.248   5.677
 1115SOL    HW2 4245   4.057   4.329   5.540
 1116SOL     OW 4246   5.228   0.601   0.162
 1116SOL    HW1 4247   5.230   0.585   0.261
 1116SOL    HW2 4248   5.321   0.606   0.127
 1117SOL     OW 4249   0.869   2.502   1.564
 1117SOL    HW1 4250   0.795   2.436   1.547
 1117SOL    HW2 4251   0.957   2.459   1.545
 1118SOL     OW 4252   1.914   5.636   0.322
 1118SOL    HW1 4253   1.980   5.568   0.353
 1118SOL    HW2 4254   1.901   5.628   0.223
 1119SOL     OW 4255   4.304   4.616   2.405
 1119SOL    HW1 4256   4.224   4.655   2.359
 1119SOL    HW2 4257   4.347   4.549   2.345
 1120SOL     OW 4258   6.385   5.973   1.163
 1120SOL    HW1 4259   6.361   5.888   1.210
 1120SOL    HW2 4260   6.472   6.007   1.199
 1121SOL     OW 4261   0.852   4.661   4.436
 1121SOL    HW1 4262   0.918   4.628   4.503
 1121SOL    HW2 4263   0.779   4.594   4.425
 1122SOL     OW 4264   6.584   2.822   2.167
 1122SOL    HW1 4265   6.635   2.855   2.247
 1122SOL    HW2 4266   6.486   2.829   2.185
 1123SOL     OW 4267   4.454   2.067   3.685
 1123SOL    HW1 4268   4.487   2.160   3.670
 1123SOL    HW2 4269   4.529   2.009   3.714
 1124SOL     OW 4270   1.169   3.721   5.256
 1124SOL    HW1 4271   1.167   3.771   5.342
 1124SOL    HW2 4272   1.199   3.627   5.272
 1125SOL     OW 4273   1.602   2.844   4.717
 1125SOL    HW1 4274   1.627   2.755   4.757
 1125SOL    HW2 4275   1.646   2.917   4.770
 1126SOL     OW 4276   4.113   5.952   5.299
 1126SOL    HW1 4277   4.195   6.008   5.306
 1126SOL    HW2 4278   4.121   5.874   5.361
 1127SOL     OW 4279   5.597   6.735   4.412
 1127SOL    HW1 4280   5.685   6.779   4.393
 1127SOL    HW2 4281   5.611   6.657   4.473
 1128SOL     OW 4282   5.671   1.329   4.725
 1128SOL    HW1 4283   5.625   1.265   4.786
 1128SOL    HW2 4284   5.697   1.411   4.776
 1129SOL     OW 4285   1.870   6.753   0.465
 1129SOL    HW1 4286   1.782   6.796   0.444
 1129SOL    HW2 4287   1.920   6.809   0.530
 1130SOL     OW 4288   1.747   5.190   1.496
 1130SOL    HW1 4289   1.702   5.113   1.541
 1130SOL    HW2 4290   1.701   5.275   1.522
 1131SOL     OW 4291   1.532   0.104   5.008
 1131SOL    HW1 4292   1.518   0.164   4.930
 1131SOL    HW2 4293   1.627   0.071   5.007
 1132SOL     OW 4294   4.866   0.409   2.773
 1132SOL    HW1 4295   4.920   0.410   2.688
 1132SOL    HW2 4296   4.872   0.498   2.817
 1133SOL     OW 4297   1.449   0.370   6.461
 1133SOL    HW1 4298   1.443   0.339   6.556
 1133SOL    HW2 4299   1.487   0.462   6.458
 1134SOL     OW 4300   5.476   6.713   1.731
 1134SOL    HW1 4301   5.566   6.686   1.764
 1134SOL    HW2 4302   5.406   6.659   1.779
 1135SOL     OW 4303   2.432   6.278   3.698
 1135SOL    HW1 4304   2.443   6.355   3.760
 1135SOL    HW2 4305   2.338   6.243   3.703
 1136SOL     OW 4306   3.505   5.458   3.456
 1136SOL    HW1 4307   3.453   5.472   3.541
 1136SOL    HW2 4308   3.603   5.460   3.476
 1137SOL     OW 4309   1.099   6.202   6.483
 1137SOL    HW1 4310   1.114   6.119   6.428
 1137SOL    HW2 4311   1.001   6.213   6.501
 1138SOL     OW 4312   1.916   2.486   5.176
 1138SOL    HW1 4313   2.000   2.540   5.169
 1138SOL    HW2 4314   1.892   2.474   5.272
 1139SOL     OW 4315   2.337   4.772   3.956
 1139SOL    HW1 4316   2.420   4.721   3.978
 1139SOL    HW2 4317   2.357   4.870   3.956
 1140SOL     OW 4318   1.911   0.487   2.095
 1140SOL    HW1 4319   1.973   0.509   2.020
 1140SOL    HW2 4320   1.834   0.551   2.094
 1141SOL     OW 4321   6.315   5.162   6.334
 1141SOL    HW1 4322   6.414   5.169   6.338
 1141SOL    HW2 4323   6.274   5.210   6.412
 1142SOL     OW 4324   2.495   0.028   3.658
 1142SOL    HW1 4325   2.543   0.055   3.575
 1142SOL    HW2 4326   2.477   6.948   3.656
 1143SOL     OW 4327   1.191   2.701   2.286
 1143SOL    HW1 4328   1.157   2.666   2.199
 1143SOL    HW2 4329   1.278   2.656   2.308
 1144SOL     OW 4330   5.370   4.448   2.646
 1144SOL    HW1 4331   5.363   4.354   2.614
 1144SOL    HW2 4332   5.416   4.503   2.577
 1145SOL     OW 4333   1.131   2.597   0.668
 1145SOL    HW1 4334   1.036   2.614   0.695
 1145SOL    HW2 4335   1.138   2.598   0.568
 1146SOL     OW 4336   0.602   2.063   1.214
 1146SOL    HW1 4337   0.654   2.147   1.203
 1146SOL    HW2 4338   0.556   2.063   1.303
 1147SOL     OW 4339   2.959   6.273   0.417
 1147SOL    HW1 4340   2.887   6.229   0.471
 1147SOL    HW2 4341   3.010   6.204   0.366
 1148SOL     OW 4342   3.872   6.445   1.968
 1148SOL    HW1 4343   3.848   6.516   1.902
 1148SOL    HW2 4344   3.864   6.355   1.925
 1149SOL     OW 4345   6.106   3.002   1.445
 1149SOL    HW1 4346   6.075   3.092   1.477
 1149SOL    HW2 4347   6.148   2.952   1.522
 1150SOL     OW 4348   1.085   4.050   6.836
 1150SOL    HW1 4349   1.107   4.139   6.877
 1150SOL    HW2 4350   0.989   4.029   6.850
 1151SOL     OW 4351   5.935   5.107   4.330
 1151SOL    HW1 4352   6.015   5.130   4.274
 1151SOL    HW2 4353   5.953   5.133   4.425
 1152SOL     OW 4354   4.313   6.693   6.925
 1152SOL    HW1 4355   4.258   6.631   6.868
 1152SOL    HW2 4356   4.392   6.725   6.872
 1153SOL     OW 4357   6.945   6.974   0.976
 1153SOL    HW1 4358   6.884   6.896   0.965
 1153SOL    HW2 4359   6.893   0.041   0.965
 1154SOL     OW 4360   0.703   3.606   1.464
 1154SOL    HW1 4361   0.798   3.623   1.437
 1154SOL    HW2 4362   0.702   3.538   1.538
 1155SOL     OW 4363   2.214   6.514   5.315
 1155SOL    HW1 4364   2.294   6.468   5.277
 1155SOL    HW2 4365   2.219   6.611   5.294
 1156SOL     OW 4366   4.286   1.651   5.204
 1156SOL    HW1 4367   4.258   1.604   5.121
 1156SOL    HW2 4368   4.243   1.741   5.209
 1157SOL     OW 4369   5.036   1.546   5.374
 1157SOL    HW1 4370   5.018   1.548   5.276
 1157SOL    HW2 4371   5.069   1.636   5.403
 1158SOL     OW 4372   6.060   6.220   4.340
 1158SOL    HW1 4373   6.062   6.129   4.299
 1158SOL    HW2 4374   6.118   6.282   4.287
 1159SOL     OW 4375   6.034   6.714   3.140
 1159SOL    HW1 4376   5.952   6.668   3.175
 1159SOL    HW2 4377   6.048   6.799   3.191
 1160SOL     OW 4378   3.997   5.853   1.293
 1160SOL    HW1 4379   3.934   5.910   1.344
 1160SOL    HW2 4380   3.970   5.851   1.196
 1161SOL     OW 4381   0.073   5.541   6.182
 1161SOL    HW1 4382   0.024   5.528   6.267
 1161SOL    HW2 4383   0.118   5.456   6.155
 1162SOL     OW 4384   2.443   2.510   5.867
 1162SOL    HW1 4385   2.345   2.505   5.888
 1162SOL    HW2 4386   2.462   2.456   5.786
 1163SOL     OW 4387   6.148   4.656   1.419
 1163SOL    HW1 4388   6.203   4.654   1.336
 1163SOL    HW2 4389   6.165   4.573   1.473
 1164SOL     OW 4390   5.599   2.607   4.762
 1164SOL    HW1 4391   5.689   2.640   4.794
 1164SOL    HW2 4392   5.609   2.515   4.725
 1165SOL     OW 4393   4.418   6.263   3.314
 1165SOL    HW1 4394   4.346   6.311   3.364
 1165SOL    HW2 4395   4.381   6.178   3.276
 1166SOL     OW 4396   1.936   6.539   6.978
 1166SOL    HW1 4397   1.916   6.492   0.045
 1166SOL    HW2 4398   1.909   6.635   6.986
 1167SOL     OW 4399   4.969   4.209   1.602
 1167SOL    HW1 4400   4.937   4.126   1.556
 1167SOL    HW2 4401   4.890   4.257   1.641
 1168SOL     OW 4402   6.232   2.128   1.949
 1168SOL    HW1 4403   6.301   2.172   2.008
 1168SOL    HW2 4404   6.263   2.132   1.854
 1169SOL     OW 4405   5.754   1.834   5.252
 1169SOL    HW1 4406   5.681   1.787   5.301
 1169SOL    HW2 4407   5.731   1.839   5.155
 1170SOL     OW 4408   4.585   0.292   2.831
 1170SOL    HW1 4409   4.526   0.222   2.790
 1170SOL    HW2 4410   4.656   0.248   2.886
 1171SOL     OW 4411   2.247   0.205   0.382
 1171SOL    HW1 4412   2.255   0.176   0.477
 1171SOL    HW2 4413   2.188   0.141   0.332
 1172SOL     OW 4414   5.462   4.171   1.351
 1172SOL    HW1 4415   5.370   4.166   1.314
 1172SOL    HW2 4416   5.458   4.172   1.451
 1173SOL     OW 4417   2.229   1.426   1.528
 1173SOL    HW1 4418   2.257   1.408   1.433
 1173SOL    HW2 4419   2.229   1.340   1.579
 1174SOL     OW 4420   3.380   3.991   1.934
 1174SOL    HW1 4421   3.441   4.052   1.985
 1174SOL    HW2 4422   3.315   3.949   1.996
 1175SOL     OW 4423   4.670   3.309   5.639
 1175SOL    HW1 4424   4.674   3.360   5.553
 1175SOL    HW2 4425   4.732   3.231   5.635
 1176SOL     OW 4426   4.643   3.841   6.187
 1176SOL    HW1 4427   4.640   3.841   6.087
 1176SOL    HW2 4428   4.730   3.878   6.219
 1177SOL     OW 4429   6.725   3.908   4.924
 1177SOL    HW1 4430   6.819   3.935   4.947
 1177SOL    HW2 4431   6.666   3.928   5.002
 1178SOL     OW 4432   2.810   3.062   0.443
 1178SOL    HW1 4433   2.830   3.159   0.449
 1178SOL    HW2 4434   2.750   3.035   0.519
 1179SOL     OW 4435   2.163   5.598   0.556
 1179SOL    HW1 4436   2.132   5.612   0.650
 1179SOL    HW2 4437   2.160   5.684   0.506
 1180SOL     OW 4438   2.540   6.104   3.186
 1180SOL    HW1 4439   2.463   6.132   3.130
 1180SOL    HW2 4440   2.617   6.166   3.170
 1181SOL     OW 4441   0.632   5.467   5.667
 1181SOL    HW1 4442   0.684   5.455   5.583
 1181SOL    HW2 4443   0.556   5.401   5.670
 1182SOL     OW 4444   3.951   5.528   3.615
 1182SOL    HW1 4445   3.889   5.591   3.662
 1182SOL    HW2 4446   4.011   5.484   3.682
 1183SOL     OW 4447   2.190   4.380   0.308
 1183SOL    HW1 4448   2.149   4.322   0.238
 1183SOL    HW2 4449   2.133   4.378   0.390
 1184SOL     OW 4450   0.218   0.387   4.816
 1184SOL    HW1 4451   0.161   0.450   4.869
 1184SOL    HW2 4452   0.314   0.414   4.825
 1185SOL     OW 4453   0.459   1.033   0.058
 1185SOL    HW1 4454   0.522   1.022   7.000
 1185SOL    HW2 4455   0.365   1.018   0.026
 1186SOL     OW 4456   5.186   5.755   5.518
 1186SOL    HW1 4457   5.275   5.720   5.548
 1186SOL    HW2 4458   5.149   5.696   5.446
 1187SOL     OW 4459   6.407   6.684   6.757
 1187SOL    HW1 4460   6.420   6.684   6.856
 1187SOL    HW2 4461   6.366   6.770   6.728
 1188SOL     OW 4462   3.419   6.139   5.227
 1188SOL    HW1 4463   3.329   6.116   5.263
 1188SOL    HW2 4464   3.490   6.099   5.285
 1189SOL     OW 4465   6.528   2.656   2.827
 1189SOL    HW1 4466   6.528   2.563   2.790
 1189SOL    HW2 4467   6.462   2.712   2.777
 1190SOL     OW 4468   2.661   5.768   4.091
 1190SOL    HW1 4469   2.677   5.843   4.027
 1190SOL    HW2 4470   2.574   5.724   4.069
 1191SOL     OW 4471   4.602   5.055   3.762
 1191SOL    HW1 4472   4.661   5.031   3.839
 1191SOL    HW2 4473   4.600   4.980   3.696
 1192SOL     OW 4474   3.847   5.434   3.155
 1192SOL    HW1 4475   3.759   5.412   3.114
 1192SOL    HW2 4476   3.869   5.530   3.139
 1193SOL     OW 4477   6.472   3.510   4.645
 1193SOL    HW1 4478   6.565   3.512   4.683
 1193SOL    HW2 4479   6.407   3.485   4.717
 1194SOL     OW 4480   5.393   6.932   1.616
 1194SOL    HW1 4481   5.429   6.846   1.653
 1194SOL    HW2 4482   5.459   6.972   1.553
 1195SOL     OW 4483   6.512   4.555   1.594
 1195SOL    HW1 4484   6.574   4.608   1.652
 1195SOL    HW2 4485   6.566   4.492   1.538
 1196SOL     OW 4486   6.839   5.851   3.027
 1196SOL    HW1 4487   6.916   5.804   2.983
 1196SOL    HW2 4488   6.807   5.925   2.968
 1197SOL     OW 4489   4.293   0.785   5.479
 1197SOL    HW1 4490   4.322   0.689   5.477
 1197SOL    HW2 4491   4.194   0.790   5.494
 1198SOL     OW 4492   1.228   2.851   1.826
 1198SOL    HW1 4493   1.250   2.901   1.910
 1198SOL    HW2 4494   1.271   2.762   1.827
 1199SOL     OW 4495   4.400   4.743   2.156
 1199SOL    HW1 4496   4.384   4.679   2.082
 1199SOL    HW2 4497   4.464   4.702   2.222
 1200SOL     OW 4498   3.235   3.501   3.558
 1200SOL    HW1 4499   3.260   3.597   3.565
 1200SOL    HW2 4500   3.285   3.458   3.483
 1201SOL     OW 4501   1.181   0.705   4.632
 1201SOL    HW1 4502   1.193   0.754   4.546
 1201SOL    HW2 4503   1.263   0.653   4.654
 1202SOL     OW 4504   0.812   5.779   6.003
 1202SOL    HW1 4505   0.797   5.688   5.962
 1202SOL    HW2 4506   0.771   5.849   5.944
 1203SOL     OW 4507   5.789   6.543   0.083
 1203SOL    HW1 4508   5.802   6.469   0.017
 1203SOL    HW2 4509   5.704   6.590   0.064
 1204SOL     OW 4510   3.266   6.730   1.382
 1204SOL    HW1 4511   3.352   6.724   1.330
 1204SOL    HW2 4512   3.199   6.668   1.343
 1205SOL     OW 4513   5.515   3.545   1.302
 1205SOL    HW1 4514   5.490   3.562   1.397
 1205SOL    HW2 4515   5.590   3.479   1.298
 1206SOL     OW 4516   3.048   2.851   5.264
 1206SOL    HW1 4517   3.050   2.943   5.224
 1206SOL    HW2 4518   2.972   2.844   5.328
 1207SOL     OW 4519   2.228   6.179   1.529
 1207SOL    HW1 4520   2.190   6.256   1.580
 1207SOL    HW2 4521   2.324   6.167   1.555
 1208SOL     OW 4522   3.258   3.483   0.586
 1208SOL    HW1 4523   3.341   3.539   0.582
 1208SOL    HW2 4524   3.202   3.512   0.664
 1209SOL     OW 4525   4.231   0.880   4.791
 1209SOL    HW1 4526   4.283   0.903   4.874
 1209SOL    HW2 4527   4.265   0.935   4.715
 1210SOL     OW 4528   2.672   0.380   3.192
 1210SOL    HW1 4529   2.598   0.337   3.244
 1210SOL    HW2 4530   2.637   0.406   3.102
 1211SOL     OW 4531   1.420   3.419   1.732
 1211SOL    HW1 4532   1.453   3.507   1.699
 1211SOL    HW2 4533   1.320   3.422   1.742
 1212SOL     OW 4534   6.172   0.496   6.739
 1212SOL    HW1 4535   6.178   0.475   6.641
 1212SOL    HW2 4536   6.209   0.420   6.792
 1213SOL     OW 4537   6.576   2.171   0.669
 1213SOL    HW1 4538   6.588   2.255   0.722
 1213SOL    HW2 4539   6.663   2.122   0.664
 1214SOL     OW 4540   0.534   3.115   0.562
 1214SOL    HW1 4541   0.512   3.165   0.479
 1214SOL    HW2 4542   0.630   3.088   0.560
 1215SOL     OW 4543   1.520   3.985   3.672
 1215SOL    HW1 4544   1.491   4.031   3.756
 1215SOL    HW2 4545   1.615   3.955   3.682
 1216SOL     OW 4546   4.960   0.794   1.394
 1216SOL    HW1 4547   4.950   0.877   1.447
 1216SOL    HW2 4548   4.918   0.806   1.303
 1217SOL     OW 4549   1.392   4.737   0.732
 1217SOL    HW1 4550   1.388   4.809   0.801
 1217SOL    HW2 4551   1.444   4.768   0.653
 1218SOL     OW 4552   1.989   4.441   4.063
 1218SOL    HW1 4553   2.038   4.426   4.149
 1218SOL    HW2 4554   2.047   4.492   4.000
 1219SOL     OW 4555   5.878   5.297   1.857
 1219SOL    HW1 4556   5.878   5.252   1.767
 1219SOL    HW2 4557   5.921   5.237   1.924
 1220SOL     OW 4558   0.811   4.830   3.159
 1220SOL    HW1 4559   0.800   4.730   3.159
 1220SOL    HW2 4560   0.734   4.871   3.209
 1221SOL     OW 4561   5.394   3.923   5.861
 1221SOL    HW1 4562   5.315   3.984   5.862
 1221SOL    HW2 4563   5.462   3.953   5.927
 1222SOL     OW 4564   6.302   6.966   6.399
 1222SOL    HW1 4565   6.312   0.022   6.333
 1222SOL    HW2 4566   6.361   6.983   6.478
 1223SOL     OW 4567   3.864   0.800   0.791
 1223SOL    HW1 4568   3.803   0.874   0.819
 1223SOL    HW2 4569   3.922   0.774   0.868
 1224SOL     OW 4570   2.576   6.400   0.285
 1224SOL    HW1 4571   2.573   6.440   0.193
 1224SOL    HW2 4572   2.644   6.449   0.340
 1225SOL     OW 4573   3.597   3.867   6.375
 1225SOL    HW1 4574   3.660   3.937   6.342
 1225SOL    HW2 4575   3.540   3.834   6.299
 1226SOL     OW 4576   2.538   5.555   0.901
 1226SOL    HW1 4577   2.595   5.600   0.832
 1226SOL    HW2 4578   2.591   5.542   0.985
 1227SOL     OW 4579   6.851   3.915   0.070
 1227SOL    HW1 4580   6.928   3.962   0.114
 1227SOL    HW2 4581   6.795   3.870   0.140
 1228SOL     OW 4582   4.193   2.888   7.001
 1228SOL    HW1 4583   4.096   2.900   0.003
 1228SOL    HW2 4584   4.222   2.797   0.013
 1229SOL     OW 4585   3.326   4.683   6.121
 1229SOL    HW1 4586   3.358   4.635   6.039
 1229SOL    HW2 4587   3.382   4.764   6.136
 1230SOL     OW 4588   4.412   0.246   3.579
 1230SOL    HW1 4589   4.433   0.343   3.589
 1230SOL    HW2 4590   4.371   0.230   3.489
 1231SOL     OW 4591   1.360   3.830   4.228
 1231SOL    HW1 4592   1.377   3.737   4.261
 1231SOL    HW2 4593   1.377   3.896   4.301
 1232SOL     OW 4594   0.960   2.184   5.935
 1232SOL    HW1 4595   1.058   2.183   5.917
 1232SOL    HW2 4596   0.932   2.094   5.969
 1233SOL     OW 4597   1.230   3.189   4.433
 1233SOL    HW1 4598   1.267   3.222   4.345
 1233SOL    HW2 4599   1.268   3.245   4.507
 1234SOL     OW 4600   6.280   3.918   5.065
 1234SOL    HW1 4601   6.265   3.969   4.980
 1234SOL    HW2 4602   6.260   3.978   5.143
 1235SOL     OW 4603   6.832   6.106   2.608
 1235SOL    HW1 4604   6.891   6.050   2.549
 1235SOL    HW2 4605   6.736   6.091   2.582
 1236SOL     OW 4606   5.348   1.248   6.825
 1236SOL    HW1 4607   5.274   1.259   6.892
 1236SOL    HW2 4608   5.391   1.159   6.838
 1237SOL     OW 4609   2.655   5.126   6.475
 1237SOL    HW1 4610   2.581   5.163   6.531
 1237SOL    HW2 4611   2.632   5.033   6.446
 1238SOL     OW 4612   2.165   0.945   0.650
 1238SOL    HW1 4613   2.114   1.029   0.634
 1238SOL    HW2 4614   2.167   0.891   0.565
 1239SOL     OW 4615   6.795   6.489   6.366
 1239SOL    HW1 4616   6.877   6.462   6.417
 1239SOL    HW2 4617   6.820   6.553   6.294
 1240SOL     OW 4618   5.583   5.833   1.993
 1240SOL    HW1 4619   5.658   5.804   1.934
 1240SOL    HW2 4620   5.620   5.861   2.082
 1241SOL     OW 4621   6.346   3.993   4.172
 1241SOL    HW1 4622   6.283   4.053   4.221
 1241SOL    HW2 4623   6.400   3.940   4.237
 1242SOL     OW 4624   1.423   3.322   1.202
 1242SOL    HW1 4625   1.459   3.229   1.197
 1242SOL    HW2 4626   1.336   3.327   1.154
 1243SOL     OW 4627   0.947   6.585   5.242
 1243SOL    HW1 4628   0.880   6.583   5.168
 1243SOL    HW2 4629   1.038   6.603   5.205
 1244SOL     OW 4630   0.327   5.879   3.350
 1244SOL    HW1 4631   0.369   5.903   3.263
 1244SOL    HW2 4632   0.358   5.942   3.421
 1245SOL     OW 4633   4.379   4.058   6.407
 1245SOL    HW1 4634   4.302   4.099   6.458
 1245SOL    HW2 4635   4.387   3.962   6.432
 1246SOL     OW 4636   2.310   6.235   2.202
 1246SOL    HW1 4637   2.212   6.232   2.181
 1246SOL    HW2 4638   2.338   6.330   2.216
 1247SOL     OW 4639   2.563   0.230   6.825
 1247SOL    HW1 4640   2.551   0.250   6.727
 1247SOL    HW2 4641   2.567   0.316   6.875
 1248SOL     OW 4642   2.421   6.782   4.321
 1248SOL    HW1 4643   2.462   6.794   4.411
 1248SOL    HW2 4644   2.349   6.850   4.307
 1249SOL     OW 4645   5.839   2.475   2.143
 1249SOL    HW1 4646   5.913   2.538   2.167
 1249SOL    HW2 4647   5.868   2.381   2.162
 1250SOL     OW 4648   6.900   4.643   4.812
 1250SOL    HW1 4649   6.944   4.688   4.735
 1250SOL    HW2 4650   6.818   4.694   4.838
 1251SOL     OW 4651   3.136   0.316   4.534
 1251SOL    HW1 4652   3.177   0.272   4.614
 1251SOL    HW2 4653   3.192   0.297   4.453
 1252SOL     OW 4654   3.417   3.444   5.848
 1252SOL    HW1 4655   3.481   3.505   5.896
 1252SOL    HW2 4656   3.366   3.496   5.779
 1253SOL     OW 4657   3.779   5.687   1.781
 1253SOL    HW1 4658   3.865   5.726   1.750
 1253SOL    HW2 4659   3.751   5.614   1.718
 1254SOL     OW 4660   6.269   3.363   2.655
 1254SOL    HW1 4661   6.309   3.274   2.674
 1254SOL    HW2 4662   6.212   3.357   2.573
 1255SOL     OW 4663   6.809   1.433   4.624
 1255SOL    HW1 4664   6.907   1.445   4.608
 1255SOL    HW2 4665   6.783   1.479   4.710
 1256SOL     OW 4666   6.951   0.014   2.806
 1256SOL    HW1 4667   7.012   0.052   2.876
 1256SOL    HW2 4668   6.991   6.947   2.771
 1257SOL     OW 4669   6.971   6.756   3.712
 1257SOL    HW1 4670   0.037   6.809   3.702
 1257SOL    HW2 4671   6.896   6.817   3.735
 1258SOL     OW 4672   0.133   4.881   3.426
 1258SOL    HW1 4673   0.178   4.864   3.338
 1258SOL    HW2 4674   0.202   4.891   3.497
 1259SOL     OW 4675   3.897   2.087   4.374
 1259SOL    HW1 4676   3.915   2.155   4.303
 1259SOL    HW2 4677   3.821   2.029   4.345
 1260SOL     OW 4678   1.000   1.849   6.935
 1260SOL    HW1 4679   1.001   1.764   6.987
 1260SOL    HW2 4680   0.989   1.830   6.838
 1261SOL     OW 4681   0.361   5.753   6.507
 1261SOL    HW1 4682   0.442   5.748   6.566
 1261SOL    HW2 4683   0.283   5.711   6.553
 1262SOL     OW 4684   5.412   5.065   2.238
 1262SOL    HW1 4685   5.476   5.102   2.171
 1262SOL    HW2 4686   5.319   5.066   2.200
 1263SOL     OW 4687   0.309   1.176   2.743
 1263SOL    HW1 4688   0.332   1.260   2.792
 1263SOL    HW2 4689   0.228   1.191   2.686
 1264SOL     OW 4690   1.077   3.576   6.197
 1264SOL    HW1 4691   1.153   3.603   6.255
 1264SOL    HW2 4692   1.111   3.524   6.118
 1265SOL     OW 4693   6.792   5.548   4.786
 1265SOL    HW1 4694   6.829   5.459   4.759
 1265SOL    HW2 4695   6.824   5.619   4.723
 1266SOL     OW 4696   0.518   0.512   4.407
 1266SOL    HW1 4697   0.495   0.508   4.310
 1266SOL    HW2 4698   0.533   0.419   4.441
 1267SOL     OW 4699   5.006   0.928   1.953
 1267SOL    HW1 4700   5.064   0.986   1.896
 1267SOL    HW2 4701   4.947   0.872   1.894
 1268SOL     OW 4702   3.717   2.712   5.950
 1268SOL    HW1 4703   3.785   2.729   5.879
 1268SOL    HW2 4704   3.631   2.756   5.925
 1269SOL     OW 4705   5.252   2.576   4.189
 1269SOL    HW1 4706   5.309   2.535   4.118
 1269SOL    HW2 4707   5.211   2.660   4.153
 1270SOL     OW 4708   1.788   4.996   2.191
 1270SOL    HW1 4709   1.815   4.976   2.286
 1270SOL    HW2 4710   1.798   4.913   2.136
 1271SOL     OW 4711   2.579   0.852   1.292
 1271SOL    HW1 4712   2.552   0.905   1.372
 1271SOL    HW2 4713   2.580   0.911   1.211
 1272SOL     OW 4714   6.405   4.177   6.222
 1272SOL    HW1 4715   6.338   4.148   6.291
 1272SOL    HW2 4716   6.390   4.125   6.138
 1273SOL     OW 4717   1.879   3.977   4.816
 1273SOL    HW1 4718   1.926   3.907   4.763
 1273SOL    HW2 4719   1.850   4.051   4.755
 1274SOL     OW 4720   0.394   4.547   1.328
 1274SOL    HW1 4721   0.408   4.636   1.372
 1274SOL    HW2 4722   0.474   4.489   1.344
 1275SOL     OW 4723   2.766   6.942   3.466
 1275SOL    HW1 4724   2.687   6.886   3.442
 1275SOL    HW2 4725   2.828   6.888   3.523
 1276SOL     OW 4726   5.425   4.633   4.689
 1276SOL    HW1 4727   5.398   4.674   4.776
 1276SOL    HW2 4728   5.371   4.673   4.615
 1277SOL     OW 4729   1.279   5.145   0.007
 1277SOL    HW1 4730   1.339   5.193   0.072
 1277SOL    HW2 4731   1.186   5.141   0.043
 1278SOL     OW 4732   1.133   6.940   3.941
 1278SOL    HW1 4733   1.225   6.980   3.939
 1278SOL    HW2 4734   1.116   6.890   3.856
 1279SOL     OW 4735   2.092   3.441   5.840
 1279SOL    HW1 4736   2.082   3.411   5.935
 1279SOL    HW2 4737   2.011   3.415   5.788
 1280SOL     OW 4738   3.319   0.298   3.707
 1280SOL    HW1 4739   3.250   0.254   3.650
 1280SOL    HW2 4740   3.295   0.394   3.720
 1281SOL     OW 4741   2.949   5.858   4.407
 1281SOL    HW1 4742   2.879   5.787   4.405
 1281SOL    HW2 4743   3.038   5.818   4.431
 1282SOL     OW 4744   0.094   2.757   0.495
 1282SOL    HW1 4745   0.031   2.798   0.561
 1282SOL    HW2 4746   0.182   2.741   0.539
 1283SOL     OW 4747   6.567   4.319   5.501
 1283SOL    HW1 4748   6.481   4.370   5.509
 1283SOL    HW2 4749   6.560   4.233   5.551
 1284SOL     OW 4750   3.788   0.619   1.262
 1284SOL    HW1 4751   3.747   0.527   1.260
 1284SOL    HW2 4752   3.872   0.616   1.316
 1285SOL     OW 4753   3.956   1.371   5.365
 1285SOL    HW1 4754   3.988   1.445   5.424
 1285SOL    HW2 4755   3.857   1.361   5.374
 1286SOL     OW 4756   4.969   2.881   1.040
 1286SOL    HW1 4757   4.879   2.912   1.009
 1286SOL    HW2 4758   5.020   2.959   1.076
 1287SOL     OW 4759   5.252   4.951   5.428
 1287SOL    HW1 4760   5.277   4.973   5.522
 1287SOL    HW2 4761   5.329   4.972   5.367
 1288SOL     OW 4762   4.529   4.521   5.923
 1288SOL    HW1 4763   4.505   4.428   5.893
 1288SOL    HW2 4764   4.452   4.582   5.906
 1289SOL     OW 4765   6.651   0.699   1.652
 1289SOL    HW1 4766   6.562   0.653   1.651
 1289SOL    HW2 4767   6.721   0.637   1.619
 1290SOL     OW 4768   1.267   0.382   0.548
 1290SOL    HW1 4769   1.324   0.440   0.489
 1290SOL    HW2 4770   1.308   0.376   0.639
 1291SOL     OW 4771   6.430   4.941   4.511
 1291SOL    HW1 4772   6.435   5.040   4.502
 1291SOL    HW2 4773   6.421   4.899   4.420
 1292SOL     OW 4774   0.307   5.760   2.488
 1292SOL    HW1 4775   0.376   5.693   2.460
 1292SOL    HW2 4776   0.255   5.724   2.565
 1293SOL     OW 4777   2.500   1.929   0.216
 1293SOL    HW1 4778   2.543   1.951   0.304
 1293SOL    HW2 4779   2.510   2.007   0.154
 1294SOL     OW 4780   1.619   4.000   6.351
 1294SOL    HW1 4781   1.607   3.903   6.368
 1294SOL    HW2 4782   1.571   4.053   6.420
 1295SOL     OW 4783   0.062   3.984   1.179
 1295SOL    HW1 4784   0.074   3.895   1.222
 1295SOL    HW2 4785   0.035   4.051   1.248
 1296SOL     OW 4786   5.026   0.083   5.614
 1296SOL    HW1 4787   4.945   0.090   5.673
 1296SOL    HW2 4788   5.044   7.005   5.595
 1297SOL     OW 4789   1.056   6.540   1.751
 1297SOL    HW1 4790   1.071   6.460   1.693
 1297SOL    HW2 4791   0.957   6.552   1.765
 1298SOL     OW 4792   5.052   6.417   3.425
 1298SOL    HW1 4793   5.089   6.500   3.382
 1298SOL    HW2 4794   5.040   6.434   3.523
 1299SOL     OW 4795   2.143   3.000   4.076
 1299SOL    HW1 4796   2.152   3.048   3.989
 1299SOL    HW2 4797   2.226   2.947   4.094
 1300SOL     OW 4798   2.009   3.673   1.154
 1300SOL    HW1 4799   2.040   3.692   1.247
 1300SOL    HW2 4800   2.027   3.577   1.132
 1301SOL     OW 4801   0.880   0.072   1.742
 1301SOL    HW1 4802   0.949   0.034   1.804
 1301SOL    HW2 4803   0.913   0.160   1.707
 1302SOL     OW 4804   5.602   0.282   5.542
 1302SOL    HW1 4805   5.590   0.184   5.554
 1302SOL    HW2 4806   5.595   0.328   5.631
 1303SOL     OW 4807   3.997   0.370   1.647
 1303SOL    HW1 4808   4.026   0.290   1.700
 1303SOL    HW2 4809   3.955   0.437   1.708
 1304SOL     OW 4810   1.245   1.298   1.205
 1304SOL    HW1 4811   1.194   1.258   1.282
 1304SOL    HW2 4812   1.261   1.395   1.223
 1305SOL     OW 4813   5.361   4.310   6.122
 1305SOL    HW1 4814   5.338   4.378   6.191
 1305SOL    HW2 4815   5.402   4.355   6.043
 1306SOL     OW 4816   0.586   6.000   4.519
 1306SOL    HW1 4817   0.674   6.003   4.567
 1306SOL    HW2 4818   0.543   6.090   4.520
 1307SOL     OW 4819   1.869   3.193   3.692
 1307SOL    HW1 4820   1.808   3.270   3.709
 1307SOL    HW2 4821   1.821   3.108   3.713
 1308SOL     OW 4822   6.616   6.334   6.234
 1308SOL    HW1 4823   6.671   6.407   6.276
 1308SOL    HW2 4824   6.613   6.348   6.135
 1309SOL     OW 4825   5.172   4.791   5.826
 1309SOL    HW1 4826   5.114   4.722   5.782
 1309SOL    HW2 4827   5.172   4.775   5.925
 1310SOL     OW 4828   0.669   4.113   4.041
 1310SOL    HW1 4829   0.636   4.204   4.067
 1310SOL    HW2 4830   0.702   4.115   3.947
 1311SOL     OW 4831   6.370   5.773   6.340
 1311SOL    HW1 4832   6.309   5.694   6.343
 1311SOL    HW2 4833   6.362   5.817   6.250
 1312SOL     OW 4834   1.671   0.899   6.208
 1312SOL    HW1 4835   1.746   0.937   6.154
 1312SOL    HW2 4836   1.698   0.810   6.245
 1313SOL     OW 4837   6.523   5.382   2.631
 1313SOL    HW1 4838   6.605   5.428   2.664
 1313SOL    HW2 4839   6.460   5.450   2.592
 1314SOL     OW 4840   2.964   1.982   4.380
 1314SOL    HW1 4841   2.990   1.914   4.312
 1314SOL    HW2 4842   2.865   1.978   4.395
 1315SOL     OW 4843   6.647   0.617   3.643
 1315SOL    HW1 4844   6.614   0.640   3.552
 1315SOL    HW2 4845   6.592   0.541   3.680
 1316SOL     OW 4846   3.751   0.295   5.125
 1316SOL    HW1 4847   3.780   0.387   5.096
 1316SOL    HW2 4848   3.651   0.292   5.129
 1317SOL     OW 4849   2.214   4.663   5.397
 1317SOL    HW1 4850   2.202   4.571   5.436
 1317SOL    HW2 4851   2.231   4.656   5.299
 1318SOL     OW 4852   1.751   2.961   6.749
 1318SOL    HW1 4853   1.707   3.004   6.827
 1318SOL    HW2 4854   1.746   2.861   6.759
 1319SOL     OW 4855   0.165   6.164   6.723
 1319SOL    HW1 4856   0.079   6.146   6.674
 1319SOL    HW2 4857   0.180   6.263   6.728
 1320SOL     OW 4858   3.167   3.058   6.546
 1320SOL    HW1 4859   3.151   3.001   6.466
 1320SOL    HW2 4860   3.083   3.107   6.570
 1321SOL     OW 4861   4.947   2.387   6.627
 1321SOL    HW1 4862   5.010   2.317   6.594
 1321SOL    HW2 4863   4.853   2.356   6.615
 1322SOL     OW 4864   3.447   1.399   4.563
 1322SOL    HW1 4865   3.361   1.412   4.514
 1322SOL    HW2 4866   3.523   1.420   4.503
 1323SOL     OW 4867   3.501   6.328   0.898
 1323SOL    HW1 4868   3.422   6.355   0.844
 1323SOL    HW2 4869   3.498   6.374   0.987
 1324SOL     OW 4870   1.145   3.706   0.156
 1324SOL    HW1 4871   1.071   3.643   0.134
 1324SOL    HW2 4872   1.133   3.740   0.249
 1325SOL     OW 4873   4.166   6.524   5.431
 1325SOL    HW1 4874   4.115   6.549   5.349
 1325SOL    HW2 4875   4.253   6.481   5.405
 1326SOL     OW 4876   4.626   4.233   5.258
 1326SOL    HW1 4877   4.620   4.306   5.190
 1326SOL    HW2 4878   4.674   4.154   5.218
 1327SOL     OW 4879   0.282   6.709   0.872
 1327SOL    HW1 4880   0.195   6.731   0.827
 1327SOL    HW2 4881   0.307   6.783   0.935
 1328SOL     OW 4882   1.474   3.178   5.988
 1328SOL    HW1 4883   1.463   3.210   5.895
 1328SOL    HW2 4884   1.478   3.078   5.989
 1329SOL     OW 4885   6.961   1.443   2.715
 1329SOL    HW1 4886   6.986   1.457   2.810
 1329SOL    HW2 4887   0.008   1.380   2.672
 1330SOL     OW 4888   0.354   2.011   0.831
 1330SOL    HW1 4889   0.443   2.040   0.865
 1330SOL    HW2 4890   0.282   2.047   0.889
 1331SOL     OW 4891   4.763   2.449   2.453
 1331SOL    HW1 4892   4.731   2.494   2.537
 1331SOL    HW2 4893   4.686   2.439   2.389
 1332SOL     OW 4894   2.115   6.790   0.275
 1332SOL    HW1 4895   2.168   6.706   0.288
 1332SOL    HW2 4896   2.046   6.797   0.347
 1333SOL     OW 4897   3.123   3.929   2.793
 1333SOL    HW1 4898   3.158   4.011   2.838
 1333SOL    HW2 4899   3.118   3.854   2.858
 1334SOL     OW 4900   6.916   2.144   3.413
 1334SOL    HW1 4901   7.006   2.120   3.450
 1334SOL    HW2 4902   6.907   2.244   3.411
 1335SOL     OW 4903   1.638   2.273   2.463
 1335SOL    HW1 4904   1.706   2.206   2.433
 1335SOL    HW2 4905   1.548   2.249   2.428
 1336SOL     OW 4906   3.913   1.751   5.788
 1336SOL    HW1 4907   3.838   1.813   5.763
 1336SOL    HW2 4908   4.000   1.789   5.758
 1337SOL     OW 4909   6.621   1.151   2.424
 1337SOL    HW1 4910   6.660   1.170   2.514
 1337SOL    HW2 4911   6.534   1.102   2.435
 1338SOL     OW 4912   6.036   4.296   4.489
 1338SOL    HW1 4913   5.972   4.356   4.535
 1338SOL    HW2 4914   6.002   4.273   4.398
 1339SOL     OW 4915   6.988   0.198   0.079
 1339SOL    HW1 4916   6.919   0.173   0.146
 1339SOL    HW2 4917   0.025   0.274   0.114
 1340SOL     OW 4918   5.632   2.009   2.570
 1340SOL    HW1 4919   5.554   1.948   2.582
 1340SOL    HW2 4920   5.627   2.053   2.481
 1341SOL     OW 4921   4.088   6.505   0.493
 1341SOL    HW1 4922   4.188   6.503   0.486
 1341SOL    HW2 4923   4.059   6.590   0.536
 1342SOL     OW 4924   3.101   5.200   6.638
 1342SOL    HW1 4925   3.166   5.155   6.699
 1342SOL    HW2 4926   3.013   5.152   6.641
 1343SOL     OW 4927   5.952   5.514   2.966
 1343SOL    HW1 4928   6.007   5.432   2.950
 1343SOL    HW2 4929   5.911   5.510   3.057
 1344SOL     OW 4930   0.907   6.452   4.315
 1344SOL    HW1 4931   0.883   6.420   4.224
 1344SOL    HW2 4932   0.889   6.380   4.383
 1345SOL     OW 4933   1.023   4.698   2.051
 1345SOL    HW1 4934   1.067   4.786   2.071
 1345SOL    HW2 4935   0.948   4.684   2.115
 1346SOL     OW 4936   1.797   5.269   6.255
 1346SOL    HW1 4937   1.749   5.215   6.324
 1346SOL    HW2 4938   1.743   5.349   6.232
 1347SOL     OW 4939   2.084   0.161   6.325
 1347SOL    HW1 4940   2.050   0.254   6.310
 1347SOL    HW2 4941   2.059   0.131   6.417
 1348SOL     OW 4942   0.082   6.241   5.362
 1348SOL    HW1 4943   0.061   6.253   5.459
 1348SOL    HW2 4944   0.039   6.314   5.309
 1349SOL     OW 4945   5.715   2.572   3.921
 1349SOL    HW1 4946   5.675   2.504   3.983
 1349SOL    HW2 4947   5.643   2.612   3.865
 1350SOL     OW 4948   4.121   4.754   0.062
 1350SOL    HW1 4949   4.023   4.761   0.043
 1350SOL    HW2 4950   4.144   4.659   0.083
 1351SOL     OW 4951   6.003   2.356   3.566
 1351SOL    HW1 4952   6.078   2.419   3.585
 1351SOL    HW2 4953   5.917   2.406   3.565
 1352SOL     OW 4954   6.721   6.554   2.655
 1352SOL    HW1 4955   6.689   6.595   2.570
 1352SOL    HW2 4956   6.649   6.561   2.725
 1353SOL     OW 4957   0.937   1.794   0.303
 1353SOL    HW1 4958   0.861   1.757   0.357
 1353SOL    HW2 4959   0.927   1.894   0.296
 1354SOL     OW 4960   6.818   3.568   2.360
 1354SOL    HW1 4961   6.741   3.506   2.372
 1354SOL    HW2 4962   6.859   3.588   2.449
 1355SOL     OW 4963   6.334   3.402   4.436
 1355SOL    HW1 4964   6.266   3.331   4.453
 1355SOL    HW2 4965   6.391   3.415   4.517
 1356SOL     OW 4966   3.709   2.828   2.110
 1356SOL    HW1 4967   3.752   2.893   2.172
 1356SOL    HW2 4968   3.776   2.759   2.082
 1357SOL     OW 4969   6.554   3.978   5.875
 1357SOL    HW1 4970   6.600   4.053   5.922
 1357SOL    HW2 4971   6.567   3.893   5.926
 1358SOL     OW 4972   5.698   0.218   0.186
 1358SOL    HW1 4973   5.620   0.216   0.247
 1358SOL    HW2 4974   5.783   0.221   0.240
 1359SOL     OW 4975   6.609   4.862   1.986
 1359SOL    HW1 4976   6.577   4.784   1.932
 1359SOL    HW2 4977   6.561   4.864   2.073
 1360SOL     OW 4978   3.473   3.614   0.171
 1360SOL    HW1 4979   3.427   3.642   0.087
 1360SOL    HW2 4980   3.539   3.684   0.199
 1361SOL     OW 4981   6.979   4.573   5.079
 1361SOL    HW1 4982   6.908   4.582   5.148
 1361SOL    HW2 4983   6.941   4.597   4.989
 1362SOL     OW 4984   3.852   3.506   2.530
 1362SOL    HW1 4985   3.912   3.554   2.466
 1362SOL    HW2 4986   3.771   3.472   2.482
 1363SOL     OW 4987   0.125   5.088   4.623
 1363SOL    HW1 4988   0.037   5.081   4.670
 1363SOL    HW2 4989   0.197   5.103   4.690
 1364SOL     OW 4990   4.494   4.121   7.015
 1364SOL    HW1 4991   4.580   4.088   6.975
 1364SOL    HW2 4992   4.484   4.082   0.088
 1365SOL     OW 4993   0.509   4.598   6.676
 1365SOL    HW1 4994   0.578   4.536   6.714
 1365SOL    HW2 4995   0.525   4.609   6.578
 1366SOL     OW 4996   2.007   6.656   5.706
 1366SOL    HW1 4997   2.027   6.667   5.803
 1366SOL    HW2 4998   2.063   6.582   5.668
 1367SOL     OW 4999   1.891   1.654   2.341
 1367SOL    HW1 5000   1.875   1.663   2.439
 1367SOL    HW2 5001   1.865   1.562   2.311
 1368SOL     OW 5002   5.688   6.795   4.735
 1368SOL    HW1 5003   5.598   6.835   4.753
 1368SOL    HW2 5004   5.709   6.727   4.805
 1369SOL     OW 5005   1.474   6.078   3.070
 1369SOL    HW1 5006   1.375   6.087   3.058
 1369SOL    HW2 5007   1.518   6.166   3.052
 1370SOL     OW 5008   3.655   1.206   1.671
 1370SOL    HW1 5009   3.737   1.212   1.727
 1370SOL    HW2 5010   3.673   1.148   1.591
 1371SOL     OW 5011   4.534   1.364   4.844
 1371SOL    HW1 5012   4.466   1.367   4.771
 1371SOL    HW2 5013   4.549   1.457   4.879
 1372SOL     OW 5014   2.099   2.375   0.796
 1372SOL    HW1 5015   2.118   2.440   0.869
 1372SOL    HW2 5016   2.050   2.296   0.833
 1373SOL     OW 5017   0.076   4.974   0.659
 1373SOL    HW1 5018   0.156   4.917   0.638
 1373SOL    HW2 5019   0.096   5.069   0.636
 1374SOL     OW 5020   4.450   2.130   1.185
 1374SOL    HW1 5021   4.401   2.120   1.098
 1374SOL    HW2 5022   4.492   2.220   1.190
 1375SOL     OW 5023   0.282   5.115   5.475
 1375SOL    HW1 5024   0.376   5.106   5.442
 1375SOL    HW2 5025   0.222   5.137   5.398
 1376SOL     OW 5026   4.570   2.537   3.874
 1376SOL    HW1 5027   4.528   2.500   3.957
 1376SOL    HW2 5028   4.526   2.496   3.794
 1377SOL     OW 5029   0.476   4.446   5.305
 1377SOL    HW1 5030   0.511   4.473   5.395
 1377SOL    HW2 5031   0.542   4.474   5.234
 1378SOL     OW 5032   1.146   2.432   6.021
 1378SOL    HW1 5033   1.151   2.353   5.960
 1378SOL    HW2 5034   1.110   2.402   6.110
 1379SOL     OW 5035   3.260   5.773   3.248
 1379SOL    HW1 5036   3.279   5.856   3.195
 1379SOL    HW2 5037   3.175   5.784   3.299
 1380SOL     OW 5038   6.456   6.813   2.253
 1380SOL    HW1 5039   6.481   6.814   2.156
 1380SOL    HW2 5040   6.394   6.736   2.269
 1381SOL     OW 5041   5.871   3.433   0.202
 1381SOL    HW1 5042   5.865   3.355   0.265
 1381SOL    HW2 5043   5.779   3.463   0.178
 1382SOL     OW 5044   6.324   5.523   6.045
 1382SOL    HW1 5045   6.361   5.472   5.967
 1382SOL    HW2 5046   6.342   5.473   6.129
 1383SOL     OW 5047   0.235   0.605   0.156
 1383SOL    HW1 5048   0.328   0.579   0.181
 1383SOL    HW2 5049   0.176   0.525   0.160
 1384SOL     OW 5050   3.663   1.230   3.317
 1384SOL    HW1 5051   3.608   1.191   3.243
 1384SOL    HW2 5052   3.758   1.203   3.306
 1385SOL     OW 5053   6.282   3.027   3.191
 1385SOL    HW1 5054   6.231   3.053   3.109
 1385SOL    HW2 5055   6.232   3.058   3.272
 1386SOL     OW 5056   2.134   3.150   4.417
 1386SOL    HW1 5057   2.052   3.139   4.360
 1386SOL    HW2 5058   2.211   3.104   4.372
 1387SOL     OW 5059   3.542   0.431   4.915
 1387SOL    HW1 5060   3.549   0.500   4.843
 1387SOL    HW2 5061   3.535   0.476   5.004
 1388SOL     OW 5062   6.416   0.918   4.377
 1388SOL    HW1 5063   6.439   0.842   4.439
 1388SOL    HW2 5064   6.351   0.886   4.309
 1389SOL     OW 5065   5.824   6.890   4.272
 1389SOL    HW1 5066   5.898   6.873   4.208
 1389SOL    HW2 5067   5.767   6.965   4.238
 1390SOL     OW 5068   4.568   1.694   1.659
 1390SOL    HW1 5069   4.555   1.780   1.709
 1390SOL    HW2 5070   4.478   1.658   1.633
 1391SOL     OW 5071   6.545   0.439   4.531
 1391SOL    HW1 5072   6.643   0.447   4.548
 1391SOL    HW2 5073   6.501   0.395   4.610
 1392SOL     OW 5074   4.461   5.862   6.584
 1392SOL    HW1 5075   4.549   5.906   6.570
 1392SOL    HW2 5076   4.388   5.920   6.547
 1393SOL     OW 5077   6.488   1.471   6.445
 1393SOL    HW1 5078   6.558   1.544   6.446
 1393SOL    HW2 5079   6.530   1.385   6.472
 1394SOL     OW 5080   4.060   6.858   3.509
 1394SOL    HW1 5081   4.131   6.830   3.445
 1394SOL    HW2 5082   4.084   6.946   3.549
 1395SOL     OW 5083   1.186   5.164   2.750
 1395SOL    HW1 5084   1.252   5.201   2.816
 1395SOL    HW2 5085   1.231   5.094   2.695
 1396SOL     OW 5086   2.396   1.070   4.557
 1396SOL    HW1 5087   2.337   1.150   4.554
 1396SOL    HW2 5088   2.472   1.083   4.493
 1397SOL     OW 5089   0.446   5.117   4.769
 1397SOL    HW1 5090   0.475   5.156   4.857
 1397SOL    HW2 5091   0.435   5.190   4.702
 1398SOL     OW 5092   0.940   1.289   0.813
 1398SOL    HW1 5093   0.881   1.221   0.857
 1398SOL    HW2 5094   0.981   1.347   0.883
 1399SOL     OW 5095   3.530   0.418   0.846
 1399SOL    HW1 5096   3.622   0.456   0.852
 1399SOL    HW2 5097   3.471   0.481   0.796
 1400SOL     OW 5098   6.132   0.694   4.336
 1400SOL    HW1 5099   6.053   0.677   4.396
 1400SOL    HW2 5100   6.216   0.692   4.390
 1401SOL     OW 5101   5.336   0.659   3.361
 1401SOL    HW1 5102   5.344   0.624   3.268
 1401SOL    HW2 5103   5.240   0.668   3.386
 1402SOL     OW 5104   5.951   3.763   1.596
 1402SOL    HW1 5105   5.879   3.713   1.646
 1402SOL    HW2 5106   5.939   3.749   1.498
 1403SOL     OW 5107   3.457   2.750   6.880
 1403SOL    HW1 5108   3.490   2.812   6.809
 1403SOL    HW2 5109   3.535   2.707   6.926
 1404SOL     OW 5110   4.261   6.948   1.011
 1404SOL    HW1 5111   4.361   6.948   1.008
 1404SOL    HW2 5112   4.228   0.020   1.039
 1405SOL     OW 5113   2.259   3.315   1.342
 1405SOL    HW1 5114   2.211   3.229   1.361
 1405SOL    HW2 5115   2.351   3.310   1.380
 1406SOL     OW 5116   2.883   3.119   0.782
 1406SOL    HW1 5117   2.848   3.054   0.851
 1406SOL    HW2 5118   2.809   3.179   0.752
 1407SOL     OW 5119   0.496   3.140   1.459
 1407SOL    HW1 5120   0.552   3.187   1.390
 1407SOL    HW2 5121   0.466   3.205   1.528
 1408SOL     OW 5122   5.722   6.114   6.523
 1408SOL    HW1 5123   5.704   6.123   6.425
 1408SOL    HW2 5124   5.806   6.063   6.537
 1409SOL     OW 5125   6.811   0.861   5.901
 1409SOL    HW1 5126   6.870   0.931   5.942
 1409SOL    HW2 5127   6.858   0.820   5.823
 1410SOL     OW 5128   2.895   2.681   5.724
 1410SOL    HW1 5129   2.908   2.588   5.689
 1410SOL    HW2 5130   2.836   2.678   5.804
 1411SOL     OW 5131   3.889   5.834   0.205
 1411SOL    HW1 5132   3.982   5.869   0.193
 1411SOL    HW2 5133   3.892   5.735   0.221
 1412SOL     OW 5134   1.638   2.345   0.693
 1412SOL    HW1 5135   1.607   2.341   0.788
 1412SOL    HW2 5136   1.698   2.268   0.674
 1413SOL     OW 5137   1.752   1.580   5.359
 1413SOL    HW1 5138   1.744   1.626   5.448
 1413SOL    HW2 5139   1.809   1.499   5.369
 1414SOL     OW 5140   1.141   3.620   2.103
 1414SOL    HW1 5141   1.159   3.643   2.199
 1414SOL    HW2 5142   1.141   3.521   2.092
 1415SOL     OW 5143   2.641   1.909   3.616
 1415SOL    HW1 5144   2.688   1.826   3.587
 1415SOL    HW2 5145   2.596   1.894   3.704
 1416SOL     OW 5146   4.152   0.236   5.851
 1416SOL    HW1 5147   4.053   0.241   5.864
 1416SOL    HW2 5148   4.175   0.150   5.805
 1417SOL     OW 5149   3.587   2.837   6.243
 1417SOL    HW1 5150   3.514   2.904   6.227
 1417SOL    HW2 5151   3.546   2.750   6.270
 1418SOL     OW 5152   3.647   3.824   0.247
 1418SOL    HW1 5153   3.655   3.854   0.152
 1418SOL    HW2 5154   3.624   3.902   0.305
 1419SOL     OW 5155   1.973   5.058   3.512
 1419SOL    HW1 5156   2.044   5.024   3.573
 1419SOL    HW2 5157   1.994   5.030   3.418
 1420SOL     OW 5158   3.594   5.352   2.979
 1420SOL    HW1 5159   3.596   5.266   2.928
 1420SOL    HW2 5160   3.504   5.363   3.021
 1421SOL     OW 5161   1.231   5.555   5.883
 1421SOL    HW1 5162   1.190   5.609   5.809
 1421SOL    HW2 5163   1.180   5.470   5.895
 1422SOL     OW 5164   2.746   3.308   5.880
 1422SOL    HW1 5165   2.774   3.224   5.834
 1422SOL    HW2 5166   2.668   3.348   5.832
 1423SOL     OW 5167   4.837   1.011   4.568
 1423SOL    HW1 5168   4.777   0.952   4.514
 1423SOL    HW2 5169   4.796   1.028   4.657
 1424SOL     OW 5170   5.518   3.201   6.439
 1424SOL    HW1 5171   5.531   3.104   6.416
 1424SOL    HW2 5172   5.446   3.209   6.507
 1425SOL     OW 5173   3.975   6.623   4.021
 1425SOL    HW1 5174   3.910   6.668   4.082
 1425SOL    HW2 5175   3.953   6.525   4.016
 1426SOL     OW 5176   2.727   1.931   7.013
 1426SOL    HW1 5177   2.758   1.931   0.090
 1426SOL    HW2 5178   2.805   1.944   6.952
 1427SOL     OW 5179   1.170   1.253   3.060
 1427SOL    HW1 5180   1.188   1.163   3.100
 1427SOL    HW2 5181   1.164   1.245   2.961
 1428SOL     OW 5182   6.804   3.427   3.850
 1428SOL    HW1 5183   6.739   3.478   3.794
 1428SOL    HW2 5184   6.894   3.471   3.845
 1429SOL     OW 5185   6.306   1.376   0.625
 1429SOL    HW1 5186   6.290   1.409   0.531
 1429SOL    HW2 5187   6.340   1.452   0.681
 1430SOL     OW 5188   2.147   3.227   3.284
 1430SOL    HW1 5189   2.193   3.165   3.220
 1430SOL    HW2 5190   2.160   3.193   3.377
 1431SOL     OW 5191   2.454   1.636   6.029
 1431SOL    HW1 5192   2.533   1.598   6.077
 1431SOL    HW2 5193   2.435   1.728   6.065
 1432SOL     OW 5194   2.913   1.287   1.388
 1432SOL    HW1 5195   3.010   1.285   1.361
 1432SOL    HW2 5196   2.902   1.350   1.465
 1433SOL     OW 5197   2.973   0.540   4.276
 1433SOL    HW1 5198   2.950   0.611   4.208
 1433SOL    HW2 5199   2.918   0.458   4.258
 1434SOL     OW 5200   6.854   3.170   0.135
 1434SOL    HW1 5201   6.872   3.251   0.079
 1434SOL    HW2 5202   6.847   3.196   0.231
 1435SOL     OW 5203   0.671   0.070   5.304
 1435SOL    HW1 5204   0.581   0.115   5.308
 1435SOL    HW2 5205   0.660   6.995   5.272
 1436SOL     OW 5206   5.716   1.832   0.798
 1436SOL    HW1 5207   5.765   1.821   0.712
 1436SOL    HW2 5208   5.775   1.876   0.865
 1437SOL     OW 5209   4.236   1.208   6.394
 1437SOL    HW1 5210   4.161   1.254   6.345
 1437SOL    HW2 5211   4.284   1.147   6.331
 1438SOL     OW 5212   2.557   1.030   1.506
 1438SOL    HW1 5213   2.570   0.949   1.563
 1438SOL    HW2 5214   2.603   1.108   1.548
 1439SOL     OW 5215   6.769   5.150   6.990
 1439SOL    HW1 5216   6.852   5.170   6.937
 1439SOL    HW2 5217   6.695   5.126   6.927
 1440SOL     OW 5218   3.035   3.204   3.483
 1440SOL    HW1 5219   3.004   3.299   3.474
 1440SOL    HW2 5220   3.053   3.166   3.393
 1441SOL     OW 5221   0.277   2.583   3.985
 1441SOL    HW1 5222   0.184   2.560   4.011
 1441SOL    HW2 5223   0.292   2.681   3.997
 1442SOL     OW 5224   4.736   4.183   0.395
 1442SOL    HW1 5225   4.788   4.122   0.335
 1442SOL    HW2 5226   4.766   4.278   0.381
 1443SOL     OW 5227   0.982   1.480   3.531
 1443SOL    HW1 5228   0.888   1.486   3.499
 1443SOL    HW2 5229   1.032   1.563   3.506
 1444SOL     OW 5230   4.176   0.639   3.660
 1444SOL    HW1 5231   4.233   0.646   3.577
 1444SOL    HW2 5232   4.154   0.731   3.692
 1445SOL     OW 5233   6.693   2.379   2.001
 1445SOL    HW1 5234   6.709   2.466   2.047
 1445SOL    HW2 5235   6.781   2.336   1.980
 1446SOL     OW 5236   3.863   2.072   1.587
 1446SOL    HW1 5237   3.898   2.149   1.641
 1446SOL    HW2 5238   3.805   2.108   1.513
 1447SOL     OW 5239   6.574   1.340   4.726
 1447SOL    HW1 5240   6.663   1.350   4.682
 1447SOL    HW2 5241   6.586   1.324   4.824
 1448SOL     OW 5242   5.409   1.107   6.175
 1448SOL    HW1 5243   5.471   1.070   6.105
 1448SOL    HW2 5244   5.315   1.104   6.142
 1449SOL     OW 5245   5.176   5.449   1.109
 1449SOL    HW1 5246   5.121   5.524   1.147
 1449SOL    HW2 5247   5.263   5.444   1.158
 1450SOL     OW 5248   5.486   2.887   2.967
 1450SOL    HW1 5249   5.564   2.944   2.942
 1450SOL    HW2 5250   5.512   2.790   2.964
 1451SOL     OW 5251   1.426   6.479   2.678
 1451SOL    HW1 5252   1.352   6.413   2.693
 1451SOL    HW2 5253   1.390   6.572   2.688
 1452SOL     OW 5254   5.083   0.599   5.439
 1452SOL    HW1 5255   5.005   0.612   5.500
 1452SOL    HW2 5256   5.054   0.611   5.344
 1453SOL     OW 5257   5.038   4.179   4.994
 1453SOL    HW1 5258   5.053   4.221   5.083
 1453SOL    HW2 5259   5.125   4.172   4.945
 1454SOL     OW 5260   5.013   3.001   1.996
 1454SOL    HW1 5261   5.002   2.986   1.898
 1454SOL    HW2 5262   4.922   3.000   2.040
 1455SOL     OW 5263   1.127   1.175   1.942
 1455SOL    HW1 5264   1.157   1.080   1.934
 1455SOL    HW2 5265   1.159   1.213   2.029
 1456SOL     OW 5266   6.967   6.392   4.312
 1456SOL    HW1 5267   7.006   6.422   4.399
 1456SOL    HW2 5268   6.941   6.472   4.258
 1457SOL     OW 5269   1.791   0.266   3.689
 1457SOL    HW1 5270   1.886   0.287   3.666
 1457SOL    HW2 5271   1.760   0.189   3.633
 1458SOL     OW 5272   5.628   6.152   6.259
 1458SOL    HW1 5273   5.609   6.079   6.194
 1458SOL    HW2 5274   5.618   6.241   6.213
 1459SOL     OW 5275   3.196   5.677   6.759
 1459SOL    HW1 5276   3.260   5.748   6.786
 1459SOL    HW2 5277   3.145   5.707   6.679
 1460SOL     OW 5278   1.628   0.147   6.988
 1460SOL    HW1 5279   1.714   0.105   6.959
 1460SOL    HW2 5280   1.643   0.200   0.053
 1461SOL     OW 5281   5.553   4.570   2.474
 1461SOL    HW1 5282   5.576   4.594   2.568
 1461SOL    HW2 5283   5.626   4.599   2.413
 1462SOL     OW 5284   5.924   0.623   0.269
 1462SOL    HW1 5285   5.832   0.646   0.238
 1462SOL    HW2 5286   5.986   0.699   0.248
 1463SOL     OW 5287   1.147   0.932   5.267
 1463SOL    HW1 5288   1.191   0.889   5.346
 1463SOL    HW2 5289   1.204   0.919   5.186
 1464SOL     OW 5290   0.081   6.478   0.882
 1464SOL    HW1 5291   0.106   6.461   0.786
 1464SOL    HW2 5292   0.163   6.500   0.934
 1465SOL     OW 5293   0.397   0.104   5.064
 1465SOL    HW1 5294   0.477   0.136   5.012
 1465SOL    HW2 5295   0.314   0.143   5.025
 1466SOL     OW 5296   5.988   5.301   3.303
 1466SOL    HW1 5297   6.053   5.263   3.369
 1466SOL    HW2 5298   5.979   5.238   3.225
 1467SOL     OW 5299   0.923   1.243   4.005
 1467SOL    HW1 5300   1.008   1.289   4.030
 1467SOL    HW2 5301   0.855   1.310   3.978
 1468SOL     OW 5302   5.054   5.987   3.607
 1468SOL    HW1 5303   5.106   5.914   3.653
 1468SOL    HW2 5304   5.028   5.957   3.515
 1469SOL     OW 5305   0.934   1.137   2.212
 1469SOL    HW1 5306   0.973   1.065   2.154
 1469SOL    HW2 5307   0.885   1.096   2.288
 1470SOL     OW 5308   1.119   1.248   2.786
 1470SOL    HW1 5309   1.057   1.225   2.712
 1470SOL    HW2 5310   1.204   1.285   2.749
 1471SOL     OW 5311   0.343   0.104   6.914
 1471SOL    HW1 5312   0.319   0.151   6.828
 1471SOL    HW2 5313   0.440   0.078   6.911
 1472SOL     OW 5314   5.003   0.453   6.065
 1472SOL    HW1 5315   4.925   0.517   6.059
 1472SOL    HW2 5316   5.087   0.501   6.042
 1473SOL     OW 5317   6.221   4.658   2.783
 1473SOL    HW1 5318   6.259   4.626   2.870
 1473SOL    HW2 5319   6.129   4.621   2.772
 1474SOL     OW 5320   5.821   5.584   4.353
 1474SOL    HW1 5321   5.764   5.548   4.426
 1474SOL    HW2 5322   5.820   5.522   4.275
 1475SOL     OW 5323   6.832   0.944   2.204
 1475SOL    HW1 5324   6.733   0.951   2.213
 1475SOL    HW2 5325   6.856   0.934   2.107
 1476SOL     OW 5326   0.542   1.910   2.245
 1476SOL    HW1 5327   0.555   1.869   2.336
 1476SOL    HW2 5328   0.558   2.009   2.251
 1477SOL     OW 5329   2.710   6.520   5.271
 1477SOL    HW1 5330   2.800   6.475   5.270
 1477SOL    HW2 5331   2.723   6.619   5.260
 1478SOL     OW 5332   5.753   4.710   0.954
 1478SOL    HW1 5333   5.779   4.615   0.967
 1478SOL    HW2 5334   5.662   4.714   0.911
 1479SOL     OW 5335   1.860   4.590   0.134
 1479SOL    HW1 5336   1.898   4.587   0.227
 1479SOL    HW2 5337   1.858   4.684   0.102
 1480SOL     OW 5338   2.699   1.615   0.391
 1480SOL    HW1 5339   2.630   1.579   0.329
 1480SOL    HW2 5340   2.658   1.682   0.453
 1481SOL     OW 5341   5.685   2.559   5.987
 1481SOL    HW1 5342   5.775   2.532   6.021
 1481SOL    HW2 5343   5.694   2.600   5.896
 1482SOL     OW 5344   5.799   0.919   0.146
 1482SOL    HW1 5345   5.763   0.892   0.235
 1482SOL    HW2 5346   5.743   0.992   0.107
 1483SOL     OW 5347   6.106   2.390   0.309
 1483SOL    HW1 5348   6.139   2.484   0.312
 1483SOL    HW2 5349   6.012   2.386   0.344
 1484SOL     OW 5350   6.788   5.250   2.758
 1484SOL    HW1 5351   6.808   5.309   2.680
 1484SOL    HW2 5352   6.873   5.218   2.798
 1485SOL     OW 5353   5.303   2.437   3.935
 1485SOL    HW1 5354   5.283   2.369   4.006
 1485SOL    HW2 5355   5.334   2.391   3.852
 1486SOL     OW 5356   4.718   2.165   2.844
 1486SOL    HW1 5357   4.658   2.181   2.765
 1486SOL    HW2 5358   4.743   2.068   2.847
 1487SOL     OW 5359   6.130   1.547   5.610
 1487SOL    HW1 5360   6.107   1.487   5.534
 1487SOL    HW2 5361   6.121   1.496   5.696
 1488SOL     OW 5362   4.269   1.230   3.190
 1488SOL    HW1 5363   4.203   1.295   3.152
 1488SOL    HW2 5364   4.236   1.137   3.176
 1489SOL     OW 5365   3.689   5.007   5.006
 1489SOL    HW1 5366   3.615   4.982   5.068
 1489SOL    HW2 5367   3.651   5.049   4.923
 1490SOL     OW 5368   1.080   2.286   0.470
 1490SOL    HW1 5369   1.054   2.282   0.374
 1490SOL    HW2 5370   1.019   2.349   0.518
 1491SOL     OW 5371   0.120   3.048   3.657
 1491SOL    HW1 5372   0.041   3.023   3.713
 1491SOL    HW2 5373   0.193   2.981   3.671
 1492SOL     OW 5374   5.163   1.665   1.619
 1492SOL    HW1 5375   5.065   1.653   1.600
 1492SOL    HW2 5376   5.175   1.692   1.715
 1493SOL     OW 5377   4.635   0.079   5.134
 1493SOL    HW1 5378   4.632   7.012   5.083
 1493SOL    HW2 5379   4.562   0.140   5.101
 1494SOL     OW 5380   4.061   2.433   5.775
 1494SOL    HW1 5381   4.049   2.353   5.717
 1494SOL    HW2 5382   3.973   2.460   5.813
 1495SOL     OW 5383   0.888   3.174   2.411
 1495SOL    HW1 5384   0.931   3.107   2.472
 1495SOL    HW2 5385   0.936   3.261   2.418
 1496SOL     OW 5386   0.013   0.233   2.238
 1496SOL    HW1 5387   0.101   0.281   2.243
 1496SOL    HW2 5388   0.010   0.162   2.308
 1497SOL     OW 5389   6.239   4.929   4.207
 1497SOL    HW1 5390   6.203   5.021   4.189
 1497SOL    HW2 5391   6.294   4.898   4.130
 1498SOL     OW 5392   1.671   4.793   6.646
 1498SOL    HW1 5393   1.576   4.804   6.619
 1498SOL    HW2 5394   1.713   4.720   6.591
 1499SOL     OW 5395   1.183   4.099   5.169
 1499SOL    HW1 5396   1.185   4.161   5.248
 1499SOL    HW2 5397   1.117   4.027   5.186
 1500SOL     OW 5398   5.148   6.654   0.227
 1500SOL    HW1 5399   5.200   6.572   0.250
 1500SOL    HW2 5400   5.055   6.645   0.262
 1501SOL     OW 5401   3.993   0.295   6.512
 1501SOL    HW1 5402   4.012   0.267   6.606
 1501SOL    HW2 5403   4.074   0.277   6.455
 1502SOL     OW 5404   6.288   6.775   0.112
 1502SOL    HW1 5405   6.369   6.729   0.075
 1502SOL    HW2 5406   6.239   6.713   0.172
 1503SOL     OW 5407   3.219   3.088   6.850
 1503SOL    HW1 5408   3.219   2.989   6.839
 1503SOL    HW2 5409   3.195   3.111   6.945
 1504SOL     OW 5410   3.435   6.721   4.912
 1504SOL    HW1 5411   3.483   6.665   4.844
 1504SOL    HW2 5412   3.365   6.776   4.866
 1505SOL     OW 5413   5.606   6.564   5.849
 1505SOL    HW1 5414   5.568   6.487   5.901
 1505SOL    HW2 5415   5.541   6.640   5.848
 1506SOL     OW 5416   0.853   5.565   3.995
 1506SOL    HW1 5417   0.806   5.518   4.070
 1506SOL    HW2 5418   0.943   5.595   4.026
 1507SOL     OW 5419   1.638   1.334   5.157
 1507SOL    HW1 5420   1.719   1.302   5.207
 1507SOL    HW2 5421   1.665   1.368   5.067
 1508SOL     OW 5422   4.396   6.977   0.551
 1508SOL    HW1 5423   4.331   0.033   0.532
 1508SOL    HW2 5424   4.362   6.922   0.627
 1509SOL     OW 5425   4.401   3.032   6.963
 1509SOL    HW1 5426   4.313   2.988   6.982
 1509SOL    HW2 5427   4.386   3.120   6.920
 1510SOL     OW 5428   0.178   1.836   4.230
 1510SOL    HW1 5429   0.187   1.749   4.182
 1510SOL    HW2 5430   0.161   1.909   4.164
 1511SOL     OW 5431   2.844   2.247   0.489
 1511SOL    HW1 5432   2.819   2.328   0.436
 1511SOL    HW2 5433   2.835   2.267   0.587
 1512SOL     OW 5434   0.227   0.825   1.687
 1512SOL    HW1 5435   0.296   0.841   1.757
 1512SOL    HW2 5436   0.234   0.896   1.617
 1513SOL     OW 5437   3.583   0.052   3.962
 1513SOL    HW1 5438   3.500   0.108   3.959
 1513SOL    HW2 5439   3.582   7.007   3.885
 1514SOL     OW 5440   5.756   1.566   4.820
 1514SOL    HW1 5441   5.848   1.553   4.782
 1514SOL    HW2 5442   5.712   1.644   4.775
 1515SOL     OW 5443   0.254   4.618   5.243
 1515SOL    HW1 5444   0.228   4.602   5.148
 1515SOL    HW2 5445   0.346   4.581   5.258
 1516SOL     OW 5446   0.370   1.103   0.502
 1516SOL    HW1 5447   0.451   1.104   0.561
 1516SOL    HW2 5448   0.294   1.147   0.549
 1517SOL     OW 5449   4.795   5.914   3.324
 1517SOL    HW1 5450   4.883   5.954   3.351
 1517SOL    HW2 5451   4.772   5.945   3.231
 1518SOL     OW 5452   6.645   4.208   1.052
 1518SOL    HW1 5453   6.714   4.278   1.071
 1518SOL    HW2 5454   6.629   4.154   1.134
 1519SOL     OW 5455   5.847   4.284   0.891
 1519SOL    HW1 5456   5.755   4.314   0.868
 1519SOL    HW2 5457   5.888   4.350   0.955
 1520SOL     OW 5458   2.150   3.640   2.756
 1520SOL    HW1 5459   2.151   3.540   2.766
 1520SOL    HW2 5460   2.110   3.681   2.838
 1521SOL     OW 5461   1.970   2.972   6.597
 1521SOL    HW1 5462   1.892   2.959   6.658
 1521SOL    HW2 5463   2.051   2.996   6.650
 1522SOL     OW 5464   5.657   1.950   6.562
 1522SOL    HW1 5465   5.581   1.888   6.542
 1522SOL    HW2 5466   5.667   1.959   6.661
 1523SOL     OW 5467   6.268   2.808   1.126
 1523SOL    HW1 5468   6.333   2.734   1.142
 1523SOL    HW2 5469   6.175   2.771   1.123
 1524SOL     OW 5470   0.487   1.093   1.485
 1524SOL    HW1 5471   0.395   1.104   1.446
 1524SOL    HW2 5472   0.496   1.153   1.565
 1525SOL     OW 5473   3.963   1.790   6.054
 1525SOL    HW1 5474   3.969   1.769   5.957
 1525SOL    HW2 5475   3.904   1.870   6.067
 1526SOL     OW 5476   0.107   2.092   1.703
 1526SOL    HW1 5477   0.097   1.993   1.707
 1526SOL    HW2 5478   0.125   2.128   1.794
 1527SOL     OW 5479   3.651   2.028   5.167
 1527SOL    HW1 5480   3.650   1.936   5.207
 1527SOL    HW2 5481   3.578   2.037   5.100
 1528SOL     OW 5482   4.574   0.015   3.536
 1528SOL    HW1 5483   4.557   6.944   3.577
 1528SOL    HW2 5484   4.494   0.073   3.547
 1529SOL     OW 5485   3.844   0.110   6.075
 1529SOL    HW1 5486   3.744   0.106   6.086
 1529SOL    HW2 5487   3.881   0.181   6.136
 1530SOL     OW 5488   2.835   6.442   2.077
 1530SOL    HW1 5489   2.786   6.451   2.164
 1530SOL    HW2 5490   2.927   6.407   2.094
 1531SOL     OW 5491   6.584   0.084   4.097
 1531SOL    HW1 5492   6.588   0.097   4.197
 1531SOL    HW2 5493   6.650   0.145   4.053
 1532SOL     OW 5494   3.351   2.281   5.378
 1532SOL    HW1 5495   3.296   2.329   5.310
 1532SOL    HW2 5496   3.446   2.313   5.373
 1533SOL     OW 5497   6.214   3.381   6.920
 1533SOL    HW1 5498   6.142   3.417   6.861
 1533SOL    HW2 5499   6.192   3.399   7.015
 1534SOL     OW 5500   0.853   5.901   0.875
 1534SOL    HW1 5501   0.919   5.838   0.835
 1534SOL    HW2 5502   0.869   5.993   0.840
 1535SOL     OW 5503   4.746   4.045   4.125
 1535SOL    HW1 5504   4.820   3.985   4.094
 1535SOL    HW2 5505   4.677   3.990   4.172
 1536SOL     OW 5506   2.622   5.758   4.879
 1536SOL    HW1 5507   2.613   5.671   4.829
 1536SOL    HW2 5508   2.698   5.811   4.841
 1537SOL     OW 5509   1.633   5.073   4.805
 1537SOL    HW1 5510   1.682   5.041   4.724
 1537SOL    HW2 5511   1.549   5.120   4.777
 1538SOL     OW 5512   2.576   5.103   0.282
 1538SOL    HW1 5513   2.572   5.193   0.327
 1538SOL    HW2 5514   2.657   5.054   0.313
 1539SOL     OW 5515   3.738   4.881   1.657
 1539SOL    HW1 5516   3.798   4.833   1.594
 1539SOL    HW2 5517   3.670   4.818   1.693
 1540SOL     OW 5518   0.860   0.243   5.229
 1540SOL    HW1 5519   0.790   0.177   5.257
 1540SOL    HW2 5520   0.818   0.332   5.215
 1541SOL     OW 5521   4.641   2.848   1.146
 1541SOL    HW1 5522   4.647   2.948   1.142
 1541SOL    HW2 5523   4.644   2.819   1.242
 1542SOL     OW 5524   0.403   6.204   1.493
 1542SOL    HW1 5525   0.497   6.199   1.458
 1542SOL    HW2 5526   0.395   6.144   1.573
 1543SOL     OW 5527   3.602   3.892   3.835
 1543SOL    HW1 5528   3.608   3.985   3.801
 1543SOL    HW2 5529   3.657   3.831   3.777
 1544SOL     OW 5530   3.484   4.102   2.479
 1544SOL    HW1 5531   3.565   4.058   2.439
 1544SOL    HW2 5532   3.508   4.141   2.568
 1545SOL     OW 5533   6.263   0.586   4.685
 1545SOL    HW1 5534   6.322   0.666   4.696
 1545SOL    HW2 5535   6.311   0.504   4.715
 1546SOL     OW 5536   6.489   6.005   5.933
 1546SOL    HW1 5537   6.580   5.970   5.911
 1546SOL    HW2 5538   6.497   6.083   5.996
 1547SOL     OW 5539   2.867   5.172   2.903
 1547SOL    HW1 5540   2.940   5.219   2.952
 1547SOL    HW2 5541   2.836   5.228   2.826
 1548SOL     OW 5542   4.637   4.353   4.992
 1548SOL    HW1 5543   4.596   4.414   4.924
 1548SOL    HW2 5544   4.586   4.268   4.995
 1549SOL     OW 5545   6.463   2.626   1.214
 1549SOL    HW1 5546   6.465   2.677   1.300
 1549SOL    HW2 5547   6.468   2.528   1.233
 1550SOL     OW 5548   1.675   6.094   4.642
 1550SOL    HW1 5549   1.753   6.156   4.647
 1550SOL    HW2 5550   1.626   6.094   4.730
 1551SOL     OW 5551   1.701   3.266   0.941
 1551SOL    HW1 5552   1.710   3.186   0.882
 1551SOL    HW2 5553   1.767   3.260   1.016
 1552SOL     OW 5554   1.364   0.846   1.077
 1552SOL    HW1 5555   1.315   0.929   1.050
 1552SOL    HW2 5556   1.315   0.801   1.152
 1553SOL     OW 5557   5.769   1.729   6.942
 1553SOL    HW1 5558   5.751   1.676   6.859
 1553SOL    HW2 5559   5.819   1.673   7.008
 1554SOL     OW 5560   4.292   1.751   2.344
 1554SOL    HW1 5561   4.209   1.726   2.392
 1554SOL    HW2 5562   4.274   1.829   2.284
 1555SOL     OW 5563   3.801   1.318   5.010
 1555SOL    HW1 5564   3.769   1.282   5.097
 1555SOL    HW2 5565   3.722   1.339   4.951
 1556SOL     OW 5566   3.790   0.373   0.803
 1556SOL    HW1 5567   3.763   0.287   0.847
 1556SOL    HW2 5568   3.859   0.418   0.858
 1557SOL     OW 5569   1.762   1.964   1.382
 1557SOL    HW1 5570   1.861   1.963   1.400
 1557SOL    HW2 5571   1.728   2.058   1.390
 1558SOL     OW 5572   6.241   3.360   5.418
 1558SOL    HW1 5573   6.217   3.362   5.515
 1558SOL    HW2 5574   6.205   3.442   5.373
 1559SOL     OW 5575   1.321   4.105   2.794
 1559SOL    HW1 5576   1.262   4.040   2.745
 1559SOL    HW2 5577   1.387   4.145   2.731
 1560SOL     OW 5578   3.828   1.522   1.011
 1560SOL    HW1 5579   3.915   1.482   0.982
 1560SOL    HW2 5580   3.829   1.534   1.111
 1561SOL     OW 5581   5.272   6.230   2.099
 1561SOL    HW1 5582   5.185   6.222   2.051
 1561SOL    HW2 5583   5.284   6.323   2.133
 1562SOL     OW 5584   3.028   7.004   2.183
 1562SOL    HW1 5585   3.046   0.063   2.122
 1562SOL    HW2 5586   2.933   7.008   2.214
 1563SOL     OW 5587   3.421   1.966   4.504
 1563SOL    HW1 5588   3.517   1.989   4.486
 1563SOL    HW2 5589   3.369   1.973   4.419
 1564SOL     OW 5590   0.905   2.050   2.351
 1564SOL    HW1 5591   1.000   2.027   2.329
 1564SOL    HW2 5592   0.855   2.068   2.266
 1565SOL     OW 5593   3.789   0.159   3.620
 1565SOL    HW1 5594   3.812   0.247   3.662
 1565SOL    HW2 5595   3.801   0.165   3.521
 1566SOL     OW 5596   4.705   4.165   3.049
 1566SOL    HW1 5597   4.758   4.184   3.132
 1566SOL    HW2 5598   4.684   4.067   3.045
 1567SOL     OW 5599   5.074   5.652   5.290
 1567SOL    HW1 5600   4.980   5.679   5.273
 1567SOL    HW2 5601   5.092   5.564   5.247
 1568SOL     OW 5602   2.058   6.538   2.752
 1568SOL    HW1 5603   2.122   6.553   2.827
 1568SOL    HW2 5604   2.022   6.625   2.720
 1569SOL     OW 5605   2.723   0.065   3.005
 1569SOL    HW1 5606   2.697   0.161   3.010
 1569SOL    HW2 5607   2.776   0.040   3.086
 1570SOL     OW 5608   3.334   0.150   0.298
 1570SOL    HW1 5609   3.354   0.214   0.224
 1570SOL    HW2 5610   3.390   0.068   0.287
 1571SOL     OW 5611   1.275   2.686   3.766
 1571SOL    HW1 5612   1.330   2.714   3.844
 1571SOL    HW2 5613   1.320   2.611   3.718
 1572SOL     OW 5614   1.625   5.411   1.541
 1572SOL    HW1 5615   1.609   5.413   1.640
 1572SOL    HW2 5616   1.613   5.503   1.503
 1573SOL     OW 5617   4.380   4.789   1.506
 1573SOL    HW1 5618   4.437   4.711   1.481
 1573SOL    HW2 5619   4.389   4.861   1.437
 1574SOL     OW 5620   6.509   3.359   2.067
 1574SOL    HW1 5621   6.564   3.419   2.009
 1574SOL    HW2 5622   6.547   3.267   2.064
 1575SOL     OW 5623   0.646   0.832   0.665
 1575SOL    HW1 5624   0.635   0.802   0.760
 1575SOL    HW2 5625   0.700   0.764   0.615
 1576SOL     OW 5626   0.639   6.110   1.790
 1576SOL    HW1 5627   0.705   6.049   1.746
 1576SOL    HW2 5628   0.547   6.083   1.763
 1577SOL     OW 5629   4.118   0.018   6.168
 1577SOL    HW1 5630   4.207   0.019   6.214
 1577SOL    HW2 5631   4.104   0.107   6.123
 1578SOL     OW 5632   4.622   1.005   0.378
 1578SOL    HW1 5633   4.657   0.918   0.345
 1578SOL    HW2 5634   4.545   0.989   0.440
 1579SOL     OW 5635   2.119   2.392   1.812
 1579SOL    HW1 5636   2.196   2.395   1.749
 1579SOL    HW2 5637   2.099   2.296   1.835
 1580SOL     OW 5638   3.300   4.122   2.897
 1580SOL    HW1 5639   3.342   4.169   2.819
 1580SOL    HW2 5640   3.371   4.100   2.965
 1581SOL     OW 5641   0.280   4.186   6.007
 1581SOL    HW1 5642   0.269   4.138   6.094
 1581SOL    HW2 5643   0.278   4.120   5.932
 1582SOL     OW 5644   4.534   6.416   6.151
 1582SOL    HW1 5645   4.554   6.514   6.157
 1582SOL    HW2 5646   4.439   6.400   6.178
 1583SOL     OW 5647   1.102   5.961   5.300
 1583SOL    HW1 5648   1.085   6.059   5.295
 1583SOL    HW2 5649   1.037   5.913   5.241
 1584SOL     OW 5650   0.811   5.250   6.522
 1584SOL    HW1 5651   0.790   5.173   6.583
 1584SOL    HW2 5652   0.775   5.335   6.562
 1585SOL     OW 5653   3.827   0.074   3.082
 1585SOL    HW1 5654   3.759   0.002   3.072
 1585SOL    HW2 5655   3.890   0.071   3.004
 1586SOL     OW 5656   3.091   5.666   4.503
 1586SOL    HW1 5657   3.135   5.643   4.417
 1586SOL    HW2 5658   3.003   5.619   4.509
 1587SOL     OW 5659   1.861   6.031   6.217
 1587SOL    HW1 5660   1.765   6.048   6.239
 1587SOL    HW2 5661   1.908   5.992   6.297
 1588SOL     OW 5662   6.337   0.035   1.983
 1588SOL    HW1 5663   6.360   0.111   2.044
 1588SOL    HW2 5664   6.270   6.994   2.027
 1589SOL     OW 5665   6.272   3.939   2.780
 1589SOL    HW1 5666   6.321   3.917   2.696
 1589SOL    HW2 5667   6.268   4.039   2.791
 1590SOL     OW 5668   6.573   1.997   3.618
 1590SOL    HW1 5669   6.537   2.007   3.710
 1590SOL    HW2 5670   6.569   2.086   3.571
 1591SOL     OW 5671   0.446   5.753   1.028
 1591SOL    HW1 5672   0.422   5.739   0.932
 1591SOL    HW2 5673   0.366   5.785   1.078
 1592SOL     OW 5674   1.395   4.361   6.764
 1592SOL    HW1 5675   1.336   4.331   6.839
 1592SOL    HW2 5676   1.454   4.435   6.796
 1593SOL     OW 5677   0.767   0.140   6.604
 1593SOL    HW1 5678   0.845   0.142   6.666
 1593SOL    HW2 5679   0.686   0.108   6.654
 1594SOL     OW 5680   6.895   0.284   1.745
 1594SOL    HW1 5681   6.858   0.212   1.687
 1594SOL    HW2 5682   6.992   0.268   1.762
 1595SOL     OW 5683   1.463   3.661   6.674
 1595SOL    HW1 5684   1.460   3.735   6.741
 1595SOL    HW2 5685   1.545   3.605   6.690
 1596SOL     OW 5686   5.605   4.379   2.171
 1596SOL    HW1 5687   5.651   4.337   2.093
 1596SOL    HW2 5688   5.661   4.455   2.206
 1597SOL     OW 5689   3.464   5.866   1.020
 1597SOL    HW1 5690   3.482   5.842   0.925
 1597SOL    HW2 5691   3.519   5.808   1.080
 1598SOL     OW 5692   1.547   5.822   0.237
 1598SOL    HW1 5693   1.496   5.897   0.197
 1598SOL    HW2 5694   1.645   5.835   0.219
 1599SOL     OW 5695   4.050   5.210   4.070
 1599SOL    HW1 5696   4.038   5.122   4.117
 1599SOL    HW2 5697   4.117   5.199   3.997
 1600SOL     OW 5698   3.046   0.432   2.605
 1600SOL    HW1 5699   3.032   0.364   2.534
 1600SOL    HW2 5700   3.143   0.440   2.626
 1601SOL     OW 5701   6.380   6.840   3.854
 1601SOL    HW1 5702   6.376   6.930   3.812
 1601SOL    HW2 5703   6.476   6.811   3.862
 1602SOL     OW 5704   4.467   5.130   4.137
 1602SOL    HW1 5705   4.562   5.110   4.158
 1602SOL    HW2 5706   4.407   5.082   4.201
 1603SOL     OW 5707   3.071   6.058   4.188
 1603SOL    HW1 5708   3.013   6.039   4.267
 1603SOL    HW2 5709   3.027   6.127   4.131
 1604SOL     OW 5710   3.635   5.002   2.147
 1604SOL    HW1 5711   3.633   4.920   2.089
 1604SOL    HW2 5712   3.725   5.046   2.140
 1605SOL     OW 5713   4.859   5.144   2.079
 1605SOL    HW1 5714   4.837   5.062   2.133
 1605SOL    HW2 5715   4.864   5.223   2.140
 1606SOL     OW 5716   4.474   6.403   4.168
 1606SOL    HW1 5717   4.437   6.310   4.173
 1606SOL    HW2 5718   4.501   6.434   4.259
 1607SOL     OW 5719   4.529   6.786   2.638
 1607SOL    HW1 5720   4.440   6.741   2.631
 1607SOL    HW2 5721   4.580   6.746   2.714
 1608SOL     OW 5722   6.791   0.709   2.917
 1608SOL    HW1 5723   6.742   0.774   2.858
 1608SOL    HW2 5724   6.824   0.757   2.998
 1609SOL     OW 5725   3.078   6.685   0.664
 1609SOL    HW1 5726   3.093   6.605   0.605
 1609SOL    HW2 5727   3.162   6.738   0.670
 1610SOL     OW 5728   3.918   6.514   6.881
 1610SOL    HW1 5729   3.928   6.612   6.898
 1610SOL    HW2 5730   3.910   6.498   6.782
 1611SOL     OW 5731   0.929   3.950   1.434
 1611SOL    HW1 5732   0.992   4.014   1.390
 1611SOL    HW2 5733   0.981   3.875   1.475
 1612SOL     OW 5734   3.052   5.853   1.089
 1612SOL    HW1 5735   2.989   5.854   1.011
 1612SOL    HW2 5736   3.013   5.905   1.164
 1613SOL     OW 5737   0.496   5.590   2.387
 1613SOL    HW1 5738   0.509   5.563   2.291
 1613SOL    HW2 5739   0.584   5.615   2.426
 1614SOL     OW 5740   5.409   2.816   6.669
 1614SOL    HW1 5741   5.384   2.837   6.764
 1614SOL    HW2 5742   5.500   2.775   6.667
 1615SOL     OW 5743   0.453   5.371   6.629
 1615SOL    HW1 5744   0.487   5.278   6.643
 1615SOL    HW2 5745   0.530   5.434   6.618
 1616SOL     OW 5746   3.297   1.067   5.418
 1616SOL    HW1 5747   3.384   1.049   5.372
 1616SOL    HW2 5748   3.311   1.131   5.493
 1617SOL     OW 5749   4.873   6.765   3.591
 1617SOL    HW1 5750   4.841   6.713   3.671
 1617SOL    HW2 5751   4.911   6.852   3.621
 1618SOL     OW 5752   2.341   5.799   3.036
 1618SOL    HW1 5753   2.244   5.824   3.035
 1618SOL    HW2 5754   2.393   5.868   3.086
 1619SOL     OW 5755   0.963   5.231   6.825
 1619SOL    HW1 5756   0.944   5.226   6.923
 1619SOL    HW2 5757   0.899   5.173   6.775
 1620SOL     OW 5758   3.142   5.265   0.749
 1620SOL    HW1 5759   3.113   5.188   0.806
 1620SOL    HW2 5760   3.193   5.331   0.805
 1621SOL     OW 5761   5.953   6.504   1.261
 1621SOL    HW1 5762   5.967   6.568   1.185
 1621SOL    HW2 5763   5.894   6.547   1.330
 1622SOL     OW 5764   1.041   3.972   4.948
 1622SOL    HW1 5765   1.034   3.956   5.046
 1622SOL    HW2 5766   1.106   3.906   4.908
 1623SOL     OW 5767   0.697   2.626   5.043
 1623SOL    HW1 5768   0.773   2.572   5.005
 1623SOL    HW2 5769   0.611   2.595   5.002
 1624SOL     OW 5770   3.631   1.260   0.463
 1624SOL    HW1 5771   3.617   1.357   0.443
 1624SOL    HW2 5772   3.623   1.246   0.562
 1625SOL     OW 5773   1.886   4.818   0.776
 1625SOL    HW1 5774   1.811   4.754   0.790
 1625SOL    HW2 5775   1.911   4.818   0.679
 1626SOL     OW 5776   3.212   2.007   1.362
 1626SOL    HW1 5777   3.149   2.080   1.334
 1626SOL    HW2 5778   3.247   2.028   1.454
 1627SOL     OW 5779   4.766   2.202   4.430
 1627SOL    HW1 5780   4.829   2.235   4.500
 1627SOL    HW2 5781   4.800   2.229   4.340
 1628SOL     OW 5782   4.994   5.716   6.410
 1628SOL    HW1 5783   5.079   5.665   6.403
 1628SOL    HW2 5784   5.012   5.814   6.398
 1629SOL     OW 5785   3.231   2.116   3.093
 1629SOL    HW1 5786   3.190   2.033   3.056
 1629SOL    HW2 5787   3.176   2.196   3.068
 1630SOL     OW 5788   0.151   4.128   0.416
 1630SOL    HW1 5789   0.191   4.219   0.425
 1630SOL    HW2 5790   0.151   4.082   0.505
 1631SOL     OW 5791   6.982   3.363   1.107
 1631SOL    HW1 5792   6.904   3.378   1.167
 1631SOL    HW2 5793   0.028   3.440   1.115
 1632SOL     OW 5794   5.701   4.696   2.671
 1632SOL    HW1 5795   5.650   4.752   2.737
 1632SOL    HW2 5796   5.768   4.754   2.625
 1633SOL     OW 5797   5.166   3.568   3.939
 1633SOL    HW1 5798   5.152   3.470   3.948
 1633SOL    HW2 5799   5.108   3.604   3.866
 1634SOL     OW 5800   4.615   0.862   4.552
 1634SOL    HW1 5801   4.603   0.856   4.651
 1634SOL    HW2 5802   4.599   0.772   4.511
 1635SOL     OW 5803   3.821   4.537   5.666
 1635SOL    HW1 5804   3.885   4.463   5.647
 1635SOL    HW2 5805   3.737   4.500   5.705
 1636SOL     OW 5806   4.521   5.765   1.488
 1636SOL    HW1 5807   4.476   5.851   1.512
 1636SOL    HW2 5808   4.604   5.754   1.543
 1637SOL     OW 5809   0.300   6.718   2.444
 1637SOL    HW1 5810   0.242   6.650   2.400
 1637SOL    HW2 5811   0.342   6.679   2.526
 1638SOL     OW 5812   6.934   3.201   1.841
 1638SOL    HW1 5813   6.979   3.272   1.895
 1638SOL    HW2 5814   6.845   3.233   1.811
 1639SOL     OW 5815   5.928   4.030   2.418
 1639SOL    HW1 5816   5.951   4.014   2.513
 1639SOL    HW2 5817   5.834   3.999   2.400
 1640SOL     OW 5818   6.055   0.388   0.979
 1640SOL    HW1 5819   6.135   0.404   1.037
 1640SOL    HW2 5820   5.972   0.403   1.032
 1641SOL     OW 5821   0.130   2.552   3.286
 1641SOL    HW1 5822   0.215   2.512   3.321
 1641SOL    HW2 5823   0.128   2.544   3.187
 1642SOL     OW 5824   5.513   2.815   5.958
 1642SOL    HW1 5825   5.587   2.851   5.901
 1642SOL    HW2 5826   5.516   2.859   6.048
 1643SOL     OW 5827   3.638   5.155   4.776
 1643SOL    HW1 5828   3.728   5.158   4.732
 1643SOL    HW2 5829   3.577   5.094   4.724
 1644SOL     OW 5830   5.983   3.176   0.756
 1644SOL    HW1 5831   6.054   3.190   0.824
 1644SOL    HW2 5832   6.021   3.191   0.664
 1645SOL     OW 5833   2.954   0.596   6.072
 1645SOL    HW1 5834   2.919   0.685   6.042
 1645SOL    HW2 5835   2.963   0.535   5.992
 1646SOL     OW 5836   1.060   5.739   0.020
 1646SOL    HW1 5837   1.153   5.777   0.018
 1646SOL    HW2 5838   1.065   5.641   0.038
 1647SOL     OW 5839   6.665   2.869   4.107
 1647SOL    HW1 5840   6.604   2.887   4.184
 1647SOL    HW2 5841   6.717   2.785   4.125
 1648SOL     OW 5842   5.146   6.085   0.905
 1648SOL    HW1 5843   5.049   6.083   0.927
 1648SOL    HW2 5844   5.161   6.142   0.824
 1649SOL     OW 5845   3.011   0.303   3.296
 1649SOL    HW1 5846   2.950   0.342   3.366
 1649SOL    HW2 5847   3.035   0.374   3.230
 1650SOL     OW 5848   2.069   4.900   6.409
 1650SOL    HW1 5849   1.996   4.909   6.342
 1650SOL    HW2 5850   2.110   4.809   6.401
 1651SOL     OW 5851   0.548   2.765   3.759
 1651SOL    HW1 5852   0.583   2.799   3.846
 1651SOL    HW2 5853   0.534   2.842   3.696
 1652SOL     OW 5854   1.474   2.729   1.550
 1652SOL    HW1 5855   1.558   2.780   1.563
 1652SOL    HW2 5856   1.433   2.708   1.639
 1653SOL     OW 5857   6.841   5.376   2.467
 1653SOL    HW1 5858   6.775   5.316   2.422
 1653SOL    HW2 5859   6.812   5.471   2.456
 1654SOL     OW 5860   0.434   2.931   1.644
 1654SOL    HW1 5861   0.470   2.994   1.575
 1654SOL    HW2 5862   0.504   2.864   1.668
 1655SOL     OW 5863   6.740   1.205   4.476
 1655SOL    HW1 5864   6.650   1.179   4.511
 1655SOL    HW2 5865   6.780   1.274   4.536
 1656SOL     OW 5866   1.986   5.458   4.520
 1656SOL    HW1 5867   1.895   5.424   4.496
 1656SOL    HW2 5868   2.056   5.397   4.482
 1657SOL     OW 5869   0.062   0.764   5.399
 1657SOL    HW1 5870   7.017   0.798   5.469
 1657SOL    HW2 5871   0.064   0.829   5.323
 1658SOL     OW 5872   6.728   6.823   0.380
 1658SOL    HW1 5873   6.634   6.857   0.377
 1658SOL    HW2 5874   6.777   6.856   0.299
 1659SOL     OW 5875   4.263   0.063   6.661
 1659SOL    HW1 5876   4.260   0.162   6.650
 1659SOL    HW2 5877   4.306   0.040   6.748
 1660SOL     OW 5878   1.426   6.523   2.038
 1660SOL    HW1 5879   1.373   6.446   2.002
 1660SOL    HW2 5880   1.438   6.592   1.967
 1661SOL     OW 5881   2.882   4.821   2.141
 1661SOL    HW1 5882   2.852   4.810   2.236
 1661SOL    HW2 5883   2.855   4.740   2.088
 1662SOL     OW 5884   6.833   1.592   5.595
 1662SOL    HW1 5885   6.862   1.668   5.538
 1662SOL    HW2 5886   6.914   1.551   5.638
 1663SOL     OW 5887   4.590   4.910   1.642
 1663SOL    HW1 5888   4.503   4.891   1.598
 1663SOL    HW2 5889   4.664   4.905   1.575
 1664SOL     OW 5890   0.837   0.225   5.546
 1664SOL    HW1 5891   0.818   0.312   5.591
 1664SOL    HW2 5892   0.820   0.234   5.448
 1665SOL     OW 5893   1.860   3.550   0.877
 1665SOL    HW1 5894   1.772   3.519   0.842
 1665SOL    HW2 5895   1.874   3.515   0.970
 1666SOL     OW 5896   5.300   0.230   6.546
 1666SOL    HW1 5897   5.275   0.142   6.507
 1666SOL    HW2 5898   5.335   0.216   6.639
 1667SOL     OW 5899   0.516   6.604   0.744
 1667SOL    HW1 5900   0.558   6.688   0.712
 1667SOL    HW2 5901   0.439   6.625   0.804
 1668SOL     OW 5902   5.199   4.870   3.824
 1668SOL    HW1 5903   5.113   4.920   3.816
 1668SOL    HW2 5904   5.272   4.925   3.782
 1669SOL     OW 5905   0.308   3.836   5.803
 1669SOL    HW1 5906   0.353   3.809   5.889
 1669SOL    HW2 5907   0.377   3.871   5.739
 1670SOL     OW 5908   1.779   4.644   5.856
 1670SOL    HW1 5909   1.802   4.619   5.762
 1670SOL    HW2 5910   1.863   4.671   5.904
 1671SOL     OW 5911   5.198   1.632   2.554
 1671SOL    HW1 5912   5.273   1.585   2.508
 1671SOL    HW2 5913   5.215   1.635   2.652
 1672SOL     OW 5914   0.649   3.021   0.253
 1672SOL    HW1 5915   0.714   3.029   0.328
 1672SOL    HW2 5916   0.698   2.999   0.169
 1673SOL     OW 5917   2.324   1.746   4.266
 1673SOL    HW1 5918   2.355   1.652   4.280
 1673SOL    HW2 5919   2.226   1.746   4.245
 1674SOL     OW 5920   4.966   3.141   2.515
 1674SOL    HW1 5921   4.887   3.110   2.462
 1674SOL    HW2 5922   5.048   3.093   2.484
 1675SOL     OW 5923   5.538   0.729   1.155
 1675SOL    HW1 5924   5.599   0.782   1.096
 1675SOL    HW2 5925   5.450   0.715   1.108
 1676SOL     OW 5926   1.843   2.370   2.871
 1676SOL    HW1 5927   1.908   2.385   2.797
 1676SOL    HW2 5928   1.871   2.290   2.924
 1677SOL     OW 5929   3.505   3.744   2.884
 1677SOL    HW1 5930   3.522   3.646   2.872
 1677SOL    HW2 5931   3.436   3.757   2.955
 1678SOL     OW 5932   0.525   6.372   0.609
 1678SOL    HW1 5933   0.512   6.454   0.665
 1678SOL    HW2 5934   0.621   6.346   0.610
 1679SOL     OW 5935   1.543   1.349   5.509
 1679SOL    HW1 5936   1.561   1.356   5.411
 1679SOL    HW2 5937   1.560   1.437   5.553
 1680SOL     OW 5938   5.412   2.864   4.443
 1680SOL    HW1 5939   5.480   2.792   4.425
 1680SOL    HW2 5940   5.414   2.930   4.368
 1681SOL     OW 5941   1.627   5.821   3.695
 1681SOL    HW1 5942   1.706   5.877   3.670
 1681SOL    HW2 5943   1.638   5.730   3.655
 1682SOL     OW 5944   2.893   0.196   5.649
 1682SOL    HW1 5945   2.804   0.170   5.611
 1682SOL    HW2 5946   2.905   0.152   5.738
 1683SOL     OW 5947   5.761   5.087   2.677
 1683SOL    HW1 5948   5.688   5.071   2.611
 1683SOL    HW2 5949   5.722   5.116   2.764
 1684SOL     OW 5950   1.630   4.742   1.836
 1684SOL    HW1 5951   1.617   4.643   1.827
 1684SOL    HW2 5952   1.627   4.785   1.745
 1685SOL     OW 5953   1.213   1.435   5.880
 1685SOL    HW1 5954   1.191   1.531   5.867
 1685SOL    HW2 5955   1.145   1.378   5.833
 1686SOL     OW 5956   4.929   6.036   3.883
 1686SOL    HW1 5957   4.957   6.001   3.972
 1686SOL    HW2 5958   4.933   5.963   3.815
 1687SOL     OW 5959   0.267   3.657   2.526
 1687SOL    HW1 5960   0.299   3.740   2.480
 1687SOL    HW2 5961   0.344   3.595   2.540
 1688SOL     OW 5962   1.932   2.380   3.240
 1688SOL    HW1 5963   1.885   2.441   3.177
 1688SOL    HW2 5964   1.966   2.433   3.318
 1689SOL     OW 5965   6.391   1.313   1.990
 1689SOL    HW1 5966   6.472   1.342   1.939
 1689SOL    HW2 5967   6.365   1.221   1.959
 1690SOL     OW 5968   0.698   3.902   4.202
 1690SOL    HW1 5969   0.610   3.862   4.227
 1690SOL    HW2 5970   0.684   3.981   4.143
 1691SOL     OW 5971   4.832   3.211   4.418
 1691SOL    HW1 5972   4.732   3.203   4.408
 1691SOL    HW2 5973   4.875   3.205   4.328
 1692SOL     OW 5974   5.927   5.113   2.289
 1692SOL    HW1 5975   6.011   5.132   2.239
 1692SOL    HW2 5976   5.872   5.046   2.239
 1693SOL     OW 5977   6.942   1.306   5.379
 1693SOL    HW1 5978   0.011   1.356   5.380
 1693SOL    HW2 5979   6.879   1.348   5.314
 1694SOL     OW 5980   6.250   1.211   4.639
 1694SOL    HW1 5981   6.226   1.219   4.736
 1694SOL    HW2 5982   6.169   1.185   4.587
 1695SOL     OW 5983   3.924   0.622   0.059
 1695SOL    HW1 5984   3.897   0.715   0.084
 1695SOL    HW2 5985   3.943   0.618   6.979
 1696SOL     OW 5986   4.214   5.622   0.323
 1696SOL    HW1 5987   4.303   5.622   0.278
 1696SOL    HW2 5988   4.220   5.675   0.408
 1697SOL     OW 5989   6.063   2.355   1.013
 1697SOL    HW1 5990   6.025   2.299   0.940
 1697SOL    HW2 5991   5.994   2.368   1.084
 1698SOL     OW 5992   3.733   1.083   2.000
 1698SOL    HW1 5993   3.795   1.021   1.950
 1698SOL    HW2 5994   3.670   1.029   2.056
 1699SOL     OW 5995   2.836   1.188   6.353
 1699SOL    HW1 5996   2.830   1.219   6.448
 1699SOL    HW2 5997   2.925   1.214   6.315
 1700SOL     OW 5998   5.731   3.577   3.706
 1700SOL    HW1 5999   5.827   3.579   3.680
 1700SOL    HW2 6000   5.676   3.616   3.632
 1701SOL     OW 6001   6.532   4.865   4.769
 1701SOL    HW1 6002   6.504   4.771   4.756
 1701SOL    HW2 6003   6.515   4.917   4.685
 1702SOL     OW 6004   2.077   1.482   6.280
 1702SOL    HW1 6005   2.094   1.552   6.350
 1702SOL    HW2 6006   2.081   1.391   6.322
 1703SOL     OW 6007   3.086   1.254   6.206
 1703SOL    HW1 6008   3.072   1.340   6.155
 1703SOL    HW2 6009   3.080   1.177   6.142
 1704SOL     OW 6010   2.494   1.472   0.287
 1704SOL    HW1 6011   2.512   1.418   0.204
 1704SOL    HW2 6012   2.395   1.488   0.295
 1705SOL     OW 6013   3.807   1.754   2.002
 1705SOL    HW1 6014   3.804   1.836   1.946
 1705SOL    HW2 6015   3.714   1.720   2.017
 1706SOL     OW 6016   4.513   1.906   0.714
 1706SOL    HW1 6017   4.484   1.811   0.701
 1706SOL    HW2 6018   4.479   1.962   0.638
 1707SOL     OW 6019   4.815   1.909   2.742
 1707SOL    HW1 6020   4.887   1.955   2.690
 1707SOL    HW2 6021   4.752   1.863   2.680
 1708SOL     OW 6022   3.149   5.300   2.258
 1708SOL    HW1 6023   3.098   5.215   2.250
 1708SOL    HW2 6024   3.231   5.296   2.201
 1709SOL     OW 6025   4.837   5.736   0.934
 1709SOL    HW1 6026   4.813   5.833   0.941
 1709SOL    HW2 6027   4.886   5.719   0.849
 1710SOL     OW 6028   4.508   5.317   3.433
 1710SOL    HW1 6029   4.505   5.298   3.531
 1710SOL    HW2 6030   4.441   5.387   3.409
 1711SOL     OW 6031   3.500   6.273   5.823
 1711SOL    HW1 6032   3.591   6.315   5.829
 1711SOL    HW2 6033   3.481   6.224   5.908
 1712SOL     OW 6034   0.434   1.971   4.560
 1712SOL    HW1 6035   0.383   2.057   4.564
 1712SOL    HW2 6036   0.369   1.896   4.546
 1713SOL     OW 6037   3.773   0.653   3.123
 1713SOL    HW1 6038   3.828   0.737   3.131
 1713SOL    HW2 6039   3.791   0.611   3.034
 1714SOL     OW 6040   3.692   2.596   6.941
 1714SOL    HW1 6041   3.706   2.502   6.911
 1714SOL    HW2 6042   3.754   2.656   6.891
 1715SOL     OW 6043   1.443   6.112   2.000
 1715SOL    HW1 6044   1.382   6.033   1.997
 1715SOL    HW2 6045   1.392   6.195   1.975
 1716SOL     OW 6046   5.062   0.580   4.316
 1716SOL    HW1 6047   5.050   0.481   4.328
 1716SOL    HW2 6048   5.139   0.611   4.372
 1717SOL     OW 6049   4.414   6.400   5.359
 1717SOL    HW1 6050   4.486   6.388   5.290
 1717SOL    HW2 6051   4.430   6.336   5.434
 1718SOL     OW 6052   2.386   2.103   2.328
 1718SOL    HW1 6053   2.421   2.155   2.406
 1718SOL    HW2 6054   2.422   2.143   2.243
 1719SOL     OW 6055   1.088   4.448   1.170
 1719SOL    HW1 6056   1.070   4.485   1.261
 1719SOL    HW2 6057   1.172   4.489   1.133
 1720SOL     OW 6058   6.975   2.786   5.556
 1720SOL    HW1 6059   6.910   2.828   5.493
 1720SOL    HW2 6060   0.043   2.836   5.554
 1721SOL     OW 6061   1.419   0.756   1.973
 1721SOL    HW1 6062   1.501   0.728   2.022
 1721SOL    HW2 6063   1.342   0.698   2.000
 1722SOL     OW 6064   3.374   2.137   2.803
 1722SOL    HW1 6065   3.353   2.229   2.837
 1722SOL    HW2 6066   3.432   2.145   2.722
 1723SOL     OW 6067   4.793   2.156   6.965
 1723SOL    HW1 6068   4.704   2.164   7.009
 1723SOL    HW2 6069   4.838   2.245   6.963
 1724SOL     OW 6070   6.364   2.383   1.522
 1724SOL    HW1 6071   6.339   2.287   1.530
 1724SOL    HW2 6072   6.435   2.393   1.451
 1725SOL     OW 6073   2.035   4.464   6.598
 1725SOL    HW1 6074   2.049   4.475   6.696
 1725SOL    HW2 6075   2.123   4.443   6.554
 1726SOL     OW 6076   5.652   4.669   3.738
 1726SOL    HW1 6077   5.737   4.624   3.712
 1726SOL    HW2 6078   5.668   4.766   3.752
 1727SOL     OW 6079   2.902   3.690   3.570
 1727SOL    HW1 6080   2.857   3.756   3.510
 1727SOL    HW2 6081   2.976   3.737   3.620
 1728SOL     OW 6082   4.789   3.796   5.699
 1728SOL    HW1 6083   4.792   3.893   5.677
 1728SOL    HW2 6084   4.826   3.743   5.622
 1729SOL     OW 6085   1.825   3.725   1.702
 1729SOL    HW1 6086   1.846   3.643   1.756
 1729SOL    HW2 6087   1.881   3.801   1.736
 1730SOL     OW 6088   2.716   5.431   5.434
 1730SOL    HW1 6089   2.781   5.507   5.422
 1730SOL    HW2 6090   2.766   5.346   5.449
 1731SOL     OW 6091   5.383   4.629   4.180
 1731SOL    HW1 6092   5.435   4.544   4.191
 1731SOL    HW2 6093   5.339   4.630   4.090
 1732SOL     OW 6094   1.787   4.290   6.821
 1732SOL    HW1 6095   1.783   4.194   6.795
 1732SOL    HW2 6096   1.747   4.346   6.748
 1733SOL     OW 6097   2.715   3.730   0.127
 1733SOL    HW1 6098   2.765   3.781   0.197
 1733SOL    HW2 6099   2.646   3.673   0.170
 1734SOL     OW 6100   6.793   3.102   1.504
 1734SOL    HW1 6101   6.864   3.171   1.489
 1734SOL    HW2 6102   6.722   3.141   1.563
 1735SOL     OW 6103   4.585   4.992   6.767
 1735SOL    HW1 6104   4.638   4.978   6.683
 1735SOL    HW2 6105   4.516   4.919   6.775
 1736SOL     OW 6106   4.477   3.468   1.700
 1736SOL    HW1 6107   4.463   3.567   1.697
 1736SOL    HW2 6108   4.571   3.449   1.729
 1737SOL     OW 6109   4.732   1.407   4.555
 1737SOL    HW1 6110   4.713   1.505   4.547
 1737SOL    HW2 6111   4.748   1.384   4.651
 1738SOL     OW 6112   1.467   3.931   3.975
 1738SOL    HW1 6113   1.429   3.900   4.062
 1738SOL    HW2 6114   1.494   4.027   3.982
 1739SOL     OW 6115   5.569   0.192   3.803
 1739SOL    HW1 6116   5.475   0.216   3.829
 1739SOL    HW2 6117   5.568   0.106   3.752
 1740SOL     OW 6118   0.068   1.972   4.612
 1740SOL    HW1 6119   0.148   1.995   4.667
 1740SOL    HW2 6120   0.033   1.883   4.641
 1741SOL     OW 6121   1.441   1.813   4.548
 1741SOL    HW1 6122   1.428   1.739   4.481
 1741SOL    HW2 6123   1.504   1.881   4.511
 1742SOL     OW 6124   6.133   6.269   6.137
 1742SOL    HW1 6125   6.148   6.322   6.220
 1742SOL    HW2 6126   6.040   6.284   6.104
 1743SOL     OW 6127   1.119   1.073   3.364
 1743SOL    HW1 6128   1.198   1.034   3.412
 1743SOL    HW2 6129   1.134   1.170   3.348
 1744SOL     OW 6130   5.057   2.518   3.392
 1744SOL    HW1 6131   5.025   2.453   3.323
 1744SOL    HW2 6132   5.014   2.607   3.377
 1745SOL     OW 6133   6.194   6.142   1.053
 1745SOL    HW1 6134   6.180   6.214   1.121
 1745SOL    HW2 6135   6.265   6.080   1.085
 1746SOL     OW 6136   1.915   3.586   3.490
 1746SOL    HW1 6137   1.940   3.681   3.505
 1746SOL    HW2 6138   1.952   3.555   3.402
 1747SOL     OW 6139   3.307   1.405   2.424
 1747SOL    HW1 6140   3.334   1.444   2.511
 1747SOL    HW2 6141   3.344   1.460   2.349
 1748SOL     OW 6142   6.776   1.642   4.827
 1748SOL    HW1 6143   6.702   1.708   4.821
 1748SOL    HW2 6144   6.767   1.590   4.912
 1749SOL     OW 6145   2.711   5.665   0.742
 1749SOL    HW1 6146   2.720   5.590   0.677
 1749SOL    HW2 6147   2.801   5.689   0.779
 1750SOL     OW 6148   4.414   0.992   5.303
 1750SOL    HW1 6149   4.352   0.918   5.328
 1750SOL    HW2 6150   4.501   0.981   5.353
 1751SOL     OW 6151   6.131   2.761   5.195
 1751SOL    HW1 6152   6.152   2.789   5.289
 1751SOL    HW2 6153   6.140   2.839   5.134
 1752SOL     OW 6154   6.418   1.077   1.069
 1752SOL    HW1 6155   6.451   1.169   1.050
 1752SOL    HW2 6156   6.426   1.059   1.168
 1753SOL     OW 6157   6.780   1.649   1.550
 1753SOL    HW1 6158   6.681   1.636   1.561
 1753SOL    HW2 6159   6.807   1.736   1.591
 1754SOL     OW 6160   3.049   6.255   5.834
 1754SOL    HW1 6161   2.955   6.268   5.801
 1754SOL    HW2 6162   3.103   6.210   5.763
 1755SOL     OW 6163   6.109   0.176   5.108
 1755SOL    HW1 6164   6.099   0.118   5.028
 1755SOL    HW2 6165   6.035   0.157   5.173
 1756SOL     OW 6166   5.787   0.245   6.128
 1756SOL    HW1 6167   5.868   0.254   6.186
 1756SOL    HW2 6168   5.733   0.166   6.158
 1757SOL     OW 6169   2.569   5.338   4.682
 1757SOL    HW1 6170   2.635   5.385   4.622
 1757SOL    HW2 6171   2.496   5.299   4.626
 1758SOL     OW 6172   1.816   6.895   5.089
 1758SOL    HW1 6173   1.865   6.982   5.098
 1758SOL    HW2 6174   1.809   6.852   5.179
 1759SOL     OW 6175   1.376   6.435   0.214
 1759SOL    HW1 6176   1.418   6.352   0.178
 1759SOL    HW2 6177   1.296   6.459   0.158
 1760SOL     OW 6178   6.360   0.684   5.202
 1760SOL    HW1 6179   6.430   0.646   5.262
 1760SOL    HW2 6180   6.313   0.759   5.248
 1761SOL     OW 6181   0.156   2.201   1.223
 1761SOL    HW1 6182   0.082   2.215   1.289
 1761SOL    HW2 6183   0.212   2.124   1.253
 1762SOL     OW 6184   0.475   1.482   5.381
 1762SOL    HW1 6185   0.423   1.439   5.455
 1762SOL    HW2 6186   0.446   1.444   5.293
 1763SOL     OW 6187   1.193   3.666   4.408
 1763SOL    HW1 6188   1.285   3.649   4.441
 1763SOL    HW2 6189   1.127   3.621   4.469
 1764SOL     OW 6190   1.571   4.472   2.005
 1764SOL    HW1 6191   1.609   4.380   2.001
 1764SOL    HW2 6192   1.589   4.512   2.095
 1765SOL     OW 6193   5.410   2.901   2.048
 1765SOL    HW1 6194   5.459   2.917   1.962
 1765SOL    HW2 6195   5.473   2.863   2.116
 1766SOL     OW 6196   4.228   4.799   4.064
 1766SOL    HW1 6197   4.228   4.863   4.141
 1766SOL    HW2 6198   4.212   4.706   4.098
 1767SOL     OW 6199   0.001   5.095   2.309
 1767SOL    HW1 6200   0.041   5.072   2.221
 1767SOL    HW2 6201   6.954   5.170   2.299
 1768SOL     OW 6202   4.574   6.468   2.094
 1768SOL    HW1 6203   4.519   6.492   2.174
 1768SOL    HW2 6204   4.655   6.525   2.091
 1769SOL     OW 6205   5.808   0.002   6.536
 1769SOL    HW1 6206   5.905   0.019   6.520
 1769SOL    HW2 6207   5.756   0.087   6.521
 1770SOL     OW 6208   1.645   4.435   5.961
 1770SOL    HW1 6209   1.687   4.511   5.911
 1770SOL    HW2 6210   1.708   4.402   6.031
 1771SOL     OW 6211   0.935   3.696   6.611
 1771SOL    HW1 6212   1.015   3.664   6.662
 1771SOL    HW2 6213   0.959   3.777   6.559
 1772SOL     OW 6214   2.812   4.837   4.181
 1772SOL    HW1 6215   2.846   4.790   4.263
 1772SOL    HW2 6216   2.886   4.842   4.114
 1773SOL     OW 6217   0.384   0.142   5.344
 1773SOL    HW1 6218   0.362   0.058   5.393
 1773SOL    HW2 6219   0.401   0.122   5.247
 1774SOL     OW 6220   6.042   5.885   1.180
 1774SOL    HW1 6221   6.025   5.974   1.223
 1774SOL    HW2 6222   5.965   5.861   1.121
 1775SOL     OW 6223   1.652   5.593   6.882
 1775SOL    HW1 6224   1.614   5.509   6.845
 1775SOL    HW2 6225   1.679   5.653   6.807
 1776SOL     OW 6226   4.306   1.205   5.554
 1776SOL    HW1 6227   4.359   1.203   5.470
 1776SOL    HW2 6228   4.329   1.287   5.606
 1777SOL     OW 6229   4.423   6.412   6.896
 1777SOL    HW1 6230   4.327   6.387   6.882
 1777SOL    HW2 6231   4.429   6.509   6.921
 1778SOL     OW 6232   5.812   1.002   3.805
 1778SOL    HW1 6233   5.863   0.937   3.749
 1778SOL    HW2 6234   5.718   1.007   3.773
 1779SOL     OW 6235   5.789   6.693   4.078
 1779SOL    HW1 6236   5.781   6.770   4.014
 1779SOL    HW2 6237   5.761   6.723   4.169
 1780SOL     OW 6238   1.710   5.579   5.211
 1780SOL    HW1 6239   1.799   5.586   5.165
 1780SOL    HW2 6240   1.711   5.634   5.294
 1781SOL     OW 6241   4.300   0.484   4.067
 1781SOL    HW1 6242   4.309   0.543   4.147
 1781SOL    HW2 6243   4.386   0.484   4.016
 1782SOL     OW 6244   1.395   1.844   2.848
 1782SOL    HW1 6245   1.431   1.822   2.938
 1782SOL    HW2 6246   1.344   1.766   2.812
 1783SOL     OW 6247   1.741   4.006   5.754
 1783SOL    HW1 6248   1.788   4.084   5.713
 1783SOL    HW2 6249   1.758   3.924   5.700
 1784SOL     OW 6250   2.506   0.848   0.870
 1784SOL    HW1 6251   2.567   0.775   0.837
 1784SOL    HW2 6252   2.554   0.902   0.939
 1785SOL     OW 6253   1.029   6.784   4.498
 1785SOL    HW1 6254   1.096   6.728   4.449
 1785SOL    HW2 6255   0.996   6.857   4.437
 1786SOL     OW 6256   1.545   5.932   0.554
 1786SOL    HW1 6257   1.575   6.023   0.523
 1786SOL    HW2 6258   1.586   5.862   0.496
 1787SOL     OW 6259   1.903   3.347   5.674
 1787SOL    HW1 6260   1.917   3.257   5.716
 1787SOL    HW2 6261   1.872   3.335   5.580
 1788SOL     OW 6262   4.857   4.081   0.930
 1788SOL    HW1 6263   4.864   4.056   0.833
 1788SOL    HW2 6264   4.862   4.180   0.939
 1789SOL     OW 6265   6.552   3.780   1.821
 1789SOL    HW1 6266   6.584   3.835   1.897
 1789SOL    HW2 6267   6.452   3.784   1.816
 1790SOL     OW 6268   2.748   2.362   4.314
 1790SOL    HW1 6269   2.763   2.347   4.217
 1790SOL    HW2 6270   2.676   2.431   4.326
 1791SOL     OW 6271   5.937   0.061   3.718
 1791SOL    HW1 6272   6.035   0.080   3.712
 1791SOL    HW2 6273   5.895   0.079   3.629
 1792SOL     OW 6274   6.591   1.794   5.306
 1792SOL    HW1 6275   6.528   1.826   5.377
 1792SOL    HW2 6276   6.667   1.745   5.348
 1793SOL     OW 6277   0.161   1.143   5.545
 1793SOL    HW1 6278   0.176   1.104   5.636
 1793SOL    HW2 6279   0.081   1.102   5.503
 1794SOL     OW 6280   0.085   0.267   6.335
 1794SOL    HW1 6281   7.014   0.287   6.296
 1794SOL    HW2 6282   0.076   0.252   6.433
 1795SOL     OW 6283   6.126   4.486   0.121
 1795SOL    HW1 6284   6.214   4.476   0.074
 1795SOL    HW2 6285   6.089   4.395   0.141
 1796SOL     OW 6286   0.909   6.989   5.510
 1796SOL    HW1 6287   0.875   0.064   5.523
 1796SOL    HW2 6288   0.832   6.926   5.502
 1797SOL     OW 6289   2.420   6.173   4.595
 1797SOL    HW1 6290   2.422   6.099   4.663
 1797SOL    HW2 6291   2.482   6.246   4.623
 1798SOL     OW 6292   3.242   3.783   5.049
 1798SOL    HW1 6293   3.300   3.777   5.130
 1798SOL    HW2 6294   3.273   3.858   4.991
 1799SOL     OW 6295   3.117   1.154   0.254
 1799SOL    HW1 6296   3.028   1.168   0.211
 1799SOL    HW2 6297   3.121   1.205   0.340
 1800SOL     OW 6298   5.400   3.336   4.489
 1800SOL    HW1 6299   5.495   3.355   4.515
 1800SOL    HW2 6300   5.345   3.325   4.572
 1801SOL     OW 6301   1.086   1.676   2.309
 1801SOL    HW1 6302   1.180   1.707   2.295
 1801SOL    HW2 6303   1.027   1.712   2.237
 1802SOL     OW 6304   6.393   4.608   3.562
 1802SOL    HW1 6305   6.391   4.508   3.568
 1802SOL    HW2 6306   6.407   4.646   3.654
 1803SOL     OW 6307   0.820   6.407   2.769
 1803SOL    HW1 6308   0.907   6.395   2.816
 1803SOL    HW2 6309   0.834   6.400   2.670
 1804SOL     OW 6310   2.603   3.233   6.139
 1804SOL    HW1 6311   2.669   3.258   6.069
 1804SOL    HW2 6312   2.583   3.313   6.196
 1805SOL     OW 6313   0.148   6.314   5.898
 1805SOL    HW1 6314   0.175   6.383   5.832
 1805SOL    HW2 6315   0.122   6.230   5.850
 1806SOL     OW 6316   6.928   2.245   1.898
 1806SOL    HW1 6317   6.988   2.301   1.841
 1806SOL    HW2 6318   6.981   2.171   1.939
 1807SOL     OW 6319   6.301   3.830   1.872
 1807SOL    HW1 6320   6.254   3.849   1.959
 1807SOL    HW2 6321   6.341   3.914   1.836
 1808SOL     OW 6322   5.618   2.132   5.648
 1808SOL    HW1 6323   5.633   2.130   5.746
 1808SOL    HW2 6324   5.705   2.147   5.601
 1809SOL     OW 6325   3.921   2.112   5.226
 1809SOL    HW1 6326   3.852   2.096   5.155
 1809SOL    HW2 6327   3.969   2.026   5.245
 1810SOL     OW 6328   0.587   6.618   4.082
 1810SOL    HW1 6329   0.572   6.684   4.009
 1810SOL    HW2 6330   0.654   6.656   4.147
 1811SOL     OW 6331   3.919   5.589   2.808
 1811SOL    HW1 6332   3.894   5.492   2.815
 1811SOL    HW2 6333   3.991   5.600   2.739
 1812SOL     OW 6334   4.758   0.035   5.773
 1812SOL    HW1 6335   4.686   7.002   5.819
 1812SOL    HW2 6336   4.821   0.073   5.841
 1813SOL     OW 6337   4.439   4.658   2.652
 1813SOL    HW1 6338   4.405   4.623   2.739
 1813SOL    HW2 6339   4.408   4.599   2.578
 1814SOL     OW 6340   0.849   6.669   0.421
 1814SOL    HW1 6341   0.945   6.675   0.394
 1814SOL    HW2 6342   0.793   6.718   0.354
 1815SOL     OW 6343   5.607   6.111   1.911
 1815SOL    HW1 6344   5.669   6.067   1.846
 1815SOL    HW2 6345   5.659   6.140   1.992
 1816SOL     OW 6346   4.152   5.817   5.712
 1816SOL    HW1 6347   4.142   5.741   5.776
 1816SOL    HW2 6348   4.090   5.891   5.738
 1817SOL     OW 6349   1.494   1.647   3.818
 1817SOL    HW1 6350   1.518   1.566   3.870
 1817SOL    HW2 6351   1.540   1.645   3.729
 1818SOL     OW 6352   2.547   6.496   0.035
 1818SOL    HW1 6353   2.598   6.582   0.036
 1818SOL    HW2 6354   2.449   6.515   0.039
 1819SOL     OW 6355   1.923   4.919   3.034
 1819SOL    HW1 6356   1.903   5.009   2.996
 1819SOL    HW2 6357   1.973   4.865   2.966
 1820SOL     OW 6358   3.550   0.576   3.903
 1820SOL    HW1 6359   3.478   0.566   3.834
 1820SOL    HW2 6360   3.601   0.660   3.885
 1821SOL     OW 6361   4.634   1.809   2.575
 1821SOL    HW1 6362   4.546   1.849   2.548
 1821SOL    HW2 6363   4.634   1.711   2.553
 1822SOL     OW 6364   0.636   3.295   2.151
 1822SOL    HW1 6365   0.728   3.262   2.170
 1822SOL    HW2 6366   0.569   3.227   2.180
 1823SOL     OW 6367   3.934   6.433   2.443
 1823SOL    HW1 6368   3.894   6.342   2.458
 1823SOL    HW2 6369   3.899   6.470   2.357
 1824SOL     OW 6370   4.047   3.471   1.132
 1824SOL    HW1 6371   4.001   3.487   1.219
 1824SOL    HW2 6372   4.141   3.442   1.149
 1825SOL     OW 6373   1.911   1.620   5.122
 1825SOL    HW1 6374   1.898   1.717   5.097
 1825SOL    HW2 6375   1.845   1.594   5.192
 1826SOL     OW 6376   3.554   2.212   1.685
 1826SOL    HW1 6377   3.628   2.219   1.752
 1826SOL    HW2 6378   3.504   2.299   1.681
 1827SOL     OW 6379   5.920   4.943   0.373
 1827SOL    HW1 6380   5.892   4.878   0.444
 1827SOL    HW2 6381   6.018   4.934   0.356
 1828SOL     OW 6382   1.643   3.501   5.499
 1828SOL    HW1 6383   1.669   3.408   5.474
 1828SOL    HW2 6384   1.655   3.514   5.598
 1829SOL     OW 6385   3.005   1.119   3.671
 1829SOL    HW1 6386   2.980   1.124   3.767
 1829SOL    HW2 6387   3.102   1.094   3.663
 1830SOL     OW 6388   6.020   6.538   4.608
 1830SOL    HW1 6389   6.087   6.540   4.533
 1830SOL    HW2 6390   5.948   6.471   4.587
 1831SOL     OW 6391   4.540   5.627   2.802
 1831SOL    HW1 6392   4.448   5.666   2.803
 1831SOL    HW2 6393   4.607   5.700   2.785
 1832SOL     OW 6394   2.515   3.008   0.881
 1832SOL    HW1 6395   2.580   2.936   0.905
 1832SOL    HW2 6396   2.475   2.989   0.791
 1833SOL     OW 6397   5.047   0.334   1.320
 1833SOL    HW1 6398   4.977   0.315   1.388
 1833SOL    HW2 6399   5.085   0.248   1.286
 1834SOL     OW 6400   2.393   2.698   6.884
 1834SOL    HW1 6401   2.473   2.726   6.936
 1834SOL    HW2 6402   2.310   2.720   6.935
 1835SOL     OW 6403   0.156   4.957   1.442
 1835SOL    HW1 6404   0.099   5.031   1.407
 1835SOL    HW2 6405   0.252   4.982   1.433
 1836SOL     OW 6406   5.451   2.307   1.644
 1836SOL    HW1 6407   5.367   2.354   1.671
 1836SOL    HW2 6408   5.444   2.210   1.666
 1837SOL     OW 6409   3.054   1.691   6.304
 1837SOL    HW1 6410   3.116   1.689   6.383
 1837SOL    HW2 6411   2.979   1.755   6.323
 1838SOL     OW 6412   5.826   0.874   0.819
 1838SOL    HW1 6413   5.810   0.973   0.808
 1838SOL    HW2 6414   5.863   0.856   0.910
 1839SOL     OW 6415   5.487   1.463   6.751
 1839SOL    HW1 6416   5.446   1.402   6.818
 1839SOL    HW2 6417   5.547   1.410   6.690
 1840SOL     OW 6418   4.124   0.107   3.107
 1840SOL    HW1 6419   4.044   0.077   3.159
 1840SOL    HW2 6420   4.107   0.095   3.009
 1841SOL     OW 6421   2.138   1.419   2.048
 1841SOL    HW1 6422   2.115   1.344   2.111
 1841SOL    HW2 6423   2.208   1.477   2.088
 1842SOL     OW 6424   1.686   5.182   0.434
 1842SOL    HW1 6425   1.672   5.182   0.335
 1842SOL    HW2 6426   1.784   5.189   0.453
 1843SOL     OW 6427   3.152   1.364   4.491
 1843SOL    HW1 6428   3.053   1.357   4.478
 1843SOL    HW2 6429   3.198   1.307   4.423
 1844SOL     OW 6430   5.088   1.282   6.405
 1844SOL    HW1 6431   5.106   1.241   6.495
 1844SOL    HW2 6432   5.123   1.375   6.403
 1845SOL     OW 6433   2.087   1.234   3.175
 1845SOL    HW1 6434   2.172   1.187   3.155
 1845SOL    HW2 6435   2.097   1.287   3.259
 1846SOL     OW 6436   4.512   1.270   2.408
 1846SOL    HW1 6437   4.427   1.231   2.372
 1846SOL    HW2 6438   4.520   1.247   2.505
 1847SOL     OW 6439   2.097   0.066   4.911
 1847SOL    HW1 6440   2.181   0.066   4.966
 1847SOL    HW2 6441   2.041   0.145   4.936
 1848SOL     OW 6442   2.295   5.635   4.272
 1848SOL    HW1 6443   2.235   5.613   4.349
 1848SOL    HW2 6444   2.302   5.735   4.264
 1849SOL     OW 6445   4.524   2.517   2.032
 1849SOL    HW1 6446   4.498   2.489   1.940
 1849SOL    HW2 6447   4.558   2.611   2.031
 1850SOL     OW 6448   5.262   1.884   2.030
 1850SOL    HW1 6449   5.305   1.917   2.114
 1850SOL    HW2 6450   5.333   1.861   1.963
 1851SOL     OW 6451   6.858   3.567   5.503
 1851SOL    HW1 6452   6.849   3.666   5.513
 1851SOL    HW2 6453   6.798   3.535   5.429
 1852SOL     OW 6454   1.512   5.474   2.142
 1852SOL    HW1 6455   1.520   5.380   2.109
 1852SOL    HW2 6456   1.568   5.485   2.224
 1853SOL     OW 6457   0.815   2.685   4.741
 1853SOL    HW1 6458   0.882   2.676   4.668
 1853SOL    HW2 6459   0.859   2.668   4.829
 1854SOL     OW 6460   0.401   6.278   3.738
 1854SOL    HW1 6461   0.431   6.361   3.786
 1854SOL    HW2 6462   0.306   6.290   3.708
 1855SOL     OW 6463   4.758   3.379   5.365
 1855SOL    HW1 6464   4.741   3.433   5.282
 1855SOL    HW2 6465   4.757   3.281   5.341
 1856SOL     OW 6466   3.813   2.750   0.166
 1856SOL    HW1 6467   3.767   2.835   0.191
 1856SOL    HW2 6468   3.757   2.701   0.099
 1857SOL     OW 6469   4.907   0.713   0.383
 1857SOL    HW1 6470   4.931   0.810   0.381
 1857SOL    HW2 6471   4.937   0.670   0.297
 1858SOL     OW 6472   4.324   2.389   4.309
 1858SOL    HW1 6473   4.321   2.289   4.312
 1858SOL    HW2 6474   4.320   2.419   4.213
 1859SOL     OW 6475   5.357   2.277   3.712
 1859SOL    HW1 6476   5.378   2.190   3.669
 1859SOL    HW2 6477   5.263   2.304   3.690
 1860SOL     OW 6478   1.474   1.059   4.642
 1860SOL    HW1 6479   1.543   0.996   4.607
 1860SOL    HW2 6480   1.409   1.082   4.570
 1861SOL     OW 6481   6.223   0.262   3.109
 1861SOL    HW1 6482   6.153   0.226   3.047
 1861SOL    HW2 6483   6.220   0.211   3.195
 1862SOL     OW 6484   2.713   6.055   6.632
 1862SOL    HW1 6485   2.643   6.116   6.595
 1862SOL    HW2 6486   2.804   6.093   6.613
 1863SOL     OW 6487   0.171   2.897   1.479
 1863SOL    HW1 6488   0.261   2.865   1.449
 1863SOL    HW2 6489   0.176   2.995   1.498
 1864SOL     OW 6490   3.588   5.717   2.949
 1864SOL    HW1 6491   3.546   5.646   3.006
 1864SOL    HW2 6492   3.516   5.767   2.901
 1865SOL     OW 6493   5.570   1.320   6.236
 1865SOL    HW1 6494   5.540   1.338   6.329
 1865SOL    HW2 6495   5.530   1.235   6.203
 1866SOL     OW 6496   0.273   4.321   3.529
 1866SOL    HW1 6497   0.207   4.330   3.455
 1866SOL    HW2 6498   0.245   4.247   3.590
 1867SOL     OW 6499   2.197   2.513   1.013
 1867SOL    HW1 6500   2.233   2.438   1.069
 1867SOL    HW2 6501   2.249   2.597   1.033
 1868SOL     OW 6502   5.938   4.589   5.745
 1868SOL    HW1 6503   5.887   4.623   5.666
 1868SOL    HW2 6504   5.997   4.662   5.781
 1869SOL     OW 6505   4.350   2.096   4.282
 1869SOL    HW1 6506   4.339   2.002   4.315
 1869SOL    HW2 6507   4.443   2.107   4.245
 1870SOL     OW 6508   0.442   4.879   3.979
 1870SOL    HW1 6509   0.541   4.872   3.990
 1870SOL    HW2 6510   0.404   4.942   4.047
 1871SOL     OW 6511   1.175   6.647   0.393
 1871SOL    HW1 6512   1.150   6.617   0.301
 1871SOL    HW2 6513   1.134   6.585   0.460
 1872SOL     OW 6514   2.666   2.558   0.988
 1872SOL    HW1 6515   2.675   2.483   1.053
 1872SOL    HW2 6516   2.665   2.645   1.038
 1873SOL     OW 6517   6.507   0.768   6.863
 1873SOL    HW1 6518   6.585   0.817   6.826
 1873SOL    HW2 6519   6.517   0.670   6.845
 1874SOL     OW 6520   1.351   6.138   0.108
 1874SOL    HW1 6521   1.401   6.064   0.063
 1874SOL    HW2 6522   1.320   6.204   0.040
 1875SOL     OW 6523   6.267   4.836   7.014
 1875SOL    HW1 6524   6.291   4.932   0.011
 1875SOL    HW2 6525   6.348   4.779   0.010
 1876SOL     OW 6526   6.778   5.835   6.288
 1876SOL    HW1 6527   6.846   5.818   6.359
 1876SOL    HW2 6528   6.773   5.933   6.270
 1877SOL     OW 6529   0.414   1.173   2.369
 1877SOL    HW1 6530   0.336   1.207   2.317
 1877SOL    HW2 6531   0.382   1.125   2.451
 1878SOL     OW 6532   6.931   4.756   3.383
 1878SOL    HW1 6533   6.942   4.804   3.296
 1878SOL    HW2 6534   7.016   4.762   3.435
 1879SOL     OW 6535   3.796   5.444   4.739
 1879SOL    HW1 6536   3.724   5.389   4.782
 1879SOL    HW2 6537   3.858   5.383   4.689
 1880SOL     OW 6538   0.545   1.593   3.899
 1880SOL    HW1 6539   0.500   1.524   3.955
 1880SOL    HW2 6540   0.628   1.553   3.859
 1881SOL     OW 6541   1.590   1.380   3.920
 1881SOL    HW1 6542   1.505   1.328   3.920
 1881SOL    HW2 6543   1.607   1.417   4.011
 1882SOL     OW 6544   1.410   5.387   0.163
 1882SOL    HW1 6545   1.327   5.396   0.218
 1882SOL    HW2 6546   1.426   5.471   0.111
 1883SOL     OW 6547   1.450   3.044   3.050
 1883SOL    HW1 6548   1.425   3.109   3.121
 1883SOL    HW2 6549   1.544   3.013   3.065
 1884SOL     OW 6550   2.916   0.864   0.223
 1884SOL    HW1 6551   2.889   0.814   0.305
 1884SOL    HW2 6552   3.013   0.848   0.205
 1885SOL     OW 6553   0.120   2.097   0.953
 1885SOL    HW1 6554   0.135   2.140   1.042
 1885SOL    HW2 6555   0.024   2.069   0.946
 1886SOL     OW 6556   2.611   2.701   0.046
 1886SOL    HW1 6557   2.663   2.667   6.986
 1886SOL    HW2 6558   2.663   2.685   0.130
 1887SOL     OW 6559   1.355   6.560   5.486
 1887SOL    HW1 6560   1.413   6.486   5.520
 1887SOL    HW2 6561   1.278   6.574   5.548
 1888SOL     OW 6562   1.736   2.468   6.431
 1888SOL    HW1 6563   1.700   2.558   6.455
 1888SOL    HW2 6564   1.664   2.413   6.389
 1889SOL     OW 6565   4.562   2.929   0.333
 1889SOL    HW1 6566   4.588   2.967   0.422
 1889SOL    HW2 6567   4.574   2.999   0.262
 1890SOL     OW 6568   0.081   5.823   6.245
 1890SOL    HW1 6569   0.172   5.865   6.241
 1890SOL    HW2 6570   0.087   5.727   6.220
 1891SOL     OW 6571   6.166   3.416   5.673
 1891SOL    HW1 6572   6.187   3.341   5.736
 1891SOL    HW2 6573   6.206   3.500   5.709
 1892SOL     OW 6574   3.916   4.820   2.059
 1892SOL    HW1 6575   3.925   4.918   2.075
 1892SOL    HW2 6576   3.828   4.788   2.093
 1893SOL     OW 6577   3.885   1.774   4.161
 1893SOL    HW1 6578   3.945   1.705   4.200
 1893SOL    HW2 6579   3.818   1.804   4.229
 1894SOL     OW 6580   4.771   3.813   1.029
 1894SOL    HW1 6581   4.785   3.909   1.004
 1894SOL    HW2 6582   4.798   3.798   1.124
 1895SOL     OW 6583   6.043   0.834   3.348
 1895SOL    HW1 6584   6.034   0.815   3.250
 1895SOL    HW2 6585   6.056   0.748   3.398
 1896SOL     OW 6586   6.827   1.416   4.976
 1896SOL    HW1 6587   6.870   1.326   4.978
 1896SOL    HW2 6588   6.810   1.447   5.070
 1897SOL     OW 6589   5.426   4.684   3.320
 1897SOL    HW1 6590   5.512   4.727   3.349
 1897SOL    HW2 6591   5.367   4.753   3.277
 1898SOL     OW 6592   5.504   4.957   1.207
 1898SOL    HW1 6593   5.552   4.960   1.295
 1898SOL    HW2 6594   5.566   4.985   1.134
 1899SOL     OW 6595   0.744   2.923   2.916
 1899SOL    HW1 6596   0.754   2.912   3.014
 1899SOL    HW2 6597   0.658   2.971   2.896
 1900SOL     OW 6598   1.699   5.549   6.198
 1900SOL    HW1 6599   1.733   5.632   6.154
 1900SOL    HW2 6600   1.612   5.522   6.157
 1901SOL     OW 6601   1.643   0.792   6.748
 1901SOL    HW1 6602   1.701   0.804   6.667
 1901SOL    HW2 6603   1.627   0.880   6.791
 1902SOL     OW 6604   0.912   3.176   4.434
 1902SOL    HW1 6605   0.885   3.202   4.341
 1902SOL    HW2 6606   1.009   3.194   4.447
 1903SOL     OW 6607   6.372   3.609   3.293
 1903SOL    HW1 6608   6.279   3.612   3.331
 1903SOL    HW2 6609   6.372   3.551   3.211
 1904SOL     OW 6610   6.497   0.110   3.825
 1904SOL    HW1 6611   6.581   0.131   3.774
 1904SOL    HW2 6612   6.519   0.102   3.922
 1905SOL     OW 6613   0.406   1.975   3.652
 1905SOL    HW1 6614   0.449   1.903   3.597
 1905SOL    HW2 6615   0.456   2.061   3.640
 1906SOL     OW 6616   2.560   0.354   6.550
 1906SOL    HW1 6617   2.659   0.368   6.538
 1906SOL    HW2 6618   2.512   0.439   6.530
 1907SOL     OW 6619   3.330   6.024   3.768
 1907SOL    HW1 6620   3.273   6.065   3.697
 1907SOL    HW2 6621   3.273   5.984   3.839
 1908SOL     OW 6622   4.011   1.343   6.002
 1908SOL    HW1 6623   4.011   1.424   6.061
 1908SOL    HW2 6624   4.088   1.284   6.026
 1909SOL     OW 6625   2.371   5.171   4.577
 1909SOL    HW1 6626   2.433   5.108   4.531
 1909SOL    HW2 6627   2.368   5.150   4.675
 1910SOL     OW 6628   5.557   2.115   5.900
 1910SOL    HW1 6629   5.506   2.063   5.968
 1910SOL    HW2 6630   5.514   2.205   5.888
 1911SOL     OW 6631   6.528   2.807   5.001
 1911SOL    HW1 6632   6.441   2.855   5.008
 1911SOL    HW2 6633   6.533   2.759   4.913
 1912SOL     OW 6634   3.856   0.172   2.728
 1912SOL    HW1 6635   3.760   0.167   2.702
 1912SOL    HW2 6636   3.891   0.264   2.707
 1913SOL     OW 6637   1.648   5.448   5.650
 1913SOL    HW1 6638   1.560   5.486   5.679
 1913SOL    HW2 6639   1.633   5.363   5.601
 1914SOL     OW 6640   3.498   2.372   5.936
 1914SOL    HW1 6641   3.425   2.313   5.901
 1914SOL    HW2 6642   3.459   2.459   5.965
 1915SOL     OW 6643   3.593   0.183   6.040
 1915SOL    HW1 6644   3.584   0.117   5.965
 1915SOL    HW2 6645   3.571   0.275   6.005
 1916SOL     OW 6646   3.103   5.912   2.121
 1916SOL    HW1 6647   3.033   5.879   2.058
 1916SOL    HW2 6648   3.189   5.925   2.071
 1917SOL     OW 6649   2.972   3.250   4.114
 1917SOL    HW1 6650   2.962   3.343   4.079
 1917SOL    HW2 6651   2.983   3.252   4.213
 1918SOL     OW 6652   5.448   5.701   5.552
 1918SOL    HW1 6653   5.444   5.627   5.485
 1918SOL    HW2 6654   5.525   5.686   5.613
 1919SOL     OW 6655   0.376   6.056   1.732
 1919SOL    HW1 6656   0.310   6.094   1.797
 1919SOL    HW2 6657   0.402   5.964   1.761
 1920SOL     OW 6658   0.325   5.559   3.951
 1920SOL    HW1 6659   0.343   5.639   4.007
 1920SOL    HW2 6660   0.350   5.476   4.002
 1921SOL     OW 6661   1.278   6.310   6.903
 1921SOL    HW1 6662   1.218   6.282   6.829
 1921SOL    HW2 6663   1.277   6.410   6.912
 1922SOL     OW 6664   3.964   4.159   1.071
 1922SOL    HW1 6665   3.907   4.081   1.046
 1922SOL    HW2 6666   3.926   4.242   1.031
 1923SOL     OW 6667   1.964   1.226   0.891
 1923SOL    HW1 6668   1.942   1.320   0.916
 1923SOL    HW2 6669   1.947   1.165   0.968
 1924SOL     OW 6670   0.061   4.158   1.853
 1924SOL    HW1 6671   0.046   4.090   1.925
 1924SOL    HW2 6672   0.152   4.198   1.863
 1925SOL     OW 6673   3.587   4.164   1.782
 1925SOL    HW1 6674   3.488   4.162   1.768
 1925SOL    HW2 6675   3.607   4.157   1.879
 1926SOL     OW 6676   1.341   0.106   4.510
 1926SOL    HW1 6677   1.394   0.176   4.558
 1926SOL    HW2 6678   1.343   0.125   4.412
 1927SOL     OW 6679   3.682   4.207   0.137
 1927SOL    HW1 6680   3.628   4.134   0.094
 1927SOL    HW2 6681   3.778   4.196   0.111
 1928SOL     OW 6682   6.272   4.201   5.645
 1928SOL    HW1 6683   6.195   4.188   5.583
 1928SOL    HW2 6684   6.350   4.147   5.613
 1929SOL     OW 6685   0.998   6.123   1.317
 1929SOL    HW1 6686   1.066   6.076   1.259
 1929SOL    HW2 6687   0.912   6.132   1.267
 1930SOL     OW 6688   5.943   4.834   6.275
 1930SOL    HW1 6689   5.897   4.824   6.364
 1930SOL    HW2 6690   6.036   4.867   6.290
 1931SOL     OW 6691   0.835   3.491   4.341
 1931SOL    HW1 6692   0.856   3.507   4.437
 1931SOL    HW2 6693   0.736   3.479   4.330
 1932SOL     OW 6694   5.164   4.313   2.196
 1932SOL    HW1 6695   5.210   4.237   2.243
 1932SOL    HW2 6696   5.072   4.324   2.233
 1933SOL     OW 6697   2.510   4.432   0.306
 1933SOL    HW1 6698   2.541   4.344   0.344
 1933SOL    HW2 6699   2.416   4.424   0.275
 1934SOL     OW 6700   1.108   6.918   5.803
 1934SOL    HW1 6701   1.165   6.991   5.766
 1934SOL    HW2 6702   1.015   6.928   5.767
 1935SOL     OW 6703   2.162   0.095   3.803
 1935SOL    HW1 6704   2.218   0.017   3.832
 1935SOL    HW2 6705   2.065   0.073   3.817
 1936SOL     OW 6706   5.978   6.201   4.717
 1936SOL    HW1 6707   5.948   6.244   4.632
 1936SOL    HW2 6708   6.064   6.151   4.701
 1937SOL     OW 6709   3.811   6.524   2.226
 1937SOL    HW1 6710   3.712   6.535   2.234
 1937SOL    HW2 6711   3.835   6.507   2.130
 1938SOL     OW 6712   4.093   0.920   3.705
 1938SOL    HW1 6713   4.130   0.996   3.652
 1938SOL    HW2 6714   4.052   0.954   3.789
 1939SOL     OW 6715   1.453   1.048   3.654
 1939SOL    HW1 6716   1.409   1.045   3.565
 1939SOL    HW2 6717   1.409   0.982   3.715
 1940SOL     OW 6718   6.851   5.336   0.173
 1940SOL    HW1 6719   6.792   5.271   0.125
 1940SOL    HW2 6720   6.860   5.420   0.119
 1941SOL     OW 6721   5.738   3.644   2.449
 1941SOL    HW1 6722   5.829   3.614   2.422
 1941SOL    HW2 6723   5.745   3.696   2.535
 1942SOL     OW 6724   6.659   5.179   2.386
 1942SOL    HW1 6725   6.633   5.188   2.482
 1942SOL    HW2 6726   6.666   5.082   2.362
 1943SOL     OW 6727   2.203   4.065   3.431
 1943SOL    HW1 6728   2.181   4.019   3.345
 1943SOL    HW2 6729   2.246   4.153   3.411
 1944SOL     OW 6730   5.600   1.314   6.531
 1944SOL    HW1 6731   5.683   1.282   6.484
 1944SOL    HW2 6732   5.530   1.243   6.525
 1945SOL     OW 6733   4.481   5.577   3.934
 1945SOL    HW1 6734   4.414   5.509   3.963
 1945SOL    HW2 6735   4.445   5.628   3.856
 1946SOL     OW 6736   1.400   0.512   0.323
 1946SOL    HW1 6737   1.408   0.612   0.326
 1946SOL    HW2 6738   1.380   0.483   0.229
 1947SOL     OW 6739   5.385   6.750   3.681
 1947SOL    HW1 6740   5.416   6.656   3.697
 1947SOL    HW2 6741   5.416   6.808   3.756
 1948SOL     OW 6742   6.676   5.786   4.126
 1948SOL    HW1 6743   6.595   5.769   4.182
 1948SOL    HW2 6744   6.713   5.877   4.146
 1949SOL     OW 6745   4.564   4.453   6.528
 1949SOL    HW1 6746   4.591   4.485   6.437
 1949SOL    HW2 6747   4.625   4.493   6.596
 1950SOL     OW 6748   3.364   3.951   6.879
 1950SOL    HW1 6749   3.299   4.013   6.923
 1950SOL    HW2 6750   3.377   3.979   6.784
 1951SOL     OW 6751   5.397   1.497   0.082
 1951SOL    HW1 6752   5.409   1.498   0.181
 1951SOL    HW2 6753   5.375   1.589   0.050
 1952SOL     OW 6754   4.001   2.262   0.636
 1952SOL    HW1 6755   4.025   2.328   0.707
 1952SOL    HW2 6756   3.927   2.203   0.669
 1953SOL     OW 6757   6.953   2.209   6.789
 1953SOL    HW1 6758   6.951   2.307   6.771
 1953SOL    HW2 6759   7.009   2.191   6.870
 1954SOL     OW 6760   4.567   1.780   3.701
 1954SOL    HW1 6761   4.485   1.770   3.645
 1954SOL    HW2 6762   4.643   1.810   3.644
 1955SOL     OW 6763   0.821   6.642   2.285
 1955SOL    HW1 6764   0.751   6.713   2.282
 1955SOL    HW2 6765   0.851   6.621   2.192
 1956SOL     OW 6766   5.513   5.670   2.391
 1956SOL    HW1 6767   5.459   5.607   2.447
 1956SOL    HW2 6768   5.451   5.730   2.340
 1957SOL     OW 6769   0.584   5.658   4.563
 1957SOL    HW1 6770   0.629   5.740   4.527
 1957SOL    HW2 6771   0.545   5.677   4.652
 1958SOL     OW 6772   5.258   3.471   5.295
 1958SOL    HW1 6773   5.174   3.475   5.240
 1958SOL    HW2 6774   5.235   3.443   5.388
 1959SOL     OW 6775   1.216   2.146   5.854
 1959SOL    HW1 6776   1.250   2.078   5.790
 1959SOL    HW2 6777   1.273   2.228   5.849
 1960SOL     OW 6778   6.204   5.018   0.382
 1960SOL    HW1 6779   6.222   5.109   0.419
 1960SOL    HW2 6780   6.272   4.954   0.418
 1961SOL     OW 6781   5.992   4.622   3.920
 1961SOL    HW1 6782   6.081   4.579   3.934
 1961SOL    HW2 6783   5.924   4.576   3.976
 1962SOL     OW 6784   1.372   6.253   3.368
 1962SOL    HW1 6785   1.341   6.226   3.277
 1962SOL    HW2 6786   1.448   6.194   3.396
 1963SOL     OW 6787   0.569   0.125   2.692
 1963SOL    HW1 6788   0.535   0.088   2.778
 1963SOL    HW2 6789   0.604   0.218   2.707
 1964SOL     OW 6790   4.403   2.332   1.830
 1964SOL    HW1 6791   4.376   2.320   1.925
 1964SOL    HW2 6792   4.328   2.373   1.779
 1965SOL     OW 6793   0.553   3.563   2.107
 1965SOL    HW1 6794   0.600   3.581   2.021
 1965SOL    HW2 6795   0.552   3.464   2.125
 1966SOL     OW 6796   6.854   5.273   4.755
 1966SOL    HW1 6797   6.903   5.208   4.812
 1966SOL    HW2 6798   6.758   5.277   4.784
 1967SOL     OW 6799   4.870   3.024   5.922
 1967SOL    HW1 6800   4.844   3.109   5.969
 1967SOL    HW2 6801   4.938   3.044   5.852
 1968SOL     OW 6802   3.033   6.025   6.918
 1968SOL    HW1 6803   3.059   5.951   6.980
 1968SOL    HW2 6804   3.040   5.994   6.823
 1969SOL     OW 6805   6.555   2.571   1.661
 1969SOL    HW1 6806   6.539   2.478   1.692
 1969SOL    HW2 6807   6.584   2.627   1.739
 1970SOL     OW 6808   1.440   0.271   5.707
 1970SOL    HW1 6809   1.537   0.268   5.733
 1970SOL    HW2 6810   1.429   0.327   5.625
 1971SOL     OW 6811   0.565   6.542   6.302
 1971SOL    HW1 6812   0.486   6.560   6.361
 1971SOL    HW2 6813   0.535   6.525   6.209
 1972SOL     OW 6814   0.609   4.350   4.164
 1972SOL    HW1 6815   0.566   4.325   4.251
 1972SOL    HW2 6816   0.568   4.434   4.129
 1973SOL     OW 6817   3.505   2.766   1.344
 1973SOL    HW1 6818   3.500   2.864   1.363
 1973SOL    HW2 6819   3.539   2.753   1.251
 1974SOL     OW 6820   5.606   6.359   4.808
 1974SOL    HW1 6821   5.539   6.294   4.842
 1974SOL    HW2 6822   5.658   6.317   4.733
 1975SOL     OW 6823   2.247   0.607   4.302
 1975SOL    HW1 6824   2.292   0.534   4.354
 1975SOL    HW2 6825   2.252   0.693   4.353
 1976SOL     OW 6826   0.730   5.750   0.621
 1976SOL    HW1 6827   0.658   5.811   0.653
 1976SOL    HW2 6828   0.806   5.752   0.685
 1977SOL     OW 6829   1.001   2.438   4.485
 1977SOL    HW1 6830   0.966   2.450   4.392
 1977SOL    HW2 6831   1.079   2.498   4.499
 1978SOL     OW 6832   0.144   0.943   4.865
 1978SOL    HW1 6833   0.191   0.895   4.938
 1978SOL    HW2 6834   0.170   1.040   4.866
 1979SOL     OW 6835   6.919   4.337   4.754
 1979SOL    HW1 6836   6.946   4.285   4.835
 1979SOL    HW2 6837   6.870   4.419   4.781
 1980SOL     OW 6838   3.258   0.171   0.961
 1980SOL    HW1 6839   3.205   0.246   1.001
 1980SOL    HW2 6840   3.344   0.160   1.011
 1981SOL     OW 6841   5.191   3.036   2.432
 1981SOL    HW1 6842   5.286   3.063   2.441
 1981SOL    HW2 6843   5.161   3.050   2.337
 1982SOL     OW 6844   6.179   4.869   4.913
 1982SOL    HW1 6845   6.167   4.860   4.814
 1982SOL    HW2 6846   6.271   4.903   4.933
 1983SOL     OW 6847   1.106   2.374   3.172
 1983SOL    HW1 6848   1.078   2.361   3.267
 1983SOL    HW2 6849   1.198   2.413   3.169
 1984SOL     OW 6850   4.560   1.451   6.222
 1984SOL    HW1 6851   4.501   1.462   6.303
 1984SOL    HW2 6852   4.505   1.414   6.147
 1985SOL     OW 6853   0.984   0.913   2.076
 1985SOL    HW1 6854   0.942   0.823   2.090
 1985SOL    HW2 6855   1.007   0.925   1.980
 1986SOL     OW 6856   1.492   2.087   6.757
 1986SOL    HW1 6857   1.479   2.180   6.722
 1986SOL    HW2 6858   1.552   2.091   6.837
 1987SOL     OW 6859   2.738   3.182   1.741
 1987SOL    HW1 6860   2.720   3.086   1.719
 1987SOL    HW2 6861   2.832   3.192   1.774
 1988SOL     OW 6862   4.716   3.961   6.936
 1988SOL    HW1 6863   4.708   3.863   6.953
 1988SOL    HW2 6864   4.800   3.995   6.979
 1989SOL     OW 6865   2.275   0.167   4.654
 1989SOL    HW1 6866   2.248   0.118   4.571
 1989SOL    HW2 6867   2.375   0.161   4.665
 1990SOL     OW 6868   3.119   1.223   1.181
 1990SOL    HW1 6869   3.066   1.155   1.132
 1990SOL    HW2 6870   3.191   1.178   1.234
 1991SOL     OW 6871   3.621   5.550   5.495
 1991SOL    HW1 6872   3.533   5.576   5.455
 1991SOL    HW2 6873   3.607   5.516   5.588
 1992SOL     OW 6874   2.242   6.788   5.275
 1992SOL    HW1 6875   2.278   6.819   5.187
 1992SOL    HW2 6876   2.220   6.867   5.332
 1993SOL     OW 6877   3.900   3.750   5.158
 1993SOL    HW1 6878   3.841   3.670   5.165
 1993SOL    HW2 6879   3.994   3.720   5.139
 1994SOL     OW 6880   0.353   2.145   1.898
 1994SOL    HW1 6881   0.347   2.244   1.906
 1994SOL    HW2 6882   0.393   2.121   1.809
 1995SOL     OW 6883   6.290   2.134   1.673
 1995SOL    HW1 6884   6.199   2.139   1.631
 1995SOL    HW2 6885   6.353   2.090   1.609
 1996SOL     OW 6886   3.699   3.327   0.479
 1996SOL    HW1 6887   3.628   3.332   0.409
 1996SOL    HW2 6888   3.660   3.291   0.564
 1997SOL     OW 6889   5.800   0.903   5.178
 1997SOL    HW1 6890   5.851   0.816   5.182
 1997SOL    HW2 6891   5.702   0.885   5.185
 1998SOL     OW 6892   2.503   3.749   6.302
 1998SOL    HW1 6893   2.493   3.799   6.216
 1998SOL    HW2 6894   2.416   3.751   6.351
 1999SOL     OW 6895   2.312   0.153   2.228
 1999SOL    HW1 6896   2.313   0.057   2.201
 1999SOL    HW2 6897   2.241   0.202   2.177
 2000SOL     OW 6898   4.461   1.655   4.881
 2000SOL    HW1 6899   4.446   1.640   4.783
 2000SOL    HW2 6900   4.473   1.752   4.899
 2001SOL     OW 6901   3.909   1.873   0.988
 2001SOL    HW1 6902   3.929   1.940   1.060
 2001SOL    HW2 6903   3.980   1.803   0.988
 2002SOL     OW 6904   1.974   6.287   6.190
 2002SOL    HW1 6905   2.042   6.295   6.118
 2002SOL    HW2 6906   1.936   6.195   6.191
 2003SOL     OW 6907   5.571   0.409   3.443
 2003SOL    HW1 6908   5.554   0.446   3.534
 2003SOL    HW2 6909   5.510   0.453   3.377
 2004SOL     OW 6910   4.348   1.113   4.741
 2004SOL    HW1 6911   4.286   1.189   4.719
 2004SOL    HW2 6912   4.443   1.143   4.729
 2005SOL     OW 6913   2.177   6.071   6.442
 2005SOL    HW1 6914   2.189   6.143   6.374
 2005SOL    HW2 6915   2.227   6.095   6.525
 2006SOL     OW 6916   4.751   4.176   3.616
 2006SOL    HW1 6917   4.668   4.188   3.562
 2006SOL    HW2 6918   4.729   4.179   3.713
 2007SOL     OW 6919   5.152   5.111   6.571
 2007SOL    HW1 6920   5.105   5.037   6.523
 2007SOL    HW2 6921   5.124   5.199   6.534
 2008SOL     OW 6922   6.524   6.100   3.419
 2008SOL    HW1 6923   6.586   6.027   3.448
 2008SOL    HW2 6924   6.555   6.187   3.458
 2009SOL     OW 6925   6.641   0.201   1.876
 2009SOL    HW1 6926   6.730   0.225   1.838
 2009SOL    HW2 6927   6.600   0.128   1.822
 2010SOL     OW 6928   1.485   0.709   0.752
 2010SOL    HW1 6929   1.531   0.716   0.841
 2010SOL    HW2 6930   1.488   0.798   0.707
 2011SOL     OW 6931   6.925   2.437   4.889
 2011SOL    HW1 6932   6.828   2.416   4.878
 2011SOL    HW2 6933   6.980   2.369   4.842
 2012SOL     OW 6934   1.464   4.194   1.434
 2012SOL    HW1 6935   1.383   4.242   1.469
 2012SOL    HW2 6936   1.436   4.104   1.400
 2013SOL     OW 6937   5.385   1.647   3.046
 2013SOL    HW1 6938   5.337   1.591   3.113
 2013SOL    HW2 6939   5.405   1.737   3.085
 2014SOL     OW 6940   0.805   5.826   3.532
 2014SOL    HW1 6941   0.768   5.804   3.622
 2014SOL    HW2 6942   0.892   5.778   3.519
 2015SOL     OW 6943   3.678   0.614   0.331
 2015SOL    HW1 6944   3.726   0.650   0.411
 2015SOL    HW2 6945   3.705   0.519   0.316
 2016SOL     OW 6946   1.087   5.712   4.049
 2016SOL    HW1 6947   1.093   5.809   4.072
 2016SOL    HW2 6948   1.179   5.675   4.036
 2017SOL     OW 6949   2.467   6.265   3.407
 2017SOL    HW1 6950   2.403   6.242   3.481
 2017SOL    HW2 6951   2.460   6.197   3.335
 2018SOL     OW 6952   6.956   5.573   5.002
 2018SOL    HW1 6953   6.929   5.638   5.073
 2018SOL    HW2 6954   6.887   5.572   4.929
 2019SOL     OW 6955   5.333   2.768   0.880
 2019SOL    HW1 6956   5.302   2.860   0.905
 2019SOL    HW2 6957   5.378   2.725   0.959
 2020SOL     OW 6958   1.603   5.251   4.265
 2020SOL    HW1 6959   1.698   5.218   4.273
 2020SOL    HW2 6960   1.579   5.257   4.168
 2021SOL     OW 6961   1.660   0.661   2.051
 2021SOL    HW1 6962   1.671   0.746   2.104
 2021SOL    HW2 6963   1.697   0.674   1.959
 2022SOL     OW 6964   2.085   3.335   1.816
 2022SOL    HW1 6965   2.138   3.250   1.825
 2022SOL    HW2 6966   2.128   3.407   1.871
 2023SOL     OW 6967   6.774   1.014   6.927
 2023SOL    HW1 6968   6.856   1.002   6.982
 2023SOL    HW2 6969   6.772   0.945   6.854
 2024SOL     OW 6970   6.082   0.561   3.392
 2024SOL    HW1 6971   6.016   0.492   3.364
 2024SOL    HW2 6972   6.175   0.527   3.375
 2025SOL     OW 6973   0.868   2.201   1.335
 2025SOL    HW1 6974   0.908   2.251   1.258
 2025SOL    HW2 6975   0.801   2.259   1.381
 2026SOL     OW 6976   2.314   2.419   6.452
 2026SOL    HW1 6977   2.245   2.490   6.441
 2026SOL    HW2 6978   2.324   2.398   6.550
 2027SOL     OW 6979   0.389   0.935   2.165
 2027SOL    HW1 6980   0.472   0.909   2.214
 2027SOL    HW2 6981   0.405   1.021   2.116
 2028SOL     OW 6982   3.683   1.214   0.750
 2028SOL    HW1 6983   3.681   1.127   0.800
 2028SOL    HW2 6984   3.655   1.288   0.811
 2029SOL     OW 6985   1.371   0.856   6.557
 2029SOL    HW1 6986   1.283   0.870   6.511
 2029SOL    HW2 6987   1.363   0.882   6.653
 2030SOL     OW 6988   2.334   2.232   3.542
 2030SOL    HW1 6989   2.357   2.243   3.446
 2030SOL    HW2 6990   2.241   2.266   3.558
 2031SOL     OW 6991   5.203   5.869   1.934
 2031SOL    HW1 6992   5.158   5.786   1.899
 2031SOL    HW2 6993   5.154   5.902   2.014
 2032SOL     OW 6994   5.074   5.926   1.154
 2032SOL    HW1 6995   5.028   5.844   1.188
 2032SOL    HW2 6996   5.173   5.909   1.147
 2033SOL     OW 6997   4.499   4.743   6.573
 2033SOL    HW1 6998   4.487   4.654   6.530
 2033SOL    HW2 6999   4.470   4.739   6.668
 2034SOL     OW 7000   2.002   6.152   3.221
 2034SOL    HW1 7001   1.949   6.083   3.271
 2034SOL    HW2 7002   1.987   6.139   3.123
 2035SOL     OW 7003   6.934   1.658   2.490
 2035SOL    HW1 7004   6.938   1.578   2.550
 2035SOL    HW2 7005   6.870   1.725   2.529
 2036SOL     OW 7006   0.667   5.568   1.020
 2036SOL    HW1 7007   0.650   5.488   1.076
 2036SOL    HW2 7008   0.583   5.621   1.009
 2037SOL     OW 7009   6.963   2.499   5.472
 2037SOL    HW1 7010   6.973   2.591   5.510
 2037SOL    HW2 7011   6.866   2.479   5.460
 2038SOL     OW 7012   1.033   1.805   5.715
 2038SOL    HW1 7013   0.955   1.756   5.676
 2038SOL    HW2 7014   1.029   1.901   5.686
 2039SOL     OW 7015   0.089   5.870   3.932
 2039SOL    HW1 7016   0.162   5.847   3.996
 2039SOL    HW2 7017   0.127   5.926   3.858
 2040SOL     OW 7018   3.791   3.114   4.225
 2040SOL    HW1 7019   3.878   3.129   4.178
 2040SOL    HW2 7020   3.752   3.027   4.197
 2041SOL     OW 7021   5.937   4.826   5.992
 2041SOL    HW1 7022   5.958   4.813   6.089
 2041SOL    HW2 7023   5.844   4.797   5.973
 2042SOL     OW 7024   5.551   5.430   0.860
 2042SOL    HW1 7025   5.594   5.371   0.791
 2042SOL    HW2 7026   5.620   5.490   0.901
 2043SOL     OW 7027   6.456   5.264   2.203
 2043SOL    HW1 7028   6.507   5.350   2.201
 2043SOL    HW2 7029   6.496   5.202   2.270
 2044SOL     OW 7030   6.140   6.870   2.080
 2044SOL    HW1 7031   6.129   6.771   2.074
 2044SOL    HW2 7032   6.060   6.911   2.124
 2045SOL     OW 7033   2.462   5.023   5.793
 2045SOL    HW1 7034   2.390   4.958   5.768
 2045SOL    HW2 7035   2.444   5.111   5.749
 2046SOL     OW 7036   0.021   0.230   4.516
 2046SOL    HW1 7037   6.984   0.191   4.590
 2046SOL    HW2 7038   0.101   0.276   4.555
 2047SOL     OW 7039   4.836   1.963   1.414
 2047SOL    HW1 7040   4.920   1.908   1.412
 2047SOL    HW2 7041   4.777   1.936   1.338
 2048SOL     OW 7042   3.652   6.777   0.135
 2048SOL    HW1 7043   3.730   6.788   0.196
 2048SOL    HW2 7044   3.655   6.686   0.093
 2049SOL     OW 7045   4.681   1.743   6.526
 2049SOL    HW1 7046   4.779   1.743   6.550
 2049SOL    HW2 7047   4.652   1.836   6.504
 2050SOL     OW 7048   6.074   3.129   3.672
 2050SOL    HW1 7049   6.089   3.054   3.736
 2050SOL    HW2 7050   6.156   3.186   3.667
 2051SOL     OW 7051   0.404   5.096   6.760
 2051SOL    HW1 7052   0.462   5.068   6.683
 2051SOL    HW2 7053   0.382   5.016   6.815
 2052SOL     OW 7054   0.608   3.059   6.874
 2052SOL    HW1 7055   0.689   3.072   6.932
 2052SOL    HW2 7056   0.633   3.010   6.791
 2053SOL     OW 7057   5.889   0.233   0.408
 2053SOL    HW1 7058   5.872   0.154   0.467
 2053SOL    HW2 7059   5.965   0.213   0.346
 2054SOL     OW 7060   6.087   2.776   0.844
 2054SOL    HW1 7061   6.051   2.780   0.938
 2054SOL    HW2 7062   6.122   2.684   0.826
 2055SOL     OW 7063   5.413   2.297   3.266
 2055SOL    HW1 7064   5.430   2.267   3.172
 2055SOL    HW2 7065   5.483   2.362   3.294
 2056SOL     OW 7066   2.000   1.295   2.928
 2056SOL    HW1 7067   2.010   1.293   3.027
 2056SOL    HW2 7068   1.976   1.387   2.898
 2057SOL     OW 7069   5.829   2.301   3.876
 2057SOL    HW1 7070   5.851   2.342   3.965
 2057SOL    HW2 7071   5.748   2.346   3.838
 2058SOL     OW 7072   0.625   1.897   3.172
 2058SOL    HW1 7073   0.543   1.898   3.230
 2058SOL    HW2 7074   0.656   1.991   3.158
 2059SOL     OW 7075   2.287   0.423   6.977
 2059SOL    HW1 7076   2.240   0.383   6.898
 2059SOL    HW2 7077   2.353   0.356   7.013
 2060SOL     OW 7078   6.788   4.388   1.786
 2060SOL    HW1 7079   6.867   4.376   1.725
 2060SOL    HW2 7080   6.754   4.482   1.778
 2061SOL     OW 7081   6.923   1.097   2.416
 2061SOL    HW1 7082   6.899   1.027   2.349
 2061SOL    HW2 7083   6.981   1.167   2.372
 2062SOL     OW 7084   5.058   6.989   2.835
 2062SOL    HW1 7085   4.987   0.030   2.799
 2062SOL    HW2 7086   5.018   6.901   2.861
 2063SOL     OW 7087   1.249   1.686   6.208
 2063SOL    HW1 7088   1.339   1.643   6.213
 2063SOL    HW2 7089   1.256   1.774   6.161
 2064SOL     OW 7090   1.191   2.454   5.495
 2064SOL    HW1 7091   1.203   2.534   5.436
 2064SOL    HW2 7092   1.261   2.386   5.473
 2065SOL     OW 7093   5.854   3.422   2.278
 2065SOL    HW1 7094   5.776   3.407   2.217
 2065SOL    HW2 7095   5.912   3.494   2.241
 2066SOL     OW 7096   0.617   5.143   4.391
 2066SOL    HW1 7097   0.697   5.107   4.438
 2066SOL    HW2 7098   0.591   5.230   4.433
 2067SOL     OW 7099   6.868   6.654   0.557
 2067SOL    HW1 7100   6.818   6.681   0.475
 2067SOL    HW2 7101   6.966   6.654   0.537
 2068SOL     OW 7102   2.009   1.462   5.428
 2068SOL    HW1 7103   2.058   1.453   5.341
 2068SOL    HW2 7104   2.076   1.472   5.502
 2069SOL     OW 7105   0.691   3.009   2.505
 2069SOL    HW1 7106   0.696   2.912   2.485
 2069SOL    HW2 7107   0.774   3.054   2.472
 2070SOL     OW 7108   1.144   0.574   2.265
 2070SOL    HW1 7109   1.094   0.657   2.293
 2070SOL    HW2 7110   1.149   0.511   2.343
 2071SOL     OW 7111   0.876   6.353   4.067
 2071SOL    HW1 7112   0.840   6.262   4.088
 2071SOL    HW2 7113   0.840   6.384   3.979
 2072SOL     OW 7114   4.361   5.815   2.191
 2072SOL    HW1 7115   4.416   5.731   2.194
 2072SOL    HW2 7116   4.278   5.802   2.245
 2073SOL     OW 7117   3.979   0.232   4.563
 2073SOL    HW1 7118   3.907   0.196   4.504
 2073SOL    HW2 7119   3.940   0.258   4.651
 2074SOL     OW 7120   0.128   2.046   6.939
 2074SOL    HW1 7121   0.088   1.977   6.999
 2074SOL    HW2 7122   0.191   2.003   6.875
 2075SOL     OW 7123   4.709   3.269   1.386
 2075SOL    HW1 7124   4.743   3.242   1.476
 2075SOL    HW2 7125   4.610   3.284   1.391
 2076SOL     OW 7126   5.658   6.015   7.018
 2076SOL    HW1 7127   5.571   6.007   0.048
 2076SOL    HW2 7128   5.644   5.996   6.921
 2077SOL     OW 7129   5.599   2.606   2.191
 2077SOL    HW1 7130   5.672   2.543   2.162
 2077SOL    HW2 7131   5.577   2.589   2.287
 2078SOL     OW 7132   2.978   6.061   6.308
 2078SOL    HW1 7133   3.055   6.055   6.245
 2078SOL    HW2 7134   2.924   5.976   6.303
 2079SOL     OW 7135   5.597   0.701   3.729
 2079SOL    HW1 7136   5.621   0.613   3.769
 2079SOL    HW2 7137   5.680   0.745   3.693
 2080SOL     OW 7138   2.286   1.740   4.739
 2080SOL    HW1 7139   2.327   1.805   4.675
 2080SOL    HW2 7140   2.320   1.759   4.831
 2081SOL     OW 7141   1.038   6.202   5.276
 2081SOL    HW1 7142   0.967   6.265   5.307
 2081SOL    HW2 7143   1.128   6.244   5.289
 2082SOL     OW 7144   5.566   0.504   1.561
 2082SOL    HW1 7145   5.586   0.562   1.640
 2082SOL    HW2 7146   5.485   0.449   1.581
 2083SOL     OW 7147   4.000   4.830   6.745
 2083SOL    HW1 7148   4.089   4.876   6.750
 2083SOL    HW2 7149   3.943   4.875   6.676
 2084SOL     OW 7150   6.628   2.542   3.525
 2084SOL    HW1 7151   6.666   2.631   3.546
 2084SOL    HW2 7152   6.579   2.547   3.437
 2085SOL     OW 7153   5.295   0.917   6.809
 2085SOL    HW1 7154   5.350   0.946   6.887
 2085SOL    HW2 7155   5.351   0.866   6.744
 2086SOL     OW 7156   2.797   5.350   6.308
 2086SOL    HW1 7157   2.779   5.272   6.368
 2086SOL    HW2 7158   2.711   5.400   6.293
 2087SOL     OW 7159   4.586   6.224   2.233
 2087SOL    HW1 7160   4.627   6.303   2.187
 2087SOL    HW2 7161   4.602   6.231   2.332
 2088SOL     OW 7162   3.345   5.833   0.534
 2088SOL    HW1 7163   3.383   5.743   0.514
 2088SOL    HW2 7164   3.276   5.857   0.465
 2089SOL     OW 7165   4.532   1.360   0.143
 2089SOL    HW1 7166   4.531   1.261   0.134
 2089SOL    HW2 7167   4.573   1.400   0.061
 2090SOL     OW 7168   4.015   3.705   4.108
 2090SOL    HW1 7169   4.047   3.735   4.199
 2090SOL    HW2 7170   3.917   3.689   4.111
 2091SOL     OW 7171   0.616   5.927   0.185
 2091SOL    HW1 7172   0.674   5.893   0.258
 2091SOL    HW2 7173   0.653   6.013   0.149
 2092SOL     OW 7174   5.662   6.157   0.471
 2092SOL    HW1 7175   5.666   6.247   0.428
 2092SOL    HW2 7176   5.740   6.146   0.533
 2093SOL     OW 7177   1.334   1.827   1.648
 2093SOL    HW1 7178   1.333   1.775   1.563
 2093SOL    HW2 7179   1.264   1.898   1.645
 2094SOL     OW 7180   6.169   0.689   1.632
 2094SOL    HW1 7181   6.107   0.710   1.707
 2094SOL    HW2 7182   6.243   0.631   1.664
 2095SOL     OW 7183   5.298   6.982   3.549
 2095SOL    HW1 7184   5.389   0.004   3.549
 2095SOL    HW2 7185   5.307   6.882   3.547
 2096SOL     OW 7186   4.811   3.927   3.185
 2096SOL    HW1 7187   4.833   3.868   3.263
 2096SOL    HW2 7188   4.830   3.878   3.100
 2097SOL     OW 7189   0.926   2.958   6.482
 2097SOL    HW1 7190   0.830   2.955   6.455
 2097SOL    HW2 7191   0.970   2.872   6.456
 2098SOL     OW 7192   3.947   6.346   3.962
 2098SOL    HW1 7193   4.038   6.357   3.922
 2098SOL    HW2 7194   3.888   6.294   3.899
 2099SOL     OW 7195   2.580   0.979   4.752
 2099SOL    HW1 7196   2.537   0.915   4.816
 2099SOL    HW2 7197   2.509   1.028   4.702
 2100SOL     OW 7198   3.635   3.703   6.620
 2100SOL    HW1 7199   3.693   3.632   6.579
 2100SOL    HW2 7200   3.591   3.756   6.548
 2101SOL     OW 7201   0.947   6.609   2.054
 2101SOL    HW1 7202   0.880   6.659   1.999
 2101SOL    HW2 7203   1.039   6.639   2.030
 2102SOL     OW 7204   0.343   4.819   2.006
 2102SOL    HW1 7205   0.278   4.761   2.055
 2102SOL    HW2 7206   0.433   4.813   2.050
 2103SOL     OW 7207   2.610   3.901   6.949
 2103SOL    HW1 7208   2.696   3.944   6.920
 2103SOL    HW2 7209   2.631   3.821   7.006
 2104SOL     OW 7210   1.725   3.550   6.652
 2104SOL    HW1 7211   1.807   3.493   6.649
 2104SOL    HW2 7212   1.729   3.619   6.580
 2105SOL     OW 7213   5.267   5.376   3.141
 2105SOL    HW1 7214   5.214   5.292   3.134
 2105SOL    HW2 7215   5.237   5.427   3.222
 2106SOL     OW 7216   4.219   5.346   0.249
 2106SOL    HW1 7217   4.210   5.433   0.296
 2106SOL    HW2 7218   4.257   5.361   0.158
 2107SOL     OW 7219   4.099   3.550   5.764
 2107SOL    HW1 7220   4.026   3.581   5.703
 2107SOL    HW2 7221   4.183   3.536   5.711
 2108SOL     OW 7222   5.999   6.150   5.765
 2108SOL    HW1 7223   5.917   6.113   5.809
 2108SOL    HW2 7224   6.035   6.083   5.699
 2109SOL     OW 7225   5.119   0.061   3.722
 2109SOL    HW1 7226   5.024   0.074   3.693
 2109SOL    HW2 7227   5.173   0.028   3.645
 2110SOL     OW 7228   2.731   4.032   6.312
 2110SOL    HW1 7229   2.632   4.042   6.322
 2110SOL    HW2 7230   2.760   3.944   6.350
 2111SOL     OW 7231   0.729   1.874   6.240
 2111SOL    HW1 7232   0.726   1.970   6.269
 2111SOL    HW2 7233   0.821   1.838   6.255
 2112SOL     OW 7234   4.839   1.783   1.889
 2112SOL    HW1 7235   4.789   1.756   1.971
 2112SOL    HW2 7236   4.811   1.874   1.861
 2113SOL     OW 7237   0.992   0.157   3.998
 2113SOL    HW1 7238   1.045   0.075   3.975
 2113SOL    HW2 7239   1.029   0.197   4.082
 2114SOL     OW 7240   1.449   3.172   0.596
 2114SOL    HW1 7241   1.364   3.132   0.630
 2114SOL    HW2 7242   1.525   3.147   0.656
 2115SOL     OW 7243   1.835   3.946   3.177
 2115SOL    HW1 7244   1.778   4.026   3.162
 2115SOL    HW2 7245   1.797   3.867   3.129
 2116SOL     OW 7246   6.601   3.919   3.194
 2116SOL    HW1 7247   6.611   3.928   3.293
 2116SOL    HW2 7248   6.510   3.952   3.167
 2117SOL     OW 7249   0.158   4.610   1.925
 2117SOL    HW1 7250   0.249   4.588   1.892
 2117SOL    HW2 7251   0.132   4.547   1.998
 2118SOL     OW 7252   0.469   3.339   2.462
 2118SOL    HW1 7253   0.544   3.388   2.418
 2118SOL    HW2 7254   0.455   3.375   2.555
 2119SOL     OW 7255   2.647   5.966   0.879
 2119SOL    HW1 7256   2.560   5.993   0.837
 2119SOL    HW2 7257   2.677   6.037   0.942
 2120SOL     OW 7258   6.647   4.909   2.839
 2120SOL    HW1 7259   6.596   4.991   2.816
 2120SOL    HW2 7260   6.597   4.828   2.806
 2121SOL     OW 7261   0.841   4.669   5.244
 2121SOL    HW1 7262   0.823   4.582   5.198
 2121SOL    HW2 7263   0.754   4.715   5.262
 2122SOL     OW 7264   6.308   4.093   5.271
 2122SOL    HW1 7265   6.391   4.141   5.242
 2122SOL    HW2 7266   6.257   4.150   5.336
 2123SOL     OW 7267   0.603   4.520   2.663
 2123SOL    HW1 7268   0.518   4.484   2.626
 2123SOL    HW2 7269   0.631   4.466   2.742
 2124SOL     OW 7270   2.126   1.530   1.156
 2124SOL    HW1 7271   2.098   1.552   1.063
 2124SOL    HW2 7272   2.082   1.445   1.185
 2125SOL     OW 7273   1.472   0.966   0.630
 2125SOL    HW1 7274   1.541   0.993   0.563
 2125SOL    HW2 7275   1.382   0.962   0.585
 2126SOL     OW 7276   2.965   0.769   0.917
 2126SOL    HW1 7277   3.064   0.769   0.929
 2126SOL    HW2 7278   2.943   0.759   0.820
 2127SOL     OW 7279   6.024   2.812   4.503
 2127SOL    HW1 7280   6.032   2.889   4.566
 2127SOL    HW2 7281   5.939   2.821   4.451
 2128SOL     OW 7282   0.096   4.503   4.604
 2128SOL    HW1 7283   0.024   4.470   4.665
 2128SOL    HW2 7284   0.073   4.595   4.573
 2129SOL     OW 7285   4.273   3.026   5.617
 2129SOL    HW1 7286   4.302   3.117   5.647
 2129SOL    HW2 7287   4.350   2.979   5.576
 2130SOL     OW 7288   5.001   6.734   2.568
 2130SOL    HW1 7289   5.065   6.793   2.519
 2130SOL    HW2 7290   4.907   6.761   2.549
 2131SOL     OW 7291   0.125   0.816   0.689
 2131SOL    HW1 7292   0.190   0.887   0.715
 2131SOL    HW2 7293   0.127   0.804   0.590
 2132SOL     OW 7294   3.894   3.391   0.922
 2132SOL    HW1 7295   3.953   3.345   0.855
 2132SOL    HW2 7296   3.948   3.417   1.002
 2133SOL     OW 7297   3.061   2.362   5.447
 2133SOL    HW1 7298   3.092   2.398   5.359
 2133SOL    HW2 7299   3.131   2.300   5.483
 2134SOL     OW 7300   0.150   1.880   0.659
 2134SOL    HW1 7301   0.107   1.791   0.671
 2134SOL    HW2 7302   0.200   1.904   0.742
 2135SOL     OW 7303   0.366   4.452   4.607
 2135SOL    HW1 7304   0.268   4.466   4.589
 2135SOL    HW2 7305   0.385   4.472   4.703
 2136SOL     OW 7306   2.928   5.109   2.208
 2136SOL    HW1 7307   2.859   5.107   2.280
 2136SOL    HW2 7308   2.931   5.020   2.161
 2137SOL     OW 7309   3.174   5.262   4.843
 2137SOL    HW1 7310   3.151   5.229   4.934
 2137SOL    HW2 7311   3.192   5.360   4.846
 2138SOL     OW 7312   6.162   0.923   3.039
 2138SOL    HW1 7313   6.206   0.940   3.127
 2138SOL    HW2 7314   6.112   1.004   3.010
 2139SOL     OW 7315   3.804   0.590   4.639
 2139SOL    HW1 7316   3.869   0.653   4.681
 2139SOL    HW2 7317   3.786   0.620   4.545
 2140SOL     OW 7318   3.766   0.337   4.753
 2140SOL    HW1 7319   3.713   0.360   4.834
 2140SOL    HW2 7320   3.784   0.420   4.701
 2141SOL     OW 7321   6.367   4.379   2.382
 2141SOL    HW1 7322   6.382   4.303   2.446
 2141SOL    HW2 7323   6.319   4.346   2.301
 2142SOL     OW 7324   1.191   2.253   3.620
 2142SOL    HW1 7325   1.180   2.160   3.587
 2142SOL    HW2 7326   1.136   2.315   3.564
 2143SOL     OW 7327   1.949   5.701   1.198
 2143SOL    HW1 7328   1.855   5.669   1.187
 2143SOL    HW2 7329   2.007   5.624   1.225
 2144SOL     OW 7330   0.468   4.745   4.282
 2144SOL    HW1 7331   0.531   4.738   4.358
 2144SOL    HW2 7332   0.470   4.838   4.245
 2145SOL     OW 7333   4.186   6.788   4.070
 2145SOL    HW1 7334   4.279   6.761   4.047
 2145SOL    HW2 7335   4.121   6.726   4.026
 2146SOL     OW 7336   2.261   1.921   0.602
 2146SOL    HW1 7337   2.243   1.824   0.589
 2146SOL    HW2 7338   2.290   1.938   0.696
 2147SOL     OW 7339   6.894   2.022   5.824
 2147SOL    HW1 7340   6.933   1.930   5.819
 2147SOL    HW2 7341   6.874   2.044   5.919
 2148SOL     OW 7342   0.301   3.396   6.433
 2148SOL    HW1 7343   0.300   3.299   6.413
 2148SOL    HW2 7344   0.239   3.444   6.372
 2149SOL     OW 7345   1.156   1.018   0.766
 2149SOL    HW1 7346   1.176   1.055   0.857
 2149SOL    HW2 7347   1.227   1.049   0.702
 2150SOL     OW 7348   2.751   2.596   1.711
 2150SOL    HW1 7349   2.806   2.569   1.790
 2150SOL    HW2 7350   2.656   2.607   1.739
 2151SOL     OW 7351   0.761   6.060   6.865
 2151SOL    HW1 7352   0.716   5.975   6.893
 2151SOL    HW2 7353   0.826   6.088   6.936
 2152SOL     OW 7354   3.609   5.404   2.326
 2152SOL    HW1 7355   3.595   5.307   2.306
 2152SOL    HW2 7356   3.537   5.458   2.281
 2153SOL     OW 7357   5.018   1.400   2.618
 2153SOL    HW1 7358   5.049   1.479   2.565
 2153SOL    HW2 7359   5.041   1.316   2.568
 2154SOL     OW 7360   2.765   6.671   3.799
 2154SOL    HW1 7361   2.802   6.701   3.711
 2154SOL    HW2 7362   2.839   6.662   3.865
 2155SOL     OW 7363   4.089   6.748   1.030
 2155SOL    HW1 7364   4.145   6.675   0.991
 2155SOL    HW2 7365   4.136   6.835   1.019
 2156SOL     OW 7366   6.445   0.424   4.284
 2156SOL    HW1 7367   6.500   0.439   4.366
 2156SOL    HW2 7368   6.363   0.372   4.309
 2157SOL     OW 7369   4.704   6.181   3.843
 2157SOL    HW1 7370   4.790   6.129   3.848
 2157SOL    HW2 7371   4.691   6.231   3.928
 2158SOL     OW 7372   4.036   6.696   0.708
 2158SOL    HW1 7373   4.056   6.615   0.763
 2158SOL    HW2 7374   3.939   6.717   0.714
 2159SOL     OW 7375   1.617   0.662   5.248
 2159SOL    HW1 7376   1.522   0.651   5.221
 2159SOL    HW2 7377   1.622   0.717   5.331
 2160SOL     OW 7378   4.953   5.212   6.871
 2160SOL    HW1 7379   4.983   5.297   6.829
 2160SOL    HW2 7380   4.853   5.211   6.875
 2161SOL     OW 7381   0.293   3.872   2.375
 2161SOL    HW1 7382   0.370   3.924   2.411
 2161SOL    HW2 7383   0.210   3.928   2.379
 2162SOL     OW 7384   2.546   6.801   3.376
 2162SOL    HW1 7385   2.494   6.836   3.298
 2162SOL    HW2 7386   2.548   6.701   3.372
 2163SOL     OW 7387   1.679   3.429   0.250
 2163SOL    HW1 7388   1.619   3.426   0.330
 2163SOL    HW2 7389   1.757   3.488   0.270
 2164SOL     OW 7390   2.718   2.630   6.817
 2164SOL    HW1 7391   2.721   2.706   6.753
 2164SOL    HW2 7392   2.803   2.578   6.812
 2165SOL     OW 7393   0.827   1.625   4.194
 2165SOL    HW1 7394   0.814   1.722   4.174
 2165SOL    HW2 7395   0.745   1.588   4.239
 2166SOL     OW 7396   0.163   4.543   3.992
 2166SOL    HW1 7397   0.161   4.448   3.961
 2166SOL    HW2 7398   0.070   4.572   4.016
 2167SOL     OW 7399   1.159   2.862   3.555
 2167SOL    HW1 7400   1.198   2.812   3.632
 2167SOL    HW2 7401   1.065   2.888   3.576
 2168SOL     OW 7402   1.185   1.762   3.089
 2168SOL    HW1 7403   1.155   1.766   2.994
 2168SOL    HW2 7404   1.251   1.689   3.100
 2169SOL     OW 7405   0.546   0.233   1.078
 2169SOL    HW1 7406   0.466   0.251   1.021
 2169SOL    HW2 7407   0.517   0.204   1.169
 2170SOL     OW 7408   0.097   4.169   4.626
 2170SOL    HW1 7409   0.183   4.129   4.655
 2170SOL    HW2 7410   0.058   4.225   4.699
 2171SOL     OW 7411   0.558   6.043   1.001
 2171SOL    HW1 7412   0.523   6.060   0.908
 2171SOL    HW2 7413   0.540   5.948   1.026
 2172SOL     OW 7414   1.572   2.039   5.728
 2172SOL    HW1 7415   1.569   2.139   5.731
 2172SOL    HW2 7416   1.601   2.004   5.817
 2173SOL     OW 7417   5.529   0.007   5.819
 2173SOL    HW1 7418   5.596   0.080   5.833
 2173SOL    HW2 7419   5.437   0.043   5.833
 2174SOL     OW 7420   0.148   6.185   5.054
 2174SOL    HW1 7421   0.208   6.145   5.122
 2174SOL    HW2 7422   0.181   6.163   4.962
 2175SOL     OW 7423   1.955   2.949   5.020
 2175SOL    HW1 7424   2.025   2.915   5.082
 2175SOL    HW2 7425   1.994   3.018   4.959
 2176SOL     OW 7426   4.769   2.642   0.977
 2176SOL    HW1 7427   4.744   2.693   1.059
 2176SOL    HW2 7428   4.775   2.544   1.000
 2177SOL     OW 7429   6.539   0.460   2.522
 2177SOL    HW1 7430   6.444   0.430   2.530
 2177SOL    HW2 7431   6.578   0.473   2.613
 2178SOL     OW 7432   1.224   0.916   1.905
 2178SOL    HW1 7433   1.204   0.889   1.810
 2178SOL    HW2 7434   1.304   0.865   1.937
 2179SOL     OW 7435   1.881   3.219   6.033
 2179SOL    HW1 7436   1.935   3.168   5.967
 2179SOL    HW2 7437   1.934   3.298   6.065
 2180SOL     OW 7438   1.814   3.560   2.101
 2180SOL    HW1 7439   1.902   3.597   2.128
 2180SOL    HW2 7440   1.823   3.512   2.013
 2181SOL     OW 7441   5.027   5.060   4.384
 2181SOL    HW1 7442   5.049   5.127   4.314
 2181SOL    HW2 7443   4.950   5.093   4.439
 2182SOL     OW 7444   0.580   4.310   3.713
 2182SOL    HW1 7445   0.531   4.290   3.628
 2182SOL    HW2 7446   0.533   4.384   3.761
 2183SOL     OW 7447   2.384   3.678   0.630
 2183SOL    HW1 7448   2.392   3.775   0.650
 2183SOL    HW2 7449   2.310   3.663   0.564
 2184SOL     OW 7450   4.951   0.085   6.863
 2184SOL    HW1 7451   4.909   7.013   6.862
 2184SOL    HW2 7452   5.044   0.078   6.826
 2185SOL     OW 7453   1.033   1.302   6.611
 2185SOL    HW1 7454   1.024   1.251   6.526
 2185SOL    HW2 7455   1.106   1.262   6.666
 2186SOL     OW 7456   5.998   5.503   5.678
 2186SOL    HW1 7457   6.009   5.420   5.733
 2186SOL    HW2 7458   6.078   5.562   5.691
 2187SOL     OW 7459   0.053   5.992   2.477
 2187SOL    HW1 7460   0.110   6.069   2.447
 2187SOL    HW2 7461   0.107   5.931   2.535
 2188SOL     OW 7462   2.312   5.067   6.067
 2188SOL    HW1 7463   2.312   5.111   6.157
 2188SOL    HW2 7464   2.404   5.069   6.029
 2189SOL     OW 7465   1.877   0.935   2.474
 2189SOL    HW1 7466   1.862   1.034   2.482
 2189SOL    HW2 7467   1.929   0.915   2.392
 2190SOL     OW 7468   6.670   3.883   2.406
 2190SOL    HW1 7469   6.686   3.982   2.400
 2190SOL    HW2 7470   6.756   3.837   2.426
 2191SOL     OW 7471   2.657   1.494   5.130
 2191SOL    HW1 7472   2.699   1.518   5.218
 2191SOL    HW2 7473   2.714   1.527   5.056
 2192SOL     OW 7474   5.376   6.929   2.518
 2192SOL    HW1 7475   5.417   6.967   2.436
 2192SOL    HW2 7476   5.280   6.906   2.500
 2193SOL     OW 7477   6.173   0.077   5.747
 2193SOL    HW1 7478   6.102   0.098   5.680
 2193SOL    HW2 7479   6.249   0.031   5.701
 2194SOL     OW 7480   0.752   4.030   5.678
 2194SOL    HW1 7481   0.658   4.019   5.645
 2194SOL    HW2 7482   0.750   4.061   5.773
 2195SOL     OW 7483   6.689   6.323   5.333
 2195SOL    HW1 7484   6.715   6.243   5.386
 2195SOL    HW2 7485   6.596   6.312   5.298
 2196SOL     OW 7486   3.046   6.568   5.006
 2196SOL    HW1 7487   3.028   6.666   5.010
 2196SOL    HW2 7488   3.024   6.526   5.094
 2197SOL     OW 7489   3.047   3.215   6.236
 2197SOL    HW1 7490   3.015   3.292   6.180
 2197SOL    HW2 7491   3.105   3.250   6.310
 2198SOL     OW 7492   6.434   6.863   0.968
 2198SOL    HW1 7493   6.439   6.831   0.873
 2198SOL    HW2 7494   6.434   6.785   1.030
 2199SOL     OW 7495   4.988   0.114   5.165
 2199SOL    HW1 7496   4.989   0.212   5.149
 2199SOL    HW2 7497   5.071   0.073   5.127
 2200SOL     OW 7498   2.660   1.347   3.663
 2200SOL    HW1 7499   2.748   1.394   3.655
 2200SOL    HW2 7500   2.586   1.414   3.665
 2201SOL     OW 7501   6.172   3.142   2.967
 2201SOL    HW1 7502   6.139   3.229   2.932
 2201SOL    HW2 7503   6.236   3.102   2.901
 2202SOL     OW 7504   2.945   5.587   2.718
 2202SOL    HW1 7505   2.962   5.668   2.662
 2202SOL    HW2 7506   2.898   5.517   2.664
 2203SOL     OW 7507   2.578   3.522   1.541
 2203SOL    HW1 7508   2.535   3.444   1.494
 2203SOL    HW2 7509   2.507   3.581   1.579
 2204SOL     OW 7510   4.649   2.741   0.751
 2204SOL    HW1 7511   4.651   2.666   0.685
 2204SOL    HW2 7512   4.689   2.710   0.837
 2205SOL     OW 7513   1.276   0.295   0.134
 2205SOL    HW1 7514   1.318   0.205   0.132
 2205SOL    HW2 7515   1.210   0.300   0.209
 2206SOL     OW 7516   2.232   4.362   6.239
 2206SOL    HW1 7517   2.202   4.281   6.189
 2206SOL    HW2 7518   2.201   4.444   6.191
 2207SOL     OW 7519   3.322   5.227   0.089
 2207SOL    HW1 7520   3.388   5.190   0.154
 2207SOL    HW2 7521   3.247   5.271   0.140
 2208SOL     OW 7522   0.721   5.359   2.858
 2208SOL    HW1 7523   0.735   5.374   2.956
 2208SOL    HW2 7524   0.809   5.342   2.814
 2209SOL     OW 7525   2.707   6.137   4.839
 2209SOL    HW1 7526   2.738   6.054   4.794
 2209SOL    HW2 7527   2.685   6.207   4.771
 2210SOL     OW 7528   6.543   6.078   2.844
 2210SOL    HW1 7529   6.638   6.093   2.816
 2210SOL    HW2 7530   6.541   6.014   2.921
 2211SOL     OW 7531   6.247   0.474   0.603
 2211SOL    HW1 7532   6.261   0.546   0.671
 2211SOL    HW2 7533   6.209   0.513   0.519
 2212SOL     OW 7534   1.821   5.769   6.723
 2212SOL    HW1 7535   1.903   5.821   6.745
 2212SOL    HW2 7536   1.816   5.754   6.624
 2213SOL     OW 7537   4.199   2.661   5.629
 2213SOL    HW1 7538   4.142   2.616   5.560
 2213SOL    HW2 7539   4.197   2.608   5.714
 2214SOL     OW 7540   3.149   3.028   4.677
 2214SOL    HW1 7541   3.189   2.958   4.618
 2214SOL    HW2 7542   3.158   3.001   4.773
 2215SOL     OW 7543   5.431   1.818   6.444
 2215SOL    HW1 7544   5.455   1.784   6.353
 2215SOL    HW2 7545   5.364   1.757   6.486
 2216SOL     OW 7546   6.922   0.472   5.931
 2216SOL    HW1 7547   7.006   0.525   5.919
 2216SOL    HW2 7548   6.895   0.431   5.844
 2217SOL     OW 7549   4.395   0.501   3.281
 2217SOL    HW1 7550   4.458   0.517   3.206
 2217SOL    HW2 7551   4.372   0.404   3.286
 2218SOL     OW 7552   6.951   5.442   6.742
 2218SOL    HW1 7553   6.922   5.346   6.746
 2218SOL    HW2 7554   6.878   5.497   6.701
 2219SOL     OW 7555   6.318   2.236   1.049
 2219SOL    HW1 7556   6.231   2.282   1.028
 2219SOL    HW2 7557   6.301   2.141   1.074
 2220SOL     OW 7558   1.901   5.792   5.662
 2220SOL    HW1 7559   1.903   5.841   5.749
 2220SOL    HW2 7560   1.944   5.703   5.672
 2221SOL     OW 7561   6.794   2.004   4.949
 2221SOL    HW1 7562   6.710   1.973   4.994
 2221SOL    HW2 7563   6.823   2.091   4.989
 2222SOL     OW 7564   5.792   0.034   0.613
 2222SOL    HW1 7565   5.796   0.107   0.682
 2222SOL    HW2 7566   5.717   6.990   0.636
 2223SOL     OW 7567   6.341   1.587   6.242
 2223SOL    HW1 7568   6.383   1.678   6.235
 2223SOL    HW2 7569   6.393   1.531   6.307
 2224SOL     OW 7570   5.770   3.159   1.975
 2224SOL    HW1 7571   5.816   3.217   1.907
 2224SOL    HW2 7572   5.707   3.097   1.928
 2225SOL     OW 7573   0.141   6.789   3.190
 2225SOL    HW1 7574   0.076   6.715   3.174
 2225SOL    HW2 7575   0.224   6.751   3.232
 2226SOL     OW 7576   3.893   5.875   0.709
 2226SOL    HW1 7577   3.934   5.886   0.800
 2226SOL    HW2 7578   3.851   5.784   0.703
 2227SOL     OW 7579   4.901   2.600   1.787
 2227SOL    HW1 7580   4.937   2.529   1.846
 2227SOL    HW2 7581   4.834   2.561   1.724
 2228SOL     OW 7582   4.457   5.644   0.163
 2228SOL    HW1 7583   4.439   5.644   0.064
 2228SOL    HW2 7584   4.533   5.582   0.183
 2229SOL     OW 7585   4.081   3.763   4.785
 2229SOL    HW1 7586   4.044   3.715   4.706
 2229SOL    HW2 7587   4.100   3.697   4.858
 2230SOL     OW 7588   5.517   5.975   1.117
 2230SOL    HW1 7589   5.484   5.905   1.054
 2230SOL    HW2 7590   5.479   6.064   1.091
 2231SOL     OW 7591   0.734   0.447   6.873
 2231SOL    HW1 7592   0.797   0.470   6.947
 2231SOL    HW2 7593   0.767   0.366   6.825
 2232SOL     OW 7594   0.779   1.528   4.896
 2232SOL    HW1 7595   0.858   1.522   4.835
 2232SOL    HW2 7596   0.800   1.589   4.972
 2233SOL     OW 7597   2.500   2.999   1.289
 2233SOL    HW1 7598   2.524   3.095   1.304
 2233SOL    HW2 7599   2.408   2.993   1.250
 2234SOL     OW 7600   3.469   1.538   0.672
 2234SOL    HW1 7601   3.526   1.490   0.739
 2234SOL    HW2 7602   3.427   1.472   0.610
 2235SOL     OW 7603   2.570   0.194   2.238
 2235SOL    HW1 7604   2.476   0.161   2.225
 2235SOL    HW2 7605   2.570   0.294   2.236
 2236SOL     OW 7606   1.668   3.453   5.774
 2236SOL    HW1 7607   1.759   3.415   5.757
 2236SOL    HW2 7608   1.658   3.470   5.872
 2237SOL     OW 7609   5.585   4.305   4.922
 2237SOL    HW1 7610   5.677   4.344   4.931
 2237SOL    HW2 7611   5.588   4.208   4.947
 2238SOL     OW 7612   4.372   4.903   2.508
 2238SOL    HW1 7613   4.281   4.919   2.548
 2238SOL    HW2 7614   4.406   4.814   2.537
 2239SOL     OW 7615   4.617   5.807   4.028
 2239SOL    HW1 7616   4.616   5.877   3.956
 2239SOL    HW2 7617   4.551   5.735   4.004
 2240SOL     OW 7618   3.396   5.481   2.653
 2240SOL    HW1 7619   3.392   5.381   2.645
 2240SOL    HW2 7620   3.491   5.511   2.647
 2241SOL     OW 7621   7.016   6.592   2.039
 2241SOL    HW1 7622   0.093   6.581   2.065
 2241SOL    HW2 7623   6.976   6.669   2.089
 2242SOL     OW 7624   5.256   3.653   2.756
 2242SOL    HW1 7625   5.324   3.594   2.801
 2242SOL    HW2 7626   5.170   3.603   2.745
 2243SOL     OW 7627   2.059   6.826   6.958
 2243SOL    HW1 7628   2.155   6.828   6.986
 2243SOL    HW2 7629   2.003   6.802   0.019
 2244SOL     OW 7630   2.832   6.870   1.590
 2244SOL    HW1 7631   2.817   6.969   1.593
 2244SOL    HW2 7632   2.896   6.844   1.662
 2245SOL     OW 7633   0.262   1.338   1.151
 2245SOL    HW1 7634   0.307   1.344   1.062
 2245SOL    HW2 7635   0.326   1.367   1.222
 2246SOL     OW 7636   1.736   0.629   4.320
 2246SOL    HW1 7637   1.820   0.644   4.373
 2246SOL    HW2 7638   1.759   0.622   4.223
 2247SOL     OW 7639   2.963   3.209   3.206
 2247SOL    HW1 7640   2.973   3.201   3.107
 2247SOL    HW2 7641   2.916   3.295   3.228
 2248SOL     OW 7642   6.431   3.879   4.705
 2248SOL    HW1 7643   6.367   3.954   4.719
 2248SOL    HW2 7644   6.473   3.888   4.614
 2249SOL     OW 7645   4.854   0.029   3.682
 2249SOL    HW1 7646   4.805   0.021   3.769
 2249SOL    HW2 7647   4.788   0.045   3.608
 2250SOL     OW 7648   2.940   3.686   5.418
 2250SOL    HW1 7649   2.976   3.599   5.450
 2250SOL    HW2 7650   2.843   3.676   5.396
 2251SOL     OW 7651   5.248   0.054   6.063
 2251SOL    HW1 7652   5.224   0.070   5.967
 2251SOL    HW2 7653   5.321   0.117   6.090
 2252SOL     OW 7654   4.767   1.704   3.206
 2252SOL    HW1 7655   4.690   1.641   3.212
 2252SOL    HW2 7656   4.852   1.651   3.199
 2253SOL     OW 7657   6.970   3.696   0.471
 2253SOL    HW1 7658   0.037   3.744   0.492
 2253SOL    HW2 7659   6.971   3.665   0.376
 2254SOL     OW 7660   3.381   2.976   4.062
 2254SOL    HW1 7661   3.365   3.029   4.145
 2254SOL    HW2 7662   3.308   2.993   3.997
 2255SOL     OW 7663   3.238   3.768   5.726
 2255SOL    HW1 7664   3.262   3.757   5.630
 2255SOL    HW2 7665   3.187   3.854   5.738
 2256SOL     OW 7666   5.326   6.651   1.960
 2256SOL    HW1 7667   5.288   6.573   2.010
 2256SOL    HW2 7668   5.262   6.728   1.966
 2257SOL     OW 7669   0.361   0.953   4.658
 2257SOL    HW1 7670   0.449   0.907   4.653
 2257SOL    HW2 7671   0.306   0.912   4.731
 2258SOL     OW 7672   1.787   5.374   4.823
 2258SOL    HW1 7673   1.767   5.471   4.810
 2258SOL    HW2 7674   1.762   5.324   4.740
 2259SOL     OW 7675   5.134   3.072   5.382
 2259SOL    HW1 7676   5.215   3.021   5.354
 2259SOL    HW2 7677   5.090   3.111   5.301
 2260SOL     OW 7678   0.161   3.669   1.427
 2260SOL    HW1 7679   0.094   3.689   1.355
 2260SOL    HW2 7680   0.220   3.748   1.441
 2261SOL     OW 7681   6.472   5.243   0.147
 2261SOL    HW1 7682   6.520   5.318   0.194
 2261SOL    HW2 7683   6.523   5.158   0.160
 2262SOL     OW 7684   6.172   6.961   2.943
 2262SOL    HW1 7685   6.198   6.977   2.848
 2262SOL    HW2 7686   6.140   6.867   2.953
 2263SOL     OW 7687   2.437   6.190   0.184
 2263SOL    HW1 7688   2.495   6.269   0.204
 2263SOL    HW2 7689   2.399   6.199   0.092
 2264SOL     OW 7690   3.350   6.274   6.437
 2264SOL    HW1 7691   3.303   6.333   6.503
 2264SOL    HW2 7692   3.412   6.329   6.382
 2265SOL     OW 7693   1.938   0.378   4.537
 2265SOL    HW1 7694   1.998   0.455   4.558
 2265SOL    HW2 7695   1.934   0.365   4.438
 2266SOL     OW 7696   5.142   2.072   6.184
 2266SOL    HW1 7697   5.139   2.169   6.163
 2266SOL    HW2 7698   5.053   2.043   6.221
 2267SOL     OW 7699   4.756   3.118   5.304
 2267SOL    HW1 7700   4.770   3.088   5.398
 2267SOL    HW2 7701   4.668   3.085   5.270
 2268SOL     OW 7702   6.233   4.119   6.443
 2268SOL    HW1 7703   6.259   4.162   6.529
 2268SOL    HW2 7704   6.165   4.177   6.396
 2269SOL     OW 7705   0.819   3.594   5.240
 2269SOL    HW1 7706   0.813   3.665   5.310
 2269SOL    HW2 7707   0.872   3.517   5.276
 2270SOL     OW 7708   3.968   2.848   6.416
 2270SOL    HW1 7709   3.962   2.827   6.318
 2270SOL    HW2 7710   4.014   2.935   6.429
 2271SOL     OW 7711   5.659   4.539   0.082
 2271SOL    HW1 7712   5.616   4.468   0.138
 2271SOL    HW2 7713   5.733   4.582   0.132
 2272SOL     OW 7714   5.933   1.171   6.912
 2272SOL    HW1 7715   5.999   1.155   6.839
 2272SOL    HW2 7716   5.911   1.269   6.916
 2273SOL     OW 7717   1.117   1.972   1.619
 2273SOL    HW1 7718   1.051   1.976   1.694
 2273SOL    HW2 7719   1.120   2.060   1.572
 2274SOL     OW 7720   0.333   1.908   6.797
 2274SOL    HW1 7721   0.404   1.917   6.728
 2274SOL    HW2 7722   0.312   1.811   6.810
 2275SOL     OW 7723   5.984   6.773   2.890
 2275SOL    HW1 7724   6.052   6.725   2.835
 2275SOL    HW2 7725   5.992   6.746   2.985
 2276SOL     OW 7726   2.086   5.652   1.886
 2276SOL    HW1 7727   2.033   5.649   1.970
 2276SOL    HW2 7728   2.173   5.603   1.898
 2277SOL     OW 7729   3.625   4.227   4.854
 2277SOL    HW1 7730   3.585   4.220   4.763
 2277SOL    HW2 7731   3.562   4.276   4.915
 2278SOL     OW 7732   6.139   2.937   3.841
 2278SOL    HW1 7733   6.099   2.868   3.902
 2278SOL    HW2 7734   6.184   2.891   3.765
 2279SOL     OW 7735   5.840   0.044   5.248
 2279SOL    HW1 7736   5.841   0.053   5.348
 2279SOL    HW2 7737   5.798   6.975   5.224
 2280SOL     OW 7738   6.809   6.902   4.320
 2280SOL    HW1 7739   6.827   6.897   4.418
 2280SOL    HW2 7740   6.738   6.971   4.303
 2281SOL     OW 7741   3.242   0.790   1.954
 2281SOL    HW1 7742   3.223   0.706   2.005
 2281SOL    HW2 7743   3.192   0.866   1.996
 2282SOL     OW 7744   5.533   6.193   5.962
 2282SOL    HW1 7745   5.453   6.139   5.937
 2282SOL    HW2 7746   5.605   6.181   5.893
 2283SOL     OW 7747   2.027   0.189   1.839
 2283SOL    HW1 7748   2.074   0.111   1.800
 2283SOL    HW2 7749   1.928   0.175   1.833
 2284SOL     OW 7750   1.204   3.261   6.552
 2284SOL    HW1 7751   1.170   3.203   6.626
 2284SOL    HW2 7752   1.153   3.242   6.468
 2285SOL     OW 7753   1.040   3.082   0.480
 2285SOL    HW1 7754   1.128   3.057   0.522
 2285SOL    HW2 7755   1.048   3.172   0.438
 2286SOL     OW 7756   5.370   0.595   3.640
 2286SOL    HW1 7757   5.369   0.618   3.542
 2286SOL    HW2 7758   5.445   0.643   3.685
 2287SOL     OW 7759   1.815   0.565   3.501
 2287SOL    HW1 7760   1.882   0.547   3.574
 2287SOL    HW2 7761   1.783   0.478   3.464
 2288SOL     OW 7762   6.499   5.231   3.682
 2288SOL    HW1 7763   6.411   5.228   3.635
 2288SOL    HW2 7764   6.518   5.141   3.722
 2289SOL     OW 7765   0.126   5.247   0.587
 2289SOL    HW1 7766   0.088   5.310   0.655
 2289SOL    HW2 7767   0.214   5.283   0.555
 2290SOL     OW 7768   0.737   3.803   1.110
 2290SOL    HW1 7769   0.712   3.868   1.182
 2290SOL    HW2 7770   0.837   3.794   1.106
 2291SOL     OW 7771   2.551   2.753   5.857
 2291SOL    HW1 7772   2.541   2.772   5.759
 2291SOL    HW2 7773   2.523   2.659   5.876
 2292SOL     OW 7774   1.183   1.571   4.446
 2292SOL    HW1 7775   1.153   1.553   4.540
 2292SOL    HW2 7776   1.283   1.574   4.444
 2293SOL     OW 7777   4.995   6.231   2.003
 2293SOL    HW1 7778   4.902   6.267   1.994
 2293SOL    HW2 7779   5.012   6.163   1.932
 2294SOL     OW 7780   2.871   0.667   0.036
 2294SOL    HW1 7781   2.862   0.737   0.107
 2294SOL    HW2 7782   2.823   0.696   6.972
 2295SOL     OW 7783   0.466   1.756   2.497
 2295SOL    HW1 7784   0.561   1.738   2.522
 2295SOL    HW2 7785   0.412   1.771   2.580
 2296SOL     OW 7786   3.555   6.022   0.462
 2296SOL    HW1 7787   3.585   5.943   0.409
 2296SOL    HW2 7788   3.502   5.991   0.541
 2297SOL     OW 7789   3.480   3.806   5.211
 2297SOL    HW1 7790   3.527   3.826   5.125
 2297SOL    HW2 7791   3.540   3.827   5.288
 2298SOL     OW 7792   4.219   2.473   1.677
 2298SOL    HW1 7793   4.200   2.411   1.602
 2298SOL    HW2 7794   4.245   2.563   1.641
 2299SOL     OW 7795   5.086   0.373   6.476
 2299SOL    HW1 7796   5.172   0.321   6.467
 2299SOL    HW2 7797   5.054   0.367   6.570
 2300SOL     OW 7798   2.509   4.833   1.670
 2300SOL    HW1 7799   2.597   4.811   1.713
 2300SOL    HW2 7800   2.499   4.932   1.663
 2301SOL     OW 7801   3.188   2.957   3.314
 2301SOL    HW1 7802   3.178   2.954   3.214
 2301SOL    HW2 7803   3.104   2.923   3.357
 2302SOL     OW 7804   3.492   0.120   2.043
 2302SOL    HW1 7805   3.418   0.162   1.990
 2302SOL    HW2 7806   3.544   0.191   2.090
 2303SOL     OW 7807   1.661   3.364   6.055
 2303SOL    HW1 7808   1.584   3.304   6.077
 2303SOL    HW2 7809   1.742   3.309   6.037
 2304SOL     OW 7810   3.127   0.236   3.002
 2304SOL    HW1 7811   3.110   0.297   3.079
 2304SOL    HW2 7812   3.049   0.238   2.940
 2305SOL     OW 7813   3.238   6.041   3.131
 2305SOL    HW1 7814   3.229   6.106   3.207
 2305SOL    HW2 7815   3.314   6.069   3.072
 2306SOL     OW 7816   2.065   5.357   2.232
 2306SOL    HW1 7817   1.981   5.334   2.282
 2306SOL    HW2 7818   2.091   5.452   2.251
 2307SOL     OW 7819   1.723   4.434   2.581
 2307SOL    HW1 7820   1.648   4.382   2.541
 2307SOL    HW2 7821   1.766   4.381   2.654
 2308SOL     OW 7822   1.536   6.699   6.898
 2308SOL    HW1 7823   1.538   6.783   6.844
 2308SOL    HW2 7824   1.611   6.640   6.870
 2309SOL     OW 7825   3.039   6.971   0.201
 2309SOL    HW1 7826   3.089   6.907   0.260
 2309SOL    HW2 7827   3.001   0.026   0.257
 2310SOL     OW 7828   6.042   6.374   1.540
 2310SOL    HW1 7829   6.014   6.279   1.534
 2310SOL    HW2 7830   6.137   6.379   1.573
 2311SOL     OW 7831   2.676   6.502   2.343
 2311SOL    HW1 7832   2.661   6.406   2.323
 2311SOL    HW2 7833   2.719   6.511   2.433
 2312SOL     OW 7834   3.560   6.883   3.771
 2312SOL    HW1 7835   3.538   6.902   3.675
 2312SOL    HW2 7836   3.659   6.890   3.785
 2313SOL     OW 7837   4.909   5.357   2.308
 2313SOL    HW1 7838   4.946   5.310   2.388
 2313SOL    HW2 7839   4.982   5.410   2.265
 2314SOL     OW 7840   5.576   0.928   4.637
 2314SOL    HW1 7841   5.607   0.997   4.702
 2314SOL    HW2 7842   5.609   0.838   4.665
 2315SOL     OW 7843   5.002   3.455   5.210
 2315SOL    HW1 7844   4.946   3.513   5.151
 2315SOL    HW2 7845   4.956   3.443   5.299
 2316SOL     OW 7846   2.863   0.795   4.988
 2316SOL    HW1 7847   2.894   0.701   5.001
 2316SOL    HW2 7848   2.846   0.811   4.891
 2317SOL     OW 7849   6.342   6.508   3.319
 2317SOL    HW1 7850   6.285   6.483   3.398
 2317SOL    HW2 7851   6.360   6.606   3.321
 2318SOL     OW 7852   2.121   3.398   4.521
 2318SOL    HW1 7853   2.099   3.432   4.429
 2318SOL    HW2 7854   2.151   3.303   4.515
 2319SOL     OW 7855   3.288   5.466   5.215
 2319SOL    HW1 7856   3.387   5.466   5.201
 2319SOL    HW2 7857   3.249   5.554   5.188
 2320SOL     OW 7858   1.534   2.583   5.260
 2320SOL    HW1 7859   1.505   2.637   5.182
 2320SOL    HW2 7860   1.476   2.502   5.268
 2321SOL     OW 7861   1.786   5.246   6.973
 2321SOL    HW1 7862   1.878   5.251   7.013
 2321SOL    HW2 7863   1.794   5.237   6.874
 2322SOL     OW 7864   2.009   4.241   2.568
 2322SOL    HW1 7865   1.958   4.256   2.483
 2322SOL    HW2 7866   1.948   4.254   2.646
 2323SOL     OW 7867   3.375   4.777   1.661
 2323SOL    HW1 7868   3.447   4.733   1.714
 2323SOL    HW2 7869   3.341   4.857   1.711
 2324SOL     OW 7870   6.803   5.976   1.099
 2324SOL    HW1 7871   6.765   5.974   1.192
 2324SOL    HW2 7872   6.746   5.920   1.039
 2325SOL     OW 7873   0.689   4.035   1.329
 2325SOL    HW1 7874   0.763   4.016   1.393
 2325SOL    HW2 7875   0.666   4.132   1.332
 2326SOL     OW 7876   2.076   6.653   6.649
 2326SOL    HW1 7877   2.001   6.713   6.679
 2326SOL    HW2 7878   2.153   6.709   6.620
 2327SOL     OW 7879   0.052   1.354   3.237
 2327SOL    HW1 7880   7.003   1.414   3.194
 2327SOL    HW2 7881   0.138   1.404   3.249
 2328SOL     OW 7882   1.517   1.749   3.066
 2328SOL    HW1 7883   1.519   1.649   3.075
 2328SOL    HW2 7884   1.602   1.787   3.102
 2329SOL     OW 7885   1.108   4.385   5.231
 2329SOL    HW1 7886   1.202   4.353   5.220
 2329SOL    HW2 7887   1.072   4.416   5.143
 2330SOL     OW 7888   0.465   2.703   1.143
 2330SOL    HW1 7889   0.447   2.671   1.050
 2330SOL    HW2 7890   0.432   2.797   1.153
 2331SOL     OW 7891   3.832   4.776   0.364
 2331SOL    HW1 7892   3.925   4.737   0.365
 2331SOL    HW2 7893   3.838   4.875   0.348
 2332SOL     OW 7894   6.680   0.043   5.556
 2332SOL    HW1 7895   6.692   6.963   5.550
 2332SOL    HW2 7896   6.584   0.066   5.539
 2333SOL     OW 7897   7.013   3.793   3.174
 2333SOL    HW1 7898   0.057   3.867   3.150
 2333SOL    HW2 7899   0.007   3.770   3.271
 2334SOL     OW 7900   2.414   0.876   6.433
 2334SOL    HW1 7901   2.500   0.880   6.484
 2334SOL    HW2 7902   2.359   0.956   6.455
 2335SOL     OW 7903   5.879   0.882   4.286
 2335SOL    HW1 7904   5.911   0.896   4.192
 2335SOL    HW2 7905   5.780   0.870   4.286
 2336SOL     OW 7906   4.222   1.360   4.748
 2336SOL    HW1 7907   4.264   1.451   4.751
 2336SOL    HW2 7908   4.158   1.351   4.824
 2337SOL     OW 7909   3.828   0.188   1.480
 2337SOL    HW1 7910   3.882   0.248   1.539
 2337SOL    HW2 7911   3.876   0.101   1.469
 2338SOL     OW 7912   0.294   3.143   4.839
 2338SOL    HW1 7913   0.295   3.156   4.739
 2338SOL    HW2 7914   0.312   3.046   4.859
 2339SOL     OW 7915   3.125   3.936   3.094
 2339SOL    HW1 7916   3.101   4.012   3.155
 2339SOL    HW2 7917   3.218   3.949   3.061
 2340SOL     OW 7918   6.731   4.011   6.292
 2340SOL    HW1 7919   6.637   3.977   6.294
 2340SOL    HW2 7920   6.742   4.074   6.215
 2341SOL     OW 7921   3.069   4.755   1.861
 2341SOL    HW1 7922   3.057   4.657   1.851
 2341SOL    HW2 7923   2.990   4.793   1.910
 2342SOL     OW 7924   1.139   6.723   5.588
 2342SOL    HW1 7925   1.050   6.701   5.547
 2342SOL    HW2 7926   1.128   6.739   5.686
 2343SOL     OW 7927   1.600   5.125   2.457
 2343SOL    HW1 7928   1.594   5.030   2.488
 2343SOL    HW2 7929   1.640   5.181   2.529
 2344SOL     OW 7930   0.851   5.636   6.872
 2344SOL    HW1 7931   0.751   5.637   6.882
 2344SOL    HW2 7932   0.891   5.710   6.926
 2345SOL     OW 7933   2.963   5.805   5.265
 2345SOL    HW1 7934   2.998   5.898   5.261
 2345SOL    HW2 7935   2.883   5.797   5.206
 2346SOL     OW 7936   3.515   3.376   5.277
 2346SOL    HW1 7937   3.483   3.450   5.218
 2346SOL    HW2 7938   3.515   3.290   5.225
 2347SOL     OW 7939   3.028   2.286   1.186
 2347SOL    HW1 7940   2.987   2.332   1.265
 2347SOL    HW2 7941   2.988   2.323   1.102
 2348SOL     OW 7942   2.494   6.799   3.792
 2348SOL    HW1 7943   2.408   6.748   3.791
 2348SOL    HW2 7944   2.567   6.741   3.829
 2349SOL     OW 7945   0.910   5.176   5.807
 2349SOL    HW1 7946   0.878   5.120   5.730
 2349SOL    HW2 7947   0.979   5.241   5.775
 2350SOL     OW 7948   6.367   6.182   6.270
 2350SOL    HW1 7949   6.451   6.231   6.248
 2350SOL    HW2 7950   6.297   6.202   6.201
 2351SOL     OW 7951   2.749   5.172   4.819
 2351SOL    HW1 7952   2.676   5.230   4.781
 2351SOL    HW2 7953   2.733   5.077   4.792
 2352SOL     OW 7954   0.516   4.004   2.477
 2352SOL    HW1 7955   0.572   4.011   2.560
 2352SOL    HW2 7956   0.575   4.001   2.397
 2353SOL     OW 7957   3.556   5.402   5.179
 2353SOL    HW1 7958   3.595   5.476   5.234
 2353SOL    HW2 7959   3.627   5.337   5.154
 2354SOL     OW 7960   2.887   1.930   5.281
 2354SOL    HW1 7961   2.907   1.853   5.341
 2354SOL    HW2 7962   2.817   1.904   5.215
 2355SOL     OW 7963   2.282   6.745   6.481
 2355SOL    HW1 7964   2.352   6.761   6.412
 2355SOL    HW2 7965   2.228   6.665   6.456
 2356SOL     OW 7966   1.471   3.226   6.570
 2356SOL    HW1 7967   1.372   3.234   6.573
 2356SOL    HW2 7968   1.500   3.213   6.475
 2357SOL     OW 7969   4.461   0.084   2.635
 2357SOL    HW1 7970   4.469   7.003   2.626
 2357SOL    HW2 7971   4.472   0.126   2.546
 2358SOL     OW 7972   4.057   5.030   4.848
 2358SOL    HW1 7973   4.034   4.980   4.931
 2358SOL    HW2 7974   4.050   4.969   4.769
 2359SOL     OW 7975   6.548   0.937   5.509
 2359SOL    HW1 7976   6.562   1.035   5.495
 2359SOL    HW2 7977   6.460   0.923   5.555
 2360SOL     OW 7978   5.752   3.665   6.862
 2360SOL    HW1 7979   5.725   3.594   6.797
 2360SOL    HW2 7980   5.744   3.755   6.817
 2361SOL     OW 7981   2.812   1.020   5.285
 2361SOL    HW1 7982   2.791   0.932   5.242
 2361SOL    HW2 7983   2.911   1.026   5.302
 2362SOL     OW 7984   2.349   6.192   3.990
 2362SOL    HW1 7985   2.340   6.150   3.900
 2362SOL    HW2 7986   2.268   6.249   4.008
 2363SOL     OW 7987   4.608   2.377   4.985
 2363SOL    HW1 7988   4.524   2.346   4.941
 2363SOL    HW2 7989   4.678   2.393   4.915
 2364SOL     OW 7990   0.551   2.243   2.477
 2364SOL    HW1 7991   0.530   2.218   2.383
 2364SOL    HW2 7992   0.493   2.191   2.540
 2365SOL     OW 7993   6.076   2.469   6.303
 2365SOL    HW1 7994   6.173   2.491   6.315
 2365SOL    HW2 7995   6.059   2.376   6.337
 2366SOL     OW 7996   2.495   5.383   6.293
 2366SOL    HW1 7997   2.415   5.372   6.352
 2366SOL    HW2 7998   2.525   5.293   6.260
 2367SOL     OW 7999   2.530   3.796   0.850
 2367SOL    HW1 8000   2.508   3.757   0.760
 2367SOL    HW2 8001   2.510   3.728   0.921
 2368SOL     OW 8002   4.188   0.309   4.420
 2368SOL    HW1 8003   4.108   0.291   4.476
 2368SOL    HW2 8004   4.243   0.225   4.412
 2369SOL     OW 8005   1.444   0.939   5.356
 2369SOL    HW1 8006   1.523   0.965   5.413
 2369SOL    HW2 8007   1.376   0.893   5.413
 2370SOL     OW 8008   4.671   3.370   6.971
 2370SOL    HW1 8009   4.696   3.439   0.020
 2370SOL    HW2 8010   4.698   3.400   6.879
 2371SOL     OW 8011   0.565   6.681   1.614
 2371SOL    HW1 8012   0.499   6.714   1.682
 2371SOL    HW2 8013   0.593   6.757   1.556
 2372SOL     OW 8014   0.265   2.787   2.477
 2372SOL    HW1 8015   0.321   2.864   2.448
 2372SOL    HW2 8016   0.283   2.767   2.574
 2373SOL     OW 8017   0.782   1.943   6.569
 2373SOL    HW1 8018   0.850   1.872   6.590
 2373SOL    HW2 8019   0.787   2.015   6.638
 2374SOL     OW 8020   6.077   1.793   3.717
 2374SOL    HW1 8021   5.982   1.771   3.693
 2374SOL    HW2 8022   6.082   1.890   3.743
 2375SOL     OW 8023   2.823   6.533   4.824
 2375SOL    HW1 8024   2.783   6.621   4.847
 2375SOL    HW2 8025   2.916   6.527   4.861
 2376SOL     OW 8026   6.996   2.212   4.721
 2376SOL    HW1 8027   6.933   2.254   4.656
 2376SOL    HW2 8028   7.017   2.119   4.691
 2377SOL     OW 8029   3.910   3.861   3.108
 2377SOL    HW1 8030   3.898   3.820   3.018
 2377SOL    HW2 8031   3.991   3.822   3.152
 2378SOL     OW 8032   4.992   1.296   0.793
 2378SOL    HW1 8033   4.967   1.272   0.699
 2378SOL    HW2 8034   5.079   1.252   0.816
 2379SOL     OW 8035   5.942   1.631   0.114
 2379SOL    HW1 8036   5.911   1.563   0.181
 2379SOL    HW2 8037   5.990   1.705   0.162
 2380SOL     OW 8038   0.596   1.344   6.909
 2380SOL    HW1 8039   0.547   1.427   6.935
 2380SOL    HW2 8040   0.678   1.334   6.966
 2381SOL     OW 8041   2.117   4.481   4.375
 2381SOL    HW1 8042   2.055   4.439   4.441
 2381SOL    HW2 8043   2.187   4.414   4.348
 2382SOL     OW 8044   1.975   4.124   4.171
 2382SOL    HW1 8045   1.902   4.190   4.189
 2382SOL    HW2 8046   2.001   4.128   4.074
 2383SOL     OW 8047   4.932   6.410   1.568
 2383SOL    HW1 8048   4.896   6.317   1.582
 2383SOL    HW2 8049   4.975   6.442   1.652
 2384SOL     OW 8050   5.629   0.913   3.302
 2384SOL    HW1 8051   5.597   0.825   3.338
 2384SOL    HW2 8052   5.571   0.986   3.337
 2385SOL     OW 8053   1.106   0.249   0.376
 2385SOL    HW1 8054   1.097   0.152   0.397
 2385SOL    HW2 8055   1.180   0.289   0.429
 2386SOL     OW 8056   6.096   5.968   4.283
 2386SOL    HW1 8057   6.107   5.896   4.351
 2386SOL    HW2 8058   6.171   5.965   4.218
 2387SOL     OW 8059   1.379   2.295   3.821
 2387SOL    HW1 8060   1.434   2.213   3.836
 2387SOL    HW2 8061   1.304   2.274   3.757
 2388SOL     OW 8062   1.064   2.167   4.599
 2388SOL    HW1 8063   1.031   2.261   4.588
 2388SOL    HW2 8064   1.004   2.105   4.549
 2389SOL     OW 8065   4.858   4.200   3.267
 2389SOL    HW1 8066   4.908   4.220   3.351
 2389SOL    HW2 8067   4.871   4.104   3.242
 2390SOL     OW 8068   3.953   3.228   3.295
 2390SOL    HW1 8069   3.853   3.238   3.291
 2390SOL    HW2 8070   3.984   3.252   3.387
 2391SOL     OW 8071   4.954   3.795   5.952
 2391SOL    HW1 8072   5.047   3.766   5.929
 2391SOL    HW2 8073   4.901   3.807   5.867
 2392SOL     OW 8074   4.609   6.386   5.178
 2392SOL    HW1 8075   4.618   6.479   5.142
 2392SOL    HW2 8076   4.682   6.328   5.141
 2393SOL     OW 8077   5.839   4.053   6.096
 2393SOL    HW1 8078   5.910   4.061   6.166
 2393SOL    HW2 8079   5.763   4.114   6.118
 2394SOL     OW 8080   1.254   3.805   4.839
 2394SOL    HW1 8081   1.310   3.782   4.918
 2394SOL    HW2 8082   1.289   3.889   4.797
 2395SOL     OW 8083   5.033   2.746   6.397
 2395SOL    HW1 8084   4.965   2.791   6.339
 2395SOL    HW2 8085   5.008   2.650   6.409
 2396SOL     OW 8086   3.308   5.571   1.426
 2396SOL    HW1 8087   3.302   5.543   1.330
 2396SOL    HW2 8088   3.220   5.610   1.454
 2397SOL     OW 8089   6.710   4.180   5.976
 2397SOL    HW1 8090   6.791   4.194   6.033
 2397SOL    HW2 8091   6.725   4.220   5.886
 2398SOL     OW 8092   2.877   3.637   6.931
 2398SOL    HW1 8093   2.814   3.566   6.900
 2398SOL    HW2 8094   2.835   3.686   7.008
 2399SOL     OW 8095   5.172   1.487   2.225
 2399SOL    HW1 8096   5.222   1.427   2.288
 2399SOL    HW2 8097   5.101   1.434   2.179
 2400SOL     OW 8098   3.225   3.922   0.836
 2400SOL    HW1 8099   3.212   3.923   0.736
 2400SOL    HW2 8100   3.308   3.871   0.857
 2401SOL     OW 8101   4.491   6.555   6.654
 2401SOL    HW1 8102   4.416   6.570   6.589
 2401SOL    HW2 8103   4.468   6.478   6.714
 2402SOL     OW 8104   6.907   0.486   3.489
 2402SOL    HW1 8105   6.986   0.543   3.467
 2402SOL    HW2 8106   6.904   0.469   3.587
 2403SOL     OW 8107   2.278   2.738   6.622
 2403SOL    HW1 8108   2.304   2.707   6.714
 2403SOL    HW2 8109   2.342   2.809   6.592
 2404SOL     OW 8110   3.499   1.354   1.245
 2404SOL    HW1 8111   3.417   1.379   1.297
 2404SOL    HW2 8112   3.573   1.417   1.266
 2405SOL     OW 8113   3.556   3.465   2.448
 2405SOL    HW1 8114   3.486   3.510   2.392
 2405SOL    HW2 8115   3.543   3.491   2.544
 2406SOL     OW 8116   2.745   6.774   2.456
 2406SOL    HW1 8117   2.828   6.809   2.499
 2406SOL    HW2 8118   2.761   6.683   2.419
 2407SOL     OW 8119   5.918   1.865   2.547
 2407SOL    HW1 8120   5.839   1.884   2.605
 2407SOL    HW2 8121   5.889   1.816   2.465
 2408SOL     OW 8122   4.169   4.744   3.049
 2408SOL    HW1 8123   4.158   4.730   3.147
 2408SOL    HW2 8124   4.256   4.704   3.019
 2409SOL     OW 8125   1.865   4.916   2.463
 2409SOL    HW1 8126   1.953   4.869   2.458
 2409SOL    HW2 8127   1.863   4.971   2.546
 2410SOL     OW 8128   4.387   3.247   5.693
 2410SOL    HW1 8129   4.484   3.229   5.707
 2410SOL    HW2 8130   4.345   3.277   5.778
 2411SOL     OW 8131   4.532   5.603   5.087
 2411SOL    HW1 8132   4.605   5.535   5.087
 2411SOL    HW2 8133   4.447   5.560   5.057
 2412SOL     OW 8134   4.851   5.004   0.648
 2412SOL    HW1 8135   4.928   4.945   0.673
 2412SOL    HW2 8136   4.805   5.035   0.731
 2413SOL     OW 8137   6.089   1.588   1.181
 2413SOL    HW1 8138   6.053   1.563   1.271
 2413SOL    HW2 8139   6.014   1.618   1.122
 2414SOL     OW 8140   4.613   4.753   2.969
 2414SOL    HW1 8141   4.690   4.705   3.013
 2414SOL    HW2 8142   4.614   4.849   2.996
 2415SOL     OW 8143   6.233   0.787   2.764
 2415SOL    HW1 8144   6.301   0.714   2.777
 2415SOL    HW2 8145   6.218   0.834   2.851
 2416SOL     OW 8146   4.617   2.417   5.579
 2416SOL    HW1 8147   4.704   2.416   5.530
 2416SOL    HW2 8148   4.619   2.350   5.653
 2417SOL     OW 8149   3.787   3.315   5.395
 2417SOL    HW1 8150   3.697   3.270   5.395
 2417SOL    HW2 8151   3.857   3.246   5.376
 2418SOL     OW 8152   3.183   3.057   4.283
 2418SOL    HW1 8153   3.141   2.987   4.226
 2418SOL    HW2 8154   3.112   3.111   4.328
 2419SOL     OW 8155   6.768   0.185   4.696
 2419SOL    HW1 8156   6.716   0.152   4.775
 2419SOL    HW2 8157   6.776   0.284   4.701
 2420SOL     OW 8158   3.083   0.780   2.673
 2420SOL    HW1 8159   3.115   0.855   2.615
 2420SOL    HW2 8160   3.029   0.717   2.618
 2421SOL     OW 8161   2.339   2.412   4.942
 2421SOL    HW1 8162   2.422   2.388   4.992
 2421SOL    HW2 8163   2.284   2.331   4.926
 2422SOL     OW 8164   5.633   1.311   1.027
 2422SOL    HW1 8165   5.534   1.316   1.014
 2422SOL    HW2 8166   5.678   1.382   0.974
 2423SOL     OW 8167   1.235   5.493   2.199
 2423SOL    HW1 8168   1.334   5.502   2.194
 2423SOL    HW2 8169   1.194   5.533   2.117
 2424SOL     OW 8170   6.049   0.122   5.973
 2424SOL    HW1 8171   5.965   0.069   5.959
 2424SOL    HW2 8172   6.109   0.110   5.894
 2425SOL     OW 8173   5.627   0.561   3.987
 2425SOL    HW1 8174   5.649   0.500   3.911
 2425SOL    HW2 8175   5.572   0.511   4.055
 2426SOL     OW 8176   0.963   6.320   4.955
 2426SOL    HW1 8177   0.898   6.259   4.999
 2426SOL    HW2 8178   1.054   6.279   4.957
 2427SOL     OW 8179   5.389   6.009   5.542
 2427SOL    HW1 8180   5.440   6.062   5.473
 2427SOL    HW2 8181   5.378   5.915   5.511
 2428SOL     OW 8182   6.819   0.378   2.271
 2428SOL    HW1 8183   6.731   0.332   2.269
 2428SOL    HW2 8184   6.892   0.312   2.254
 2429SOL     OW 8185   5.536   5.808   3.020
 2429SOL    HW1 8186   5.483   5.792   2.937
 2429SOL    HW2 8187   5.631   5.781   3.005
 2430SOL     OW 8188   5.818   0.719   1.387
 2430SOL    HW1 8189   5.832   0.646   1.454
 2430SOL    HW2 8190   5.744   0.693   1.324
 2431SOL     OW 8191   4.132   1.157   1.819
 2431SOL    HW1 8192   4.138   1.215   1.737
 2431SOL    HW2 8193   4.162   1.210   1.898
 2432SOL     OW 8194   3.419   6.041   2.659
 2432SOL    HW1 8195   3.345   6.108   2.670
 2432SOL    HW2 8196   3.469   6.061   2.575
 2433SOL     OW 8197   3.737   1.553   0.424
 2433SOL    HW1 8198   3.794   1.581   0.501
 2433SOL    HW2 8199   3.738   1.624   0.354
 2434SOL     OW 8200   3.679   1.227   5.732
 2434SOL    HW1 8201   3.699   1.325   5.741
 2434SOL    HW2 8202   3.700   1.198   5.639
 2435SOL     OW 8203   4.372   5.262   5.688
 2435SOL    HW1 8204   4.301   5.223   5.628
 2435SOL    HW2 8205   4.340   5.262   5.782
 2436SOL     OW 8206   1.540   4.928   0.554
 2436SOL    HW1 8207   1.617   4.894   0.499
 2436SOL    HW2 8208   1.547   5.027   0.562
 2437SOL     OW 8209   5.380   6.575   6.613
 2437SOL    HW1 8210   5.421   6.514   6.680
 2437SOL    HW2 8211   5.343   6.521   6.537
 2438SOL     OW 8212   3.230   1.533   6.663
 2438SOL    HW1 8213   3.219   1.478   6.580
 2438SOL    HW2 8214   3.243   1.629   6.639
 2439SOL     OW 8215   0.766   4.592   6.383
 2439SOL    HW1 8216   0.786   4.622   6.290
 2439SOL    HW2 8217   0.828   4.638   6.446
 2440SOL     OW 8218   4.655   6.128   5.924
 2440SOL    HW1 8219   4.715   6.168   5.993
 2440SOL    HW2 8220   4.651   6.188   5.844
 2441SOL     OW 8221   0.296   1.630   6.807
 2441SOL    HW1 8222   0.203   1.654   6.781
 2441SOL    HW2 8223   0.327   1.552   6.752
 2442SOL     OW 8224   0.789   3.499   5.568
 2442SOL    HW1 8225   0.855   3.443   5.618
 2442SOL    HW2 8226   0.727   3.439   5.517
 2443SOL     OW 8227   3.801   4.927   5.718
 2443SOL    HW1 8228   3.869   4.998   5.734
 2443SOL    HW2 8229   3.727   4.963   5.661
 2444SOL     OW 8230   2.554   4.216   6.552
 2444SOL    HW1 8231   2.526   4.143   6.490
 2444SOL    HW2 8232   2.605   4.177   6.629
 2445SOL     OW 8233   0.002   1.448   1.180
 2445SOL    HW1 8234   6.967   1.429   1.098
 2445SOL    HW2 8235   0.093   1.409   1.171
 2446SOL     OW 8236   6.264   4.580   3.988
 2446SOL    HW1 8237   6.330   4.654   3.977
 2446SOL    HW2 8238   6.291   4.521   4.064
 2447SOL     OW 8239   2.302   2.863   0.162
 2447SOL    HW1 8240   2.387   2.901   0.197
 2447SOL    HW2 8241   2.299   2.764   0.182
 2448SOL     OW 8242   0.255   0.821   4.257
 2448SOL    HW1 8243   0.337   0.841   4.310
 2448SOL    HW2 8244   0.235   0.898   4.196
 2449SOL     OW 8245   6.923   4.537   0.147
 2449SOL    HW1 8246   6.891   4.595   0.073
 2449SOL    HW2 8247   6.918   4.441   0.119
 2450SOL     OW 8248   2.152   4.504   2.639
 2450SOL    HW1 8249   2.125   4.408   2.642
 2450SOL    HW2 8250   2.114   4.548   2.558
 2451SOL     OW 8251   1.570   0.258   4.157
 2451SOL    HW1 8252   1.667   0.236   4.150
 2451SOL    HW2 8253   1.557   0.356   4.141
 2452SOL     OW 8254   1.626   3.622   3.209
 2452SOL    HW1 8255   1.626   3.527   3.238
 2452SOL    HW2 8256   1.631   3.682   3.289
 2453SOL     OW 8257   6.481   4.740   1.037
 2453SOL    HW1 8258   6.519   4.710   0.949
 2453SOL    HW2 8259   6.460   4.660   1.093
 2454SOL     OW 8260   3.957   0.973   1.871
 2454SOL    HW1 8261   3.962   0.932   1.962
 2454SOL    HW2 8262   4.028   1.043   1.861
 2455SOL     OW 8263   4.982   5.731   0.682
 2455SOL    HW1 8264   5.080   5.736   0.663
 2455SOL    HW2 8265   4.932   5.783   0.613
 2456SOL     OW 8266   5.001   6.644   2.138
 2456SOL    HW1 8267   4.910   6.682   2.152
 2456SOL    HW2 8268   5.028   6.590   2.217
 2457SOL     OW 8269   5.256   6.377   0.304
 2457SOL    HW1 8270   5.172   6.348   0.349
 2457SOL    HW2 8271   5.332   6.372   0.370
 2458SOL     OW 8272   2.250   5.313   3.304
 2458SOL    HW1 8273   2.183   5.294   3.233
 2458SOL    HW2 8274   2.268   5.229   3.356
 2459SOL     OW 8275   1.563   6.883   0.754
 2459SOL    HW1 8276   1.624   6.847   0.825
 2459SOL    HW2 8277   1.520   6.807   0.705
 2460SOL     OW 8278   2.331   6.593   2.404
 2460SOL    HW1 8279   2.397   6.535   2.452
 2460SOL    HW2 8280   2.238   6.565   2.429
 2461SOL     OW 8281   5.717   0.590   2.394
 2461SOL    HW1 8282   5.792   0.589   2.327
 2461SOL    HW2 8283   5.635   0.629   2.351
 2462SOL     OW 8284   1.951   5.209   0.486
 2462SOL    HW1 8285   2.019   5.281   0.492
 2462SOL    HW2 8286   1.990   5.128   0.441
 2463SOL     OW 8287   0.211   1.791   3.868
 2463SOL    HW1 8288   0.149   1.729   3.819
 2463SOL    HW2 8289   0.274   1.833   3.803
 2464SOL     OW 8290   0.576   4.309   0.619
 2464SOL    HW1 8291   0.633   4.264   0.550
 2464SOL    HW2 8292   0.608   4.285   0.711
 2465SOL     OW 8293   0.006   5.784   1.663
 2465SOL    HW1 8294   0.061   5.807   1.743
 2465SOL    HW2 8295   6.962   5.709   1.686
 2466SOL     OW 8296   4.411   1.519   2.959
 2466SOL    HW1 8297   4.353   1.467   3.022
 2466SOL    HW2 8298   4.404   1.616   2.980
 2467SOL     OW 8299   6.553   1.096   5.827
 2467SOL    HW1 8300   6.609   1.117   5.907
 2467SOL    HW2 8301   6.604   1.115   5.744
 2468SOL     OW 8302   6.967   6.180   2.196
 2468SOL    HW1 8303   7.007   6.089   2.199
 2468SOL    HW2 8304   6.900   6.185   2.122
 2469SOL     OW 8305   3.094   3.999   5.664
 2469SOL    HW1 8306   3.019   3.969   5.722
 2469SOL    HW2 8307   3.068   3.988   5.568
 2470SOL     OW 8308   2.692   3.644   5.690
 2470SOL    HW1 8309   2.759   3.688   5.750
 2470SOL    HW2 8310   2.604   3.640   5.736
 2471SOL     OW 8311   0.997   6.388   2.174
 2471SOL    HW1 8312   0.991   6.484   2.149
 2471SOL    HW2 8313   0.906   6.353   2.195
 2472SOL     OW 8314   5.338   2.233   4.095
 2472SOL    HW1 8315   5.428   2.193   4.076
 2472SOL    HW2 8316   5.316   2.221   4.191
 2473SOL     OW 8317   1.139   5.517   4.604
 2473SOL    HW1 8318   1.212   5.576   4.639
 2473SOL    HW2 8319   1.136   5.523   4.505
 2474SOL     OW 8320   0.027   5.389   5.203
 2474SOL    HW1 8321   6.958   5.385   5.250
 2474SOL    HW2 8322   0.016   5.439   5.117
 2475SOL     OW 8323   4.502   2.458   0.367
 2475SOL    HW1 8324   4.491   2.360   0.352
 2475SOL    HW2 8325   4.519   2.504   0.280
 2476SOL     OW 8326   1.129   1.403   4.005
 2476SOL    HW1 8327   1.115   1.451   3.919
 2476SOL    HW2 8328   1.130   1.468   4.081
 2477SOL     OW 8329   5.665   6.217   1.203
 2477SOL    HW1 8330   5.641   6.184   1.111
 2477SOL    HW2 8331   5.754   6.264   1.198
 2478SOL     OW 8332   6.466   6.762   2.713
 2478SOL    HW1 8333   6.509   6.737   2.626
 2478SOL    HW2 8334   6.409   6.843   2.699
 2479SOL     OW 8335   0.161   2.496   1.259
 2479SOL    HW1 8336   0.116   2.545   1.184
 2479SOL    HW2 8337   0.189   2.406   1.226
 2480SOL     OW 8338   6.687   3.501   1.506
 2480SOL    HW1 8339   6.730   3.581   1.548
 2480SOL    HW2 8340   6.614   3.532   1.444
 2481SOL     OW 8341   4.181   5.571   1.555
 2481SOL    HW1 8342   4.239   5.543   1.631
 2481SOL    HW2 8343   4.204   5.664   1.528
 2482SOL     OW 8344   4.945   3.422   5.548
 2482SOL    HW1 8345   4.959   3.519   5.566
 2482SOL    HW2 8346   4.872   3.411   5.480
 2483SOL     OW 8347   1.017   1.274   0.257
 2483SOL    HW1 8348   1.059   1.185   0.278
 2483SOL    HW2 8349   0.999   1.322   0.343
 2484SOL     OW 8350   2.617   1.070   0.559
 2484SOL    HW1 8351   2.589   1.121   0.478
 2484SOL    HW2 8352   2.642   0.977   0.532
 2485SOL     OW 8353   0.302   5.073   2.315
 2485SOL    HW1 8354   0.208   5.106   2.301
 2485SOL    HW2 8355   0.327   5.081   2.411
 2486SOL     OW 8356   1.834   5.416   3.087
 2486SOL    HW1 8357   1.894   5.484   3.045
 2486SOL    HW2 8358   1.747   5.459   3.112
 2487SOL     OW 8359   3.723   6.958   0.530
 2487SOL    HW1 8360   3.630   6.990   0.545
 2487SOL    HW2 8361   3.784   0.018   0.520
 2488SOL     OW 8362   2.681   4.463   1.196
 2488SOL    HW1 8363   2.639   4.455   1.286
 2488SOL    HW2 8364   2.754   4.396   1.187
 2489SOL     OW 8365   1.567   5.225   5.532
 2489SOL    HW1 8366   1.487   5.165   5.531
 2489SOL    HW2 8367   1.649   5.170   5.522
 2490SOL     OW 8368   6.510   3.708   0.952
 2490SOL    HW1 8369   6.414   3.733   0.966
 2490SOL    HW2 8370   6.543   3.750   0.868
 2491SOL     OW 8371   2.679   5.029   3.370
 2491SOL    HW1 8372   2.624   5.111   3.386
 2491SOL    HW2 8373   2.705   5.025   3.273
 2492SOL     OW 8374   4.615   3.072   6.372
 2492SOL    HW1 8375   4.641   3.165   6.398
 2492SOL    HW2 8376   4.622   3.012   6.451
 2493SOL     OW 8377   5.854   1.617   3.126
 2493SOL    HW1 8378   5.832   1.651   3.217
 2493SOL    HW2 8379   5.855   1.693   3.061
 2494SOL     OW 8380   4.867   2.665   2.259
 2494SOL    HW1 8381   4.818   2.689   2.175
 2494SOL    HW2 8382   4.874   2.565   2.266
 2495SOL     OW 8383   5.239   1.195   5.158
 2495SOL    HW1 8384   5.153   1.207   5.208
 2495SOL    HW2 8385   5.253   1.097   5.139
 2496SOL     OW 8386   0.956   5.491   0.073
 2496SOL    HW1 8387   0.931   5.395   0.057
 2496SOL    HW2 8388   0.930   5.546   7.012
 2497SOL     OW 8389   6.690   1.643   0.029
 2497SOL    HW1 8390   6.768   1.600   0.073
 2497SOL    HW2 8391   6.635   1.691   0.098
 2498SOL     OW 8392   1.929   2.741   3.952
 2498SOL    HW1 8393   1.945   2.715   4.048
 2498SOL    HW2 8394   1.850   2.691   3.917
 2499SOL     OW 8395   4.991   0.784   4.580
 2499SOL    HW1 8396   4.943   0.873   4.581
 2499SOL    HW2 8397   5.089   0.800   4.573
 2500SOL     OW 8398   4.568   3.168   6.108
 2500SOL    HW1 8399   4.586   3.105   6.183
 2500SOL    HW2 8400   4.654   3.208   6.077
 2501SOL     OW 8401   6.155   4.725   0.226
 2501SOL    HW1 8402   6.136   4.640   0.177
 2501SOL    HW2 8403   6.215   4.783   0.171
 2502SOL     OW 8404   1.728   6.880   2.801
 2502SOL    HW1 8405   1.674   6.850   2.880
 2502SOL    HW2 8406   1.726   6.980   2.796
 2503SOL     OW 8407   3.811   5.260   6.047
 2503SOL    HW1 8408   3.850   5.257   5.955
 2503SOL    HW2 8409   3.712   5.275   6.040
 2504SOL     OW 8410   1.905   4.781   4.813
 2504SOL    HW1 8411   2.001   4.792   4.786
 2504SOL    HW2 8412   1.848   4.843   4.760
 2505SOL     OW 8413   4.529   5.522   4.353
 2505SOL    HW1 8414   4.490   5.607   4.389
 2505SOL    HW2 8415   4.602   5.544   4.288
 2506SOL     OW 8416   6.259   2.808   6.235
 2506SOL    HW1 8417   6.301   2.824   6.324
 2506SOL    HW2 8418   6.328   2.772   6.172
 2507SOL     OW 8419   6.306   5.990   0.606
 2507SOL    HW1 8420   6.348   6.045   0.534
 2507SOL    HW2 8421   6.206   5.999   0.601
 2508SOL     OW 8422   2.474   2.115   2.045
 2508SOL    HW1 8423   2.557   2.148   2.000
 2508SOL    HW2 8424   2.440   2.034   1.997
 2509SOL     OW 8425   5.576   2.486   3.426
 2509SOL    HW1 8426   5.638   2.422   3.471
 2509SOL    HW2 8427   5.494   2.498   3.482
 2510SOL     OW 8428   3.123   5.305   0.267
 2510SOL    HW1 8429   3.180   5.323   0.348
 2510SOL    HW2 8430   3.098   5.208   0.266
 2511SOL     OW 8431   0.934   0.625   5.442
 2511SOL    HW1 8432   0.943   0.625   5.342
 2511SOL    HW2 8433   1.008   0.572   5.483
 2512SOL     OW 8434   4.827   4.058   4.873
 2512SOL    HW1 8435   4.768   4.131   4.837
 2512SOL    HW2 8436   4.913   4.098   4.905
 2513SOL     OW 8437   0.903   2.553   6.451
 2513SOL    HW1 8438   0.849   2.614   6.393
 2513SOL    HW2 8439   0.843   2.513   6.520
 2514SOL     OW 8440   1.358   0.829   4.429
 2514SOL    HW1 8441   1.357   0.746   4.373
 2514SOL    HW2 8442   1.409   0.901   4.382
 2515SOL     OW 8443   1.016   5.715   0.703
 2515SOL    HW1 8444   1.086   5.770   0.749
 2515SOL    HW2 8445   1.057   5.666   0.626
 2516SOL     OW 8446   6.171   6.777   3.545
 2516SOL    HW1 8447   6.270   6.762   3.548
 2516SOL    HW2 8448   6.128   6.730   3.622
 2517SOL     OW 8449   2.403   4.712   0.329
 2517SOL    HW1 8450   2.441   4.804   0.327
 2517SOL    HW2 8451   2.470   4.647   0.292
 2518SOL     OW 8452   2.316   3.210   6.649
 2518SOL    HW1 8453   2.274   3.299   6.632
 2518SOL    HW2 8454   2.316   3.157   6.564
 2519SOL     OW 8455   4.738   4.720   4.680
 2519SOL    HW1 8456   4.715   4.649   4.747
 2519SOL    HW2 8457   4.686   4.803   4.699
 2520SOL     OW 8458   2.142   3.435   1.103
 2520SOL    HW1 8459   2.213   3.399   1.163
 2520SOL    HW2 8460   2.136   3.378   1.021
 2521SOL     OW 8461   6.463   0.274   5.472
 2521SOL    HW1 8462   6.413   0.207   5.527
 2521SOL    HW2 8463   6.430   0.272   5.378
 2522SOL     OW 8464   1.422   3.257   4.617
 2522SOL    HW1 8465   1.440   3.338   4.672
 2522SOL    HW2 8466   1.428   3.175   4.674
 2523SOL     OW 8467   6.980   4.014   0.636
 2523SOL    HW1 8468   6.974   4.009   0.735
 2523SOL    HW2 8469   0.020   3.939   0.602
 2524SOL     OW 8470   1.394   6.586   3.748
 2524SOL    HW1 8471   1.439   6.510   3.794
 2524SOL    HW2 8472   1.400   6.574   3.649
 2525SOL     OW 8473   1.080   3.780   3.746
 2525SOL    HW1 8474   1.128   3.850   3.694
 2525SOL    HW2 8475   1.029   3.822   3.821
 2526SOL     OW 8476   7.008   1.618   4.299
 2526SOL    HW1 8477   0.074   1.672   4.302
 2526SOL    HW2 8478   6.942   1.664   4.240
 2527SOL     OW 8479   5.589   6.133   4.502
 2527SOL    HW1 8480   5.661   6.073   4.466
 2527SOL    HW2 8481   5.604   6.226   4.468
 2528SOL     OW 8482   6.197   5.626   0.694
 2528SOL    HW1 8483   6.241   5.658   0.610
 2528SOL    HW2 8484   6.250   5.656   0.773
 2529SOL     OW 8485   5.222   4.900   4.753
 2529SOL    HW1 8486   5.232   4.934   4.660
 2529SOL    HW2 8487   5.140   4.843   4.759
 2530SOL     OW 8488   1.054   0.173   3.272
 2530SOL    HW1 8489   0.986   0.242   3.247
 2530SOL    HW2 8490   1.081   0.122   3.191
 2531SOL     OW 8491   4.277   0.955   5.682
 2531SOL    HW1 8492   4.301   1.044   5.643
 2531SOL    HW2 8493   4.274   0.886   5.610
 2532SOL     OW 8494   1.284   5.201   6.752
 2532SOL    HW1 8495   1.275   5.202   6.852
 2532SOL    HW2 8496   1.246   5.115   6.716
 2533SOL     OW 8497   5.820   6.657   5.521
 2533SOL    HW1 8498   5.771   6.570   5.532
 2533SOL    HW2 8499   5.831   6.700   5.611
 2534SOL     OW 8500   1.839   0.568   4.057
 2534SOL    HW1 8501   1.930   0.609   4.048
 2534SOL    HW2 8502   1.780   0.599   3.983
 2535SOL     OW 8503   1.662   0.959   3.916
 2535SOL    HW1 8504   1.664   1.039   3.856
 2535SOL    HW2 8505   1.673   0.988   4.011
 2536SOL     OW 8506   5.862   1.630   4.565
 2536SOL    HW1 8507   5.916   1.565   4.618
 2536SOL    HW2 8508   5.916   1.712   4.547
 2537SOL     OW 8509   5.070   5.522   1.485
 2537SOL    HW1 8510   5.163   5.485   1.483
 2537SOL    HW2 8511   5.056   5.575   1.569
 2538SOL     OW 8512   1.939   4.879   4.402
 2538SOL    HW1 8513   1.912   4.790   4.366
 2538SOL    HW2 8514   2.039   4.883   4.410
 2539SOL     OW 8515   4.234   0.499   5.316
 2539SOL    HW1 8516   4.158   0.437   5.334
 2539SOL    HW2 8517   4.211   0.560   5.239
 2540SOL     OW 8518   5.563   1.321   1.896
 2540SOL    HW1 8519   5.582   1.243   1.956
 2540SOL    HW2 8520   5.471   1.355   1.914
 2541SOL     OW 8521   1.500   6.523   5.876
 2541SOL    HW1 8522   1.535   6.521   5.969
 2541SOL    HW2 8523   1.449   6.608   5.862
 2542SOL     OW 8524   3.442   1.698   4.484
 2542SOL    HW1 8525   3.388   1.780   4.466
 2542SOL    HW2 8526   3.388   1.635   4.540
 2543SOL     OW 8527   0.719   1.461   2.756
 2543SOL    HW1 8528   0.642   1.398   2.749
 2543SOL    HW2 8529   0.766   1.446   2.843
 2544SOL     OW 8530   6.362   4.950   0.875
 2544SOL    HW1 8531   6.401   4.897   0.951
 2544SOL    HW2 8532   6.432   4.963   0.805
 2545SOL     OW 8533   0.625   1.735   1.601
 2545SOL    HW1 8534   0.606   1.642   1.633
 2545SOL    HW2 8535   0.602   1.741   1.504
 2546SOL     OW 8536   6.597   3.768   2.087
 2546SOL    HW1 8537   6.512   3.801   2.128
 2546SOL    HW2 8538   6.675   3.817   2.127
 2547SOL     OW 8539   5.526   4.139   0.843
 2547SOL    HW1 8540   5.585   4.089   0.906
 2547SOL    HW2 8541   5.577   4.215   0.802
 2548SOL     OW 8542   0.277   6.904   5.443
 2548SOL    HW1 8543   0.311   6.835   5.378
 2548SOL    HW2 8544   0.177   6.909   5.436
 2549SOL     OW 8545   2.174   1.803   1.230
 2549SOL    HW1 8546   2.233   1.851   1.165
 2549SOL    HW2 8547   2.183   1.705   1.216
 2550SOL     OW 8548   4.647   0.188   6.437
 2550SOL    HW1 8549   4.706   0.154   6.364
 2550SOL    HW2 8550   4.556   0.205   6.401
 2551SOL     OW 8551   2.869   5.082   6.680
 2551SOL    HW1 8552   2.796   5.111   6.617
 2551SOL    HW2 8553   2.829   5.032   6.757
 2552SOL     OW 8554   2.006   6.148   0.332
 2552SOL    HW1 8555   2.038   6.059   0.364
 2552SOL    HW2 8556   2.036   6.219   0.396
 2553SOL     OW 8557   4.241   1.862   6.611
 2553SOL    HW1 8558   4.166   1.864   6.678
 2553SOL    HW2 8559   4.317   1.917   6.645
 2554SOL     OW 8560   1.982   5.994   1.308
 2554SOL    HW1 8561   1.985   5.914   1.249
 2554SOL    HW2 8562   2.022   5.971   1.397
 2555SOL     OW 8563   6.027   5.924   5.573
 2555SOL    HW1 8564   5.931   5.900   5.583
 2555SOL    HW2 8565   6.052   5.924   5.476
 2556SOL     OW 8566   3.271   0.173   1.841
 2556SOL    HW1 8567   3.280   0.242   1.769
 2556SOL    HW2 8568   3.177   0.173   1.875
 2557SOL     OW 8569   3.476   0.680   0.740
 2557SOL    HW1 8570   3.555   0.731   0.775
 2557SOL    HW2 8571   3.392   0.721   0.775
 2558SOL     OW 8572   5.649   4.549   6.827
 2558SOL    HW1 8573   5.619   4.454   6.820
 2558SOL    HW2 8574   5.639   4.582   6.921
 2559SOL     OW 8575   0.862   3.516   3.894
 2559SOL    HW1 8576   0.867   3.454   3.972
 2559SOL    HW2 8577   0.860   3.611   3.927
 2560SOL     OW 8578   5.013   2.673   3.044
 2560SOL    HW1 8579   5.039   2.692   2.949
 2560SOL    HW2 8580   4.929   2.722   3.066
 2561SOL     OW 8581   3.281   0.538   4.184
 2561SOL    HW1 8582   3.217   0.552   4.109
 2561SOL    HW2 8583   3.234   0.494   4.260
 2562SOL     OW 8584   3.083   6.457   3.582
 2562SOL    HW1 8585   2.990   6.490   3.567
 2562SOL    HW2 8586   3.128   6.516   3.650
 2563SOL     OW 8587   2.935   1.415   0.104
 2563SOL    HW1 8588   2.953   1.328   0.151
 2563SOL    HW2 8589   3.022   1.457   0.078
 2564SOL     OW 8590   1.506   1.190   0.824
 2564SOL    HW1 8591   1.472   1.107   0.780
 2564SOL    HW2 8592   1.561   1.242   0.760
 2565SOL     OW 8593   1.049   1.836   6.639
 2565SOL    HW1 8594   1.102   1.752   6.625
 2565SOL    HW2 8595   1.112   1.913   6.647
 2566SOL     OW 8596   2.937   0.888   1.498
 2566SOL    HW1 8597   2.864   0.936   1.450
 2566SOL    HW2 8598   3.009   0.952   1.522
 2567SOL     OW 8599   1.595   6.925   6.762
 2567SOL    HW1 8600   1.530   6.981   6.815
 2567SOL    HW2 8601   1.640   6.983   6.694
 2568SOL     OW 8602   2.873   5.953   1.259
 2568SOL    HW1 8603   2.823   5.997   1.185
 2568SOL    HW2 8604   2.817   5.879   1.297
 2569SOL     OW 8605   1.662   1.340   1.293
 2569SOL    HW1 8606   1.642   1.423   1.240
 2569SOL    HW2 8607   1.596   1.332   1.368
 2570SOL     OW 8608   5.008   5.874   0.107
 2570SOL    HW1 8609   5.097   5.843   0.073
 2570SOL    HW2 8610   5.021   5.921   0.195
 2571SOL     OW 8611   4.055   3.258   4.359
 2571SOL    HW1 8612   4.079   3.327   4.292
 2571SOL    HW2 8613   4.038   3.301   4.448
 2572SOL     OW 8614   2.278   5.698   1.598
 2572SOL    HW1 8615   2.291   5.601   1.623
 2572SOL    HW2 8616   2.359   5.750   1.626
 2573SOL     OW 8617   6.846   1.980   4.029
 2573SOL    HW1 8618   6.825   2.024   3.942
 2573SOL    HW2 8619   6.940   2.004   4.056
 2574SOL     OW 8620   6.792   3.888   1.383
 2574SOL    HW1 8621   6.865   3.877   1.315
 2574SOL    HW2 8622   6.802   3.818   1.454
 2575SOL     OW 8623   5.720   3.996   0.501
 2575SOL    HW1 8624   5.620   3.991   0.495
 2575SOL    HW2 8625   5.758   3.904   0.497
 2576SOL     OW 8626   2.100   6.882   2.975
 2576SOL    HW1 8627   2.074   6.841   2.888
 2576SOL    HW2 8628   2.041   6.960   2.995
 2577SOL     OW 8629   3.179   6.704   3.446
 2577SOL    HW1 8630   3.187   6.663   3.355
 2577SOL    HW2 8631   3.214   6.641   3.515
 2578SOL     OW 8632   4.459   2.492   4.519
 2578SOL    HW1 8633   4.389   2.538   4.574
 2578SOL    HW2 8634   4.415   2.448   4.440
 2579SOL     OW 8635   0.360   2.209   6.837
 2579SOL    HW1 8636   0.293   2.275   6.871
 2579SOL    HW2 8637   0.350   2.123   6.886
 2580SOL     OW 8638   1.980   2.333   6.495
 2580SOL    HW1 8639   1.892   2.363   6.459
 2580SOL    HW2 8640   2.040   2.412   6.508
 2581SOL     OW 8641   5.490   5.570   2.027
 2581SOL    HW1 8642   5.484   5.669   2.029
 2581SOL    HW2 8643   5.543   5.538   2.106
 2582SOL     OW 8644   0.818   5.309   2.534
 2582SOL    HW1 8645   0.719   5.324   2.535
 2582SOL    HW2 8646   0.854   5.319   2.626
 2583SOL     OW 8647   0.950   6.983   0.666
 2583SOL    HW1 8648   0.924   6.890   0.693
 2583SOL    HW2 8649   0.999   6.979   0.579
 2584SOL     OW 8650   3.240   6.269   1.191
 2584SOL    HW1 8651   3.185   6.285   1.109
 2584SOL    HW2 8652   3.248   6.171   1.208
 2585SOL     OW 8653   3.189   0.015   0.738
 2585SOL    HW1 8654   3.213   0.076   0.814
 2585SOL    HW2 8655   3.094   7.004   0.748
 2586SOL     OW 8656   6.153   1.571   4.506
 2586SOL    HW1 8657   6.156   1.528   4.415
 2586SOL    HW2 8658   6.141   1.670   4.495
 2587SOL     OW 8659   5.953   6.801   4.569
 2587SOL    HW1 8660   5.873   6.816   4.628
 2587SOL    HW2 8661   5.973   6.703   4.564
 2588SOL     OW 8662   5.813   0.685   1.981
 2588SOL    HW1 8663   5.904   0.670   2.018
 2588SOL    HW2 8664   5.752   0.720   2.052
 2589SOL     OW 8665   6.396   6.998   5.584
 2589SOL    HW1 8666   6.401   6.984   5.485
 2589SOL    HW2 8667   6.404   6.910   5.631
 2590SOL     OW 8668   4.072   6.787   2.711
 2590SOL    HW1 8669   4.084   6.698   2.756
 2590SOL    HW2 8670   4.129   6.790   2.629
 2591SOL     OW 8671   5.187   6.089   1.537
 2591SOL    HW1 8672   5.144   6.154   1.475
 2591SOL    HW2 8673   5.149   5.998   1.522
 2592SOL     OW 8674   3.116   5.436   1.087
 2592SOL    HW1 8675   3.103   5.534   1.105
 2592SOL    HW2 8676   3.180   5.424   1.012
 2593SOL     OW 8677   3.618   6.254   3.065
 2593SOL    HW1 8678   3.548   6.201   3.017
 2593SOL    HW2 8679   3.648   6.330   3.007
 2594SOL     OW 8680   0.075   0.219   6.601
 2594SOL    HW1 8681   0.160   0.213   6.654
 2594SOL    HW2 8682   7.017   0.242   6.661
 2595SOL     OW 8683   6.873   3.354   4.656
 2595SOL    HW1 8684   6.868   3.378   4.752
 2595SOL    HW2 8685   6.838   3.430   4.601
 2596SOL     OW 8686   4.283   2.198   2.409
 2596SOL    HW1 8687   4.244   2.272   2.465
 2596SOL    HW2 8688   4.242   2.111   2.436
 2597SOL     OW 8689   2.798   3.264   1.431
 2597SOL    HW1 8690   2.854   3.183   1.447
 2597SOL    HW2 8691   2.804   3.324   1.511
 2598SOL     OW 8692   0.032   2.602   3.662
 2598SOL    HW1 8693   0.001   2.659   3.585
 2598SOL    HW2 8694   0.120   2.637   3.695
 2599SOL     OW 8695   4.239   5.782   6.738
 2599SOL    HW1 8696   4.177   5.854   6.771
 2599SOL    HW2 8697   4.318   5.823   6.694
 2600SOL     OW 8698   5.900   3.943   4.046
 2600SOL    HW1 8699   5.973   3.891   4.089
 2600SOL    HW2 8700   5.830   3.965   4.114
 2601SOL     OW 8701   3.625   3.206   6.048
 2601SOL    HW1 8702   3.626   3.292   6.099
 2601SOL    HW2 8703   3.536   3.161   6.058
 2602SOL     OW 8704   7.009   4.767   4.582
 2602SOL    HW1 8705   0.064   4.836   4.580
 2602SOL    HW2 8706   6.953   4.776   4.499
 2603SOL     OW 8707   2.234   2.335   1.251
 2603SOL    HW1 8708   2.286   2.253   1.272
 2603SOL    HW2 8709   2.138   2.310   1.234
 2604SOL     OW 8710   5.034   0.456   0.944
 2604SOL    HW1 8711   4.994   0.364   0.948
 2604SOL    HW2 8712   5.131   0.448   0.923
 2605SOL     OW 8713   4.109   4.885   3.805
 2605SOL    HW1 8714   4.108   4.826   3.885
 2605SOL    HW2 8715   4.203   4.901   3.776
 2606SOL     OW 8716   6.009   4.132   1.191
 2606SOL    HW1 8717   5.924   4.133   1.244
 2606SOL    HW2 8718   6.037   4.038   1.173
 2607SOL     OW 8719   1.243   0.964   3.140
 2607SOL    HW1 8720   1.198   0.995   3.224
 2607SOL    HW2 8721   1.259   0.865   3.145
 2608SOL     OW 8722   5.569   0.305   2.003
 2608SOL    HW1 8723   5.612   0.264   2.084
 2608SOL    HW2 8724   5.551   0.234   1.935
 2609SOL     OW 8725   0.655   1.832   2.778
 2609SOL    HW1 8726   0.656   1.885   2.694
 2609SOL    HW2 8727   0.728   1.764   2.776
 2610SOL     OW 8728   6.469   5.703   4.828
 2610SOL    HW1 8729   6.518   5.662   4.751
 2610SOL    HW2 8730   6.475   5.803   4.822
 2611SOL     OW 8731   5.135   6.638   0.816
 2611SOL    HW1 8732   5.035   6.643   0.815
 2611SOL    HW2 8733   5.173   6.724   0.782
 2612SOL     OW 8734   5.017   6.477   4.093
 2612SOL    HW1 8735   5.045   6.546   4.159
 2612SOL    HW2 8736   5.056   6.499   4.003
 2613SOL     OW 8737   3.406   6.856   2.425
 2613SOL    HW1 8738   3.450   6.772   2.392
 2613SOL    HW2 8739   3.443   6.880   2.515
 2614SOL     OW 8740   6.437   6.747   5.686
 2614SOL    HW1 8741   6.407   6.655   5.659
 2614SOL    HW2 8742   6.426   6.758   5.784
 2615SOL     OW 8743   5.196   5.698   3.095
 2615SOL    HW1 8744   5.216   5.796   3.096
 2615SOL    HW2 8745   5.260   5.650   3.155
 2616SOL     OW 8746   4.074   3.174   2.910
 2616SOL    HW1 8747   4.082   3.240   2.985
 2616SOL    HW2 8748   3.978   3.167   2.883
 2617SOL     OW 8749   3.937   5.343   0.964
 2617SOL    HW1 8750   3.906   5.394   0.883
 2617SOL    HW2 8751   3.948   5.247   0.940
 2618SOL     OW 8752   0.272   0.257   1.723
 2618SOL    HW1 8753   0.213   0.180   1.696
 2618SOL    HW2 8754   0.308   0.301   1.640
 2619SOL     OW 8755   4.657   1.775   2.130
 2619SOL    HW1 8756   4.728   1.824   2.181
 2619SOL    HW2 8757   4.576   1.833   2.122
 2620SOL     OW 8758   1.062   4.913   3.239
 2620SOL    HW1 8759   0.966   4.904   3.214
 2620SOL    HW2 8760   1.102   4.822   3.253
 2621SOL     OW 8761   0.375   5.290   4.103
 2621SOL    HW1 8762   0.416   5.215   4.155
 2621SOL    HW2 8763   0.315   5.344   4.163
 2622SOL     OW 8764   2.114   3.038   6.146
 2622SOL    HW1 8765   2.199   3.072   6.105
 2622SOL    HW2 8766   2.082   3.103   6.215
 2623SOL     OW 8767   3.569   1.378   4.234
 2623SOL    HW1 8768   3.483   1.429   4.231
 2623SOL    HW2 8769   3.623   1.408   4.312
 2624SOL     OW 8770   5.841   2.914   3.241
 2624SOL    HW1 8771   5.752   2.877   3.270
 2624SOL    HW2 8772   5.828   2.976   3.164
 2625SOL     OW 8773   2.380   2.878   5.614
 2625SOL    HW1 8774   2.299   2.854   5.667
 2625SOL    HW2 8775   2.360   2.959   5.558
 2626SOL     OW 8776   1.532   6.368   3.859
 2626SOL    HW1 8777   1.503   6.292   3.801
 2626SOL    HW2 8778   1.518   6.343   3.955
 2627SOL     OW 8779   0.373   0.682   4.778
 2627SOL    HW1 8780   0.427   0.603   4.810
 2627SOL    HW2 8781   0.350   0.669   4.681
 2628SOL     OW 8782   3.757   6.458   6.315
 2628SOL    HW1 8783   3.753   6.515   6.233
 2628SOL    HW2 8784   3.680   6.480   6.375
 2629SOL     OW 8785   3.815   4.289   1.708
 2629SOL    HW1 8786   3.736   4.229   1.721
 2629SOL    HW2 8787   3.840   4.290   1.611
 2630SOL     OW 8788   3.678   1.509   2.279
 2630SOL    HW1 8789   3.733   1.459   2.212
 2630SOL    HW2 8790   3.587   1.525   2.243
 2631SOL     OW 8791   4.743   6.910   4.591
 2631SOL    HW1 8792   4.665   6.858   4.625
 2631SOL    HW2 8793   4.814   6.846   4.559
 2632SOL     OW 8794   3.330   2.099   6.924
 2632SOL    HW1 8795   3.243   2.147   6.929
 2632SOL    HW2 8796   3.379   2.109   7.011
 2633SOL     OW 8797   6.021   2.320   6.747
 2633SOL    HW1 8798   5.936   2.347   6.703
 2633SOL    HW2 8799   6.018   2.222   6.768
 2634SOL     OW 8800   2.011   4.323   2.253
 2634SOL    HW1 8801   2.085   4.292   2.312
 2634SOL    HW2 8802   1.923   4.314   2.300
 2635SOL     OW 8803   5.783   5.943   4.467
 2635SOL    HW1 8804   5.783   5.902   4.558
 2635SOL    HW2 8805   5.877   5.945   4.431
 2636SOL     OW 8806   5.820   6.982   5.943
 2636SOL    HW1 8807   5.757   0.041   5.948
 2636SOL    HW2 8808   5.821   6.934   6.032
 2637SOL     OW 8809   5.666   0.160   3.385
 2637SOL    HW1 8810   5.765   0.163   3.375
 2637SOL    HW2 8811   5.630   0.253   3.394
 2638SOL     OW 8812   5.102   6.299   1.371
 2638SOL    HW1 8813   5.184   6.340   1.412
 2638SOL    HW2 8814   5.021   6.334   1.417
 2639SOL     OW 8815   6.090   6.583   2.071
 2639SOL    HW1 8816   6.101   6.522   1.993
 2639SOL    HW2 8817   5.993   6.588   2.096
 2640SOL     OW 8818   0.418   6.481   4.976
 2640SOL    HW1 8819   0.363   6.398   4.979
 2640SOL    HW2 8820   0.406   6.527   4.888
 2641SOL     OW 8821   5.297   3.847   6.961
 2641SOL    HW1 8822   5.316   3.802   6.874
 2641SOL    HW2 8823   5.222   3.799   7.007
 2642SOL     OW 8824   5.209   0.246   4.286
 2642SOL    HW1 8825   5.181   0.264   4.380
 2642SOL    HW2 8826   5.239   0.151   4.277
 2643SOL     OW 8827   6.828   6.097   2.889
 2643SOL    HW1 8828   6.841   6.085   2.791
 2643SOL    HW2 8829   6.834   6.195   2.912
 2644SOL     OW 8830   1.358   5.041   5.553
 2644SOL    HW1 8831   1.294   4.991   5.495
 2644SOL    HW2 8832   1.375   4.988   5.637
 2645SOL     OW 8833   5.121   6.731   5.992
 2645SOL    HW1 8834   5.215   6.763   6.003
 2645SOL    HW2 8835   5.121   6.650   5.933
 2646SOL     OW 8836   6.516   0.469   6.152
 2646SOL    HW1 8837   6.428   0.517   6.158
 2646SOL    HW2 8838   6.590   0.536   6.146
 2647SOL     OW 8839   4.798   0.985   0.743
 2647SOL    HW1 8840   4.885   0.940   0.720
 2647SOL    HW2 8841   4.785   0.984   0.842
 2648SOL     OW 8842   6.745   6.980   2.319
 2648SOL    HW1 8843   6.684   0.036   2.346
 2648SOL    HW2 8844   6.692   6.907   2.274
 2649SOL     OW 8845   3.569   1.261   6.008
 2649SOL    HW1 8846   3.524   1.256   5.918
 2649SOL    HW2 8847   3.531   1.337   6.060
 2650SOL     OW 8848   0.500   4.686   3.396
 2650SOL    HW1 8849   0.510   4.617   3.325
 2650SOL    HW2 8850   0.470   4.642   3.481
 2651SOL     OW 8851   0.684   1.446   1.333
 2651SOL    HW1 8852   0.696   1.450   1.234
 2651SOL    HW2 8853   0.757   1.391   1.374
 2652SOL     OW 8854   3.353   3.149   3.498
 2652SOL    HW1 8855   3.334   3.081   3.428
 2652SOL    HW2 8856   3.357   3.240   3.456
 2653SOL     OW 8857   5.675   0.020   6.228
 2653SOL    HW1 8858   5.760   0.002   6.277
 2653SOL    HW2 8859   5.599   6.991   6.272
 2654SOL     OW 8860   5.334   3.104   6.115
 2654SOL    HW1 8861   5.262   3.101   6.185
 2654SOL    HW2 8862   5.293   3.089   6.025
 2655SOL     OW 8863   4.181   6.007   4.443
 2655SOL    HW1 8864   4.108   6.038   4.503
 2655SOL    HW2 8865   4.168   5.911   4.419
 2656SOL     OW 8866   5.210   4.623   3.961
 2656SOL    HW1 8867   5.231   4.713   3.922
 2656SOL    HW2 8868   5.113   4.604   3.950
 2657SOL     OW 8869   2.145   3.991   6.393
 2657SOL    HW1 8870   2.202   4.000   6.475
 2657SOL    HW2 8871   2.069   4.056   6.398
 2658SOL     OW 8872   6.248   4.636   6.203
 2658SOL    HW1 8873   6.343   4.644   6.170
 2658SOL    HW2 8874   6.225   4.717   6.257
 2659SOL     OW 8875   6.667   3.064   4.710
 2659SOL    HW1 8876   6.658   3.007   4.628
 2659SOL    HW2 8877   6.758   3.107   4.712
 2660SOL     OW 8878   6.799   2.430   2.372
 2660SOL    HW1 8879   6.848   2.479   2.300
 2660SOL    HW2 8880   6.789   2.334   2.346
 2661SOL     OW 8881   3.214   5.684   0.906
 2661SOL    HW1 8882   3.146   5.735   0.959
 2661SOL    HW2 8883   3.305   5.719   0.928
 2662SOL     OW 8884   4.892   6.612   4.788
 2662SOL    HW1 8885   4.939   6.689   4.831
 2662SOL    HW2 8886   4.824   6.575   4.852
 2663SOL     OW 8887   1.891   4.562   1.474
 2663SOL    HW1 8888   1.882   4.570   1.574
 2663SOL    HW2 8889   1.846   4.478   1.443
 2664SOL     OW 8890   3.710   4.066   3.146
 2664SOL    HW1 8891   3.690   4.098   3.239
 2664SOL    HW2 8892   3.797   4.015   3.146
 2665SOL     OW 8893   3.076   1.669   4.583
 2665SOL    HW1 8894   3.102   1.573   4.596
 2665SOL    HW2 8895   3.113   1.702   4.496
 2666SOL     OW 8896   5.042   4.854   0.806
 2666SOL    HW1 8897   5.037   4.889   0.900
 2666SOL    HW2 8898   5.047   4.754   0.808
 2667SOL     OW 8899   1.687   6.011   5.399
 2667SOL    HW1 8900   1.751   6.065   5.344
 2667SOL    HW2 8901   1.611   5.981   5.341
 2668SOL     OW 8902   6.871   3.624   4.249
 2668SOL    HW1 8903   6.829   3.683   4.181
 2668SOL    HW2 8904   6.883   3.532   4.212
 2669SOL     OW 8905   3.836   4.742   5.450
 2669SOL    HW1 8906   3.804   4.714   5.540
 2669SOL    HW2 8907   3.757   4.762   5.392
 2670SOL     OW 8908   6.978   0.664   6.593
 2670SOL    HW1 8909   6.956   0.615   6.678
 2670SOL    HW2 8910   0.056   0.650   6.571
 2671SOL     OW 8911   1.982   3.639   6.728
 2671SOL    HW1 8912   2.031   3.696   6.794
 2671SOL    HW2 8913   2.045   3.573   6.687
 2672SOL     OW 8914   2.011   5.277   0.076
 2672SOL    HW1 8915   2.066   5.253   7.015
 2672SOL    HW2 8916   2.064   5.263   0.160
 2673SOL     OW 8917   4.346   2.349   3.137
 2673SOL    HW1 8918   4.402   2.268   3.156
 2673SOL    HW2 8919   4.302   2.338   3.048
 2674SOL     OW 8920   1.385   4.922   4.295
 2674SOL    HW1 8921   1.304   4.980   4.301
 2674SOL    HW2 8922   1.358   4.826   4.298
 2675SOL     OW 8923   0.737   4.324   5.682
 2675SOL    HW1 8924   0.829   4.351   5.709
 2675SOL    HW2 8925   0.736   4.226   5.662
 2676SOL     OW 8926   5.421   1.860   2.681
 2676SOL    HW1 8927   5.454   1.892   2.769
 2676SOL    HW2 8928   5.384   1.768   2.691
 2677SOL     OW 8929   1.889   4.642   1.749
 2677SOL    HW1 8930   1.911   4.739   1.740
 2677SOL    HW2 8931   1.929   4.606   1.833
 2678SOL     OW 8932   1.165   4.966   6.660
 2678SOL    HW1 8933   1.177   4.880   6.709
 2678SOL    HW2 8934   1.156   4.948   6.562
 2679SOL     OW 8935   3.770   5.111   0.847
 2679SOL    HW1 8936   3.723   5.197   0.832
 2679SOL    HW2 8937   3.770   5.088   0.944
 2680SOL     OW 8938   2.207   1.536   0.301
 2680SOL    HW1 8939   2.111   1.511   0.292
 2680SOL    HW2 8940   2.239   1.577   0.216
 2681SOL     OW 8941   1.441   3.391   3.825
 2681SOL    HW1 8942   1.533   3.421   3.849
 2681SOL    HW2 8943   1.380   3.470   3.823
 2682SOL     OW 8944   5.636   2.861   2.173
 2682SOL    HW1 8945   5.645   2.765   2.197
 2682SOL    HW2 8946   5.727   2.901   2.160
 2683SOL     OW 8947   0.703   4.573   1.305
 2683SOL    HW1 8948   0.668   4.660   1.269
 2683SOL    HW2 8949   0.768   4.534   1.240
 2684SOL     OW 8950   4.318   6.625   2.591
 2684SOL    HW1 8951   4.271   6.578   2.516
 2684SOL    HW2 8952   4.331   6.561   2.667
 2685SOL     OW 8953   5.652   6.316   4.107
 2685SOL    HW1 8954   5.734   6.288   4.056
 2685SOL    HW2 8955   5.584   6.244   4.102
 2686SOL     OW 8956   1.858   2.385   4.434
 2686SOL    HW1 8957   1.941   2.391   4.378
 2686SOL    HW2 8958   1.820   2.477   4.447
 2687SOL     OW 8959   3.973   4.963   2.398
 2687SOL    HW1 8960   3.875   4.952   2.417
 2687SOL    HW2 8961   4.027   4.921   2.471
 2688SOL     OW 8962   4.113   5.601   5.902
 2688SOL    HW1 8963   4.021   5.582   5.869
 2688SOL    HW2 8964   4.127   5.557   5.990
 2689SOL     OW 8965   1.333   1.835   3.641
 2689SOL    HW1 8966   1.360   1.778   3.718
 2689SOL    HW2 8967   1.408   1.896   3.616
 2690SOL     OW 8968   4.039   3.323   3.935
 2690SOL    HW1 8969   4.102   3.364   4.001
 2690SOL    HW2 8970   4.028   3.226   3.955
 2691SOL     OW 8971   1.629   5.791   1.855
 2691SOL    HW1 8972   1.541   5.830   1.881
 2691SOL    HW2 8973   1.703   5.845   1.896
 2692SOL     OW 8974   6.712   5.297   4.029
 2692SOL    HW1 8975   6.624   5.323   3.990
 2692SOL    HW2 8976   6.784   5.356   3.992
 2693SOL     OW 8977   2.124   3.754   3.602
 2693SOL    HW1 8978   2.100   3.692   3.676
 2693SOL    HW2 8979   2.180   3.829   3.637
 2694SOL     OW 8980   2.927   0.291   2.850
 2694SOL    HW1 8981   2.830   0.312   2.846
 2694SOL    HW2 8982   2.970   0.318   2.763
 2695SOL     OW 8983   4.936   2.262   2.352
 2695SOL    HW1 8984   4.879   2.338   2.383
 2695SOL    HW2 8985   4.881   2.200   2.297
 2696SOL     OW 8986   3.920   3.705   5.510
 2696SOL    HW1 8987   3.983   3.781   5.523
 2696SOL    HW2 8988   3.843   3.713   5.573
 2697SOL     OW 8989   3.970   2.153   3.997
 2697SOL    HW1 8990   4.036   2.187   3.930
 2697SOL    HW2 8991   4.012   2.082   4.053
 2698SOL     OW 8992   1.227   4.606   0.916
 2698SOL    HW1 8993   1.299   4.630   0.850
 2698SOL    HW2 8994   1.238   4.660   0.999
 2699SOL     OW 8995   3.452   5.518   0.699
 2699SOL    HW1 8996   3.531   5.463   0.725
 2699SOL    HW2 8997   3.460   5.547   0.603
 2700SOL     OW 8998   2.014   3.273   3.017
 2700SOL    HW1 8999   2.006   3.178   2.988
 2700SOL    HW2 9000   2.049   3.277   3.110
 2701SOL     OW 9001   3.605   0.479   6.904
 2701SOL    HW1 9002   3.537   0.507   6.837
 2701SOL    HW2 9003   3.696   0.504   6.872
 2702SOL     OW 9004   6.821   1.922   3.552
 2702SOL    HW1 9005   6.725   1.935   3.576
 2702SOL    HW2 9006   6.853   2.000   3.497
 2703SOL     OW 9007   2.673   1.600   2.741
 2703SOL    HW1 9008   2.773   1.594   2.744
 2703SOL    HW2 9009   2.645   1.651   2.659
 2704SOL     OW 9010   1.914   5.639   2.142
 2704SOL    HW1 9011   1.833   5.691   2.171
 2704SOL    HW2 9012   1.991   5.662   2.201
 2705SOL     OW 9013   0.090   5.544   3.814
 2705SOL    HW1 9014   0.186   5.544   3.842
 2705SOL    HW2 9015   0.065   5.636   3.781
 2706SOL     OW 9016   6.580   1.454   1.849
 2706SOL    HW1 9017   6.644   1.424   1.779
 2706SOL    HW2 9018   6.630   1.477   1.933
 2707SOL     OW 9019   2.377   1.682   6.656
 2707SOL    HW1 9020   2.400   1.778   6.669
 2707SOL    HW2 9021   2.449   1.624   6.695
 2708SOL     OW 9022   2.305   2.756   2.110
 2708SOL    HW1 9023   2.368   2.680   2.128
 2708SOL    HW2 9024   2.279   2.799   2.196
 2709SOL     OW 9025   5.034   5.854   1.553
 2709SOL    HW1 9026   4.956   5.891   1.501
 2709SOL    HW2 9027   5.015   5.860   1.651
 2710SOL     OW 9028   7.004   3.358   2.877
 2710SOL    HW1 9029   6.905   3.360   2.863
 2710SOL    HW2 9030   0.031   3.325   2.795
 2711SOL     OW 9031   1.810   0.102   2.085
 2711SOL    HW1 9032   1.795   0.106   1.987
 2711SOL    HW2 9033   1.736   0.148   2.133
 2712SOL     OW 9034   2.847   5.040   0.397
 2712SOL    HW1 9035   2.888   5.035   0.488
 2712SOL    HW2 9036   2.794   4.957   0.380
 2713SOL     OW 9037   2.255   2.923   4.794
 2713SOL    HW1 9038   2.311   2.959   4.869
 2713SOL    HW2 9039   2.242   2.825   4.806
 2714SOL     OW 9040   5.717   1.683   6.055
 2714SOL    HW1 9041   5.736   1.781   6.045
 2714SOL    HW2 9042   5.726   1.638   5.967
 2715SOL     OW 9043   5.483   0.678   0.007
 2715SOL    HW1 9044   5.524   0.764   6.996
 2715SOL    HW2 9045   5.528   0.602   6.978
 2716SOL     OW 9046   6.997   5.164   1.324
 2716SOL    HW1 9047   0.002   5.244   1.268
 2716SOL    HW2 9048   6.908   5.178   1.367
 2717SOL     OW 9049   0.890   6.202   1.881
 2717SOL    HW1 9050   0.791   6.188   1.871
 2717SOL    HW2 9051   0.908   6.245   1.970
 2718SOL     OW 9052   1.913   3.907   4.363
 2718SOL    HW1 9053   1.973   3.828   4.377
 2718SOL    HW2 9054   1.960   3.974   4.305
 2719SOL     OW 9055   4.217   5.200   2.242
 2719SOL    HW1 9056   4.192   5.103   2.231
 2719SOL    HW2 9057   4.296   5.206   2.303
 2720SOL     OW 9058   1.869   5.930   3.575
 2720SOL    HW1 9059   1.892   6.025   3.554
 2720SOL    HW2 9060   1.915   5.869   3.511
 2721SOL     OW 9061   2.665   0.022   4.421
 2721SOL    HW1 9062   2.730   0.083   4.375
 2721SOL    HW2 9063   2.687   6.945   4.400
 2722SOL     OW 9064   0.291   5.620   2.990
 2722SOL    HW1 9065   0.360   5.646   3.058
 2722SOL    HW2 9066   0.216   5.571   3.036
 2723SOL     OW 9067   2.176   1.318   5.793
 2723SOL    HW1 9068   2.163   1.374   5.712
 2723SOL    HW2 9069   2.145   1.368   5.874
 2724SOL     OW 9070   3.501   4.907   6.119
 2724SOL    HW1 9071   3.425   4.962   6.083
 2724SOL    HW2 9072   3.535   4.949   6.203
 2725SOL     OW 9073   4.881   4.695   3.153
 2725SOL    HW1 9074   4.901   4.611   3.203
 2725SOL    HW2 9075   4.929   4.771   3.197
 2726SOL     OW 9076   4.897   4.956   1.888
 2726SOL    HW1 9077   4.828   4.884   1.898
 2726SOL    HW2 9078   4.860   5.042   1.923
 2727SOL     OW 9079   0.944   5.000   2.506
 2727SOL    HW1 9080   0.994   4.917   2.531
 2727SOL    HW2 9081   0.849   4.993   2.536
 2728SOL     OW 9082   3.030   0.161   5.168
 2728SOL    HW1 9083   3.050   0.207   5.254
 2728SOL    HW2 9084   3.055   0.221   5.092
 2729SOL     OW 9085   6.683   5.425   2.977
 2729SOL    HW1 9086   6.712   5.350   3.037
 2729SOL    HW2 9087   6.726   5.414   2.888
 2730SOL     OW 9088   2.119   0.039   0.209
 2730SOL    HW1 9089   2.110   6.959   0.228
 2730SOL    HW2 9090   2.051   0.066   0.140
 2731SOL     OW 9091   2.800   3.586   1.390
 2731SOL    HW1 9092   2.886   3.619   1.430
 2731SOL    HW2 9093   2.730   3.579   1.462
 2732SOL     OW 9094   5.797   3.158   2.383
 2732SOL    HW1 9095   5.797   3.258   2.372
 2732SOL    HW2 9096   5.817   3.115   2.295
 2733SOL     OW 9097   0.762   0.088   5.779
 2733SOL    HW1 9098   0.670   0.127   5.776
 2733SOL    HW2 9099   0.819   0.134   5.711
 2734SOL     OW 9100   1.676   6.451   3.528
 2734SOL    HW1 9101   1.696   6.376   3.591
 2734SOL    HW2 9102   1.701   6.424   3.435
 2735SOL     OW 9103   1.110   3.993   2.662
 2735SOL    HW1 9104   1.084   4.071   2.605
 2735SOL    HW2 9105   1.050   3.988   2.741
 2736SOL     OW 9106   4.894   0.760   5.780
 2736SOL    HW1 9107   4.857   0.713   5.861
 2736SOL    HW2 9108   4.978   0.808   5.806
 2737SOL     OW 9109   3.483   3.368   6.304
 2737SOL    HW1 9110   3.532   3.423   6.237
 2737SOL    HW2 9111   3.548   3.326   6.368
 2738SOL     OW 9112   5.064   5.536   3.607
 2738SOL    HW1 9113   4.989   5.602   3.609
 2738SOL    HW2 9114   5.029   5.444   3.626
 2739SOL     OW 9115   5.519   4.538   0.899
 2739SOL    HW1 9116   5.446   4.550   0.832
 2739SOL    HW2 9117   5.567   4.452   0.881
 2740SOL     OW 9118   6.224   2.122   2.664
 2740SOL    HW1 9119   6.153   2.167   2.717
 2740SOL    HW2 9120   6.210   2.023   2.664
 2741SOL     OW 9121   0.092   2.203   5.631
 2741SOL    HW1 9122   0.180   2.250   5.638
 2741SOL    HW2 9123   0.100   2.112   5.672
 2742SOL     OW 9124   1.173   5.507   6.226
 2742SOL    HW1 9125   1.213   5.429   6.176
 2742SOL    HW2 9126   1.115   5.472   6.300
 2743SOL     OW 9127   5.665   5.301   1.328
 2743SOL    HW1 9128   5.726   5.227   1.357
 2743SOL    HW2 9129   5.635   5.353   1.407
 2744SOL     OW 9130   4.094   2.201   6.640
 2744SOL    HW1 9131   4.155   2.156   6.705
 2744SOL    HW2 9132   4.133   2.197   6.548
 2745SOL     OW 9133   1.946   6.397   0.725
 2745SOL    HW1 9134   1.916   6.367   0.816
 2745SOL    HW2 9135   2.042   6.372   0.713
 2746SOL     OW 9136   1.914   2.675   4.916
 2746SOL    HW1 9137   1.972   2.614   4.970
 2746SOL    HW2 9138   1.931   2.770   4.944
 2747SOL     OW 9139   6.047   5.424   5.059
 2747SOL    HW1 9140   6.093   5.336   5.045
 2747SOL    HW2 9141   5.957   5.421   5.017
 2748SOL     OW 9142   3.861   1.356   3.585
 2748SOL    HW1 9143   3.885   1.326   3.493
 2748SOL    HW2 9144   3.944   1.361   3.641
 2749SOL     OW 9145   4.971   4.345   4.133
 2749SOL    HW1 9146   5.043   4.398   4.179
 2749SOL    HW2 9147   4.917   4.296   4.201
 2750SOL     OW 9148   0.483   5.803   1.831
 2750SOL    HW1 9149   0.567   5.857   1.834
 2750SOL    HW2 9150   0.498   5.719   1.779
 2751SOL     OW 9151   1.692   0.282   0.218
 2751SOL    HW1 9152   1.757   0.265   0.293
 2751SOL    HW2 9153   1.684   0.381   0.203
 2752SOL     OW 9154   5.072   6.634   5.305
 2752SOL    HW1 9155   5.031   6.656   5.216
 2752SOL    HW2 9156   5.018   6.563   5.350
 2753SOL     OW 9157   3.592   5.911   6.110
 2753SOL    HW1 9158   3.620   5.992   6.161
 2753SOL    HW2 9159   3.493   5.912   6.096
 2754SOL     OW 9160   0.407   0.238   4.216
 2754SOL    HW1 9161   0.333   0.306   4.220
 2754SOL    HW2 9162   0.385   0.162   4.276
 2755SOL     OW 9163   2.668   6.134   2.697
 2755SOL    HW1 9164   2.714   6.055   2.735
 2755SOL    HW2 9165   2.647   6.118   2.600
 2756SOL     OW 9166   5.426   3.619   4.997
 2756SOL    HW1 9167   5.330   3.636   4.974
 2756SOL    HW2 9168   5.441   3.521   5.009
 2757SOL     OW 9169   4.505   2.017   6.766
 2757SOL    HW1 9170   4.458   2.038   6.852
 2757SOL    HW2 9171   4.593   1.975   6.786
 2758SOL     OW 9172   5.095   5.169   3.160
 2758SOL    HW1 9173   5.008   5.197   3.120
 2758SOL    HW2 9174   5.102   5.205   3.253
 2759SOL     OW 9175   3.554   4.431   6.306
 2759SOL    HW1 9176   3.623   4.477   6.250
 2759SOL    HW2 9177   3.544   4.479   6.393
 2760SOL     OW 9178   5.779   6.181   3.455
 2760SOL    HW1 9179   5.737   6.091   3.437
 2760SOL    HW2 9180   5.708   6.252   3.450
 2761SOL     OW 9181   1.904   4.019   2.869
 2761SOL    HW1 9182   2.001   4.005   2.852
 2761SOL    HW2 9183   1.876   3.969   2.951
 2762SOL     OW 9184   1.786   2.211   0.082
 2762SOL    HW1 9185   1.788   2.149   0.003
 2762SOL    HW2 9186   1.838   2.171   0.157
 2763SOL     OW 9187   4.865   1.386   5.744
 2763SOL    HW1 9188   4.825   1.303   5.784
 2763SOL    HW2 9189   4.904   1.443   5.816
 2764SOL     OW 9190   0.629   4.297   1.923
 2764SOL    HW1 9191   0.572   4.374   1.895
 2764SOL    HW2 9192   0.589   4.212   1.890
 2765SOL     OW 9193   6.415   6.949   6.889
 2765SOL    HW1 9194   6.507   6.938   6.925
 2765SOL    HW2 9195   6.353   6.975   6.963
 2766SOL     OW 9196   4.833   1.431   6.748
 2766SOL    HW1 9197   4.786   1.440   6.659
 2766SOL    HW2 9198   4.857   1.336   6.763
 2767SOL     OW 9199   6.067   5.203   6.191
 2767SOL    HW1 9200   6.146   5.172   6.243
 2767SOL    HW2 9201   6.094   5.277   6.129
 2768SOL     OW 9202   4.320   0.415   1.031
 2768SOL    HW1 9203   4.353   0.500   1.072
 2768SOL    HW2 9204   4.360   0.337   1.080
 2769SOL     OW 9205   1.739   4.410   5.576
 2769SOL    HW1 9206   1.789   4.324   5.583
 2769SOL    HW2 9207   1.803   4.485   5.560
 2770SOL     OW 9208   3.051   6.722   6.334
 2770SOL    HW1 9209   3.029   6.773   6.417
 2770SOL    HW2 9210   3.020   6.774   6.254
 2771SOL     OW 9211   4.427   0.221   4.829
 2771SOL    HW1 9212   4.391   0.216   4.922
 2771SOL    HW2 9213   4.364   0.273   4.771
 2772SOL     OW 9214   3.716   1.004   2.982
 2772SOL    HW1 9215   3.777   0.978   2.907
 2772SOL    HW2 9216   3.752   0.969   3.068
 2773SOL     OW 9217   0.115   2.839   4.314
 2773SOL    HW1 9218   0.028   2.860   4.360
 2773SOL    HW2 9219   0.189   2.891   4.355
 2774SOL     OW 9220   4.869   2.014   3.264
 2774SOL    HW1 9221   4.780   1.985   3.228
 2774SOL    HW2 9222   4.929   1.934   3.272
 2775SOL     OW 9223   7.018   4.104   4.360
 2775SOL    HW1 9224   6.980   4.023   4.404
 2775SOL    HW2 9225   0.016   4.175   4.428
 2776SOL     OW 9226   4.807   5.013   6.244
 2776SOL    HW1 9227   4.722   5.066   6.237
 2776SOL    HW2 9228   4.850   5.007   6.154
 2777SOL     OW 9229   3.256   2.273   5.849
 2777SOL    HW1 9230   3.175   2.219   5.870
 2777SOL    HW2 9231   3.229   2.357   5.801
 2778SOL     OW 9232   2.253   5.855   6.645
 2778SOL    HW1 9233   2.322   5.785   6.625
 2778SOL    HW2 9234   2.298   5.944   6.652
 2779SOL     OW 9235   5.849   6.006   1.789
 2779SOL    HW1 9236   5.915   6.056   1.735
 2779SOL    HW2 9237   5.846   5.911   1.758
 2780SOL     OW 9238   0.191   1.343   6.486
 2780SOL    HW1 9239   0.137   1.295   6.555
 2780SOL    HW2 9240   0.275   1.292   6.469
 2781SOL     OW 9241   6.685   0.602   2.352
 2781SOL    HW1 9242   6.759   0.547   2.314
 2781SOL    HW2 9243   6.627   0.544   2.410
 2782SOL     OW 9244   4.339   0.932   6.728
 2782SOL    HW1 9245   4.292   1.017   6.706
 2782SOL    HW2 9246   4.347   0.922   6.827
 2783SOL     OW 9247   5.542   3.647   2.270
 2783SOL    HW1 9248   5.622   3.669   2.326
 2783SOL    HW2 9249   5.566   3.578   2.202
 2784SOL     OW 9250   1.887   1.602   1.305
 2784SOL    HW1 9251   1.987   1.603   1.312
 2784SOL    HW2 9252   1.857   1.680   1.251
 2785SOL     OW 9253   4.919   2.746   1.427
 2785SOL    HW1 9254   4.985   2.674   1.405
 2785SOL    HW2 9255   4.917   2.759   1.527
 2786SOL     OW 9256   6.951   5.397   0.420
 2786SOL    HW1 9257   0.011   5.355   0.465
 2786SOL    HW2 9258   6.914   5.333   0.352
 2787SOL     OW 9259   6.169   5.717   5.700
 2787SOL    HW1 9260   6.122   5.790   5.651
 2787SOL    HW2 9261   6.268   5.735   5.701
 2788SOL     OW 9262   3.344   6.535   5.428
 2788SOL    HW1 9263   3.364   6.568   5.335
 2788SOL    HW2 9264   3.420   6.557   5.488
 2789SOL     OW 9265   0.547   2.579   4.642
 2789SOL    HW1 9266   0.491   2.642   4.588
 2789SOL    HW2 9267   0.639   2.616   4.653
 2790SOL     OW 9268   2.056   5.685   0.817
 2790SOL    HW1 9269   2.131   5.734   0.861
 2790SOL    HW2 9270   1.976   5.746   0.810
 2791SOL     OW 9271   0.147   3.568   2.870
 2791SOL    HW1 9272   0.180   3.594   2.961
 2791SOL    HW2 9273   0.071   3.503   2.880
 2792SOL     OW 9274   3.268   1.185   4.947
 2792SOL    HW1 9275   3.177   1.146   4.962
 2792SOL    HW2 9276   3.262   1.260   4.881
 2793SOL     OW 9277   3.838   4.558   1.264
 2793SOL    HW1 9278   3.812   4.638   1.319
 2793SOL    HW2 9279   3.805   4.570   1.171
 2794SOL     OW 9280   0.010   1.713   6.137
 2794SOL    HW1 9281   0.008   1.622   6.178
 2794SOL    HW2 9282   0.016   1.782   6.210
 2795SOL     OW 9283   0.597   4.563   1.637
 2795SOL    HW1 9284   0.697   4.562   1.643
 2795SOL    HW2 9285   0.568   4.648   1.593
 2796SOL     OW 9286   0.371   6.050   5.953
 2796SOL    HW1 9287   0.328   6.052   5.863
 2796SOL    HW2 9288   0.343   6.131   6.005
 2797SOL     OW 9289   5.329   6.561   4.246
 2797SOL    HW1 9290   5.234   6.592   4.245
 2797SOL    HW2 9291   5.385   6.624   4.192
 2798SOL     OW 9292   6.379   6.577   1.931
 2798SOL    HW1 9293   6.372   6.515   2.009
 2798SOL    HW2 9294   6.449   6.544   1.868
 2799SOL     OW 9295   4.112   6.441   4.907
 2799SOL    HW1 9296   4.134   6.344   4.922
 2799SOL    HW2 9297   4.065   6.451   4.819
 2800SOL     OW 9298   6.298   0.657   0.078
 2800SOL    HW1 9299   6.236   0.671   0.001
 2800SOL    HW2 9300   6.332   0.745   0.110
 2801SOL     OW 9301   0.576   4.938   6.208
 2801SOL    HW1 9302   0.575   5.038   6.214
 2801SOL    HW2 9303   0.615   4.911   6.120
 2802SOL     OW 9304   6.458   6.231   5.256
 2802SOL    HW1 9305   6.410   6.253   5.171
 2802SOL    HW2 9306   6.393   6.193   5.322
 2803SOL     OW 9307   3.375   3.006   6.097
 2803SOL    HW1 9308   3.328   3.039   6.015
 2803SOL    HW2 9309   3.312   2.951   6.152
 2804SOL     OW 9310   0.908   2.717   4.375
 2804SOL    HW1 9311   0.844   2.700   4.300
 2804SOL    HW2 9312   0.879   2.667   4.456
 2805SOL     OW 9313   4.406   3.722   1.638
 2805SOL    HW1 9314   4.372   3.710   1.545
 2805SOL    HW2 9315   4.385   3.815   1.670
 2806SOL     OW 9316   1.009   4.375   5.710
 2806SOL    HW1 9317   1.053   4.422   5.786
 2806SOL    HW2 9318   1.015   4.431   5.628
 2807SOL     OW 9319   2.641   0.354   2.891
 2807SOL    HW1 9320   2.573   0.283   2.904
 2807SOL    HW2 9321   2.598   0.435   2.853
 2808SOL     OW 9322   6.296   5.743   0.481
 2808SOL    HW1 9323   6.332   5.822   0.531
 2808SOL    HW2 9324   6.353   5.726   0.401
 2809SOL     OW 9325   6.717   4.917   2.318
 2809SOL    HW1 9326   6.761   4.860   2.249
 2809SOL    HW2 9327   6.622   4.889   2.330
 2810SOL     OW 9328   2.273   5.920   3.609
 2810SOL    HW1 9329   2.335   5.992   3.577
 2810SOL    HW2 9330   2.204   5.902   3.539
 2811SOL     OW 9331   0.725   0.030   2.500
 2811SOL    HW1 9332   0.695   0.082   2.580
 2811SOL    HW2 9333   0.671   0.057   2.420
 2812SOL     OW 9334   0.613   3.256   1.028
 2812SOL    HW1 9335   0.686   3.323   1.017
 2812SOL    HW2 9336   0.535   3.282   0.971
 2813SOL     OW 9337   0.453   2.122   1.439
 2813SOL    HW1 9338   0.397   2.040   1.431
 2813SOL    HW2 9339   0.394   2.202   1.454
 2814SOL     OW 9340   2.244   3.905   0.261
 2814SOL    HW1 9341   2.154   3.943   0.240
 2814SOL    HW2 9342   2.314   3.951   0.206
 2815SOL     OW 9343   0.509   5.732   4.811
 2815SOL    HW1 9344   0.603   5.731   4.847
 2815SOL    HW2 9345   0.444   5.727   4.887
 2816SOL     OW 9346   6.953   6.254   5.619
 2816SOL    HW1 9347   6.855   6.244   5.634
 2816SOL    HW2 9348   7.003   6.192   5.680
 2817SOL     OW 9349   3.998   0.860   2.162
 2817SOL    HW1 9350   3.974   0.846   2.258
 2817SOL    HW2 9351   4.028   0.774   2.122
 2818SOL     OW 9352   1.862   0.810   1.246
 2818SOL    HW1 9353   1.894   0.885   1.303
 2818SOL    HW2 9354   1.784   0.765   1.290
 2819SOL     OW 9355   0.629   0.033   0.869
 2819SOL    HW1 9356   0.644   0.082   0.784
 2819SOL    HW2 9357   0.616   0.098   0.944
 2820SOL     OW 9358   1.426   2.299   1.727
 2820SOL    HW1 9359   1.493   2.371   1.709
 2820SOL    HW2 9360   1.432   2.230   1.655
 2821SOL     OW 9361   3.443   4.431   6.684
 2821SOL    HW1 9362   3.377   4.459   6.614
 2821SOL    HW2 9363   3.430   4.488   6.765
 2822SOL     OW 9364   4.328   2.550   0.622
 2822SOL    HW1 9365   4.397   2.511   0.560
 2822SOL    HW2 9366   4.239   2.551   0.577
 2823SOL     OW 9367   4.737   1.586   0.518
 2823SOL    HW1 9368   4.658   1.571   0.459
 2823SOL    HW2 9369   4.748   1.684   0.535
 2824SOL     OW 9370   0.977   3.899   5.203
 2824SOL    HW1 9371   0.915   3.896   5.281
 2824SOL    HW2 9372   1.045   3.826   5.211
 2825SOL     OW 9373   5.265   1.571   6.214
 2825SOL    HW1 9374   5.336   1.638   6.191
 2825SOL    HW2 9375   5.305   1.496   6.266
 2826SOL     OW 9376   1.177   3.904   6.155
 2826SOL    HW1 9377   1.151   3.874   6.063
 2826SOL    HW2 9378   1.274   3.885   6.171
 2827SOL     OW 9379   7.015   0.870   6.290
 2827SOL    HW1 9380   6.946   0.797   6.295
 2827SOL    HW2 9381   0.076   0.838   6.238
 2828SOL     OW 9382   1.247   3.787   0.690
 2828SOL    HW1 9383   1.289   3.821   0.606
 2828SOL    HW2 9384   1.243   3.861   0.758
 2829SOL     OW 9385   3.585   4.102   3.505
 2829SOL    HW1 9386   3.584   4.115   3.604
 2829SOL    HW2 9387   3.491   4.106   3.469
 2830SOL     OW 9388   3.864   5.567   5.832
 2830SOL    HW1 9389   3.795   5.592   5.900
 2830SOL    HW2 9390   3.836   5.601   5.742
 2831SOL     OW 9391   6.767   2.167   1.690
 2831SOL    HW1 9392   6.683   2.211   1.722
 2831SOL    HW2 9393   6.845   2.205   1.740
 2832SOL     OW 9394   0.685   3.215   1.285
 2832SOL    HW1 9395   0.650   3.231   1.192
 2832SOL    HW2 9396   0.778   3.252   1.292
 2833SOL     OW 9397   2.111   1.880   2.045
 2833SOL    HW1 9398   2.211   1.873   2.041
 2833SOL    HW2 9399   2.071   1.789   2.039
 2834SOL     OW 9400   4.468   6.046   4.965
 2834SOL    HW1 9401   4.494   5.962   5.014
 2834SOL    HW2 9402   4.372   6.039   4.937
 2835SOL     OW 9403   1.060   6.514   0.582
 2835SOL    HW1 9404   1.053   6.546   0.676
 2835SOL    HW2 9405   1.092   6.419   0.581
 2836SOL     OW 9406   3.439   6.243   3.531
 2836SOL    HW1 9407   3.346   6.217   3.557
 2836SOL    HW2 9408   3.478   6.302   3.601
 2837SOL     OW 9409   5.665   3.985   2.363
 2837SOL    HW1 9410   5.653   3.915   2.292
 2837SOL    HW2 9411   5.597   4.057   2.351
 2838SOL     OW 9412   4.946   3.910   6.224
 2838SOL    HW1 9413   5.016   3.966   6.268
 2838SOL    HW2 9414   4.982   3.871   6.140
 2839SOL     OW 9415   6.218   3.441   5.011
 2839SOL    HW1 9416   6.199   3.537   4.991
 2839SOL    HW2 9417   6.277   3.435   5.091
 2840SOL     OW 9418   0.484   5.924   2.699
 2840SOL    HW1 9419   0.435   5.955   2.780
 2840SOL    HW2 9420   0.420   5.884   2.634
 2841SOL     OW 9421   5.977   2.617   1.582
 2841SOL    HW1 9422   5.950   2.683   1.513
 2841SOL    HW2 9423   6.076   2.605   1.580
 2842SOL     OW 9424   1.798   6.319   3.842
 2842SOL    HW1 9425   1.707   6.357   3.828
 2842SOL    HW2 9426   1.794   6.248   3.913
 2843SOL     OW 9427   2.191   2.863   3.415
 2843SOL    HW1 9428   2.226   2.824   3.500
 2843SOL    HW2 9429   2.098   2.830   3.399
 2844SOL     OW 9430   5.008   4.592   0.897
 2844SOL    HW1 9431   4.936   4.525   0.878
 2844SOL    HW2 9432   5.055   4.567   0.982
 2845SOL     OW 9433   3.989   2.154   2.725
 2845SOL    HW1 9434   4.077   2.107   2.732
 2845SOL    HW2 9435   3.954   2.146   2.632
 2846SOL     OW 9436   4.625   0.689   0.331
 2846SOL    HW1 9437   4.725   0.687   0.335
 2846SOL    HW2 9438   4.588   0.646   0.413
 2847SOL     OW 9439   4.750   4.108   2.418
 2847SOL    HW1 9440   4.744   4.113   2.518
 2847SOL    HW2 9441   4.668   4.149   2.378
 2848SOL     OW 9442   0.669   3.398   4.844
 2848SOL    HW1 9443   0.697   3.314   4.798
 2848SOL    HW2 9444   0.751   3.446   4.877
 2849SOL     OW 9445   3.984   0.434   2.716
 2849SOL    HW1 9446   4.043   0.407   2.792
 2849SOL    HW2 9447   4.027   0.510   2.666
 2850SOL     OW 9448   2.484   7.008   2.852
 2850SOL    HW1 9449   2.572   7.009   2.899
 2850SOL    HW2 9450   2.495   0.027   2.759
 2851SOL     OW 9451   4.379   3.146   1.100
 2851SOL    HW1 9452   4.372   3.242   1.128
 2851SOL    HW2 9453   4.441   3.098   1.162
 2852SOL     OW 9454   6.940   4.233   6.144
 2852SOL    HW1 9455   6.927   4.240   6.243
 2852SOL    HW2 9456   6.996   4.310   6.112
 2853SOL     OW 9457   0.674   3.666   0.056
 2853SOL    HW1 9458   0.576   3.687   0.060
 2853SOL    HW2 9459   0.694   3.618   6.989
 2854SOL     OW 9460   3.209   1.488   5.864
 2854SOL    HW1 9461   3.160   1.438   5.935
 2854SOL    HW2 9462   3.304   1.503   5.895
 2855SOL     OW 9463   1.565   1.385   4.201
 2855SOL    HW1 9464   1.604   1.295   4.179
 2855SOL    HW2 9465   1.467   1.384   4.183
 2856SOL     OW 9466   1.250   4.327   2.962
 2856SOL    HW1 9467   1.262   4.287   3.053
 2856SOL    HW2 9468   1.255   4.255   2.893
 2857SOL     OW 9469   0.186   3.040   1.096
 2857SOL    HW1 9470   0.148   2.950   1.078
 2857SOL    HW2 9471   0.138   3.082   1.173
 2858SOL     OW 9472   4.398   4.592   2.961
 2858SOL    HW1 9473   4.481   4.648   2.955
 2858SOL    HW2 9474   4.424   4.495   2.962
 2859SOL     OW 9475   5.578   5.089   1.803
 2859SOL    HW1 9476   5.627   5.100   1.889
 2859SOL    HW2 9477   5.541   5.177   1.774
 2860SOL     OW 9478   1.665   5.895   1.424
 2860SOL    HW1 9479   1.671   5.926   1.519
 2860SOL    HW2 9480   1.674   5.974   1.363
 2861SOL     OW 9481   4.424   4.731   6.838
 2861SOL    HW1 9482   4.459   4.671   6.910
 2861SOL    HW2 9483   4.356   4.794   6.876
 2862SOL     OW 9484   4.372   3.001   1.420
 2862SOL    HW1 9485   4.427   3.066   1.472
 2862SOL    HW2 9486   4.293   3.048   1.381
 2863SOL     OW 9487   5.895   6.857   5.709
 2863SOL    HW1 9488   5.845   6.896   5.786
 2863SOL    HW2 9489   5.990   6.841   5.736
 2864SOL     OW 9490   3.707   3.553   0.803
 2864SOL    HW1 9491   3.784   3.491   0.821
 2864SOL    HW2 9492   3.659   3.572   0.888
 2865SOL     OW 9493   5.350   6.072   4.450
 2865SOL    HW1 9494   5.450   6.074   4.461
 2865SOL    HW2 9495   5.316   6.165   4.443
 2866SOL     OW 9496   4.921   4.282   6.747
 2866SOL    HW1 9497   4.939   4.215   6.675
 2866SOL    HW2 9498   4.916   4.374   6.707
 2867SOL     OW 9499   6.058   6.393   1.864
 2867SOL    HW1 9500   5.977   6.339   1.841
 2867SOL    HW2 9501   6.123   6.336   1.913
 2868SOL     OW 9502   1.815   0.797   5.884
 2868SOL    HW1 9503   1.875   0.874   5.903
 2868SOL    HW2 9504   1.723   0.831   5.861
 2869SOL     OW 9505   5.237   5.821   3.709
 2869SOL    HW1 9506   5.276   5.876   3.783
 2869SOL    HW2 9507   5.237   5.725   3.737
 2870SOL     OW 9508   0.891   1.537   1.650
 2870SOL    HW1 9509   0.801   1.566   1.684
 2870SOL    HW2 9510   0.962   1.590   1.697
 2871SOL     OW 9511   6.422   2.022   1.474
 2871SOL    HW1 9512   6.336   1.971   1.465
 2871SOL    HW2 9513   6.491   1.983   1.414
 2872SOL     OW 9514   2.540   1.898   2.303
 2872SOL    HW1 9515   2.519   1.836   2.379
 2872SOL    HW2 9516   2.479   1.977   2.307
 2873SOL     OW 9517   0.664   6.302   1.364
 2873SOL    HW1 9518   0.686   6.211   1.327
 2873SOL    HW2 9519   0.682   6.303   1.463
 2874SOL     OW 9520   1.997   0.638   3.314
 2874SOL    HW1 9521   1.919   0.611   3.370
 2874SOL    HW2 9522   1.965   0.692   3.236
 2875SOL     OW 9523   3.082   6.550   2.473
 2875SOL    HW1 9524   3.020   6.590   2.540
 2875SOL    HW2 9525   3.145   6.620   2.440
 2876SOL     OW 9526   1.751   5.997   1.643
 2876SOL    HW1 9527   1.779   6.089   1.672
 2876SOL    HW2 9528   1.807   5.929   1.690
 2877SOL     OW 9529   1.928   1.050   5.948
 2877SOL    HW1 9530   1.968   1.063   6.038
 2877SOL    HW2 9531   2.001   1.046   5.879
 2878SOL     OW 9532   3.911   3.460   4.708
 2878SOL    HW1 9533   3.870   3.423   4.792
 2878SOL    HW2 9534   4.009   3.438   4.708
 2879SOL     OW 9535   3.864   4.595   6.391
 2879SOL    HW1 9536   3.871   4.507   6.343
 2879SOL    HW2 9537   3.852   4.579   6.489
 2880SOL     OW 9538   1.434   1.425   4.612
 2880SOL    HW1 9539   1.408   1.334   4.580
 2880SOL    HW2 9540   1.405   1.437   4.706
 2881SOL     OW 9541   3.527   6.587   6.475
 2881SOL    HW1 9542   3.511   6.674   6.521
 2881SOL    HW2 9543   3.519   6.512   6.541
 2882SOL     OW 9544   4.467   5.863   0.345
 2882SOL    HW1 9545   4.376   5.905   0.337
 2882SOL    HW2 9546   4.472   5.785   0.283
 2883SOL     OW 9547   6.163   6.473   3.512
 2883SOL    HW1 9548   6.081   6.483   3.456
 2883SOL    HW2 9549   6.154   6.528   3.595
 2884SOL     OW 9550   0.181   5.696   2.727
 2884SOL    HW1 9551   0.132   5.613   2.701
 2884SOL    HW2 9552   0.212   5.689   2.821
 2885SOL     OW 9553   1.016   3.409   2.826
 2885SOL    HW1 9554   1.107   3.443   2.800
 2885SOL    HW2 9555   1.022   3.359   2.912
 2886SOL     OW 9556   2.707   4.367   6.359
 2886SOL    HW1 9557   2.650   4.326   6.430
 2886SOL    HW2 9558   2.796   4.321   6.357
 2887SOL     OW 9559   1.146   6.315   4.031
 2887SOL    HW1 9560   1.140   6.257   3.950
 2887SOL    HW2 9561   1.056   6.322   4.074
 2888SOL     OW 9562   6.406   6.493   0.642
 2888SOL    HW1 9563   6.489   6.439   0.655
 2888SOL    HW2 9564   6.361   6.464   0.557
 2889SOL     OW 9565   3.022   6.267   3.321
 2889SOL    HW1 9566   3.121   6.280   3.329
 2889SOL    HW2 9567   2.975   6.328   3.385
 2890SOL     OW 9568   1.800   0.017   0.755
 2890SOL    HW1 9569   1.893   6.998   0.759
 2890SOL    HW2 9570   1.756   7.005   0.671
 2891SOL     OW 9571   0.130   3.239   3.444
 2891SOL    HW1 9572   0.096   3.169   3.507
 2891SOL    HW2 9573   0.179   3.195   3.368
 2892SOL     OW 9574   6.219   3.651   1.213
 2892SOL    HW1 9575   6.290   3.632   1.280
 2892SOL    HW2 9576   6.239   3.602   1.128
 2893SOL     OW 9577   0.194   5.120   4.323
 2893SOL    HW1 9578   0.148   5.100   4.410
 2893SOL    HW2 9579   0.155   5.203   4.284
 2894SOL     OW 9580   1.279   5.222   2.017
 2894SOL    HW1 9581   1.317   5.220   2.109
 2894SOL    HW2 9582   1.328   5.156   1.960
 2895SOL     OW 9583   3.947   6.951   5.918
 2895SOL    HW1 9584   3.905   0.006   5.970
 2895SOL    HW2 9585   4.044   6.944   5.941
 2896SOL     OW 9586   5.430   6.188   4.913
 2896SOL    HW1 9587   5.449   6.090   4.915
 2896SOL    HW2 9588   5.337   6.204   4.880
 2897SOL     OW 9589   3.514   4.936   3.225
 2897SOL    HW1 9590   3.536   5.027   3.261
 2897SOL    HW2 9591   3.580   4.911   3.155
 2898SOL     OW 9592   5.758   4.408   2.735
 2898SOL    HW1 9593   5.772   4.507   2.731
 2898SOL    HW2 9594   5.715   4.377   2.650
 2899SOL     OW 9595   6.614   2.808   0.749
 2899SOL    HW1 9596   6.600   2.900   0.785
 2899SOL    HW2 9597   6.566   2.742   0.806
 2900SOL     OW 9598   3.095   3.734   0.372
 2900SOL    HW1 9599   3.129   3.655   0.321
 2900SOL    HW2 9600   3.031   3.785   0.314
 2901SOL     OW 9601   1.615   3.672   3.470
 2901SOL    HW1 9602   1.659   3.718   3.547
 2901SOL    HW2 9603   1.516   3.668   3.486
 2902SOL     OW 9604   1.099   5.545   4.306
 2902SOL    HW1 9605   1.190   5.564   4.270
 2902SOL    HW2 9606   1.035   5.615   4.272
 2903SOL     OW 9607   4.292   6.082   0.753
 2903SOL    HW1 9608   4.237   6.057   0.832
 2903SOL    HW2 9609   4.248   6.050   0.670
 2904SOL     OW 9610   2.585   4.352   5.318
 2904SOL    HW1 9611   2.550   4.388   5.404
 2904SOL    HW2 9612   2.575   4.422   5.246
 2905SOL     OW 9613   0.869   4.294   1.791
 2905SOL    HW1 9614   0.778   4.294   1.831
 2905SOL    HW2 9615   0.887   4.383   1.750
 2906SOL     OW 9616   5.846   5.751   3.360
 2906SOL    HW1 9617   5.819   5.659   3.330
 2906SOL    HW2 9618   5.871   5.805   3.279
 2907SOL     OW 9619   0.782   0.170   3.468
 2907SOL    HW1 9620   0.791   0.081   3.424
 2907SOL    HW2 9621   0.735   0.233   3.407
 2908SOL     OW 9622   4.752   6.914   2.835
 2908SOL    HW1 9623   4.747   6.972   2.916
 2908SOL    HW2 9624   4.697   6.831   2.849
 2909SOL     OW 9625   1.298   5.891   1.930
 2909SOL    HW1 9626   1.313   5.795   1.951
 2909SOL    HW2 9627   1.199   5.910   1.926
 2910SOL     OW 9628   0.157   0.785   3.572
 2910SOL    HW1 9629   0.153   0.693   3.533
 2910SOL    HW2 9630   0.096   0.846   3.522
 2911SOL     OW 9631   6.442   4.133   3.936
 2911SOL    HW1 9632   6.418   4.105   4.029
 2911SOL    HW2 9633   6.423   4.231   3.924
 2912SOL     OW 9634   6.757   6.532   0.797
 2912SOL    HW1 9635   6.735   6.442   0.834
 2912SOL    HW2 9636   6.844   6.528   0.747
 2913SOL     OW 9637   2.235   5.921   1.121
 2913SOL    HW1 9638   2.144   5.917   1.078
 2913SOL    HW2 9639   2.225   5.935   1.219
 2914SOL     OW 9640   5.341   5.189   0.421
 2914SOL    HW1 9641   5.381   5.129   0.491
 2914SOL    HW2 9642   5.414   5.244   0.379
 2915SOL     OW 9643   3.257   1.458   3.371
 2915SOL    HW1 9644   3.247   1.519   3.449
 2915SOL    HW2 9645   3.345   1.475   3.325
 2916SOL     OW 9646   1.645   6.124   0.372
 2916SOL    HW1 9647   1.712   6.142   0.444
 2916SOL    HW2 9648   1.677   6.163   0.285
 2917SOL     OW 9649   2.390   6.870   3.112
 2917SOL    HW1 9650   2.444   6.890   3.030
 2917SOL    HW2 9651   2.298   6.909   3.101
 2918SOL     OW 9652   6.281   3.506   0.992
 2918SOL    HW1 9653   6.261   3.501   0.894
 2918SOL    HW2 9654   6.371   3.467   1.010
 2919SOL     OW 9655   0.803   6.302   4.727
 2919SOL    HW1 9656   0.864   6.337   4.798
 2919SOL    HW2 9657   0.813   6.203   4.721
 2920SOL     OW 9658   1.658   0.861   1.753
 2920SOL    HW1 9659   1.641   0.936   1.690
 2920SOL    HW2 9660   1.581   0.797   1.750
 2921SOL     OW 9661   0.517   0.206   5.776
 2921SOL    HW1 9662   0.509   0.235   5.680
 2921SOL    HW2 9663   0.434   0.232   5.826
 2922SOL     OW 9664   3.851   0.905   3.513
 2922SOL    HW1 9665   3.912   0.884   3.590
 2922SOL    HW2 9666   3.786   0.975   3.540
 2923SOL     OW 9667   6.176   4.696   5.341
 2923SOL    HW1 9668   6.105   4.748   5.294
 2923SOL    HW2 9669   6.259   4.696   5.286
 2924SOL     OW 9670   6.482   2.785   5.447
 2924SOL    HW1 9671   6.544   2.740   5.383
 2924SOL    HW2 9672   6.499   2.884   5.444
 2925SOL     OW 9673   5.571   0.734   5.714
 2925SOL    HW1 9674   5.636   0.808   5.730
 2925SOL    HW2 9675   5.486   0.772   5.679
 2926SOL     OW 9676   0.258   1.481   4.977
 2926SOL    HW1 9677   0.336   1.458   5.036
 2926SOL    HW2 9678   0.291   1.536   4.900
 2927SOL     OW 9679   1.822   2.734   1.688
 2927SOL    HW1 9680   1.911   2.764   1.722
 2927SOL    HW2 9681   1.778   2.809   1.639
 2928SOL     OW 9682   6.436   2.332   6.877
 2928SOL    HW1 9683   6.423   2.247   6.928
 2928SOL    HW2 9684   6.522   2.328   6.826
 2929SOL     OW 9685   1.788   2.258   4.684
 2929SOL    HW1 9686   1.819   2.285   4.775
 2929SOL    HW2 9687   1.814   2.329   4.618
 2930SOL     OW 9688   0.136   5.503   4.636
 2930SOL    HW1 9689   0.216   5.547   4.597
 2930SOL    HW2 9690   0.095   5.441   4.568
 2931SOL     OW 9691   3.881   4.324   6.276
 2931SOL    HW1 9692   3.811   4.258   6.304
 2931SOL    HW2 9693   3.969   4.278   6.269
 2932SOL     OW 9694   6.513   5.577   0.831
 2932SOL    HW1 9695   6.562   5.563   0.917
 2932SOL    HW2 9696   6.446   5.504   0.818
 2933SOL     OW 9697   1.090   6.987   0.962
 2933SOL    HW1 9698   1.159   0.038   0.940
 2933SOL    HW2 9699   1.010   7.000   0.903
 2934SOL     OW 9700   4.057   3.749   0.502
 2934SOL    HW1 9701   3.958   3.748   0.515
 2934SOL    HW2 9702   4.100   3.804   0.574
 2935SOL     OW 9703   0.303   2.603   6.270
 2935SOL    HW1 9704   0.384   2.606   6.328
 2935SOL    HW2 9705   0.309   2.526   6.207
 2936SOL     OW 9706   4.589   0.163   0.862
 2936SOL    HW1 9707   4.665   0.224   0.840
 2936SOL    HW2 9708   4.503   0.206   0.834
 2937SOL     OW 9709   4.134   5.733   1.903
 2937SOL    HW1 9710   4.042   5.717   1.869
 2937SOL    HW2 9711   4.144   5.694   1.994
 2938SOL     OW 9712   6.611   5.625   6.186
 2938SOL    HW1 9713   6.535   5.642   6.249
 2938SOL    HW2 9714   6.685   5.689   6.206
 2939SOL     OW 9715   0.190   5.570   1.504
 2939SOL    HW1 9716   0.153   5.515   1.578
 2939SOL    HW2 9717   0.115   5.617   1.456
 2940SOL     OW 9718   5.380   5.919   3.451
 2940SOL    HW1 9719   5.356   5.899   3.546
 2940SOL    HW2 9720   5.332   6.002   3.422
 2941SOL     OW 9721   2.123   3.195   3.821
 2941SOL    HW1 9722   2.032   3.210   3.783
 2941SOL    HW2 9723   2.143   3.266   3.889
 2942SOL     OW 9724   3.288   1.740   0.730
 2942SOL    HW1 9725   3.226   1.741   0.652
 2942SOL    HW2 9726   3.346   1.659   0.727
 2943SOL     OW 9727   5.912   4.149   3.343
 2943SOL    HW1 9728   5.907   4.236   3.393
 2943SOL    HW2 9729   5.819   4.117   3.324
 2944SOL     OW 9730   2.385   5.880   3.867
 2944SOL    HW1 9731   2.483   5.900   3.876
 2944SOL    HW2 9732   2.368   5.841   3.776
 2945SOL     OW 9733   5.107   4.636   1.720
 2945SOL    HW1 9734   5.012   4.611   1.740
 2945SOL    HW2 9735   5.150   4.563   1.667
 2946SOL     OW 9736   2.980   4.072   6.145
 2946SOL    HW1 9737   2.986   4.164   6.106
 2946SOL    HW2 9738   2.885   4.039   6.138
 2947SOL     OW 9739   5.888   6.546   0.599
 2947SOL    HW1 9740   5.832   6.574   0.521
 2947SOL    HW2 9741   5.946   6.470   0.573
 2948SOL     OW 9742   5.702   4.253   2.513
 2948SOL    HW1 9743   5.637   4.214   2.448
 2948SOL    HW2 9744   5.781   4.288   2.464
 2949SOL     OW 9745   1.655   0.146   0.979
 2949SOL    HW1 9746   1.604   0.204   0.916
 2949SOL    HW2 9747   1.688   0.065   0.931
 2950SOL     OW 9748   4.995   4.536   2.572
 2950SOL    HW1 9749   4.908   4.582   2.592
 2950SOL    HW2 9750   5.061   4.558   2.645
 2951SOL     OW 9751   5.920   0.968   1.394
 2951SOL    HW1 9752   5.862   0.888   1.412
 2951SOL    HW2 9753   5.994   0.943   1.332
 2952SOL     OW 9754   5.458   1.081   4.304
 2952SOL    HW1 9755   5.516   1.145   4.254
 2952SOL    HW2 9756   5.510   0.997   4.323
 2953SOL     OW 9757   0.758   5.926   3.269
 2953SOL    HW1 9758   0.670   5.970   3.253
 2953SOL    HW2 9759   0.776   5.921   3.368
 2954SOL     OW 9760   0.353   4.508   6.306
 2954SOL    HW1 9761   0.404   4.431   6.268
 2954SOL    HW2 9762   0.259   4.478   6.326
 2955SOL     OW 9763   1.759   4.043   6.681
 2955SOL    HW1 9764   1.743   4.016   6.776
 2955SOL    HW2 9765   1.792   3.965   6.629
 2956SOL     OW 9766   6.291   4.216   3.379
 2956SOL    HW1 9767   6.206   4.243   3.424
 2956SOL    HW2 9768   6.279   4.127   3.335
 2957SOL     OW 9769   2.976   5.340   1.534
 2957SOL    HW1 9770   2.933   5.263   1.580
 2957SOL    HW2 9771   3.075   5.335   1.545
 2958SOL     OW 9772   2.306   4.983   3.206
 2958SOL    HW1 9773   2.379   4.915   3.197
 2958SOL    HW2 9774   2.289   5.001   3.303
 2959SOL     OW 9775   6.496   1.992   2.835
 2959SOL    HW1 9776   6.501   2.063   2.905
 2959SOL    HW2 9777   6.513   2.032   2.745
 2960SOL     OW 9778   4.374   0.412   0.745
 2960SOL    HW1 9779   4.288   0.454   0.714
 2960SOL    HW2 9780   4.366   0.391   0.843
 2961SOL     OW 9781   5.363   4.183   2.571
 2961SOL    HW1 9782   5.421   4.126   2.628
 2961SOL    HW2 9783   5.267   4.158   2.585
 2962SOL     OW 9784   6.831   6.325   2.403
 2962SOL    HW1 9785   6.850   6.271   2.321
 2962SOL    HW2 9786   6.863   6.276   2.484
 2963SOL     OW 9787   1.571   1.033   5.129
 2963SOL    HW1 9788   1.504   1.013   5.199
 2963SOL    HW2 9789   1.590   1.131   5.127
 2964SOL     OW 9790   0.934   2.654   6.764
 2964SOL    HW1 9791   1.034   2.651   6.764
 2964SOL    HW2 9792   0.899   2.567   6.729
 2965SOL     OW 9793   0.523   0.638   5.353
 2965SOL    HW1 9794   0.513   0.737   5.354
 2965SOL    HW2 9795   0.434   0.595   5.339
 2966SOL     OW 9796   4.321   5.747   3.774
 2966SOL    HW1 9797   4.390   5.810   3.739
 2966SOL    HW2 9798   4.236   5.759   3.723
 2967SOL     OW 9799   6.155   1.096   5.689
 2967SOL    HW1 9800   6.211   1.149   5.753
 2967SOL    HW2 9801   6.211   1.022   5.650
 2968SOL     OW 9802   1.457   1.864   1.040
 2968SOL    HW1 9803   1.428   1.776   1.000
 2968SOL    HW2 9804   1.454   1.934   0.969
 2969SOL     OW 9805   5.752   3.424   4.520
 2969SOL    HW1 9806   5.803   3.344   4.487
 2969SOL    HW2 9807   5.724   3.480   4.442
 2970SOL     OW 9808   2.197   2.723   4.378
 2970SOL    HW1 9809   2.173   2.643   4.433
 2970SOL    HW2 9810   2.220   2.799   4.438
 2971SOL     OW 9811   5.741   3.903   6.700
 2971SOL    HW1 9812   5.659   3.910   6.757
 2971SOL    HW2 9813   5.789   3.992   6.700
 2972SOL     OW 9814   5.772   4.855   6.501
 2972SOL    HW1 9815   5.677   4.854   6.470
 2972SOL    HW2 9816   5.779   4.809   6.589
 2973SOL     OW 9817   5.249   6.866   2.170
 2973SOL    HW1 9818   5.155   6.883   2.141
 2973SOL    HW2 9819   5.260   6.770   2.194
 2974SOL     OW 9820   5.227   5.537   3.365
 2974SOL    HW1 9821   5.326   5.527   3.371
 2974SOL    HW2 9822   5.188   5.540   3.457
 2975SOL     OW 9823   4.644   4.817   4.197
 2975SOL    HW1 9824   4.742   4.796   4.203
 2975SOL    HW2 9825   4.607   4.779   4.112
 2976SOL     OW 9826   4.767   2.054   2.246
 2976SOL    HW1 9827   4.846   2.001   2.215
 2976SOL    HW2 9828   4.719   2.091   2.167
 2977SOL     OW 9829   1.013   0.303   1.628
 2977SOL    HW1 9830   1.039   0.399   1.642
 2977SOL    HW2 9831   0.994   0.288   1.531
 2978SOL     OW 9832   4.130   4.601   6.124
 2978SOL    HW1 9833   4.200   4.599   6.196
 2978SOL    HW2 9834   4.066   4.675   6.143
 2979SOL     OW 9835   2.451   1.500   4.401
 2979SOL    HW1 9836   2.371   1.476   4.456
 2979SOL    HW2 9837   2.533   1.494   4.459
 2980SOL     OW 9838   4.077   3.836   6.236
 2980SOL    HW1 9839   4.144   3.781   6.185
 2980SOL    HW2 9840   4.015   3.880   6.172
 2981SOL     OW 9841   2.003   1.146   0.602
 2981SOL    HW1 9842   1.974   1.209   0.673
 2981SOL    HW2 9843   1.934   1.074   0.590
 2982SOL     OW 9844   1.196   0.151   1.965
 2982SOL    HW1 9845   1.207   0.160   2.064
 2982SOL    HW2 9846   1.185   0.241   1.924
 2983SOL     OW 9847   6.350   3.124   6.922
 2983SOL    HW1 9848   6.273   3.065   6.897
 2983SOL    HW2 9849   6.322   3.219   6.920
 2984SOL     OW 9850   6.609   5.007   0.171
 2984SOL    HW1 9851   6.668   5.035   0.095
 2984SOL    HW2 9852   6.664   4.997   0.254
 2985SOL     OW 9853   0.014   0.576   4.942
 2985SOL    HW1 9854   6.987   0.602   4.857
 2985SOL    HW2 9855   6.989   0.495   4.981
 2986SOL     OW 9856   3.745   4.033   2.875
 2986SOL    HW1 9857   3.792   3.945   2.865
 2986SOL    HW2 9858   3.735   4.055   2.972
 2987SOL     OW 9859   1.018   1.138   4.236
 2987SOL    HW1 9860   0.995   1.172   4.145
 2987SOL    HW2 9861   0.943   1.156   4.298
 2988SOL     OW 9862   0.714   1.742   0.449
 2988SOL    HW1 9863   0.700   1.644   0.467
 2988SOL    HW2 9864   0.757   1.784   0.529
 2989SOL     OW 9865   5.102   3.065   4.733
 2989SOL    HW1 9866   5.189   3.114   4.731
 2989SOL    HW2 9867   5.114   2.972   4.698
 2990SOL     OW 9868   5.038   1.913   4.381
 2990SOL    HW1 9869   4.986   1.956   4.308
 2990SOL    HW2 9870   5.080   1.985   4.438
 2991SOL     OW 9871   5.341   2.957   0.594
 2991SOL    HW1 9872   5.363   2.988   0.502
 2991SOL    HW2 9873   5.272   3.017   0.634
 2992SOL     OW 9874   0.459   3.619   5.698
 2992SOL    HW1 9875   0.550   3.645   5.728
 2992SOL    HW2 9876   0.391   3.677   5.743
 2993SOL     OW 9877   1.040   4.487   0.186
 2993SOL    HW1 9878   1.097   4.567   0.167
 2993SOL    HW2 9879   0.956   4.517   0.232
 2994SOL     OW 9880   4.440   6.365   0.191
 2994SOL    HW1 9881   4.410   6.326   0.104
 2994SOL    HW2 9882   4.491   6.449   0.174
 2995SOL     OW 9883   4.856   0.019   0.593
 2995SOL    HW1 9884   4.834   6.983   0.674
 2995SOL    HW2 9885   4.926   6.991   0.539
 2996SOL     OW 9886   1.096   1.793   4.609
 2996SOL    HW1 9887   1.044   1.878   4.617
 2996SOL    HW2 9888   1.178   1.808   4.554
 2997SOL     OW 9889   4.874   0.452   4.010
 2997SOL    HW1 9890   4.824   0.405   3.938
 2997SOL    HW2 9891   4.908   0.540   3.977
 2998SOL     OW 9892   2.796   0.949   2.940
 2998SOL    HW1 9893   2.750   1.022   2.890
 2998SOL    HW2 9894   2.751   0.862   2.922
 2999SOL     OW 9895   2.689   4.249   0.427
 2999SOL    HW1 9896   2.688   4.295   0.516
 2999SOL    HW2 9897   2.775   4.198   0.418
 3000SOL     OW 9898   2.819   3.821   5.156
 3000SOL    HW1 9899   2.907   3.791   5.194
 3000SOL    HW2 9900   2.836   3.882   5.079
 3001SOL     OW 9901   6.438   1.837   6.199
 3001SOL    HW1 9902   6.356   1.878   6.239
 3001SOL    HW2 9903   6.436   1.848   6.100
 3002SOL     OW 9904   2.638   0.936   1.994
 3002SOL    HW1 9905   2.729   0.971   2.015
 3002SOL    HW2 9906   2.598   0.896   2.077
 3003SOL     OW 9907   1.176   6.046   0.304
 3003SOL    HW1 9908   1.250   6.092   0.255
 3003SOL    HW2 9909   1.202   6.034   0.400
 3004SOL     OW 9910   2.494   5.512   4.431
 3004SOL    HW1 9911   2.414   5.531   4.375
 3004SOL    HW2 9912   2.531   5.422   4.406
 3005SOL     OW 9913   1.161   2.696   5.667
 3005SOL    HW1 9914   1.069   2.693   5.628
 3005SOL    HW2 9915   1.196   2.603   5.676
 3006SOL     OW 9916   5.212   2.131   5.106
 3006SOL    HW1 9917   5.149   2.179   5.167
 3006SOL    HW2 9918   5.271   2.197   5.059
 3007SOL     OW 9919   5.376   5.079   6.741
 3007SOL    HW1 9920   5.441   5.139   6.693
 3007SOL    HW2 9921   5.283   5.102   6.713
 3008SOL     OW 9922   4.265   2.469   5.979
 3008SOL    HW1 9923   4.202   2.437   5.909
 3008SOL    HW2 9924   4.264   2.569   5.981
 3009SOL     OW 9925   0.577   3.044   2.745
 3009SOL    HW1 9926   0.625   3.027   2.659
 3009SOL    HW2 9927   0.482   3.015   2.737
 3010SOL     OW 9928   4.168   6.210   5.994
 3010SOL    HW1 9929   4.210   6.218   5.904
 3010SOL    HW2 9930   4.073   6.179   5.983
 3011SOL     OW 9931   5.814   0.088   1.073
 3011SOL    HW1 9932   5.827   0.183   1.102
 3011SOL    HW2 9933   5.856   0.027   1.140
 3012SOL     OW 9934   2.929   3.060   6.005
 3012SOL    HW1 9935   2.993   3.059   5.928
 3012SOL    HW2 9936   2.966   3.119   6.078
 3013SOL     OW 9937   0.751   5.775   4.186
 3013SOL    HW1 9938   0.827   5.775   4.252
 3013SOL    HW2 9939   0.753   5.689   4.134
 3014SOL     OW 9940   4.977   0.942   5.175
 3014SOL    HW1 9941   4.965   1.032   5.217
 3014SOL    HW2 9942   4.917   0.876   5.221
 3015SOL     OW 9943   1.300   1.261   0.380
 3015SOL    HW1 9944   1.231   1.300   0.440
 3015SOL    HW2 9945   1.292   1.301   0.289
 3016SOL     OW 9946   2.628   6.371   4.717
 3016SOL    HW1 9947   2.599   6.430   4.641
 3016SOL    HW2 9948   2.694   6.420   4.774
 3017SOL     OW 9949   6.629   6.021   1.585
 3017SOL    HW1 9950   6.545   6.070   1.607
 3017SOL    HW2 9951   6.705   6.085   1.577
 3018SOL     OW 9952   3.329   0.608   0.205
 3018SOL    HW1 9953   3.343   0.642   0.298
 3018SOL    HW2 9954   3.382   0.524   0.192
 3019SOL     OW 9955   1.585   0.137   6.072
 3019SOL    HW1 9956   1.562   0.040   6.082
 3019SOL    HW2 9957   1.615   0.173   6.160
 3020SOL     OW 9958   5.323   3.564   0.172
 3020SOL    HW1 9959   5.349   3.502   0.097
 3020SOL    HW2 9960   5.257   3.631   0.137
 3021SOL     OW 9961   3.529   6.375   4.857
 3021SOL    HW1 9962   3.557   6.469   4.838
 3021SOL    HW2 9963   3.546   6.318   4.776
 3022SOL     OW 9964   4.554   6.440   3.543
 3022SOL    HW1 9965   4.632   6.378   3.539
 3022SOL    HW2 9966   4.485   6.411   3.477
 3023SOL     OW 9967   4.051   7.018   2.870
 3023SOL    HW1 9968   3.987   0.035   2.802
 3023SOL    HW2 9969   4.072   6.922   2.851
 3024SOL     OW 9970   0.319   6.279   6.109
 3024SOL    HW1 9971   0.403   6.333   6.097
 3024SOL    HW2 9972   0.248   6.313   6.048
 3025SOL     OW 9973   3.626   6.067   0.983
 3025SOL    HW1 9974   3.566   5.989   0.994
 3025SOL    HW2 9975   3.586   6.132   0.919
 3026SOL     OW 9976   5.815   1.440   0.281
 3026SOL    HW1 9977   5.770   1.432   0.192
 3026SOL    HW2 9978   5.842   1.350   0.313
 3027SOL     OW 9979   5.274   1.414   1.541
 3027SOL    HW1 9980   5.220   1.496   1.557
 3027SOL    HW2 9981   5.304   1.411   1.446
 3028SOL     OW 9982   2.491   4.380   6.044
 3028SOL    HW1 9983   2.500   4.333   5.956
 3028SOL    HW2 9984   2.420   4.336   6.098
 3029SOL     OW 9985   0.759   1.832   3.979
 3029SOL    HW1 9986   0.659   1.831   3.976
 3029SOL    HW2 9987   0.790   1.902   4.043
 3030SOL     OW 9988   1.422   3.565   1.379
 3030SOL    HW1 9989   1.501   3.626   1.383
 3030SOL    HW2 9990   1.437   3.497   1.307
 3031SOL     OW 9991   1.132   5.738   1.225
 3031SOL    HW1 9992   1.139   5.706   1.131
 3031SOL    HW2 9993   1.155   5.836   1.229
 3032SOL     OW 9994   1.249   0.637   2.773
 3032SOL    HW1 9995   1.349   0.634   2.776
 3032SOL    HW2 9996   1.219   0.686   2.691
 3033SOL     OW 9997   6.977   2.335   4.275
 3033SOL    HW1 9998   0.039   2.298   4.320
 3033SOL    HW2 9999   6.895   2.294   4.313
 3034SOL     OW10000   0.491   5.860   3.697
 3034SOL    HW110001   0.517   5.876   3.602
 3034SOL    HW210002   0.433   5.935   3.729
 3035SOL     OW10003   1.289   2.436   6.471
 3035SOL    HW110004   1.294   2.517   6.529
 3035SOL    HW210005   1.326   2.458   6.381
 3036SOL     OW10006   2.441   1.948   6.406
 3036SOL    HW110007   2.347   1.941   6.437
 3036SOL    HW210008   2.488   2.021   6.457
 3037SOL     OW10009   0.659   5.513   6.556
 3037SOL    HW110010   0.674   5.536   6.460
 3037SOL    HW210011   0.710   5.578   6.613
 3038SOL     OW10012   5.245   4.915   6.247
 3038SOL    HW110013   5.279   4.891   6.338
 3038SOL    HW210014   5.230   4.832   6.193
 3039SOL     OW10015   6.592   4.193   6.999
 3039SOL    HW110016   6.584   4.094   6.993
 3039SOL    HW210017   6.576   4.233   6.909
 3040SOL     OW10018   3.698   4.602   6.142
 3040SOL    HW110019   3.635   4.591   6.065
 3040SOL    HW210020   3.775   4.659   6.114
 3041SOL     OW10021   2.316   4.360   4.875
 3041SOL    HW110022   2.219   4.383   4.880
 3041SOL    HW210023   2.327   4.268   4.840
 3042SOL     OW10024   0.238   5.123   3.045
 3042SOL    HW110025   0.257   5.133   2.947
 3042SOL    HW210026   0.240   5.213   3.088
 3043SOL     OW10027   3.084   4.413   0.875
 3043SOL    HW110028   3.127   4.423   0.965
 3043SOL    HW210029   3.014   4.484   0.864
 3044SOL     OW10030   3.471   3.550   5.045
 3044SOL    HW110031   3.430   3.641   5.043
 3044SOL    HW210032   3.498   3.524   4.952
 3045SOL     OW10033   5.237   1.655   2.820
 3045SOL    HW110034   5.292   1.649   2.903
 3045SOL    HW210035   5.150   1.609   2.834
 3046SOL     OW10036   5.794   5.560   0.378
 3046SOL    HW110037   5.859   5.488   0.404
 3046SOL    HW210038   5.772   5.615   0.458
 3047SOL     OW10039   6.119   0.800   6.538
 3047SOL    HW110040   6.098   0.709   6.504
 3047SOL    HW210041   6.093   0.807   6.634
 3048SOL     OW10042   4.002   3.514   1.399
 3048SOL    HW110043   4.013   3.614   1.400
 3048SOL    HW210044   4.080   3.472   1.446
 3049SOL     OW10045   0.906   0.386   4.536
 3049SOL    HW110046   0.904   0.451   4.461
 3049SOL    HW210047   0.996   0.342   4.540
 3050SOL     OW10048   3.082   2.632   1.363
 3050SOL    HW110049   3.124   2.719   1.339
 3050SOL    HW210050   2.995   2.649   1.411
 3051SOL     OW10051   2.523   6.810   4.604
 3051SOL    HW110052   2.511   6.721   4.649
 3051SOL    HW210053   2.616   6.844   4.622
 3052SOL     OW10054   6.017   6.024   2.368
 3052SOL    HW110055   5.955   6.013   2.445
 3052SOL    HW210056   6.078   6.102   2.384
 3053SOL     OW10057   1.573   4.022   0.605
 3053SOL    HW110058   1.595   3.992   0.698
 3053SOL    HW210059   1.658   4.040   0.555
 3054SOL     OW10060   5.770   1.387   3.015
 3054SOL    HW110061   5.810   1.321   3.078
 3054SOL    HW210062   5.805   1.478   3.035
 3055SOL     OW10063   6.398   6.030   6.503
 3055SOL    HW110064   6.356   5.943   6.475
 3055SOL    HW210065   6.378   6.100   6.435
 3056SOL     OW10066   4.895   1.522   6.012
 3056SOL    HW110067   4.906   1.423   6.008
 3056SOL    HW210068   4.955   1.559   6.084
 3057SOL     OW10069   6.200   5.871   3.073
 3057SOL    HW110070   6.263   5.837   3.143
 3057SOL    HW210071   6.108   5.877   3.111
 3058SOL     OW10072   6.352   4.402   0.021
 3058SOL    HW110073   6.437   4.432   0.066
 3058SOL    HW210074   6.351   4.303   0.016
 3059SOL     OW10075   2.452   2.620   4.602
 3059SOL    HW110076   2.510   2.645   4.525
 3059SOL    HW210077   2.385   2.551   4.573
 3060SOL     OW10078   4.224   5.157   5.462
 3060SOL    HW110079   4.197   5.061   5.468
 3060SOL    HW210080   4.317   5.163   5.427
 3061SOL     OW10081   4.860   4.830   5.402
 3061SOL    HW110082   4.901   4.765   5.338
 3061SOL    HW210083   4.766   4.850   5.373
 3062SOL     OW10084   4.710   4.325   1.726
 3062SOL    HW110085   4.627   4.271   1.707
 3062SOL    HW210086   4.695   4.383   1.806
 3063SOL     OW10087   6.846   4.343   1.386
 3063SOL    HW110088   6.767   4.286   1.363
 3063SOL    HW210089   6.925   4.284   1.406
 3064SOL     OW10090   3.975   1.868   6.799
 3064SOL    HW110091   3.909   1.902   6.866
 3064SOL    HW210092   4.019   1.785   6.834
 3065SOL     OW10093   1.106   0.798   7.015
 3065SOL    HW110094   1.037   0.852   6.967
 3065SOL    HW210095   1.159   0.746   6.948
 3066SOL     OW10096   5.339   6.145   6.344
 3066SOL    HW110097   5.427   6.190   6.330
 3066SOL    HW210098   5.317   6.142   6.441
 3067SOL     OW10099   2.827   2.387   0.081
 3067SOL    HW110100   2.897   2.350   0.143
 3067SOL    HW210101   2.869   2.455   0.021
 3068SOL     OW10102   0.565   0.721   0.914
 3068SOL    HW110103   0.592   0.688   1.004
 3068SOL    HW210104   0.496   0.660   0.874
 3069SOL     OW10105   5.091   6.947   2.440
 3069SOL    HW110106   5.060   6.953   2.345
 3069SOL    HW210107   5.049   0.002   2.494
 3070SOL     OW10108   3.180   1.598   1.026
 3070SOL    HW110109   3.198   1.627   1.120
 3070SOL    HW210110   3.239   1.650   0.964
 3071SOL     OW10111   0.262   2.970   3.349
 3071SOL    HW110112   0.196   2.908   3.392
 3071SOL    HW210113   0.249   2.969   3.250
 3072SOL     OW10114   2.608   6.534   6.682
 3072SOL    HW110115   2.525   6.526   6.737
 3072SOL    HW210116   2.619   6.628   6.650
 3073SOL     OW10117   5.884   4.764   0.614
 3073SOL    HW110118   5.812   4.697   0.597
 3073SOL    HW210119   5.957   4.722   0.667
 3074SOL     OW10120   1.690   3.665   1.323
 3074SOL    HW110121   1.774   3.645   1.375
 3074SOL    HW210122   1.689   3.612   1.239
 3075SOL     OW10123   2.083   5.207   3.112
 3075SOL    HW110124   1.984   5.209   3.128
 3075SOL    HW210125   2.104   5.249   3.024
 3076SOL     OW10126   0.064   0.819   4.614
 3076SOL    HW110127   0.064   0.899   4.673
 3076SOL    HW210128   0.023   0.842   4.526
 3077SOL     OW10129   6.460   4.120   1.517
 3077SOL    HW110130   6.372   4.158   1.488
 3077SOL    HW210131   6.454   4.091   1.612
 3078SOL     OW10132   6.470   2.754   1.473
 3078SOL    HW110133   6.547   2.812   1.446
 3078SOL    HW210134   6.491   2.709   1.560
 3079SOL     OW10135   2.164   2.886   5.193
 3079SOL    HW110136   2.157   2.908   5.290
 3079SOL    HW210137   2.246   2.928   5.154
 3080SOL     OW10138   4.503   5.090   1.082
 3080SOL    HW110139   4.583   5.082   1.022
 3080SOL    HW210140   4.475   4.998   1.111
 3081SOL     OW10141   1.535   3.959   0.864
 3081SOL    HW110142   1.613   3.944   0.925
 3081SOL    HW210143   1.452   3.924   0.906
 3082SOL     OW10144   4.028   4.875   4.638
 3082SOL    HW110145   4.121   4.843   4.624
 3082SOL    HW210146   3.966   4.828   4.575
 3083SOL     OW10147   2.187   5.706   2.707
 3083SOL    HW110148   2.273   5.755   2.711
 3083SOL    HW210149   2.203   5.608   2.720
 3084SOL     OW10150   0.784   3.290   3.740
 3084SOL    HW110151   0.746   3.342   3.664
 3084SOL    HW210152   0.860   3.341   3.781
 3085SOL     OW10153   4.776   4.794   0.924
 3085SOL    HW110154   4.742   4.826   0.835
 3085SOL    HW210155   4.839   4.718   0.910
 3086SOL     OW10156   6.636   1.194   6.370
 3086SOL    HW110157   6.628   1.233   6.279
 3086SOL    HW210158   6.732   1.188   6.396
 3087SOL     OW10159   3.210   6.824   1.925
 3087SOL    HW110160   3.114   6.847   1.937
 3087SOL    HW210161   3.228   6.807   1.828
 3088SOL     OW10162   0.852   3.153   5.398
 3088SOL    HW110163   0.771   3.116   5.353
 3088SOL    HW210164   0.933   3.103   5.368
 3089SOL     OW10165   4.862   6.943   5.319
 3089SOL    HW110166   4.948   6.937   5.370
 3089SOL    HW210167   4.871   7.010   5.246
 3090SOL     OW10168   0.801   2.032   1.623
 3090SOL    HW110169   0.758   2.117   1.653
 3090SOL    HW210170   0.769   1.956   1.681
 3091SOL     OW10171   1.324   1.825   0.680
 3091SOL    HW110172   1.381   1.873   0.747
 3091SOL    HW210173   1.298   1.888   0.607
 3092SOL     OW10174   6.408   0.013   2.439
 3092SOL    HW110175   6.454   0.100   2.422
 3092SOL    HW210176   6.406   6.977   2.355
 3093SOL     OW10177   5.624   5.253   6.227
 3093SOL    HW110178   5.570   5.213   6.302
 3093SOL    HW210179   5.705   5.197   6.210
 3094SOL     OW10180   2.670   1.391   5.790
 3094SOL    HW110181   2.579   1.433   5.793
 3094SOL    HW210182   2.695   1.371   5.696
 3095SOL     OW10183   2.157   3.176   5.103
 3095SOL    HW110184   2.118   3.152   5.191
 3095SOL    HW210185   2.232   3.113   5.082
 3096SOL     OW10186   1.026   3.553   4.592
 3096SOL    HW110187   1.080   3.521   4.670
 3096SOL    HW210188   0.929   3.550   4.617
 3097SOL     OW10189   5.477   2.895   6.381
 3097SOL    HW110190   5.475   2.896   6.481
 3097SOL    HW210191   5.411   2.827   6.347
 3098SOL     OW10192   1.702   1.772   1.929
 3098SOL    HW110193   1.602   1.762   1.931
 3098SOL    HW210194   1.739   1.726   1.848
 3099SOL     OW10195   0.748   6.499   3.854
 3099SOL    HW110196   0.791   6.560   3.920
 3099SOL    HW210197   0.818   6.459   3.794
 3100SOL     OW10198   6.185   5.849   2.271
 3100SOL    HW110199   6.140   5.919   2.326
 3100SOL    HW210200   6.182   5.874   2.175
 3101SOL     OW10201   4.119   6.639   6.121
 3101SOL    HW110202   4.188   6.710   6.124
 3101SOL    HW210203   4.054   6.659   6.047
 3102SOL     OW10204   0.425   4.980   0.660
 3102SOL    HW110205   0.440   5.070   0.701
 3102SOL    HW210206   0.465   4.909   0.719
 3103SOL     OW10207   3.111   0.374   1.116
 3103SOL    HW110208   3.030   0.432   1.116
 3103SOL    HW210209   3.120   0.330   1.205
 3104SOL     OW10210   4.798   0.620   6.035
 3104SOL    HW110211   4.758   0.547   5.980
 3104SOL    HW210212   4.746   0.629   6.120
 3105SOL     OW10213   5.196   3.189   0.304
 3105SOL    HW110214   5.136   3.257   0.262
 3105SOL    HW210215   5.181   3.187   0.403
 3106SOL     OW10216   6.092   0.892   4.920
 3106SOL    HW110217   5.996   0.897   4.895
 3106SOL    HW210218   6.119   0.795   4.929
 3107SOL     OW10219   4.174   1.222   5.155
 3107SOL    HW110220   4.135   1.250   5.243
 3107SOL    HW210221   4.144   1.285   5.084
 3108SOL     OW10222   1.777   4.299   4.274
 3108SOL    HW110223   1.815   4.352   4.351
 3108SOL    HW210224   1.682   4.275   4.294
 3109SOL     OW10225   6.557   6.556   3.692
 3109SOL    HW110226   6.484   6.521   3.751
 3109SOL    HW210227   6.605   6.630   3.739
 3110SOL     OW10228   1.943   4.695   3.760
 3110SOL    HW110229   1.873   4.628   3.786
 3110SOL    HW210230   1.934   4.716   3.663
 3111SOL     OW10231   6.355   4.364   4.889
 3111SOL    HW110232   6.292   4.435   4.919
 3111SOL    HW210233   6.449   4.391   4.909
 3112SOL     OW10234   3.799   2.122   6.977
 3112SOL    HW110235   3.744   2.204   6.963
 3112SOL    HW210236   3.883   2.146   0.008
 3113SOL     OW10237   1.819   5.653   3.335
 3113SOL    HW110238   1.903   5.614   3.372
 3113SOL    HW210239   1.776   5.586   3.274
 3114SOL     OW10240   4.102   1.371   0.349
 3114SOL    HW110241   4.166   1.400   0.420
 3114SOL    HW210242   4.152   1.321   0.278
 3115SOL     OW10243   4.086   4.622   5.770
 3115SOL    HW110244   4.080   4.634   5.869
 3115SOL    HW210245   3.996   4.637   5.729
 3116SOL     OW10246   0.425   2.408   0.862
 3116SOL    HW110247   0.446   2.422   0.765
 3116SOL    HW210248   0.449   2.314   0.888
 3117SOL     OW10249   5.043   2.146   5.498
 3117SOL    HW110250   5.060   2.064   5.554
 3117SOL    HW210251   4.946   2.170   5.504
 3118SOL     OW10252   1.826   1.125   2.782
 3118SOL    HW110253   1.769   1.088   2.855
 3118SOL    HW210254   1.884   1.197   2.818
 3119SOL     OW10255   4.089   3.525   6.046
 3119SOL    HW110256   4.167   3.481   6.091
 3119SOL    HW210257   4.092   3.507   5.948
 3120SOL     OW10258   2.638   6.358   5.475
 3120SOL    HW110259   2.554   6.333   5.523
 3120SOL    HW210260   2.618   6.426   5.406
 3121SOL     OW10261   5.053   1.631   4.376
 3121SOL    HW110262   5.072   1.729   4.371
 3121SOL    HW210263   4.967   1.611   4.330
 3122SOL     OW10264   4.429   5.097   4.535
 3122SOL    HW110265   4.450   5.192   4.511
 3122SOL    HW210266   4.501   5.037   4.500
 3123SOL     OW10267   2.596   2.128   3.104
 3123SOL    HW110268   2.617   2.061   3.175
 3123SOL    HW210269   2.612   2.088   3.014
 3124SOL     OW10270   5.092   6.719   4.219
 3124SOL    HW110271   5.017   6.722   4.285
 3124SOL    HW210272   5.064   6.766   4.135
 3125SOL     OW10273   1.469   2.715   5.005
 3125SOL    HW110274   1.472   2.673   4.915
 3125SOL    HW210275   1.552   2.768   5.020
 3126SOL     OW10276   5.427   5.289   4.137
 3126SOL    HW110277   5.513   5.339   4.150
 3126SOL    HW210278   5.445   5.206   4.084
 3127SOL     OW10279   0.540   1.932   4.296
 3127SOL    HW110280   0.538   1.969   4.388
 3127SOL    HW210281   0.578   2.000   4.233
 3128SOL     OW10282   4.385   0.010   6.910
 3128SOL    HW110283   4.426   0.082   6.967
 3128SOL    HW210284   4.456   6.964   6.881
 3129SOL     OW10285   4.642   3.472   1.094
 3129SOL    HW110286   4.720   3.426   1.050
 3129SOL    HW210287   4.674   3.522   1.174
 3130SOL     OW10288   1.805   4.288   1.094
 3130SOL    HW110289   1.838   4.253   1.182
 3130SOL    HW210290   1.716   4.248   1.073
 3131SOL     OW10291   6.545   4.194   2.166
 3131SOL    HW110292   6.448   4.213   2.152
 3131SOL    HW210293   6.592   4.191   2.078
 3132SOL     OW10294   4.058   4.116   0.341
 3132SOL    HW110295   4.053   4.137   0.243
 3132SOL    HW210296   4.151   4.131   0.374
 3133SOL     OW10297   4.307   0.696   3.431
 3133SOL    HW110298   4.323   0.778   3.376
 3133SOL    HW210299   4.327   0.615   3.376
 3134SOL     OW10300   3.477   4.877   2.535
 3134SOL    HW110301   3.455   4.927   2.619
 3134SOL    HW210302   3.460   4.935   2.456
 3135SOL     OW10303   5.423   6.644   6.097
 3135SOL    HW110304   5.349   6.667   6.160
 3135SOL    HW210305   5.430   6.715   6.026
 3136SOL     OW10306   6.328   1.567   2.726
 3136SOL    HW110307   6.325   1.513   2.641
 3136SOL    HW210308   6.404   1.535   2.783
 3137SOL     OW10309   6.464   6.847   0.395
 3137SOL    HW110310   6.463   6.871   0.492
 3137SOL    HW210311   6.374   6.815   0.367
 3138SOL     OW10312   5.475   5.078   3.979
 3138SOL    HW110313   5.439   5.008   4.041
 3138SOL    HW210314   5.455   5.052   3.884
 3139SOL     OW10315   2.664   5.724   1.158
 3139SOL    HW110316   2.662   5.780   1.075
 3139SOL    HW210317   2.571   5.708   1.190
 3140SOL     OW10318   6.733   6.536   5.798
 3140SOL    HW110319   6.692   6.623   5.770
 3140SOL    HW210320   6.710   6.466   5.731
 3141SOL     OW10321   6.917   2.898   6.445
 3141SOL    HW110322   6.862   2.860   6.371
 3141SOL    HW210323   6.858   2.923   6.522
 3142SOL     OW10324   5.343   0.871   2.078
 3142SOL    HW110325   5.344   0.971   2.084
 3142SOL    HW210326   5.392   0.842   1.996
 3143SOL     OW10327   5.888   1.451   6.919
 3143SOL    HW110328   5.932   1.508   6.988
 3143SOL    HW210329   5.921   1.477   6.828
 3144SOL     OW10330   4.179   4.134   6.610
 3144SOL    HW110331   4.128   4.066   6.558
 3144SOL    HW210332   4.232   4.088   6.682
 3145SOL     OW10333   2.083   6.106   1.774
 3145SOL    HW110334   2.167   6.104   1.829
 3145SOL    HW210335   2.105   6.088   1.678
 3146SOL     OW10336   0.405   0.915   5.339
 3146SOL    HW110337   0.361   0.922   5.429
 3146SOL    HW210338   0.490   0.967   5.340
 3147SOL     OW10339   3.698   4.823   6.738
 3147SOL    HW110340   3.688   4.884   6.817
 3147SOL    HW210341   3.619   4.833   6.678
 3148SOL     OW10342   0.774   5.681   2.855
 3148SOL    HW110343   0.703   5.615   2.881
 3148SOL    HW210344   0.841   5.688   2.928
 3149SOL     OW10345   2.946   1.395   1.031
 3149SOL    HW110346   3.006   1.328   1.075
 3149SOL    HW210347   2.983   1.487   1.045
 3150SOL     OW10348   6.508   6.522   4.963
 3150SOL    HW110349   6.491   6.560   4.872
 3150SOL    HW210350   6.573   6.581   5.012
 3151SOL     OW10351   5.736   1.959   6.020
 3151SOL    HW110352   5.811   2.008   6.066
 3151SOL    HW210353   5.669   2.025   5.987
 3152SOL     OW10354   1.633   3.474   6.301
 3152SOL    HW110355   1.550   3.419   6.316
 3152SOL    HW210356   1.681   3.441   6.220
 3153SOL     OW10357   6.682   5.344   0.626
 3153SOL    HW110358   6.662   5.437   0.596
 3153SOL    HW210359   6.716   5.345   0.720
 3154SOL     OW10360   5.571   1.705   1.528
 3154SOL    HW110361   5.573   1.774   1.600
 3154SOL    HW210362   5.578   1.613   1.568
 3155SOL     OW10363   6.846   4.839   0.176
 3155SOL    HW110364   6.886   4.904   0.240
 3155SOL    HW210365   6.765   4.797   0.218
 3156SOL     OW10366   3.578   4.150   2.073
 3156SOL    HW110367   3.661   4.129   2.124
 3156SOL    HW210368   3.547   4.242   2.095
 3157SOL     OW10369   0.718   1.896   5.435
 3157SOL    HW110370   0.624   1.870   5.412
 3157SOL    HW210371   0.722   1.923   5.531
 3158SOL     OW10372   3.080   1.590   5.647
 3158SOL    HW110373   3.030   1.512   5.610
 3158SOL    HW210374   3.144   1.559   5.717
 3159SOL     OW10375   5.070   6.964   0.353
 3159SOL    HW110376   5.082   6.867   0.331
 3159SOL    HW210377   5.002   7.004   0.291
 3160SOL     OW10378   2.445   6.781   6.210
 3160SOL    HW110379   2.528   6.793   6.155
 3160SOL    HW210380   2.397   6.868   6.218
 3161SOL     OW10381   1.521   2.555   3.179
 3161SOL    HW110382   1.488   2.641   3.220
 3161SOL    HW210383   1.460   2.529   3.104
 3162SOL     OW10384   1.711   5.667   0.722
 3162SOL    HW110385   1.700   5.675   0.623
 3162SOL    HW210386   1.730   5.572   0.746
 3163SOL     OW10387   4.380   3.866   0.548
 3163SOL    HW110388   4.446   3.888   0.619
 3163SOL    HW210389   4.391   3.771   0.520
 3164SOL     OW10390   3.024   5.522   3.676
 3164SOL    HW110391   2.985   5.557   3.761
 3164SOL    HW210392   2.992   5.429   3.661
 3165SOL     OW10393   0.912   5.234   0.083
 3165SOL    HW110394   0.974   5.168   0.125
 3165SOL    HW210395   0.817   5.203   0.093
 3166SOL     OW10396   4.130   0.969   5.036
 3166SOL    HW110397   4.156   1.056   5.079
 3166SOL    HW210398   4.072   0.917   5.098
 3167SOL     OW10399   4.817   4.379   0.926
 3167SOL    HW110400   4.767   4.391   1.012
 3167SOL    HW210401   4.774   4.435   0.855
 3168SOL     OW10402   4.627   2.240   0.690
 3168SOL    HW110403   4.563   2.209   0.619
 3168SOL    HW210404   4.580   2.239   0.779
 3169SOL     OW10405   1.275   4.860   2.226
 3169SOL    HW110406   1.267   4.784   2.290
 3169SOL    HW210407   1.302   4.943   2.276
 3170SOL     OW10408   3.762   5.719   3.161
 3170SOL    HW110409   3.688   5.736   3.095
 3170SOL    HW210410   3.729   5.738   3.253
 3171SOL     OW10411   5.616   2.638   2.985
 3171SOL    HW110412   5.652   2.584   3.060
 3171SOL    HW210413   5.534   2.594   2.948
 3172SOL     OW10414   6.939   4.998   0.380
 3172SOL    HW110415   6.873   5.067   0.409
 3172SOL    HW210416   6.993   4.968   0.459
 3173SOL     OW10417   3.326   1.392   0.155
 3173SOL    HW110418   3.378   1.477   0.149
 3173SOL    HW210419   3.377   1.325   0.209
 3174SOL     OW10420   2.280   3.478   5.617
 3174SOL    HW110421   2.287   3.575   5.594
 3174SOL    HW210422   2.219   3.467   5.696
 3175SOL     OW10423   6.261   1.331   3.700
 3175SOL    HW110424   6.254   1.250   3.758
 3175SOL    HW210425   6.231   1.411   3.751
 3176SOL     OW10426   0.379   4.217   4.971
 3176SOL    HW110427   0.431   4.179   5.048
 3176SOL    HW210428   0.406   4.170   4.887
 3177SOL     OW10429   5.718   3.878   3.404
 3177SOL    HW110430   5.689   3.793   3.449
 3177SOL    HW210431   5.800   3.913   3.450
 3178SOL     OW10432   5.904   1.206   0.353
 3178SOL    HW110433   5.851   1.121   0.346
 3178SOL    HW210434   5.984   1.200   0.293
 3179SOL     OW10435   0.935   1.748   2.091
 3179SOL    HW110436   0.846   1.739   2.046
 3179SOL    HW210437   0.995   1.805   2.035
 3180SOL     OW10438   6.667   6.179   6.470
 3180SOL    HW110439   6.607   6.115   6.517
 3180SOL    HW210440   6.613   6.237   6.409
 3181SOL     OW10441   0.575   1.419   4.761
 3181SOL    HW110442   0.635   1.478   4.814
 3181SOL    HW210443   0.623   1.389   4.678
 3182SOL     OW10444   3.128   0.442   0.525
 3182SOL    HW110445   3.219   0.461   0.489
 3182SOL    HW210446   3.102   0.348   0.504
 3183SOL     OW10447   4.474   4.444   2.246
 3183SOL    HW110448   4.532   4.400   2.314
 3183SOL    HW210449   4.473   4.390   2.162
 3184SOL     OW10450   0.809   2.338   4.167
 3184SOL    HW110451   0.764   2.420   4.133
 3184SOL    HW210452   0.905   2.359   4.186
 3185SOL     OW10453   6.972   6.800   5.771
 3185SOL    HW110454   6.949   6.709   5.806
 3185SOL    HW210455   0.052   6.814   5.779
 3186SOL     OW10456   1.578   1.001   6.424
 3186SOL    HW110457   1.627   0.957   6.349
 3186SOL    HW210458   1.508   0.939   6.459
 3187SOL     OW10459   3.942   5.992   2.634
 3187SOL    HW110460   4.005   6.049   2.688
 3187SOL    HW210461   3.912   5.915   2.689
 3188SOL     OW10462   2.409   4.835   5.509
 3188SOL    HW110463   2.354   4.766   5.462
 3188SOL    HW210464   2.422   4.914   5.449
 3189SOL     OW10465   2.435   1.304   0.077
 3189SOL    HW110466   2.375   1.329   0.002
 3189SOL    HW210467   2.529   1.328   0.054
 3190SOL     OW10468   6.417   6.259   4.943
 3190SOL    HW110469   6.446   6.351   4.968
 3190SOL    HW210470   6.339   6.264   4.881
 3191SOL     OW10471   4.472   5.569   2.242
 3191SOL    HW110472   4.509   5.518   2.163
 3191SOL    HW210473   4.546   5.591   2.305
 3192SOL     OW10474   6.507   2.332   1.273
 3192SOL    HW110475   6.473   2.295   1.187
 3192SOL    HW210476   6.558   2.261   1.322
 3193SOL     OW10477   4.589   1.157   5.023
 3193SOL    HW110478   4.551   1.238   4.980
 3193SOL    HW210479   4.522   1.118   5.087
 3194SOL     OW10480   1.322   1.122   5.605
 3194SOL    HW110481   1.346   1.170   5.689
 3194SOL    HW210482   1.314   1.187   5.530
 3195SOL     OW10483   0.298   1.154   1.831
 3195SOL    HW110484   0.208   1.148   1.875
 3195SOL    HW210485   0.348   1.068   1.846
 3196SOL     OW10486   6.552   0.643   5.403
 3196SOL    HW110487   6.629   0.587   5.432
 3196SOL    HW210488   6.566   0.738   5.433
 3197SOL     OW10489   2.277   7.004   6.205
 3197SOL    HW110490   2.224   6.966   6.130
 3197SOL    HW210491   2.219   0.048   6.258
 3198SOL     OW10492   6.819   2.572   3.822
 3198SOL    HW110493   6.790   2.665   3.845
 3198SOL    HW210494   6.898   2.577   3.760
 3199SOL     OW10495   5.526   4.839   2.855
 3199SOL    HW110496   5.452   4.885   2.806
 3199SOL    HW210497   5.580   4.907   2.904
 3200SOL     OW10498   6.135   3.148   4.016
 3200SOL    HW110499   6.136   3.091   3.933
 3200SOL    HW210500   6.118   3.243   3.991
 3201SOL     OW10501   6.058   4.504   2.572
 3201SOL    HW110502   6.017   4.505   2.663
 3201SOL    HW210503   6.065   4.598   2.538
 3202SOL     OW10504   1.251   5.103   0.426
 3202SOL    HW110505   1.334   5.070   0.379
 3202SOL    HW210506   1.172   5.092   0.365
 3203SOL     OW10507   4.274   0.033   1.496
 3203SOL    HW110508   4.180   7.016   1.500
 3203SOL    HW210509   4.273   0.123   1.452
 3204SOL     OW10510   2.593   1.129   3.534
 3204SOL    HW110511   2.641   1.207   3.574
 3204SOL    HW210512   2.660   1.059   3.509
 3205SOL     OW10513   5.591   3.614   5.835
 3205SOL    HW110514   5.529   3.554   5.886
 3205SOL    HW210515   5.673   3.562   5.810
 3206SOL     OW10516   2.532   2.703   1.808
 3206SOL    HW110517   2.487   2.649   1.736
 3206SOL    HW210518   2.462   2.748   1.864
 3207SOL     OW10519   0.761   0.692   5.921
 3207SOL    HW110520   0.786   0.784   5.893
 3207SOL    HW210521   0.764   0.685   6.021
 3208SOL     OW10522   6.090   5.872   5.315
 3208SOL    HW110523   6.105   5.773   5.316
 3208SOL    HW210524   6.120   5.909   5.227
 3209SOL     OW10525   4.644   5.170   5.617
 3209SOL    HW110526   4.565   5.228   5.636
 3209SOL    HW210527   4.706   5.173   5.696
 3210SOL     OW10528   0.198   5.144   1.716
 3210SOL    HW110529   0.101   5.120   1.713
 3210SOL    HW210530   0.220   5.204   1.639
 3211SOL     OW10531   1.509   5.206   0.635
 3211SOL    HW110532   1.485   5.296   0.671
 3211SOL    HW210533   1.575   5.217   0.560
 3212SOL     OW10534   3.333   0.064   2.668
 3212SOL    HW110535   3.235   0.056   2.647
 3212SOL    HW210536   3.345   0.109   2.757
 3213SOL     OW10537   2.318   0.450   6.374
 3213SOL    HW110538   2.281   0.541   6.394
 3213SOL    HW210539   2.244   0.383   6.378
 3214SOL     OW10540   3.790   0.224   3.362
 3214SOL    HW110541   3.816   0.184   3.274
 3214SOL    HW210542   3.754   0.316   3.347
 3215SOL     OW10543   1.058   3.335   0.342
 3215SOL    HW110544   0.997   3.355   0.266
 3215SOL    HW210545   1.096   3.421   0.378
 3216SOL     OW10546   5.215   4.663   1.358
 3216SOL    HW110547   5.197   4.573   1.398
 3216SOL    HW210548   5.187   4.664   1.262
 3217SOL     OW10549   0.013   5.165   2.834
 3217SOL    HW110550   0.045   5.138   2.925
 3217SOL    HW210551   0.065   5.245   2.803
 3218SOL     OW10552   6.588   2.102   3.280
 3218SOL    HW110553   6.576   2.117   3.378
 3218SOL    HW210554   6.605   2.005   3.263
 3219SOL     OW10555   6.741   0.909   4.903
 3219SOL    HW110556   6.653   0.899   4.949
 3219SOL    HW210557   6.741   0.993   4.848
 3220SOL     OW10558   6.985   5.803   6.495
 3220SOL    HW110559   0.020   5.827   6.413
 3220SOL    HW210560   6.980   5.883   6.555
 3221SOL     OW10561   3.932   0.792   2.518
 3221SOL    HW110562   3.986   0.711   2.495
 3221SOL    HW210563   3.836   0.775   2.498
 3222SOL     OW10564   2.966   1.369   3.294
 3222SOL    HW110565   3.050   1.414   3.324
 3222SOL    HW210566   2.948   1.290   3.352
 3223SOL     OW10567   1.837   6.487   0.492
 3223SOL    HW110568   1.901   6.465   0.565
 3223SOL    HW210569   1.842   6.585   0.471
 3224SOL     OW10570   4.723   2.951   5.053
 3224SOL    HW110571   4.748   3.022   4.987
 3224SOL    HW210572   4.800   2.889   5.067
 3225SOL     OW10573   4.264   1.048   4.112
 3225SOL    HW110574   4.255   1.057   4.012
 3225SOL    HW210575   4.348   1.093   4.142
 3226SOL     OW10576   1.493   0.144   1.825
 3226SOL    HW110577   1.453   0.143   1.916
 3226SOL    HW210578   1.452   0.073   1.769
 3227SOL     OW10579   3.927   2.431   6.651
 3227SOL    HW110580   3.973   2.343   6.662
 3227SOL    HW210581   3.923   2.454   6.554
 3228SOL     OW10582   0.713   3.893   0.628
 3228SOL    HW110583   0.747   3.846   0.546
 3228SOL    HW210584   0.777   3.966   0.653
 3229SOL     OW10585   2.816   0.675   5.782
 3229SOL    HW110586   2.856   0.750   5.730
 3229SOL    HW210587   2.869   0.592   5.768
 3230SOL     OW10588   2.723   5.504   5.866
 3230SOL    HW110589   2.641   5.446   5.866
 3230SOL    HW210590   2.784   5.475   5.939
 3231SOL     OW10591   3.408   1.062   2.742
 3231SOL    HW110592   3.500   1.096   2.722
 3231SOL    HW210593   3.385   1.082   2.837
 3232SOL     OW10594   4.248   6.053   4.035
 3232SOL    HW110595   4.244   5.953   4.033
 3232SOL    HW210596   4.310   6.083   4.107
 3233SOL     OW10597   0.203   2.453   6.827
 3233SOL    HW110598   0.284   2.511   6.834
 3233SOL    HW210599   0.121   2.508   6.845
 3234SOL     OW10600   1.476   3.077   0.296
 3234SOL    HW110601   1.543   3.143   0.329
 3234SOL    HW210602   1.391   3.125   0.273
 3235SOL     OW10603   6.259   5.511   1.968
 3235SOL    HW110604   6.251   5.442   2.039
 3235SOL    HW210605   6.276   5.467   1.880
 3236SOL     OW10606   2.800   3.704   0.439
 3236SOL    HW110607   2.788   3.747   0.528
 3236SOL    HW210608   2.859   3.624   0.450
 3237SOL     OW10609   6.584   1.555   4.447
 3237SOL    HW110610   6.527   1.478   4.418
 3237SOL    HW210611   6.644   1.525   4.521
 3238SOL     OW10612   6.227   5.365   0.390
 3238SOL    HW110613   6.238   5.457   0.352
 3238SOL    HW210614   6.306   5.343   0.447
 3239SOL     OW10615   0.115   0.136   3.728
 3239SOL    HW110616   0.096   0.040   3.708
 3239SOL    HW210617   0.164   0.142   3.815
 3240SOL     OW10618   0.243   0.470   6.349
 3240SOL    HW110619   0.197   0.383   6.368
 3240SOL    HW210620   0.281   0.468   6.257
 3241SOL     OW10621   4.716   1.702   6.218
 3241SOL    HW110622   4.667   1.722   6.302
 3241SOL    HW210623   4.696   1.609   6.189
 3242SOL     OW10624   5.214   4.054   5.727
 3242SOL    HW110625   5.243   4.149   5.738
 3242SOL    HW210626   5.116   4.047   5.747
 3243SOL     OW10627   3.936   5.501   6.497
 3243SOL    HW110628   3.937   5.493   6.398
 3243SOL    HW210629   3.844   5.527   6.528
 3244SOL     OW10630   5.848   6.338   6.881
 3244SOL    HW110631   5.824   6.408   6.814
 3244SOL    HW210632   5.871   6.253   6.834
 3245SOL     OW10633   4.577   2.202   4.134
 3245SOL    HW110634   4.625   2.139   4.074
 3245SOL    HW210635   4.636   2.280   4.155
 3246SOL     OW10636   0.276   6.874   2.054
 3246SOL    HW110637   0.177   6.869   2.037
 3246SOL    HW210638   0.312   6.957   2.014
 3247SOL     OW10639   0.177   4.300   2.618
 3247SOL    HW110640   0.123   4.363   2.563
 3247SOL    HW210641   0.121   4.222   2.646
 3248SOL     OW10642   5.360   2.578   2.903
 3248SOL    HW110643   5.307   2.508   2.856
 3248SOL    HW210644   5.329   2.586   2.998
 3249SOL     OW10645   3.955   3.338   3.577
 3249SOL    HW110646   3.900   3.259   3.605
 3249SOL    HW210647   3.986   3.388   3.658
 3250SOL     OW10648   5.049   6.126   3.081
 3250SOL    HW110649   4.990   6.080   3.015
 3250SOL    HW210650   5.087   6.209   3.040
 3251SOL     OW10651   2.418   0.671   4.719
 3251SOL    HW110652   2.495   0.608   4.727
 3251SOL    HW210653   2.415   0.730   4.800
 3252SOL     OW10654   2.548   1.337   3.299
 3252SOL    HW110655   2.638   1.313   3.264
 3252SOL    HW210656   2.525   1.278   3.377
 3253SOL     OW10657   5.338   3.475   0.929
 3253SOL    HW110658   5.305   3.461   0.836
 3253SOL    HW210659   5.311   3.397   0.985
 3254SOL     OW10660   5.125   0.392   6.972
 3254SOL    HW110661   5.149   0.480   6.932
 3254SOL    HW210662   5.050   0.351   6.920
 3255SOL     OW10663   5.953   5.757   0.762
 3255SOL    HW110664   5.881   5.758   0.692
 3255SOL    HW210665   6.032   5.706   0.728
 3256SOL     OW10666   4.557   2.082   1.459
 3256SOL    HW110667   4.489   2.094   1.387
 3256SOL    HW210668   4.632   2.025   1.425
 3257SOL     OW10669   3.052   2.092   2.003
 3257SOL    HW110670   3.114   2.072   2.079
 3257SOL    HW210671   3.002   2.176   2.022
 3258SOL     OW10672   3.716   5.570   3.995
 3258SOL    HW110673   3.677   5.480   3.974
 3258SOL    HW210674   3.753   5.568   4.088
 3259SOL     OW10675   5.493   4.880   4.215
 3259SOL    HW110676   5.593   4.871   4.220
 3259SOL    HW210677   5.453   4.794   4.183
 3260SOL     OW10678   1.652   4.215   1.980
 3260SOL    HW110679   1.619   4.152   2.049
 3260SOL    HW210680   1.656   4.169   1.891
 3261SOL     OW10681   5.546   0.867   2.398
 3261SOL    HW110682   5.560   0.798   2.328
 3261SOL    HW210683   5.619   0.860   2.467
 3262SOL     OW10684   4.159   1.974   2.551
 3262SOL    HW110685   4.217   1.984   2.631
 3262SOL    HW210686   4.066   1.949   2.580
 3263SOL     OW10687   2.922   1.002   3.190
 3263SOL    HW110688   2.877   0.977   3.104
 3263SOL    HW210689   3.000   1.061   3.170
 3264SOL     OW10690   1.925   4.752   0.498
 3264SOL    HW110691   1.960   4.658   0.493
 3264SOL    HW210692   1.851   4.764   0.431
 3265SOL     OW10693   5.943   6.395   5.676
 3265SOL    HW110694   5.921   6.444   5.760
 3265SOL    HW210695   5.947   6.296   5.695
 3266SOL     OW10696   2.766   4.159   0.163
 3266SOL    HW110697   2.680   4.165   0.214
 3266SOL    HW210698   2.754   4.204   0.074
 3267SOL     OW10699   4.075   0.797   1.584
 3267SOL    HW110700   4.132   0.878   1.592
 3267SOL    HW210701   3.978   0.823   1.593
 3268SOL     OW10702   1.169   4.803   1.430
 3268SOL    HW110703   1.092   4.866   1.421
 3268SOL    HW210704   1.179   4.775   1.525
 3269SOL     OW10705   0.358   5.442   2.088
 3269SOL    HW110706   0.260   5.458   2.078
 3269SOL    HW210707   0.407   5.529   2.077
 3270SOL     OW10708   1.027   2.949   5.973
 3270SOL    HW110709   1.040   2.926   5.877
 3270SOL    HW210710   0.986   3.040   5.980
 3271SOL     OW10711   6.673   3.312   1.743
 3271SOL    HW110712   6.653   3.369   1.823
 3271SOL    HW210713   6.667   3.369   1.661
 3272SOL     OW10714   4.046   5.926   6.888
 3272SOL    HW110715   3.958   5.970   6.901
 3272SOL    HW210716   4.091   5.914   6.976
 3273SOL     OW10717   4.705   4.141   6.162
 3273SOL    HW110718   4.611   4.111   6.149
 3273SOL    HW210719   4.762   4.108   6.086
 3274SOL     OW10720   6.058   0.824   6.805
 3274SOL    HW110721   6.134   0.878   6.839
 3274SOL    HW210722   6.036   0.752   6.871
 3275SOL     OW10723   4.653   0.729   0.741
 3275SOL    HW110724   4.695   0.685   0.821
 3275SOL    HW210725   4.712   0.803   0.709
 3276SOL     OW10726   4.649   6.287   6.914
 3276SOL    HW110727   4.561   6.327   6.888
 3276SOL    HW210728   4.638   6.233   6.998
 3277SOL     OW10729   3.062   1.569   1.470
 3277SOL    HW110730   2.966   1.547   1.455
 3277SOL    HW210731   3.098   1.618   1.390
 3278SOL     OW10732   0.194   0.755   6.163
 3278SOL    HW110733   0.221   0.667   6.203
 3278SOL    HW210734   0.218   0.755   6.065
 3279SOL     OW10735   4.471   6.682   1.250
 3279SOL    HW110736   4.459   6.708   1.154
 3279SOL    HW210737   4.568   6.670   1.271
 3280SOL     OW10738   5.640   3.808   4.146
 3280SOL    HW110739   5.641   3.729   4.084
 3280SOL    HW210740   5.552   3.855   4.137
 3281SOL     OW10741   6.717   4.652   1.308
 3281SOL    HW110742   6.765   4.586   1.365
 3281SOL    HW210743   6.768   4.665   1.223
 3282SOL     OW10744   0.589   3.684   5.071
 3282SOL    HW110745   0.630   3.629   5.144
 3282SOL    HW210746   0.658   3.703   5.000
 3283SOL     OW10747   3.750   1.477   1.593
 3283SOL    HW110748   3.654   1.478   1.618
 3283SOL    HW210749   3.786   1.384   1.602
 3284SOL     OW10750   1.501   5.491   4.583
 3284SOL    HW110751   1.442   5.565   4.615
 3284SOL    HW210752   1.590   5.529   4.558
 3285SOL     OW10753   5.613   1.749   4.689
 3285SOL    HW110754   5.659   1.766   4.602
 3285SOL    HW210755   5.536   1.686   4.675
 3286SOL     OW10756   3.571   1.885   1.615
 3286SOL    HW110757   3.640   1.856   1.549
 3286SOL    HW210758   3.573   1.984   1.625
 3287SOL     OW10759   0.919   0.152   6.363
 3287SOL    HW110760   0.888   0.072   6.313
 3287SOL    HW210761   0.862   0.165   6.444
 3288SOL     OW10762   1.847   6.767   0.109
 3288SOL    HW110763   1.750   6.785   0.093
 3288SOL    HW210764   1.859   6.732   0.202
 3289SOL     OW10765   3.404   1.844   6.916
 3289SOL    HW110766   3.364   1.936   6.920
 3289SOL    HW210767   3.488   1.847   6.862
 3290SOL     OW10768   6.587   5.451   0.298
 3290SOL    HW110769   6.669   5.495   0.261
 3290SOL    HW210770   6.551   5.504   0.374
 3291SOL     OW10771   3.964   0.343   6.216
 3291SOL    HW110772   4.060   0.352   6.188
 3291SOL    HW210773   3.958   0.350   6.316
 3292SOL     OW10774   0.332   1.279   0.849
 3292SOL    HW110775   0.267   1.355   0.855
 3292SOL    HW210776   0.409   1.306   0.792
 3293SOL     OW10777   6.763   4.360   2.597
 3293SOL    HW110778   6.830   4.420   2.641
 3293SOL    HW210779   6.738   4.287   2.661
 3294SOL     OW10780   5.449   2.737   5.692
 3294SOL    HW110781   5.433   2.830   5.661
 3294SOL    HW210782   5.489   2.739   5.784
 3295SOL     OW10783   1.741   3.047   0.770
 3295SOL    HW110784   1.838   3.034   0.749
 3295SOL    HW210785   1.691   2.965   0.745
 3296SOL     OW10786   6.382   6.952   5.289
 3296SOL    HW110787   6.432   7.001   5.217
 3296SOL    HW210788   6.287   6.940   5.261
 3297SOL     OW10789   3.414   1.820   5.154
 3297SOL    HW110790   3.371   1.907   5.132
 3297SOL    HW210791   3.452   1.824   5.246
 3298SOL     OW10792   6.270   3.691   5.227
 3298SOL    HW110793   6.347   3.635   5.195
 3298SOL    HW210794   6.259   3.769   5.166
 3299SOL     OW10795   4.167   5.355   3.472
 3299SOL    HW110796   4.239   5.408   3.427
 3299SOL    HW210797   4.095   5.417   3.503
 3300SOL     OW10798   2.407   0.240   5.670
 3300SOL    HW110799   2.315   0.208   5.693
 3300SOL    HW210800   2.460   0.164   5.631
 3301SOL     OW10801   1.241   3.128   2.876
 3301SOL    HW110802   1.299   3.076   2.938
 3301SOL    HW210803   1.171   3.067   2.837
 3302SOL     OW10804   1.007   4.658   6.560
 3302SOL    HW110805   1.065   4.661   6.641
 3302SOL    HW210806   1.028   4.576   6.506
 3303SOL     OW10807   3.681   2.998   0.234
 3303SOL    HW110808   3.654   2.999   0.330
 3303SOL    HW210809   3.614   3.049   0.180
 3304SOL     OW10810   1.875   4.133   6.393
 3304SOL    HW110811   1.804   4.074   6.432
 3304SOL    HW210812   1.832   4.202   6.334
 3305SOL     OW10813   3.368   0.702   1.151
 3305SOL    HW110814   3.354   0.787   1.100
 3305SOL    HW210815   3.365   0.625   1.088
 3306SOL     OW10816   1.640   6.014   6.686
 3306SOL    HW110817   1.674   5.922   6.700
 3306SOL    HW210818   1.555   6.011   6.632
 3307SOL     OW10819   1.123   6.804   6.079
 3307SOL    HW110820   1.205   6.854   6.108
 3307SOL    HW210821   1.121   6.798   5.979
 3308SOL     OW10822   3.906   4.683   1.503
 3308SOL    HW110823   3.843   4.633   1.562
 3308SOL    HW210824   3.997   4.642   1.508
 3309SOL     OW10825   4.917   4.604   4.027
 3309SOL    HW110826   4.941   4.672   4.097
 3309SOL    HW210827   4.928   4.512   4.065
 3310SOL     OW10828   0.979   4.623   4.678
 3310SOL    HW110829   1.056   4.571   4.716
 3310SOL    HW210830   0.977   4.714   4.720
 3311SOL     OW10831   3.740   3.635   1.283
 3311SOL    HW110832   3.771   3.542   1.264
 3311SOL    HW210833   3.729   3.647   1.381
 3312SOL     OW10834   4.106   2.941   5.841
 3312SOL    HW110835   4.143   3.023   5.884
 3312SOL    HW210836   4.164   2.914   5.764
 3313SOL     OW10837   1.001   0.543   3.357
 3313SOL    HW110838   0.978   0.512   3.450
 3313SOL    HW210839   0.981   0.640   3.349
 3314SOL     OW10840   2.210   0.390   3.154
 3314SOL    HW110841   2.301   0.391   3.195
 3314SOL    HW210842   2.209   0.450   3.074
 3315SOL     OW10843   0.685   4.483   5.112
 3315SOL    HW110844   0.710   4.396   5.071
 3315SOL    HW210845   0.672   4.552   5.041
 3316SOL     OW10846   3.242   0.768   6.032
 3316SOL    HW110847   3.152   0.723   6.034
 3316SOL    HW210848   3.294   0.735   5.954
 3317SOL     OW10849   5.658   2.204   2.363
 3317SOL    HW110850   5.651   2.279   2.428
 3317SOL    HW210851   5.708   2.235   2.282
 3318SOL     OW10852   2.795   1.687   6.607
 3318SOL    HW110853   2.724   1.668   6.540
 3318SOL    HW210854   2.830   1.780   6.592
 3319SOL     OW10855   0.258   0.099   2.604
 3319SOL    HW110856   0.188   0.035   2.633
 3319SOL    HW210857   0.265   0.098   2.504
 3320SOL     OW10858   6.335   0.347   0.131
 3320SOL    HW110859   6.258   0.295   0.167
 3320SOL    HW210860   6.311   0.444   0.124
 3321SOL     OW10861   5.496   1.691   0.787
 3321SOL    HW110862   5.578   1.734   0.825
 3321SOL    HW210863   5.423   1.759   0.779
 3322SOL     OW10864   6.879   3.270   0.673
 3322SOL    HW110865   6.799   3.213   0.693
 3322SOL    HW210866   6.956   3.239   0.728
 3323SOL     OW10867   3.115   1.471   1.749
 3323SOL    HW110868   3.035   1.497   1.803
 3323SOL    HW210869   3.096   1.486   1.652
 3324SOL     OW10870   4.720   5.606   5.822
 3324SOL    HW110871   4.654   5.575   5.754
 3324SOL    HW210872   4.721   5.706   5.825
 3325SOL     OW10873   0.481   3.356   6.882
 3325SOL    HW110874   0.401   3.316   6.926
 3325SOL    HW210875   0.524   3.288   6.822
 3326SOL     OW10876   4.950   0.847   2.605
 3326SOL    HW110877   4.933   0.936   2.648
 3326SOL    HW210878   4.868   0.819   2.555
 3327SOL     OW10879   2.342   6.055   1.888
 3327SOL    HW110880   2.337   5.969   1.939
 3327SOL    HW210881   2.393   6.122   1.943
 3328SOL     OW10882   3.699   1.899   1.303
 3328SOL    HW110883   3.742   1.810   1.288
 3328SOL    HW210884   3.748   1.969   1.252
 3329SOL     OW10885   6.053   6.772   5.466
 3329SOL    HW110886   6.108   6.711   5.522
 3329SOL    HW210887   5.957   6.742   5.469
 3330SOL     OW10888   6.908   3.639   2.098
 3330SOL    HW110889   6.875   3.625   2.191
 3330SOL    HW210890   6.883   3.730   2.067
 3331SOL     OW10891   1.885   2.296   1.478
 3331SOL    HW110892   1.975   2.327   1.509
 3331SOL    HW210893   1.844   2.237   1.548
 3332SOL     OW10894   5.544   5.530   0.244
 3332SOL    HW110895   5.489   5.446   0.246
 3332SOL    HW210896   5.622   5.520   0.306
 3333SOL     OW10897   4.250   5.028   6.495
 3333SOL    HW110898   4.176   4.962   6.504
 3333SOL    HW210899   4.219   5.117   6.530
 3334SOL     OW10900   3.239   3.592   1.285
 3334SOL    HW110901   3.143   3.567   1.299
 3334SOL    HW210902   3.298   3.523   1.326
 3335SOL     OW10903   4.787   5.184   5.397
 3335SOL    HW110904   4.878   5.141   5.397
 3335SOL    HW210905   4.752   5.188   5.491
 3336SOL     OW10906   3.088   5.360   5.820
 3336SOL    HW110907   3.037   5.274   5.809
 3336SOL    HW210908   3.038   5.434   5.775
 3337SOL     OW10909   3.813   2.453   1.382
 3337SOL    HW110910   3.770   2.364   1.396
 3337SOL    HW210911   3.813   2.503   1.469
 3338SOL     OW10912   5.949   3.661   1.353
 3338SOL    HW110913   5.907   3.739   1.305
 3338SOL    HW210914   6.045   3.654   1.326
 3339SOL     OW10915   6.690   6.391   6.676
 3339SOL    HW110916   6.712   6.337   6.595
 3339SOL    HW210917   6.762   6.379   6.744
 3340SOL     OW10918   3.453   6.866   2.011
 3340SOL    HW110919   3.366   6.848   1.967
 3340SOL    HW210920   3.486   6.957   1.986
 3341SOL     OW10921   0.455   6.913   3.108
 3341SOL    HW110922   0.517   6.859   3.052
 3341SOL    HW210923   0.482   6.905   3.204
 3342SOL     OW10924   2.113   6.942   4.135
 3342SOL    HW110925   2.207   6.929   4.103
 3342SOL    HW210926   2.114   6.985   4.225
 3343SOL     OW10927   4.862   3.396   0.743
 3343SOL    HW110928   4.912   3.375   0.659
 3343SOL    HW210929   4.826   3.489   0.739
 3344SOL     OW10930   5.151   3.612   4.989
 3344SOL    HW110931   5.087   3.642   4.919
 3344SOL    HW210932   5.116   3.530   5.034
 3345SOL     OW10933   2.943   3.405   6.048
 3345SOL    HW110934   2.864   3.395   5.988
 3345SOL    HW210935   3.027   3.385   5.997
 3346SOL     OW10936   0.556   1.184   2.128
 3346SOL    HW110937   0.504   1.187   2.214
 3346SOL    HW210938   0.623   1.259   2.129
 3347SOL     OW10939   6.808   4.320   3.290
 3347SOL    HW110940   6.728   4.378   3.273
 3347SOL    HW210941   6.845   4.288   3.203
 3348SOL     OW10942   3.581   3.392   3.615
 3348SOL    HW110943   3.508   3.347   3.665
 3348SOL    HW210944   3.670   3.357   3.646
 3349SOL     OW10945   6.833   4.774   4.365
 3349SOL    HW110946   6.733   4.783   4.362
 3349SOL    HW210947   6.859   4.678   4.357
 3350SOL     OW10948   2.033   1.438   6.734
 3350SOL    HW110949   1.997   1.346   6.721
 3350SOL    HW210950   1.958   1.502   6.751
 3351SOL     OW10951   5.828   0.377   1.122
 3351SOL    HW110952   5.800   0.452   1.062
 3351SOL    HW210953   5.793   0.393   1.214
 3352SOL     OW10954   0.442   3.797   0.130
 3352SOL    HW110955   0.419   3.825   0.037
 3352SOL    HW210956   0.428   3.875   0.192
 3353SOL     OW10957   1.543   0.257   0.545
 3353SOL    HW110958   1.638   0.242   0.519
 3353SOL    HW210959   1.540   0.298   0.636
 3354SOL     OW10960   6.546   2.240   3.512
 3354SOL    HW110961   6.502   2.283   3.590
 3354SOL    HW210962   6.561   2.308   3.440
 3355SOL     OW10963   0.364   2.105   0.502
 3355SOL    HW110964   0.269   2.080   0.520
 3355SOL    HW210965   0.419   2.088   0.583
 3356SOL     OW10966   2.879   2.995   0.176
 3356SOL    HW110967   2.823   3.058   0.122
 3356SOL    HW210968   2.862   3.010   0.274
 3357SOL     OW10969   2.177   4.602   1.355
 3357SOL    HW110970   2.085   4.588   1.392
 3357SOL    HW210971   2.202   4.698   1.364
 3358SOL     OW10972   4.972   6.206   2.285
 3358SOL    HW110973   5.006   6.195   2.192
 3358SOL    HW210974   4.909   6.284   2.289
 3359SOL     OW10975   0.350   0.607   3.045
 3359SOL    HW110976   0.338   0.682   3.110
 3359SOL    HW210977   0.267   0.596   2.991
 3360SOL     OW10978   0.449   0.782   0.487
 3360SOL    HW110979   0.472   0.827   0.401
 3360SOL    HW210980   0.514   0.811   0.558
 3361SOL     OW10981   6.507   5.842   3.010
 3361SOL    HW110982   6.559   5.778   3.066
 3361SOL    HW210983   6.506   5.811   2.915
 3362SOL     OW10984   2.872   1.520   4.936
 3362SOL    HW110985   2.915   1.442   4.893
 3362SOL    HW210986   2.798   1.554   4.878
 3363SOL     OW10987   0.562   1.061   6.382
 3363SOL    HW110988   0.574   0.968   6.417
 3363SOL    HW210989   0.643   1.087   6.328
 3364SOL     OW10990   1.133   5.981   5.714
 3364SOL    HW110991   1.051   5.974   5.657
 3364SOL    HW210992   1.207   6.022   5.661
 3365SOL     OW10993   0.896   1.997   4.479
 3365SOL    HW110994   0.849   1.917   4.517
 3365SOL    HW210995   0.889   1.995   4.379
 3366SOL     OW10996   5.516   1.189   4.928
 3366SOL    HW110997   5.497   1.097   4.963
 3366SOL    HW210998   5.437   1.248   4.947
 3367SOL     OW10999   1.831   2.460   1.748
 3367SOL    HW111000   1.831   2.559   1.734
 3367SOL    HW211001   1.921   2.432   1.783
 3368SOL     OW11002   6.688   5.245   5.867
 3368SOL    HW111003   6.674   5.329   5.814
 3368SOL    HW211004   6.667   5.264   5.963
 3369SOL     OW11005   3.525   1.173   0.232
 3369SOL    HW111006   3.528   1.076   0.212
 3369SOL    HW211007   3.560   1.190   0.324
 3370SOL     OW11008   6.601   6.843   4.731
 3370SOL    HW111009   6.584   6.745   4.718
 3370SOL    HW211010   6.681   6.871   4.677
 3371SOL     OW11011   1.318   4.099   2.019
 3371SOL    HW111012   1.316   4.031   1.945
 3371SOL    HW211013   1.378   4.066   2.092
 3372SOL     OW11014   0.305   1.364   2.092
 3372SOL    HW111015   0.321   1.461   2.112
 3372SOL    HW211016   0.356   1.338   2.010
 3373SOL     OW11017   6.283   0.815   4.146
 3373SOL    HW111018   6.214   0.768   4.202
 3373SOL    HW211019   6.275   0.785   4.051
 3374SOL     OW11020   3.915   5.924   5.119
 3374SOL    HW111021   3.983   5.927   5.193
 3374SOL    HW211022   3.857   6.005   5.124
 3375SOL     OW11023   4.416   4.700   4.881
 3375SOL    HW111024   4.463   4.765   4.941
 3375SOL    HW211025   4.384   4.623   4.936
 3376SOL     OW11026   4.161   3.401   2.764
 3376SOL    HW111027   4.247   3.368   2.725
 3376SOL    HW211028   4.109   3.324   2.800
 3377SOL     OW11029   1.279   6.349   4.946
 3377SOL    HW111030   1.228   6.424   4.904
 3377SOL    HW211031   1.277   6.360   5.046
 3378SOL     OW11032   6.895   0.997   0.740
 3378SOL    HW111033   6.828   0.926   0.762
 3378SOL    HW211034   6.987   0.957   0.741
 3379SOL     OW11035   0.465   4.311   6.166
 3379SOL    HW111036   0.393   4.256   6.125
 3379SOL    HW211037   0.526   4.345   6.095
 3380SOL     OW11038   6.935   5.112   5.883
 3380SOL    HW111039   6.853   5.170   5.880
 3380SOL    HW211040   6.989   5.126   5.800
 3381SOL     OW11041   2.612   2.089   0.469
 3381SOL    HW111042   2.694   2.147   0.475
 3381SOL    HW211043   2.606   2.032   0.551
 3382SOL     OW11044   0.059   1.418   0.249
 3382SOL    HW111045   0.039   1.368   0.165
 3382SOL    HW211046   0.156   1.407   0.271
 3383SOL     OW11047   6.024   5.175   2.731
 3383SOL    HW111048   5.927   5.162   2.713
 3383SOL    HW211049   6.063   5.090   2.768
 3384SOL     OW11050   3.159   2.967   4.942
 3384SOL    HW111051   3.075   2.940   4.988
 3384SOL    HW211052   3.188   3.057   4.974
 3385SOL     OW11053   6.962   3.929   3.829
 3385SOL    HW111054   6.889   3.998   3.834
 3385SOL    HW211055   0.028   3.967   3.866
 3386SOL     OW11056   5.905   3.944   5.321
 3386SOL    HW111057   5.981   3.908   5.375
 3386SOL    HW211058   5.818   3.919   5.363
 3387SOL     OW11059   2.534   2.253   2.501
 3387SOL    HW111060   2.557   2.316   2.575
 3387SOL    HW211061   2.583   2.278   2.418
 3388SOL     OW11062   5.716   3.159   0.790
 3388SOL    HW111063   5.690   3.219   0.714
 3388SOL    HW211064   5.815   3.145   0.790
 3389SOL     OW11065   4.705   4.434   4.287
 3389SOL    HW111066   4.772   4.504   4.315
 3389SOL    HW211067   4.750   4.345   4.283
 3390SOL     OW11068   5.082   3.351   6.174
 3390SOL    HW111069   5.036   3.435   6.202
 3390SOL    HW211070   5.150   3.371   6.104
 3391SOL     OW11071   4.129   1.646   4.938
 3391SOL    HW111072   4.064   1.710   4.980
 3391SOL    HW211073   4.189   1.696   4.876
 3392SOL     OW11074   2.439   0.723   4.118
 3392SOL    HW111075   2.373   0.670   4.172
 3392SOL    HW211076   2.479   0.664   4.048
 3393SOL     OW11077   6.446   6.766   0.723
 3393SOL    HW111078   6.358   6.796   0.685
 3393SOL    HW211079   6.460   6.669   0.703
 3394SOL     OW11080   5.570   3.008   1.028
 3394SOL    HW111081   5.473   3.002   1.006
 3394SOL    HW211082   5.625   2.984   0.948
 3395SOL     OW11083   6.189   3.591   4.110
 3395SOL    HW111084   6.270   3.532   4.114
 3395SOL    HW211085   6.161   3.615   4.203
 3396SOL     OW11086   0.401   2.966   3.584
 3396SOL    HW111087   0.452   3.031   3.641
 3396SOL    HW211088   0.342   3.017   3.521
 3397SOL     OW11089   3.800   1.121   5.476
 3397SOL    HW111090   3.900   1.111   5.473
 3397SOL    HW211091   3.758   1.031   5.485
 3398SOL     OW11092   0.666   0.276   4.146
 3398SOL    HW111093   0.566   0.280   4.145
 3398SOL    HW211094   0.700   0.286   4.052
 3399SOL     OW11095   4.497   4.724   3.979
 3399SOL    HW111096   4.491   4.703   3.881
 3399SOL    HW211097   4.426   4.791   4.003
 3400SOL     OW11098   4.403   1.716   5.995
 3400SOL    HW111099   4.436   1.623   6.015
 3400SOL    HW211100   4.386   1.764   6.081
 3401SOL     OW11101   6.858   4.228   0.535
 3401SOL    HW111102   6.899   4.142   0.566
 3401SOL    HW211103   6.817   4.276   0.613
 3402SOL     OW11104   5.545   5.777   1.310
 3402SOL    HW111105   5.561   5.875   1.312
 3402SOL    HW211106   5.503   5.752   1.222
 3403SOL     OW11107   3.865   0.526   5.043
 3403SOL    HW111108   3.832   0.608   4.997
 3403SOL    HW211109   3.944   0.490   4.994
 3404SOL     OW11110   4.207   1.686   0.306
 3404SOL    HW111111   4.194   1.597   0.349
 3404SOL    HW211112   4.124   1.713   0.257
 3405SOL     OW11113   6.283   3.819   5.479
 3405SOL    HW111114   6.246   3.825   5.386
 3405SOL    HW211115   6.383   3.831   5.475
 3406SOL     OW11116   1.937   4.534   2.015
 3406SOL    HW111117   1.913   4.482   2.097
 3406SOL    HW211118   2.021   4.497   1.975
 3407SOL     OW11119   1.385   5.584   1.672
 3407SOL    HW111120   1.420   5.647   1.604
 3407SOL    HW211121   1.395   5.623   1.763
 3408SOL     OW11122   4.964   3.903   4.062
 3408SOL    HW111123   4.973   3.881   3.965
 3408SOL    HW211124   5.035   3.856   4.115
 3409SOL     OW11125   4.206   0.019   5.671
 3409SOL    HW111126   4.161   6.953   5.641
 3409SOL    HW211127   4.305   0.011   5.657
 3410SOL     OW11128   6.179   6.079   6.690
 3410SOL    HW111129   6.174   6.150   6.620
 3410SOL    HW211130   6.220   5.996   6.650
 3411SOL     OW11131   6.231   2.489   2.392
 3411SOL    HW111132   6.236   2.542   2.476
 3411SOL    HW211133   6.322   2.461   2.364
 3412SOL     OW11134   4.166   3.186   0.126
 3412SOL    HW111135   4.198   3.202   0.033
 3412SOL    HW211136   4.083   3.130   0.124
 3413SOL     OW11137   4.253   1.393   2.762
 3413SOL    HW111138   4.242   1.405   2.663
 3413SOL    HW211139   4.297   1.475   2.800
 3414SOL     OW11140   3.040   1.851   4.928
 3414SOL    HW111141   3.003   1.843   4.835
 3414SOL    HW211142   3.096   1.771   4.948
 3415SOL     OW11143   1.214   4.633   4.377
 3415SOL    HW111144   1.269   4.601   4.455
 3415SOL    HW211145   1.163   4.556   4.339
 3416SOL     OW11146   0.120   4.394   6.006
 3416SOL    HW111147   0.183   4.317   6.009
 3416SOL    HW211148   0.163   4.470   5.958
 3417SOL     OW11149   6.349   5.994   2.652
 3417SOL    HW111150   6.431   6.028   2.699
 3417SOL    HW211151   6.270   6.002   2.713
 3418SOL     OW11152   4.472   1.175   4.205
 3418SOL    HW111153   4.566   1.194   4.178
 3418SOL    HW211154   4.472   1.121   4.290
 3419SOL     OW11155   3.523   5.287   6.111
 3419SOL    HW111156   3.471   5.251   6.033
 3419SOL    HW211157   3.521   5.221   6.186
 3420SOL     OW11158   4.774   1.769   3.469
 3420SOL    HW111159   4.760   1.761   3.370
 3420SOL    HW211160   4.870   1.750   3.490
 3421SOL     OW11161   6.304   0.593   5.579
 3421SOL    HW111162   6.375   0.541   5.532
 3421SOL    HW211163   6.214   0.569   5.540
 3422SOL     OW11164   3.651   0.378   1.226
 3422SOL    HW111165   3.632   0.297   1.171
 3422SOL    HW211166   3.565   0.417   1.259
 3423SOL     OW11167   2.150   0.827   0.110
 3423SOL    HW111168   2.203   0.816   0.027
 3423SOL    HW211169   2.118   0.738   0.142
 3424SOL     OW11170   3.924   0.832   2.788
 3424SOL    HW111171   3.912   0.807   2.692
 3424SOL    HW211172   3.979   0.915   2.794
 3425SOL     OW11173   4.918   4.299   2.314
 3425SOL    HW111174   4.866   4.317   2.231
 3425SOL    HW211175   4.874   4.225   2.365
 3426SOL     OW11176   3.350   3.753   0.507
 3426SOL    HW111177   3.321   3.825   0.571
 3426SOL    HW211178   3.270   3.713   0.463
 3427SOL     OW11179   6.522   6.665   0.017
 3427SOL    HW111180   6.605   6.671   6.980
 3427SOL    HW211181   6.542   6.616   0.102
 3428SOL     OW11182   4.091   5.071   1.873
 3428SOL    HW111183   4.042   5.031   1.796
 3428SOL    HW211184   4.051   5.160   1.895
 3429SOL     OW11185   0.718   2.088   6.798
 3429SOL    HW111186   0.642   2.152   6.793
 3429SOL    HW211187   0.726   2.052   6.891
 3430SOL     OW11188   0.967   6.388   6.289
 3430SOL    HW111189   0.951   6.462   6.355
 3430SOL    HW211190   1.057   6.349   6.305
 3431SOL     OW11191   2.378   6.682   0.897
 3431SOL    HW111192   2.472   6.664   0.869
 3431SOL    HW211193   2.322   6.599   0.885
 3432SOL     OW11194   2.736   2.304   5.278
 3432SOL    HW111195   2.803   2.275   5.209
 3432SOL    HW211196   2.704   2.396   5.256
 3433SOL     OW11197   2.088   0.895   6.812
 3433SOL    HW111198   2.147   0.822   6.847
 3433SOL    HW211199   2.113   0.981   6.856
 3434SOL     OW11200   3.128   2.787   0.579
 3434SOL    HW111201   3.221   2.790   0.615
 3434SOL    HW211202   3.107   2.694   0.548
 3435SOL     OW11203   7.002   2.251   1.429
 3435SOL    HW111204   7.005   2.351   1.441
 3435SOL    HW211205   0.013   2.207   1.514
 3436SOL     OW11206   4.632   7.010   5.437
 3436SOL    HW111207   4.714   7.009   5.380
 3436SOL    HW211208   4.557   0.036   5.388
 3437SOL     OW11209   4.271   0.822   6.255
 3437SOL    HW111210   4.182   0.867   6.249
 3437SOL    HW211211   4.295   0.807   6.351
 3438SOL     OW11212   1.535   2.944   6.468
 3438SOL    HW111213   1.566   2.980   6.556
 3438SOL    HW211214   1.447   2.898   6.479
 3439SOL     OW11215   2.765   6.804   5.110
 3439SOL    HW111216   2.856   6.774   5.140
 3439SOL    HW211217   2.745   6.894   5.148
 3440SOL     OW11218   4.733   3.387   1.771
 3440SOL    HW111219   4.786   3.467   1.743
 3440SOL    HW211220   4.764   3.307   1.721
 3441SOL     OW11221   4.837   0.319   3.037
 3441SOL    HW111222   4.912   0.365   3.085
 3441SOL    HW211223   4.850   0.330   2.938
 3442SOL     OW11224   2.306   4.302   3.308
 3442SOL    HW111225   2.291   4.286   3.210
 3442SOL    HW211226   2.355   4.388   3.321
 3443SOL     OW11227   5.448   1.172   3.367
 3443SOL    HW111228   5.375   1.223   3.411
 3443SOL    HW211229   5.433   1.170   3.268
 3444SOL     OW11230   5.012   5.451   6.760
 3444SOL    HW111231   4.942   5.463   6.691
 3444SOL    HW211232   5.079   5.525   6.753
 3445SOL     OW11233   6.236   4.334   4.089
 3445SOL    HW111234   6.241   4.308   4.185
 3445SOL    HW211235   6.149   4.302   4.050
 3446SOL     OW11236   5.278   0.297   2.829
 3446SOL    HW111237   5.370   0.259   2.841
 3446SOL    HW211238   5.216   0.253   2.893
 3447SOL     OW11239   5.243   5.189   0.135
 3447SOL    HW111240   5.339   5.215   0.132
 3447SOL    HW211241   5.216   5.169   0.229
 3448SOL     OW11242   3.798   6.555   1.131
 3448SOL    HW111243   3.740   6.488   1.085
 3448SOL    HW211244   3.865   6.507   1.188
 3449SOL     OW11245   5.977   6.315   2.771
 3449SOL    HW111246   5.900   6.292   2.712
 3449SOL    HW211247   6.017   6.402   2.742
 3450SOL     OW11248   0.830   2.530   0.845
 3450SOL    HW111249   0.884   2.447   0.849
 3450SOL    HW211250   0.806   2.560   0.937
 3451SOL     OW11251   0.737   5.447   3.139
 3451SOL    HW111252   0.810   5.510   3.166
 3451SOL    HW211253   0.719   5.382   3.213
 3452SOL     OW11254   6.322   1.148   0.047
 3452SOL    HW111255   6.280   1.078   7.009
 3452SOL    HW211256   6.414   1.120   0.073
 3453SOL     OW11257   5.821   5.681   5.508
 3453SOL    HW111258   5.845   5.639   5.596
 3453SOL    HW211259   5.834   5.615   5.434
 3454SOL     OW11260   2.211   0.694   6.458
 3454SOL    HW111261   2.150   0.708   6.535
 3454SOL    HW211262   2.294   0.748   6.471
 3455SOL     OW11263   1.065   2.811   4.648
 3455SOL    HW111264   1.100   2.740   4.709
 3455SOL    HW211265   1.119   2.812   4.564
 3456SOL     OW11266   6.067   5.710   1.923
 3456SOL    HW111267   6.011   5.721   2.005
 3456SOL    HW211268   6.130   5.634   1.935
 3457SOL     OW11269   2.596   5.258   4.349
 3457SOL    HW111270   2.689   5.279   4.318
 3457SOL    HW211271   2.596   5.168   4.394
 3458SOL     OW11272   5.395   6.343   6.842
 3458SOL    HW111273   5.471   6.322   6.781
 3458SOL    HW211274   5.427   6.400   6.918
 3459SOL     OW11275   0.563   3.989   3.099
 3459SOL    HW111276   0.637   3.951   3.155
 3459SOL    HW211277   0.596   4.003   3.006
 3460SOL     OW11278   3.393   3.265   0.694
 3460SOL    HW111279   3.359   3.345   0.645
 3460SOL    HW211280   3.321   3.196   0.697
 3461SOL     OW11281   4.211   5.397   4.564
 3461SOL    HW111282   4.195   5.461   4.639
 3461SOL    HW211283   4.183   5.439   4.478
 3462SOL     OW11284   6.058   3.575   2.214
 3462SOL    HW111285   6.127   3.514   2.176
 3462SOL    HW211286   6.104   3.643   2.273
 3463SOL     OW11287   0.786   3.488   2.686
 3463SOL    HW111288   0.718   3.435   2.735
 3463SOL    HW211289   0.875   3.478   2.730
 3464SOL     OW11290   5.652   2.170   7.015
 3464SOL    HW111291   5.701   2.237   0.052
 3464SOL    HW211292   5.556   2.167   0.024
 3465SOL     OW11293   1.820   3.163   2.187
 3465SOL    HW111294   1.913   3.198   2.198
 3465SOL    HW211295   1.756   3.227   2.228
 3466SOL     OW11296   5.745   5.104   5.932
 3466SOL    HW111297   5.666   5.165   5.928
 3466SOL    HW211298   5.769   5.088   6.028
 3467SOL     OW11299   2.814   1.614   0.706
 3467SOL    HW111300   2.808   1.522   0.744
 3467SOL    HW211301   2.723   1.647   0.683
 3468SOL     OW11302   5.662   1.958   2.850
 3468SOL    HW111303   5.634   2.033   2.910
 3468SOL    HW211304   5.642   1.982   2.755
 3469SOL     OW11305   5.390   1.122   5.731
 3469SOL    HW111306   5.374   1.037   5.681
 3469SOL    HW211307   5.307   1.148   5.781
 3470SOL     OW11308   0.530   2.893   2.159
 3470SOL    HW111309   0.561   2.887   2.064
 3470SOL    HW211310   0.506   2.988   2.180
 3471SOL     OW11311   4.550   4.439   3.628
 3471SOL    HW111312   4.539   4.411   3.532
 3471SOL    HW211313   4.565   4.358   3.685
 3472SOL     OW11314   3.774   1.347   2.083
 3472SOL    HW111315   3.742   1.252   2.077
 3472SOL    HW211316   3.842   1.364   2.011
 3473SOL     OW11317   6.705   3.224   3.662
 3473SOL    HW111318   6.745   3.306   3.622
 3473SOL    HW211319   6.698   3.236   3.761
 3474SOL     OW11320   0.795   4.160   3.793
 3474SOL    HW111321   0.736   4.235   3.762
 3474SOL    HW211322   0.885   4.196   3.817
 3475SOL     OW11323   1.008   4.834   4.290
 3475SOL    HW111324   0.915   4.810   4.320
 3475SOL    HW211325   1.071   4.762   4.317
 3476SOL     OW11326   1.173   1.344   3.323
 3476SOL    HW111327   1.137   1.324   3.232
 3476SOL    HW211328   1.134   1.429   3.357
 3477SOL     OW11329   0.693   3.787   0.310
 3477SOL    HW111330   0.689   3.747   0.218
 3477SOL    HW211331   0.638   3.732   0.372
 3478SOL     OW11332   2.994   6.700   6.990
 3478SOL    HW111333   2.950   6.661   6.910
 3478SOL    HW211334   2.986   6.800   6.987
 3479SOL     OW11335   0.912   1.102   3.632
 3479SOL    HW111336   1.007   1.098   3.602
 3479SOL    HW211337   0.868   1.014   3.615
 3480SOL     OW11338   1.209   6.451   5.722
 3480SOL    HW111339   1.295   6.403   5.703
 3480SOL    HW211340   1.212   6.490   5.814
 3481SOL     OW11341   4.984   0.589   0.611
 3481SOL    HW111342   4.929   0.507   0.624
 3481SOL    HW211343   4.966   0.627   0.519
 3482SOL     OW11344   6.039   1.621   2.748
 3482SOL    HW111345   6.062   1.524   2.740
 3482SOL    HW211346   6.123   1.675   2.743
 3483SOL     OW11347   5.599   2.191   2.971
 3483SOL    HW111348   5.506   2.222   2.993
 3483SOL    HW211349   5.655   2.192   3.054
 3484SOL     OW11350   1.566   3.334   6.809
 3484SOL    HW111351   1.542   3.282   6.727
 3484SOL    HW211352   1.654   3.380   6.794
 3485SOL     OW11353   1.106   1.983   5.184
 3485SOL    HW111354   1.119   2.054   5.253
 3485SOL    HW211355   1.009   1.959   5.178
 3486SOL     OW11356   1.720   0.083   3.504
 3486SOL    HW111357   1.778   0.031   3.441
 3486SOL    HW211358   1.670   0.021   3.563
 3487SOL     OW11359   6.362   2.508   0.123
 3487SOL    HW111360   6.424   2.456   0.065
 3487SOL    HW211361   6.270   2.470   0.116
 3488SOL     OW11362   5.551   0.937   4.950
 3488SOL    HW111363   5.556   0.872   4.874
 3488SOL    HW211364   5.488   0.901   5.019
 3489SOL     OW11365   3.673   0.695   1.878
 3489SOL    HW111366   3.721   0.761   1.820
 3489SOL    HW211367   3.582   0.678   1.840
 3490SOL     OW11368   3.293   4.529   1.481
 3490SOL    HW111369   3.216   4.465   1.490
 3490SOL    HW211370   3.294   4.591   1.559
 3491SOL     OW11371   3.882   3.143   5.946
 3491SOL    HW111372   3.880   3.150   5.846
 3491SOL    HW211373   3.802   3.189   5.984
 3492SOL     OW11374   5.838   4.053   1.676
 3492SOL    HW111375   5.861   3.961   1.645
 3492SOL    HW211376   5.773   4.048   1.752
 3493SOL     OW11377   6.092   3.912   4.318
 3493SOL    HW111378   6.130   3.820   4.317
 3493SOL    HW211379   6.091   3.947   4.412
 3494SOL     OW11380   2.911   0.925   1.812
 3494SOL    HW111381   2.946   1.016   1.790
 3494SOL    HW211382   2.876   0.881   1.729
 3495SOL     OW11383   0.740   3.766   2.549
 3495SOL    HW111384   0.713   3.687   2.605
 3495SOL    HW211385   0.722   3.747   2.453
 3496SOL     OW11386   5.873   5.144   1.123
 3496SOL    HW111387   5.866   5.126   1.221
 3496SOL    HW211388   5.920   5.230   1.107
 3497SOL     OW11389   2.682   1.283   4.141
 3497SOL    HW111390   2.648   1.198   4.102
 3497SOL    HW211391   2.616   1.356   4.125
 3498SOL     OW11392   3.002   1.306   2.825
 3498SOL    HW111393   3.012   1.319   2.726
 3498SOL    HW211394   3.041   1.218   2.851
 3499SOL     OW11395   6.576   4.839   4.283
 3499SOL    HW111396   6.576   4.899   4.203
 3499SOL    HW211397   6.545   4.748   4.256
 3500SOL     OW11398   1.782   2.944   3.365
 3500SOL    HW111399   1.696   2.929   3.414
 3500SOL    HW211400   1.812   3.039   3.381
 3501SOL     OW11401   3.085   0.068   6.686
 3501SOL    HW111402   3.067   0.092   6.781
 3501SOL    HW211403   3.180   0.093   6.662
 3502SOL     OW11404   6.624   2.947   1.335
 3502SOL    HW111405   6.566   3.020   1.300
 3502SOL    HW211406   6.681   2.981   1.410
 3503SOL     OW11407   0.022   6.507   5.276
 3503SOL    HW111408   0.006   6.530   5.372
 3503SOL    HW211409   0.118   6.484   5.262
 3504SOL     OW11410   1.985   0.934   2.231
 3504SOL    HW111411   1.999   0.970   2.139
 3504SOL    HW211412   2.023   0.998   2.298
 3505SOL     OW11413   5.785   5.156   4.874
 3505SOL    HW111414   5.725   5.144   4.795
 3505SOL    HW211415   5.734   5.204   4.946
 3506SOL     OW11416   5.614   4.759   5.039
 3506SOL    HW111417   5.539   4.809   4.997
 3506SOL    HW211418   5.686   4.823   5.067
 3507SOL     OW11419   2.655   0.382   0.372
 3507SOL    HW111420   2.708   0.365   0.289
 3507SOL    HW211421   2.699   0.337   0.449
 3508SOL     OW11422   2.869   1.911   6.306
 3508SOL    HW111423   2.905   1.953   6.223
 3508SOL    HW211424   2.774   1.885   6.291
 3509SOL     OW11425   5.945   6.948   6.891
 3509SOL    HW111426   5.845   6.943   6.883
 3509SOL    HW211427   5.978   6.864   6.934
 3510SOL     OW11428   1.441   0.653   1.713
 3510SOL    HW111429   1.490   0.566   1.719
 3510SOL    HW211430   1.394   0.671   1.800
 3511SOL     OW11431   1.990   4.124   1.972
 3511SOL    HW111432   2.024   4.120   2.066
 3511SOL    HW211433   1.907   4.179   1.969
 3512SOL     OW11434   0.610   3.917   0.887
 3512SOL    HW111435   0.655   3.894   0.800
 3512SOL    HW211436   0.649   3.863   0.961
 3513SOL     OW11437   5.922   1.901   0.984
 3513SOL    HW111438   5.904   1.813   1.028
 3513SOL    HW211439   5.917   1.974   1.052
 3514SOL     OW11440   6.378   1.058   1.905
 3514SOL    HW111441   6.321   0.976   1.908
 3514SOL    HW211442   6.469   1.034   1.869
 3515SOL     OW11443   5.307   6.325   3.225
 3515SOL    HW111444   5.293   6.415   3.265
 3515SOL    HW211445   5.368   6.332   3.146
 3516SOL     OW11446   4.555   6.194   1.565
 3516SOL    HW111447   4.650   6.225   1.571
 3516SOL    HW211448   4.520   6.174   1.656
 3517SOL     OW11449   0.265   1.661   1.067
 3517SOL    HW111450   0.181   1.706   1.095
 3517SOL    HW211451   0.335   1.673   1.138
 3518SOL     OW11452   4.954   2.816   5.091
 3518SOL    HW111453   4.964   2.803   4.992
 3518SOL    HW211454   5.035   2.780   5.138
 3519SOL     OW11455   2.107   0.572   5.593
 3519SOL    HW111456   2.146   0.573   5.685
 3519SOL    HW211457   2.176   0.603   5.528
 3520SOL     OW11458   3.242   6.548   0.283
 3520SOL    HW111459   3.245   6.557   0.183
 3520SOL    HW211460   3.336   6.551   0.319
 3521SOL     OW11461   4.297   2.958   0.474
 3521SOL    HW111462   4.370   2.940   0.409
 3521SOL    HW211463   4.335   2.967   0.566
 3522SOL     OW11464   6.558   5.762   6.568
 3522SOL    HW111465   6.461   5.756   6.591
 3522SOL    HW211466   6.570   5.810   6.481
 3523SOL     OW11467   1.924   4.705   5.182
 3523SOL    HW111468   1.894   4.789   5.226
 3523SOL    HW211469   1.852   4.670   5.123
 3524SOL     OW11470   5.108   2.141   1.922
 3524SOL    HW111471   5.153   2.189   1.996
 3524SOL    HW211472   5.167   2.068   1.888
 3525SOL     OW11473   6.433   3.416   4.149
 3525SOL    HW111474   6.466   3.346   4.085
 3525SOL    HW211475   6.376   3.373   4.218
 3526SOL     OW11476   1.752   6.709   3.681
 3526SOL    HW111477   1.665   6.730   3.726
 3526SOL    HW211478   1.742   6.626   3.626
 3527SOL     OW11479   5.431   3.633   6.454
 3527SOL    HW111480   5.400   3.554   6.401
 3527SOL    HW211481   5.429   3.714   6.396
 3528SOL     OW11482   2.067   6.196   4.971
 3528SOL    HW111483   2.114   6.283   4.953
 3528SOL    HW211484   2.135   6.123   4.981
 3529SOL     OW11485   4.238   6.545   0.874
 3529SOL    HW111486   4.200   6.486   0.946
 3529SOL    HW211487   4.312   6.496   0.827
 3530SOL     OW11488   6.756   5.265   1.455
 3530SOL    HW111489   6.713   5.266   1.364
 3530SOL    HW211490   6.732   5.350   1.503
 3531SOL     OW11491   5.195   2.461   0.550
 3531SOL    HW111492   5.205   2.423   0.458
 3531SOL    HW211493   5.116   2.522   0.553
 3532SOL     OW11494   3.010   0.585   1.574
 3532SOL    HW111495   2.921   0.556   1.538
 3532SOL    HW211496   3.037   0.671   1.532
 3533SOL     OW11497   0.449   1.000   2.596
 3533SOL    HW111498   0.388   1.036   2.667
 3533SOL    HW211499   0.402   0.929   2.544
 3534SOL     OW11500   0.582   2.126   0.926
 3534SOL    HW111501   0.576   2.092   1.019
 3534SOL    HW211502   0.663   2.183   0.916
 3535SOL     OW11503   2.426   5.512   6.078
 3535SOL    HW111504   2.334   5.545   6.097
 3535SOL    HW211505   2.462   5.466   6.159
 3536SOL     OW11506   3.488   2.007   3.094
 3536SOL    HW111507   3.528   1.987   3.004
 3536SOL    HW211508   3.392   2.032   3.082
 3537SOL     OW11509   2.328   5.413   2.518
 3537SOL    HW111510   2.360   5.468   2.596
 3537SOL    HW211511   2.293   5.474   2.447
 3538SOL     OW11512   2.340   5.803   5.506
 3538SOL    HW111513   2.247   5.820   5.474
 3538SOL    HW211514   2.366   5.709   5.484
 3539SOL     OW11515   3.660   3.914   4.699
 3539SOL    HW111516   3.735   3.979   4.691
 3539SOL    HW211517   3.598   3.925   4.620
 3540SOL     OW11518   2.195   2.469   4.541
 3540SOL    HW111519   2.162   2.428   4.456
 3540SOL    HW211520   2.225   2.396   4.603
 3541SOL     OW11521   2.834   2.741   6.021
 3541SOL    HW111522   2.743   2.737   6.062
 3541SOL    HW211523   2.862   2.836   6.011
 3542SOL     OW11524   1.093   5.162   3.118
 3542SOL    HW111525   1.179   5.171   3.067
 3542SOL    HW211526   1.105   5.094   3.191
 3543SOL     OW11527   6.874   2.534   4.458
 3543SOL    HW111528   6.973   2.528   4.468
 3543SOL    HW211529   6.830   2.462   4.511
 3544SOL     OW11530   1.419   4.125   6.127
 3544SOL    HW111531   1.400   4.031   6.097
 3544SOL    HW211532   1.516   4.145   6.114
 3545SOL     OW11533   3.740   5.970   6.825
 3545SOL    HW111534   3.707   6.011   6.739
 3545SOL    HW211535   3.766   5.875   6.808
 3546SOL     OW11536   0.808   4.708   3.513
 3546SOL    HW111537   0.767   4.689   3.602
 3546SOL    HW211538   0.742   4.755   3.455
 3547SOL     OW11539   5.360   4.413   3.817
 3547SOL    HW111540   5.389   4.478   3.747
 3547SOL    HW211541   5.286   4.453   3.871
 3548SOL     OW11542   5.752   1.545   5.825
 3548SOL    HW111543   5.659   1.519   5.801
 3548SOL    HW211544   5.790   1.605   5.754
 3549SOL     OW11545   6.513   4.594   4.788
 3549SOL    HW111546   6.435   4.557   4.737
 3549SOL    HW211547   6.598   4.559   4.750
 3550SOL     OW11548   5.536   2.605   2.470
 3550SOL    HW111549   5.618   2.661   2.457
 3550SOL    HW211550   5.477   2.647   2.539
 3551SOL     OW11551   4.131   6.185   2.725
 3551SOL    HW111552   4.066   6.167   2.798
 3551SOL    HW211553   4.224   6.167   2.757
 3552SOL     OW11554   5.128   6.092   1.798
 3552SOL    HW111555   5.141   5.999   1.831
 3552SOL    HW211556   5.169   6.101   1.707
 3553SOL     OW11557   5.648   2.899   1.274
 3553SOL    HW111558   5.626   2.953   1.193
 3553SOL    HW211559   5.569   2.841   1.297
 3554SOL     OW11560   3.739   3.378   1.181
 3554SOL    HW111561   3.792   3.360   1.098
 3554SOL    HW211562   3.642   3.360   1.163
 3555SOL     OW11563   1.154   3.421   3.245
 3555SOL    HW111564   1.061   3.452   3.265
 3555SOL    HW211565   1.208   3.499   3.213
 3556SOL     OW11566   4.030   0.705   4.757
 3556SOL    HW111567   4.060   0.610   4.769
 3556SOL    HW211568   4.107   0.766   4.774
 3557SOL     OW11569   0.488   0.212   3.446
 3557SOL    HW111570   0.396   0.211   3.484
 3557SOL    HW211571   0.520   0.306   3.436
 3558SOL     OW11572   0.788   6.123   1.151
 3558SOL    HW111573   0.724   6.062   1.105
 3558SOL    HW211574   0.821   6.193   1.087
 3559SOL     OW11575   0.378   6.641   4.713
 3559SOL    HW111576   0.447   6.714   4.704
 3559SOL    HW211577   0.351   6.610   4.622
 3560SOL     OW11578   1.319   5.091   0.788
 3560SOL    HW111579   1.223   5.098   0.762
 3560SOL    HW211580   1.377   5.110   0.708
 3561SOL     OW11581   4.044   4.958   5.437
 3561SOL    HW111582   4.108   4.881   5.440
 3561SOL    HW211583   3.951   4.924   5.421
 3562SOL     OW11584   4.982   1.220   4.507
 3562SOL    HW111585   4.937   1.140   4.546
 3562SOL    HW211586   4.914   1.293   4.495
 3563SOL     OW11587   5.377   0.789   1.394
 3563SOL    HW111588   5.444   0.800   1.320
 3563SOL    HW211589   5.298   0.737   1.361
 3564SOL     OW11590   1.195   4.801   3.915
 3564SOL    HW111591   1.237   4.888   3.940
 3564SOL    HW211592   1.108   4.819   3.868
 3565SOL     OW11593   3.862   6.692   4.669
 3565SOL    HW111594   3.928   6.617   4.663
 3565SOL    HW211595   3.841   6.725   4.577
 3566SOL     OW11596   0.027   3.259   6.555
 3566SOL    HW111597   0.122   3.241   6.532
 3566SOL    HW211598   7.016   3.345   6.513
 3567SOL     OW11599   1.066   2.502   0.132
 3567SOL    HW111600   1.142   2.529   0.073
 3567SOL    HW211601   1.063   2.563   0.212
 3568SOL     OW11602   5.096   5.356   2.809
 3568SOL    HW111603   5.084   5.272   2.864
 3568SOL    HW211604   5.186   5.355   2.767
 3569SOL     OW11605   2.822   2.821   5.453
 3569SOL    HW111606   2.728   2.794   5.434
 3569SOL    HW211607   2.845   2.798   5.548
 3570SOL     OW11608   5.389   0.310   5.051
 3570SOL    HW111609   5.333   0.231   5.078
 3570SOL    HW211610   5.485   0.293   5.077
 3571SOL     OW11611   2.021   0.938   4.910
 3571SOL    HW111612   1.921   0.930   4.910
 3571SOL    HW211613   2.046   1.035   4.914
 3572SOL     OW11614   5.407   3.833   2.572
 3572SOL    HW111615   5.382   3.795   2.483
 3572SOL    HW211616   5.355   3.787   2.643
 3573SOL     OW11617   6.558   4.534   2.512
 3573SOL    HW111618   6.650   4.494   2.508
 3573SOL    HW211619   6.500   4.488   2.445
 3574SOL     OW11620   1.770   3.728   6.914
 3574SOL    HW111621   1.821   3.681   6.842
 3574SOL    HW211622   1.693   3.670   6.942
 3575SOL     OW11623   5.070   5.580   1.871
 3575SOL    HW111624   4.971   5.571   1.883
 3575SOL    HW211625   5.114   5.493   1.894
 3576SOL     OW11626   6.968   2.336   0.070
 3576SOL    HW111627   6.896   2.269   0.049
 3576SOL    HW211628   6.925   2.423   0.095
 3577SOL     OW11629   2.745   2.984   5.813
 3577SOL    HW111630   2.664   2.937   5.849
 3577SOL    HW211631   2.794   3.029   5.888
 3578SOL     OW11632   4.228   2.760   1.344
 3578SOL    HW111633   4.243   2.857   1.358
 3578SOL    HW211634   4.254   2.734   1.251
 3579SOL     OW11635   0.191   3.037   3.057
 3579SOL    HW111636   0.099   3.074   3.067
 3579SOL    HW211637   0.253   3.110   3.026
 3580SOL     OW11638   6.797   3.745   1.047
 3580SOL    HW111639   6.701   3.722   1.032
 3580SOL    HW211640   6.848   3.732   0.962
 3581SOL     OW11641   0.426   6.315   2.919
 3581SOL    HW111642   0.523   6.301   2.937
 3581SOL    HW211643   0.415   6.357   2.829
 3582SOL     OW11644   3.180   5.018   5.758
 3582SOL    HW111645   3.093   5.053   5.790
 3582SOL    HW211646   3.209   5.068   5.676
 3583SOL     OW11647   1.464   4.344   0.090
 3583SOL    HW111648   1.444   4.265   0.148
 3583SOL    HW211649   1.562   4.347   0.070
 3584SOL     OW11650   5.573   4.884   5.715
 3584SOL    HW111651   5.555   4.787   5.732
 3584SOL    HW211652   5.602   4.928   5.800
 3585SOL     OW11653   3.303   1.910   4.747
 3585SOL    HW111654   3.208   1.943   4.746
 3585SOL    HW211655   3.355   1.956   4.675
 3586SOL     OW11656   6.874   2.689   4.781
 3586SOL    HW111657   6.884   2.597   4.819
 3586SOL    HW211658   6.837   2.683   4.688
 3587SOL     OW11659   3.339   5.071   6.530
 3587SOL    HW111660   3.396   5.120   6.596
 3587SOL    HW211661   3.247   5.110   6.530
 3588SOL     OW11662   6.768   4.018   4.296
 3588SOL    HW111663   6.764   3.951   4.223
 3588SOL    HW211664   6.856   4.065   4.293
 3589SOL     OW11665   6.213   6.737   6.241
 3589SOL    HW111666   6.269   6.665   6.282
 3589SOL    HW211667   6.246   6.827   6.269
 3590SOL     OW11668   0.158   3.547   1.102
 3590SOL    HW111669   0.162   3.522   1.005
 3590SOL    HW211670   0.236   3.606   1.124
 3591SOL     OW11671   5.602   2.908   0.696
 3591SOL    HW111672   5.643   2.998   0.709
 3591SOL    HW211673   5.506   2.918   0.670
 3592SOL     OW11674   0.496   0.164   2.390
 3592SOL    HW111675   0.470   0.219   2.469
 3592SOL    HW211676   0.433   0.087   2.380
 3593SOL     OW11677   0.538   4.641   5.855
 3593SOL    HW111678   0.569   4.561   5.907
 3593SOL    HW211679   0.468   4.690   5.907
 3594SOL     OW11680   4.693   0.126   4.829
 3594SOL    HW111681   4.746   0.202   4.865
 3594SOL    HW211682   4.596   0.139   4.852
 3595SOL     OW11683   6.434   6.272   0.170
 3595SOL    HW111684   6.432   6.226   0.081
 3595SOL    HW211685   6.345   6.312   0.189
 3596SOL     OW11686   4.400   2.155   3.435
 3596SOL    HW111687   4.435   2.116   3.520
 3596SOL    HW211688   4.304   2.127   3.423
 3597SOL     OW11689   2.038   3.407   5.334
 3597SOL    HW111690   2.111   3.450   5.279
 3597SOL    HW211691   1.950   3.423   5.290
 3598SOL     OW11692   2.192   6.084   5.515
 3598SOL    HW111693   2.246   6.029   5.579
 3598SOL    HW211694   2.152   6.024   5.446
 3599SOL     OW11695   4.961   1.838   6.259
 3599SOL    HW111696   4.944   1.881   6.347
 3599SOL    HW211697   4.887   1.775   6.237
 3600SOL     OW11698   1.693   3.304   1.346
 3600SOL    HW111699   1.677   3.210   1.316
 3600SOL    HW211700   1.726   3.359   1.269
 3601SOL     OW11701   5.428   2.162   5.473
 3601SOL    HW111702   5.498   2.135   5.538
 3601SOL    HW211703   5.401   2.082   5.418
 3602SOL     OW11704   2.273   3.087   1.020
 3602SOL    HW111705   2.352   3.062   0.964
 3602SOL    HW211706   2.207   3.136   0.964
 3603SOL     OW11707   3.439   0.988   6.040
 3603SOL    HW111708   3.448   1.020   5.945
 3603SOL    HW211709   3.391   0.901   6.041
 3604SOL     OW11710   6.129   0.676   3.641
 3604SOL    HW111711   6.219   0.714   3.619
 3604SOL    HW211712   6.126   0.580   3.613
 3605SOL     OW11713   0.721   5.151   4.144
 3605SOL    HW111714   0.691   5.144   4.239
 3605SOL    HW211715   0.821   5.160   4.142
 3606SOL     OW11716   1.689   6.465   2.060
 3606SOL    HW111717   1.699   6.403   1.983
 3606SOL    HW211718   1.591   6.475   2.082
 3607SOL     OW11719   5.017   2.561   2.536
 3607SOL    HW111720   4.928   2.548   2.491
 3607SOL    HW211721   5.086   2.506   2.490
 3608SOL     OW11722   5.453   1.809   4.139
 3608SOL    HW111723   5.356   1.784   4.141
 3608SOL    HW211724   5.502   1.758   4.210
 3609SOL     OW11725   2.138   6.319   4.337
 3609SOL    HW111726   2.186   6.326   4.425
 3609SOL    HW211727   2.096   6.406   4.315
 3610SOL     OW11728   1.997   0.305   5.542
 3610SOL    HW111729   2.024   0.400   5.531
 3610SOL    HW211730   1.904   0.292   5.509
 3611SOL     OW11731   4.570   4.448   4.043
 3611SOL    HW111732   4.533   4.540   4.031
 3611SOL    HW211733   4.622   4.445   4.129
 3612SOL     OW11734   6.267   1.598   6.604
 3612SOL    HW111735   6.297   1.602   6.699
 3612SOL    HW211736   6.336   1.549   6.549
 3613SOL     OW11737   4.617   5.357   2.050
 3613SOL    HW111738   4.530   5.332   2.007
 3613SOL    HW211739   4.664   5.274   2.079
 3614SOL     OW11740   3.283   3.372   6.713
 3614SOL    HW111741   3.237   3.399   6.798
 3614SOL    HW211742   3.367   3.424   6.703
 3615SOL     OW11743   6.088   3.040   5.855
 3615SOL    HW111744   6.062   2.957   5.904
 3615SOL    HW211745   6.154   3.091   5.909
 3616SOL     OW11746   1.832   1.596   6.080
 3616SOL    HW111747   1.892   1.607   6.001
 3616SOL    HW211748   1.818   1.498   6.097
 3617SOL     OW11749   4.792   6.833   5.588
 3617SOL    HW111750   4.784   6.900   5.661
 3617SOL    HW211751   4.782   6.880   5.499
 3618SOL     OW11752   2.235   3.497   5.195
 3618SOL    HW111753   2.240   3.442   5.111
 3618SOL    HW211754   2.311   3.472   5.255
 3619SOL     OW11755   5.262   3.367   0.667
 3619SOL    HW111756   5.274   3.414   0.579
 3619SOL    HW211757   5.203   3.288   0.655
 3620SOL     OW11758   6.353   5.819   4.524
 3620SOL    HW111759   6.407   5.902   4.537
 3620SOL    HW211760   6.300   5.800   4.607
 3621SOL     OW11761   3.628   2.869   4.190
 3621SOL    HW111762   3.529   2.869   4.176
 3621SOL    HW211763   3.648   2.860   4.288
 3622SOL     OW11764   0.929   0.566   1.168
 3622SOL    HW111765   0.891   0.526   1.084
 3622SOL    HW211766   0.854   0.600   1.225
 3623SOL     OW11767   0.837   6.058   5.083
 3623SOL    HW111768   0.743   6.082   5.107
 3623SOL    HW211769   0.862   5.973   5.128
 3624SOL     OW11770   1.862   0.021   1.596
 3624SOL    HW111771   1.959   0.009   1.616
 3624SOL    HW211772   1.845   7.018   1.499
 3625SOL     OW11773   0.067   2.969   6.852
 3625SOL    HW111774   0.142   2.942   6.913
 3625SOL    HW211775   0.040   3.063   6.873
 3626SOL     OW11776   0.391   3.731   4.552
 3626SOL    HW111777   0.304   3.780   4.555
 3626SOL    HW211778   0.411   3.704   4.458
 3627SOL     OW11779   5.100   3.001   1.532
 3627SOL    HW111780   5.034   3.014   1.457
 3627SOL    HW211781   5.063   2.938   1.599
 3628SOL     OW11782   1.317   1.459   1.877
 3628SOL    HW111783   1.226   1.476   1.915
 3628SOL    HW211784   1.362   1.388   1.931
 3629SOL     OW11785   1.143   0.231   3.533
 3629SOL    HW111786   1.242   0.243   3.539
 3629SOL    HW211787   1.117   0.213   3.439
 3630SOL     OW11788   6.904   2.737   2.959
 3630SOL    HW111789   6.966   2.659   2.970
 3630SOL    HW211790   6.897   2.786   3.046
 3631SOL     OW11791   1.987   6.808   3.753
 3631SOL    HW111792   1.913   6.763   3.703
 3631SOL    HW211793   1.949   6.873   3.819
 3632SOL     OW11794   4.373   3.854   1.170
 3632SOL    HW111795   4.380   3.856   1.070
 3632SOL    HW211796   4.457   3.815   1.209
 3633SOL     OW11797   3.398   2.662   5.567
 3633SOL    HW111798   3.472   2.729   5.559
 3633SOL    HW211799   3.332   2.677   5.494
 3634SOL     OW11800   2.278   6.230   6.239
 3634SOL    HW111801   2.243   6.230   6.146
 3634SOL    HW211802   2.340   6.153   6.252
 3635SOL     OW11803   2.565   1.325   1.341
 3635SOL    HW111804   2.470   1.325   1.308
 3635SOL    HW211805   2.623   1.374   1.275
 3636SOL     OW11806   7.016   5.406   0.780
 3636SOL    HW111807   6.977   5.318   0.806
 3636SOL    HW211808   7.008   5.470   0.857
 3637SOL     OW11809   1.035   2.842   0.325
 3637SOL    HW111810   0.945   2.823   0.286
 3637SOL    HW211811   1.029   2.921   0.386
 3638SOL     OW11812   6.829   4.037   2.844
 3638SOL    HW111813   6.813   3.955   2.900
 3638SOL    HW211814   6.743   4.066   2.802
 3639SOL     OW11815   3.728   4.077   5.132
 3639SOL    HW111816   3.746   4.120   5.043
 3639SOL    HW211817   3.716   3.979   5.120
 3640SOL     OW11818   5.402   2.581   0.697
 3640SOL    HW111819   5.332   2.546   0.635
 3640SOL    HW211820   5.365   2.660   0.747
 3641SOL     OW11821   5.733   4.113   1.282
 3641SOL    HW111822   5.635   4.130   1.290
 3641SOL    HW211823   5.751   4.015   1.278
 3642SOL     OW11824   5.467   2.459   6.344
 3642SOL    HW111825   5.414   2.535   6.305
 3642SOL    HW211826   5.459   2.460   6.444
 3643SOL     OW11827   4.004   6.632   6.358
 3643SOL    HW111828   4.034   6.647   6.264
 3643SOL    HW211829   3.944   6.551   6.361
 3644SOL     OW11830   3.148   1.044   1.589
 3644SOL    HW111831   3.190   1.072   1.503
 3644SOL    HW211832   3.209   0.980   1.637
 3645SOL     OW11833   1.475   3.538   4.166
 3645SOL    HW111834   1.569   3.533   4.201
 3645SOL    HW211835   1.477   3.566   4.070
 3646SOL     OW11836   2.942   4.848   4.679
 3646SOL    HW111837   2.981   4.940   4.678
 3646SOL    HW211838   3.007   4.785   4.720
 3647SOL     OW11839   2.593   0.024   0.016
 3647SOL    HW111840   2.671   0.056   0.070
 3647SOL    HW211841   2.586   0.079   6.952
 3648SOL     OW11842   4.942   6.182   3.362
 3648SOL    HW111843   4.971   6.273   3.391
 3648SOL    HW211844   4.973   6.165   3.269
 3649SOL     OW11845   5.556   3.971   6.885
 3649SOL    HW111846   5.602   4.034   6.947
 3649SOL    HW211847   5.494   3.912   6.936
 3650SOL     OW11848   5.314   3.992   0.506
 3650SOL    HW111849   5.315   4.020   0.602
 3650SOL    HW211850   5.294   3.894   0.501
 3651SOL     OW11851   2.268   2.090   5.618
 3651SOL    HW111852   2.319   2.139   5.547
 3651SOL    HW211853   2.190   2.043   5.576
 3652SOL     OW11854   5.365   1.043   2.322
 3652SOL    HW111855   5.293   0.975   2.333
 3652SOL    HW211856   5.452   1.006   2.356
 3653SOL     OW11857   0.832   0.460   2.500
 3653SOL    HW111858   0.898   0.534   2.511
 3653SOL    HW211859   0.744   0.498   2.471
 3654SOL     OW11860   4.586   5.890   1.242
 3654SOL    HW111861   4.526   5.853   1.313
 3654SOL    HW211862   4.538   5.962   1.192
 3655SOL     OW11863   2.863   0.932   3.926
 3655SOL    HW111864   2.891   1.003   3.991
 3655SOL    HW211865   2.798   0.970   3.860
 3656SOL     OW11866   0.981   5.531   2.077
 3656SOL    HW111867   1.044   5.494   2.009
 3656SOL    HW211868   0.889   5.536   2.039
 3657SOL     OW11869   4.659   5.910   5.518
 3657SOL    HW111870   4.677   6.000   5.478
 3657SOL    HW211871   4.562   5.904   5.542
 3658SOL     OW11872   1.545   5.517   6.509
 3658SOL    HW111873   1.588   5.445   6.564
 3658SOL    HW211874   1.616   5.569   6.462
 3659SOL     OW11875   0.234   1.624   6.423
 3659SOL    HW111876   0.185   1.537   6.428
 3659SOL    HW211877   0.183   1.694   6.473
 3660SOL     OW11878   5.685   6.160   5.741
 3660SOL    HW111879   5.613   6.215   5.699
 3660SOL    HW211880   5.693   6.073   5.693
 3661SOL     OW11881   6.962   0.714   4.323
 3661SOL    HW111882   0.024   0.713   4.263
 3661SOL    HW211883   6.919   0.804   4.318
 3662SOL     OW11884   4.030   0.729   5.559
 3662SOL    HW111885   3.979   0.656   5.515
 3662SOL    HW211886   4.012   0.728   5.658
 3663SOL     OW11887   2.057   2.355   6.903
 3663SOL    HW111888   2.073   2.340   7.001
 3663SOL    HW211889   1.966   2.394   6.890
 3664SOL     OW11890   4.781   1.563   2.300
 3664SOL    HW111891   4.740   1.615   2.226
 3664SOL    HW211892   4.858   1.613   2.338
 3665SOL     OW11893   0.574   6.300   5.383
 3665SOL    HW111894   0.647   6.369   5.383
 3665SOL    HW211895   0.568   6.258   5.293
 3666SOL     OW11896   1.466   2.384   3.426
 3666SOL    HW111897   1.402   2.312   3.401
 3666SOL    HW211898   1.461   2.458   3.359
 3667SOL     OW11899   1.334   1.507   3.070
 3667SOL    HW111900   1.283   1.458   3.140
 3667SOL    HW211901   1.389   1.442   3.017
 3668SOL     OW11902   1.218   0.381   1.841
 3668SOL    HW111903   1.309   0.407   1.808
 3668SOL    HW211904   1.160   0.358   1.763
 3669SOL     OW11905   6.227   2.168   4.450
 3669SOL    HW111906   6.207   2.093   4.512
 3669SOL    HW211907   6.298   2.226   4.490
 3670SOL     OW11908   3.234   5.285   1.628
 3670SOL    HW111909   3.334   5.295   1.627
 3670SOL    HW211910   3.209   5.219   1.699
 3671SOL     OW11911   6.220   1.015   3.292
 3671SOL    HW111912   6.144   0.968   3.336
 3671SOL    HW211913   6.273   1.065   3.360
 3672SOL     OW11914   5.367   1.359   2.701
 3672SOL    HW111915   5.404   1.411   2.778
 3672SOL    HW211916   5.317   1.280   2.735
 3673SOL     OW11917   5.051   6.028   0.339
 3673SOL    HW111918   5.134   5.989   0.380
 3673SOL    HW211919   5.030   6.116   0.383
 3674SOL     OW11920   1.491   6.004   5.966
 3674SOL    HW111921   1.409   5.948   5.961
 3674SOL    HW211922   1.532   5.996   6.057
 3675SOL     OW11923   0.525   2.149   3.891
 3675SOL    HW111924   0.515   2.050   3.899
 3675SOL    HW211925   0.594   2.170   3.822
 3676SOL     OW11926   5.035   2.970   3.261
 3676SOL    HW111927   4.975   3.036   3.218
 3676SOL    HW211928   5.127   2.979   3.223
 3677SOL     OW11929   2.137   0.948   4.295
 3677SOL    HW111930   2.113   0.891   4.216
 3677SOL    HW211931   2.198   0.896   4.356
 3678SOL     OW11932   1.368   0.063   3.763
 3678SOL    HW111933   1.378   0.154   3.722
 3678SOL    HW211934   1.289   0.017   3.722
 3679SOL     OW11935   5.897   0.184   3.103
 3679SOL    HW111936   5.881   0.281   3.082
 3679SOL    HW211937   5.855   0.127   3.032
 3680SOL     OW11938   4.549   1.243   3.175
 3680SOL    HW111939   4.589   1.282   3.258
 3680SOL    HW211940   4.450   1.241   3.183
 3681SOL     OW11941   1.251   0.867   5.506
 3681SOL    HW111942   1.285   0.950   5.551
 3681SOL    HW211943   1.198   0.813   5.571
 3682SOL     OW11944   5.301   2.414   1.314
 3682SOL    HW111945   5.328   2.435   1.220
 3682SOL    HW211946   5.326   2.320   1.336
 3683SOL     OW11947   0.213   0.416   4.536
 3683SOL    HW111948   0.264   0.501   4.519
 3683SOL    HW211949   0.193   0.410   4.634
 3684SOL     OW11950   2.071   6.690   5.964
 3684SOL    HW111951   2.076   6.789   5.974
 3684SOL    HW211952   2.153   6.648   6.005
 3685SOL     OW11953   2.656   5.810   5.339
 3685SOL    HW111954   2.564   5.779   5.364
 3685SOL    HW211955   2.690   5.754   5.263
 3686SOL     OW11956   6.614   3.594   3.759
 3686SOL    HW111957   6.583   3.680   3.800
 3686SOL    HW211958   6.661   3.613   3.673
 3687SOL     OW11959   4.795   6.523   3.257
 3687SOL    HW111960   4.852   6.464   3.315
 3687SOL    HW211961   4.717   6.471   3.223
 3688SOL     OW11962   5.929   3.160   0.033
 3688SOL    HW111963   5.980   3.076   0.014
 3688SOL    HW211964   5.954   3.193   0.124
 3689SOL     OW11965   2.127   1.438   5.177
 3689SOL    HW111966   2.209   1.438   5.121
 3689SOL    HW211967   2.062   1.505   5.141
 3690SOL     OW11968   5.026   5.276   0.954
 3690SOL    HW111969   5.081   5.342   1.005
 3690SOL    HW211970   5.084   5.231   0.885
 3691SOL     OW11971   3.185   1.837   5.875
 3691SOL    HW111972   3.108   1.777   5.853
 3691SOL    HW211973   3.234   1.860   5.792
 3692SOL     OW11974   0.004   3.956   6.052
 3692SOL    HW111975   7.010   4.052   6.078
 3692SOL    HW211976   0.068   3.912   6.115
 3693SOL     OW11977   0.471   1.814   2.961
 3693SOL    HW111978   0.532   1.831   2.884
 3693SOL    HW211979   0.517   1.840   3.046
 3694SOL     OW11980   0.922   0.866   1.483
 3694SOL    HW111981   0.870   0.797   1.533
 3694SOL    HW211982   0.866   0.948   1.472
 3695SOL     OW11983   6.766   2.761   2.664
 3695SOL    HW111984   6.843   2.713   2.622
 3695SOL    HW211985   6.741   2.715   2.749
 3696SOL     OW11986   5.108   1.362   4.982
 3696SOL    HW111987   5.051   1.421   5.040
 3696SOL    HW211988   5.156   1.296   5.040
 3697SOL     OW11989   6.453   6.089   3.169
 3697SOL    HW111990   6.508   6.014   3.131
 3697SOL    HW211991   6.495   6.120   3.254
 3698SOL     OW11992   1.816   0.887   3.621
 3698SOL    HW111993   1.751   0.864   3.549
 3698SOL    HW211994   1.803   0.826   3.699
 3699SOL     OW11995   2.402   2.277   4.266
 3699SOL    HW111996   2.388   2.215   4.344
 3699SOL    HW211997   2.391   2.226   4.181
 3700SOL     OW11998   1.774   5.134   5.030
 3700SOL    HW111999   1.839   5.210   5.036
 3700SOL    HW212000   1.729   5.135   4.942
 3701SOL     OW12001   1.065   6.261   2.407
 3701SOL    HW112002   1.104   6.314   2.332
 3701SOL    HW212003   1.019   6.181   2.371
 3702SOL     OW12004   5.884   5.925   4.056
 3702SOL    HW112005   5.803   5.879   4.092
 3702SOL    HW212006   5.953   5.933   4.129
 3703SOL     OW12007   1.025   1.247   6.040
 3703SOL    HW112008   1.052   1.324   6.098
 3703SOL    HW212009   1.106   1.197   6.011
 3704SOL     OW12010   5.778   2.726   0.835
 3704SOL    HW112011   5.864   2.769   0.807
 3704SOL    HW212012   5.703   2.763   0.780
 3705SOL     OW12013   5.153   5.191   3.452
 3705SOL    HW112014   5.124   5.252   3.525
 3705SOL    HW212015   5.244   5.156   3.472
 3706SOL     OW12016   0.873   3.625   0.513
 3706SOL    HW112017   0.841   3.531   0.524
 3706SOL    HW212018   0.820   3.670   0.442
 3707SOL     OW12019   3.419   4.929   4.167
 3707SOL    HW112020   3.440   4.896   4.075
 3707SOL    HW212021   3.476   5.008   4.188
 3708SOL     OW12022   3.759   6.743   1.345
 3708SOL    HW112023   3.791   6.713   1.255
 3708SOL    HW212024   3.748   6.842   1.345
 3709SOL     OW12025   2.123   0.403   1.558
 3709SOL    HW112026   2.119   0.392   1.459
 3709SOL    HW212027   2.191   0.471   1.582
 3710SOL     OW12028   0.614   5.206   4.983
 3710SOL    HW112029   0.669   5.225   4.902
 3710SOL    HW212030   0.636   5.114   5.017
 3711SOL     OW12031   1.862   6.181   5.166
 3711SOL    HW112032   1.909   6.246   5.227
 3711SOL    HW212033   1.922   6.157   5.090
 3712SOL     OW12034   2.335   5.438   6.555
 3712SOL    HW112035   2.238   5.440   6.578
 3712SOL    HW212036   2.373   5.349   6.582
 3713SOL     OW12037   6.847   6.947   4.563
 3713SOL    HW112038   6.942   6.922   4.578
 3713SOL    HW212039   6.833   0.024   4.589
 3714SOL     OW12040   0.927   4.781   0.033
 3714SOL    HW112041   0.862   4.712   0.065
 3714SOL    HW212042   0.917   4.793   6.952
 3715SOL     OW12043   0.087   5.977   3.520
 3715SOL    HW112044   0.021   6.046   3.488
 3715SOL    HW212045   0.127   5.931   3.441
 3716SOL     OW12046   6.255   5.794   3.908
 3716SOL    HW112047   6.156   5.802   3.896
 3716SOL    HW212048   6.286   5.706   3.873
 3717SOL     OW12049   5.029   1.230   0.320
 3717SOL    HW112050   5.126   1.250   0.330
 3717SOL    HW212051   4.993   1.195   0.406
 3718SOL     OW12052   0.355   6.811   6.688
 3718SOL    HW112053   0.265   6.803   6.644
 3718SOL    HW212054   0.350   6.775   6.781
 3719SOL     OW12055   3.896   3.211   6.297
 3719SOL    HW112056   3.958   3.186   6.370
 3719SOL    HW212057   3.848   3.130   6.263
 3720SOL     OW12058   5.799   3.439   1.384
 3720SOL    HW112059   5.869   3.510   1.388
 3720SOL    HW212060   5.823   3.372   1.314
 3721SOL     OW12061   6.365   5.389   6.967
 3721SOL    HW112062   6.410   5.351   0.029
 3721SOL    HW212063   6.266   5.377   6.975
 3722SOL     OW12064   4.527   6.750   1.526
 3722SOL    HW112065   4.438   6.764   1.569
 3722SOL    HW212066   4.575   6.837   1.519
 3723SOL     OW12067   4.323   5.365   0.555
 3723SOL    HW112068   4.384   5.443   0.539
 3723SOL    HW212069   4.360   5.285   0.508
 3724SOL     OW12070   1.818   5.093   5.573
 3724SOL    HW112071   1.805   5.019   5.507
 3724SOL    HW212072   1.898   5.147   5.547
 3725SOL     OW12073   0.511   6.409   0.050
 3725SOL    HW112074   0.418   6.438   0.031
 3725SOL    HW212075   0.561   6.483   0.095
 3726SOL     OW12076   5.145   4.444   4.299
 3726SOL    HW112077   5.170   4.364   4.353
 3726SOL    HW212078   5.201   4.522   4.327
 3727SOL     OW12079   0.351   3.017   4.356
 3727SOL    HW112080   0.450   3.015   4.365
 3727SOL    HW212081   0.312   3.076   4.427
 3728SOL     OW12082   3.245   3.320   0.356
 3728SOL    HW112083   3.259   3.375   0.438
 3728SOL    HW212084   3.192   3.239   0.378
 3729SOL     OW12085   0.533   0.616   5.043
 3729SOL    HW112086   0.592   0.630   5.122
 3729SOL    HW212087   0.444   0.658   5.061
 3730SOL     OW12088   4.429   6.726   5.716
 3730SOL    HW112089   4.333   6.712   5.740
 3730SOL    HW212090   4.435   6.762   5.623
 3731SOL     OW12091   0.441   1.383   6.701
 3731SOL    HW112092   0.517   1.358   6.761
 3731SOL    HW212093   0.370   1.313   6.706
 3732SOL     OW12094   1.873   1.723   0.478
 3732SOL    HW112095   1.889   1.820   0.495
 3732SOL    HW212096   1.837   1.711   0.386
 3733SOL     OW12097   1.775   2.890   3.775
 3733SOL    HW112098   1.777   2.852   3.683
 3733SOL    HW212099   1.846   2.847   3.830
 3734SOL     OW12100   3.986   0.483   1.404
 3734SOL    HW112101   4.059   0.551   1.408
 3734SOL    HW212102   3.988   0.426   1.486
 3735SOL     OW12103   4.313   6.767   2.304
 3735SOL    HW112104   4.251   6.824   2.357
 3735SOL    HW212105   4.290   6.670   2.321
 3736SOL     OW12106   6.313   0.691   0.741
 3736SOL    HW112107   6.411   0.674   0.751
 3736SOL    HW212108   6.287   0.771   0.795
 3737SOL     OW12109   6.213   2.539   3.481
 3737SOL    HW112110   6.202   2.610   3.551
 3737SOL    HW212111   6.260   2.577   3.402
 3738SOL     OW12112   6.769   5.779   0.906
 3738SOL    HW112113   6.868   5.789   0.895
 3738SOL    HW212114   6.750   5.697   0.959
 3739SOL     OW12115   2.770   4.776   1.739
 3739SOL    HW112116   2.843   4.780   1.670
 3739SOL    HW212117   2.791   4.705   1.806
 3740SOL     OW12118   6.060   5.787   6.527
 3740SOL    HW112119   6.055   5.884   6.503
 3740SOL    HW212120   5.979   5.740   6.494
 3741SOL     OW12121   5.491   2.569   0.343
 3741SOL    HW112122   5.404   2.618   0.350
 3741SOL    HW212123   5.558   2.611   0.405
 3742SOL     OW12124   4.823   5.832   0.478
 3742SOL    HW112125   4.878   5.804   0.399
 3742SOL    HW212126   4.757   5.902   0.450
 3743SOL     OW12127   4.326   4.113   1.454
 3743SOL    HW112128   4.364   4.201   1.482
 3743SOL    HW212129   4.272   4.126   1.371
 3744SOL     OW12130   1.511   6.672   1.821
 3744SOL    HW112131   1.534   6.685   1.725
 3744SOL    HW212132   1.591   6.689   1.878
 3745SOL     OW12133   4.903   3.412   2.357
 3745SOL    HW112134   4.985   3.429   2.303
 3745SOL    HW212135   4.850   3.339   2.315
 3746SOL     OW12136   6.468   0.041   3.304
 3746SOL    HW112137   6.561   0.019   3.335
 3746SOL    HW212138   6.408   0.049   3.384
 3747SOL     OW12139   4.360   6.788   6.098
 3747SOL    HW112140   4.375   6.885   6.116
 3747SOL    HW212141   4.437   6.735   6.135
 3748SOL     OW12142   5.733   1.120   2.407
 3748SOL    HW112143   5.741   1.214   2.374
 3748SOL    HW212144   5.673   1.119   2.488
 3749SOL     OW12145   1.138   5.295   2.476
 3749SOL    HW112146   1.146   5.394   2.465
 3749SOL    HW212147   1.135   5.273   2.573
 3750SOL     OW12148   5.644   4.337   0.735
 3750SOL    HW112149   5.570   4.371   0.676
 3750SOL    HW212150   5.719   4.304   0.679
 3751SOL     OW12151   1.246   3.000   1.145
 3751SOL    HW112152   1.223   3.088   1.105
 3751SOL    HW212153   1.229   3.003   1.244
 3752SOL     OW12154   0.238   0.625   6.587
 3752SOL    HW112155   0.285   0.605   6.673
 3752SOL    HW212156   0.272   0.563   6.516
 3753SOL     OW12157   0.822   6.586   4.759
 3753SOL    HW112158   0.822   6.499   4.709
 3753SOL    HW212159   0.791   6.659   4.699
 3754SOL     OW12160   5.404   6.186   0.994
 3754SOL    HW112161   5.418   6.284   1.009
 3754SOL    HW212162   5.307   6.169   0.976
 3755SOL     OW12163   5.242   5.488   4.022
 3755SOL    HW112164   5.257   5.557   4.094
 3755SOL    HW212165   5.304   5.412   4.036
 3756SOL     OW12166   2.037   1.116   6.173
 3756SOL    HW112167   2.103   1.168   6.227
 3756SOL    HW212168   1.958   1.174   6.152
 3757SOL     OW12169   3.784   5.898   5.548
 3757SOL    HW112170   3.829   5.955   5.479
 3757SOL    HW212171   3.828   5.809   5.551
 3758SOL     OW12172   2.188   1.252   4.539
 3758SOL    HW112173   2.205   1.348   4.562
 3758SOL    HW212174   2.152   1.246   4.446
 3759SOL     OW12175   4.904   5.487   5.476
 3759SOL    HW112176   4.916   5.583   5.501
 3759SOL    HW212177   4.900   5.431   5.559
 3760SOL     OW12178   1.345   3.484   3.502
 3760SOL    HW112179   1.431   3.434   3.499
 3760SOL    HW212180   1.269   3.420   3.500
 3761SOL     OW12181   0.688   6.867   5.134
 3761SOL    HW112182   0.731   6.898   5.049
 3761SOL    HW212183   0.590   6.854   5.119
 3762SOL     OW12184   1.069   4.216   0.154
 3762SOL    HW112185   1.148   4.191   0.209
 3762SOL    HW212186   1.055   4.315   0.159
 3763SOL     OW12187   6.862   4.251   0.045
 3763SOL    HW112188   6.792   4.241   6.992
 3763SOL    HW212189   6.839   4.192   0.123
 3764SOL     OW12190   2.136   0.580   4.608
 3764SOL    HW112191   2.166   0.671   4.637
 3764SOL    HW212192   2.171   0.512   4.672
 3765SOL     OW12193   4.699   1.047   3.468
 3765SOL    HW112194   4.707   1.002   3.379
 3765SOL    HW212195   4.767   1.008   3.531
 3766SOL     OW12196   0.524   0.563   3.794
 3766SOL    HW112197   0.503   0.655   3.828
 3766SOL    HW212198   0.622   0.556   3.777
 3767SOL     OW12199   1.720   4.816   0.334
 3767SOL    HW112200   1.759   4.845   0.247
 3767SOL    HW212201   1.651   4.746   0.319
 3768SOL     OW12202   3.954   6.403   6.607
 3768SOL    HW112203   4.002   6.387   6.521
 3768SOL    HW212204   3.864   6.358   6.604
 3769SOL     OW12205   5.584   5.754   5.195
 3769SOL    HW112206   5.615   5.745   5.290
 3769SOL    HW212207   5.540   5.668   5.167
 3770SOL     OW12208   2.442   0.755   6.066
 3770SOL    HW112209   2.477   0.728   6.156
 3770SOL    HW212210   2.368   0.821   6.077
 3771SOL     OW12211   5.434   2.149   0.543
 3771SOL    HW112212   5.383   2.227   0.507
 3771SOL    HW212213   5.448   2.082   0.469
 3772SOL     OW12214   6.279   0.921   0.891
 3772SOL    HW112215   6.194   0.908   0.942
 3772SOL    HW212216   6.340   0.981   0.943
 3773SOL     OW12217   5.627   3.165   5.950
 3773SOL    HW112218   5.716   3.209   5.939
 3773SOL    HW212219   5.620   3.125   6.041
 3774SOL     OW12220   1.346   6.727   6.282
 3774SOL    HW112221   1.324   6.825   6.277
 3774SOL    HW212222   1.287   6.683   6.350
 3775SOL     OW12223   5.364   3.976   2.929
 3775SOL    HW112224   5.429   3.980   2.854
 3775SOL    HW212225   5.407   3.935   3.009
 3776SOL     OW12226   2.392   1.846   2.031
 3776SOL    HW112227   2.467   1.836   2.096
 3776SOL    HW212228   2.407   1.785   1.953
 3777SOL     OW12229   3.370   4.971   4.970
 3777SOL    HW112230   3.402   4.896   5.028
 3777SOL    HW212231   3.286   5.009   5.009
 3778SOL     OW12232   2.474   5.671   2.539
 3778SOL    HW112233   2.571   5.657   2.519
 3778SOL    HW212234   2.464   5.734   2.616
 3779SOL     OW12235   2.696   4.744   0.063
 3779SOL    HW112236   2.732   4.708   0.148
 3779SOL    HW212237   2.714   4.680   7.007
 3780SOL     OW12238   3.919   5.195   4.663
 3780SOL    HW112239   3.907   5.140   4.581
 3780SOL    HW212240   3.974   5.144   4.729
 3781SOL     OW12241   1.903   6.487   4.035
 3781SOL    HW112242   1.859   6.429   3.967
 3781SOL    HW212243   1.855   6.575   4.040
 3782SOL     OW12244   2.665   2.228   4.574
 3782SOL    HW112245   2.704   2.263   4.489
 3782SOL    HW212246   2.664   2.300   4.643
 3783SOL     OW12247   6.627   6.968   5.011
 3783SOL    HW112248   6.580   0.034   5.037
 3783SOL    HW212249   6.615   6.953   4.913
 3784SOL     OW12250   5.432   1.662   3.759
 3784SOL    HW112251   5.488   1.586   3.792
 3784SOL    HW212252   5.490   1.728   3.712
 3785SOL     OW12253   2.533   1.772   0.579
 3785SOL    HW112254   2.435   1.751   0.582
 3785SOL    HW212255   2.555   1.832   0.656
 3786SOL     OW12256   3.056   4.852   3.988
 3786SOL    HW112257   3.141   4.838   4.040
 3786SOL    HW212258   3.075   4.912   3.910
 3787SOL     OW12259   5.471   0.556   4.404
 3787SOL    HW112260   5.472   0.503   4.319
 3787SOL    HW212261   5.541   0.520   4.466
 3788SOL     OW12262   6.367   3.483   3.679
 3788SOL    HW112263   6.301   3.554   3.704
 3788SOL    HW212264   6.460   3.518   3.694
 3789SOL     OW12265   1.315   4.215   4.377
 3789SOL    HW112266   1.231   4.161   4.380
 3789SOL    HW212267   1.394   4.155   4.387
 3790SOL     OW12268   2.137   3.785   4.582
 3790SOL    HW112269   2.156   3.763   4.487
 3790SOL    HW212270   2.089   3.708   4.625
 3791SOL     OW12271   5.358   6.661   1.180
 3791SOL    HW112272   5.324   6.666   1.274
 3791SOL    HW212273   5.299   6.716   1.120
 3792SOL     OW12274   6.582   0.509   4.908
 3792SOL    HW112275   6.618   0.482   4.997
 3792SOL    HW212276   6.573   0.608   4.904
 3793SOL     OW12277   2.089   1.086   2.690
 3793SOL    HW112278   1.990   1.099   2.685
 3793SOL    HW212279   2.131   1.157   2.746
 3794SOL     OW12280   3.918   5.299   1.898
 3794SOL    HW112281   3.932   5.348   1.984
 3794SOL    HW212282   3.820   5.281   1.886
 3795SOL     OW12283   4.556   6.798   6.868
 3795SOL    HW112284   4.638   6.762   6.912
 3795SOL    HW212285   4.582   6.853   6.788
 3796SOL     OW12286   1.604   1.573   1.630
 3796SOL    HW112287   1.628   1.636   1.557
 3796SOL    HW212288   1.530   1.612   1.685
 3797SOL     OW12289   6.738   5.382   2.151
 3797SOL    HW112290   6.751   5.331   2.236
 3797SOL    HW212291   6.777   5.330   2.075
 3798SOL     OW12292   2.688   4.654   3.161
 3798SOL    HW112293   2.728   4.684   3.074
 3798SOL    HW212294   2.727   4.566   3.187
 3799SOL     OW12295   1.291   1.523   4.970
 3799SOL    HW112296   1.350   1.602   4.952
 3799SOL    HW212297   1.314   1.484   5.059
 3800SOL     OW12298   5.128   2.541   4.973
 3800SOL    HW112299   5.137   2.563   5.070
 3800SOL    HW212300   5.090   2.620   4.924
 3801SOL     OW12301   6.306   6.099   5.463
 3801SOL    HW112302   6.257   6.185   5.478
 3801SOL    HW212303   6.273   6.057   5.379
 3802SOL     OW12304   1.322   2.423   5.244
 3802SOL    HW112305   1.274   2.384   5.166
 3802SOL    HW212306   1.275   2.505   5.275
 3803SOL     OW12307   4.362   0.612   2.324
 3803SOL    HW112308   4.394   0.683   2.387
 3803SOL    HW212309   4.393   0.523   2.356
 3804SOL     OW12310   4.471   1.941   4.866
 3804SOL    HW112311   4.485   2.003   4.789
 3804SOL    HW212312   4.387   1.966   4.914
 3805SOL     OW12313   3.257   4.052   1.686
 3805SOL    HW112314   3.302   4.043   1.774
 3805SOL    HW212315   3.299   3.990   1.620
 3806SOL     OW12316   2.975   2.549   6.939
 3806SOL    HW112317   2.992   2.626   7.000
 3806SOL    HW212318   3.051   2.540   6.875
 3807SOL     OW12319   1.177   0.398   4.450
 3807SOL    HW112320   1.277   0.404   4.449
 3807SOL    HW212321   1.138   0.489   4.432
 3808SOL     OW12322   3.305   0.431   2.431
 3808SOL    HW112323   3.235   0.363   2.411
 3808SOL    HW212324   3.333   0.477   2.346
 3809SOL     OW12325   5.958   2.055   6.778
 3809SOL    HW112326   6.003   2.007   6.854
 3809SOL    HW212327   5.863   2.027   6.773
 3810SOL     OW12328   3.654   3.769   5.622
 3810SOL    HW112329   3.609   3.681   5.633
 3810SOL    HW212330   3.668   3.788   5.524
 3811SOL     OW12331   0.264   4.084   4.298
 3811SOL    HW112332   0.165   4.100   4.291
 3811SOL    HW212333   0.281   3.987   4.313
 3812SOL     OW12334   6.204   1.848   5.892
 3812SOL    HW112335   6.138   1.785   5.933
 3812SOL    HW212336   6.160   1.936   5.875
 3813SOL     OW12337   4.054   5.082   1.355
 3813SOL    HW112338   4.111   5.079   1.438
 3813SOL    HW212339   4.013   4.992   1.340
 3814SOL     OW12340   0.186   5.796   1.104
 3814SOL    HW112341   0.186   5.896   1.106
 3814SOL    HW212342   0.103   5.761   1.147
 3815SOL     OW12343   4.694   2.099   1.018
 3815SOL    HW112344   4.732   2.180   1.064
 3815SOL    HW212345   4.601   2.118   0.989
 3816SOL     OW12346   6.822   6.199   1.926
 3816SOL    HW112347   6.878   6.169   1.849
 3816SOL    HW212348   6.800   6.296   1.916
 3817SOL     OW12349   4.653   2.498   4.276
 3817SOL    HW112350   4.705   2.459   4.352
 3817SOL    HW212351   4.564   2.528   4.309
 3818SOL     OW12352   4.549   6.608   2.349
 3818SOL    HW112353   4.470   6.614   2.411
 3818SOL    HW212354   4.552   6.690   2.291
 3819SOL     OW12355   5.857   5.554   0.120
 3819SOL    HW112356   5.836   5.556   0.218
 3819SOL    HW212357   5.776   5.524   0.069
 3820SOL     OW12358   5.963   5.868   3.590
 3820SOL    HW112359   5.959   5.968   3.579
 3820SOL    HW212360   5.911   5.825   3.517
 3821SOL     OW12361   1.828   3.453   1.847
 3821SOL    HW112362   1.779   3.401   1.776
 3821SOL    HW212363   1.919   3.415   1.858
 3822SOL     OW12364   1.837   5.427   1.999
 3822SOL    HW112365   1.801   5.348   2.050
 3822SOL    HW212366   1.869   5.497   2.064
 3823SOL     OW12367   4.058   2.178   4.992
 3823SOL    HW112368   4.008   2.146   5.073
 3823SOL    HW212369   4.106   2.263   5.015
 3824SOL     OW12370   5.951   2.216   5.815
 3824SOL    HW112371   5.917   2.183   5.903
 3824SOL    HW212372   6.030   2.162   5.787
 3825SOL     OW12373   6.581   0.230   6.958
 3825SOL    HW112374   6.607   0.143   6.999
 3825SOL    HW212375   6.551   0.293   0.012
 3826SOL     OW12376   0.180   3.785   0.626
 3826SOL    HW112377   0.232   3.769   0.710
 3826SOL    HW212378   0.240   3.773   0.547
 3827SOL     OW12379   3.792   4.392   0.953
 3827SOL    HW112380   3.797   4.340   0.868
 3827SOL    HW212381   3.763   4.486   0.933
 3828SOL     OW12382   4.368   2.095   0.912
 3828SOL    HW112383   4.312   2.153   0.852
 3828SOL    HW212384   4.417   2.028   0.856
 3829SOL     OW12385   2.291   5.084   3.484
 3829SOL    HW112386   2.262   5.166   3.535
 3829SOL    HW212387   2.312   5.011   3.549
 3830SOL     OW12388   1.727   0.423   5.400
 3830SOL    HW112389   1.642   0.379   5.371
 3830SOL    HW212390   1.734   0.513   5.359
 3831SOL     OW12391   3.795   1.743   2.401
 3831SOL    HW112392   3.747   1.656   2.384
 3831SOL    HW212393   3.877   1.746   2.344
 3832SOL     OW12394   6.526   1.144   1.578
 3832SOL    HW112395   6.593   1.214   1.602
 3832SOL    HW212396   6.539   1.064   1.635
 3833SOL     OW12397   0.745   4.857   0.650
 3833SOL    HW112398   0.738   4.926   0.579
 3833SOL    HW212399   0.742   4.901   0.740
 3834SOL     OW12400   2.729   2.195   0.772
 3834SOL    HW112401   2.701   2.291   0.778
 3834SOL    HW212402   2.822   2.186   0.807
 3835SOL     OW12403   3.847   5.637   5.586
 3835SOL    HW112404   3.925   5.574   5.581
 3835SOL    HW212405   3.769   5.596   5.540
 3836SOL     OW12406   1.813   3.745   5.649
 3836SOL    HW112407   1.868   3.680   5.596
 3836SOL    HW212408   1.744   3.786   5.590
 3837SOL     OW12409   4.427   3.588   0.104
 3837SOL    HW112410   4.331   3.614   0.091
 3837SOL    HW212411   4.431   3.493   0.134
 3838SOL     OW12412   5.112   2.421   4.339
 3838SOL    HW112413   5.169   2.342   4.364
 3838SOL    HW212414   5.154   2.469   4.262
 3839SOL     OW12415   5.704   6.825   5.157
 3839SOL    HW112416   5.664   6.804   5.246
 3839SOL    HW212417   5.763   6.749   5.129
 3840SOL     OW12418   1.305   0.894   4.791
 3840SOL    HW112419   1.339   0.972   4.739
 3840SOL    HW212420   1.241   0.842   4.734
 3841SOL     OW12421   1.034   4.254   4.867
 3841SOL    HW112422   1.091   4.252   4.785
 3841SOL    HW212423   1.037   4.164   4.911
 3842SOL     OW12424   0.528   5.399   7.004
 3842SOL    HW112425   0.573   5.324   0.034
 3842SOL    HW212426   0.438   5.370   6.974
 3843SOL     OW12427   6.809   3.240   0.402
 3843SOL    HW112428   6.855   3.273   0.484
 3843SOL    HW212429   6.726   3.294   0.387
 3844SOL     OW12430   1.845   5.549   5.816
 3844SOL    HW112431   1.763   5.516   5.770
 3844SOL    HW212432   1.916   5.479   5.814
 3845SOL     OW12433   3.891   2.986   3.125
 3845SOL    HW112434   3.936   3.050   3.187
 3845SOL    HW212435   3.954   2.959   3.052
 3846SOL     OW12436   6.598   4.450   3.984
 3846SOL    HW112437   6.614   4.423   3.889
 3846SOL    HW212438   6.651   4.391   4.045
 3847SOL     OW12439   6.657   0.806   6.376
 3847SOL    HW112440   6.731   0.741   6.358
 3847SOL    HW212441   6.627   0.846   6.289
 3848SOL     OW12442   2.343   5.239   2.305
 3848SOL    HW112443   2.339   5.289   2.392
 3848SOL    HW212444   2.285   5.283   2.238
 3849SOL     OW12445   0.769   1.379   5.392
 3849SOL    HW112446   0.690   1.384   5.332
 3849SOL    HW212447   0.757   1.304   5.457
 3850SOL     OW12448   2.929   3.787   1.845
 3850SOL    HW112449   2.955   3.700   1.886
 3850SOL    HW212450   2.945   3.861   1.911
 3851SOL     OW12451   2.156   3.722   3.345
 3851SOL    HW112452   2.156   3.816   3.313
 3851SOL    HW212453   2.181   3.719   3.442
 3852SOL     OW12454   4.806   1.190   4.823
 3852SOL    HW112455   4.709   1.197   4.847
 3852SOL    HW212456   4.854   1.272   4.854
 3853SOL     OW12457   1.135   3.330   2.170
 3853SOL    HW112458   1.050   3.312   2.119
 3853SOL    HW212459   1.138   3.270   2.250
 3854SOL     OW12460   0.890   3.341   4.092
 3854SOL    HW112461   0.920   3.400   4.167
 3854SOL    HW212462   0.890   3.246   4.122
 3855SOL     OW12463   6.127   4.390   5.807
 3855SOL    HW112464   6.164   4.321   5.744
 3855SOL    HW212465   6.077   4.460   5.755
 3856SOL     OW12466   6.824   0.341   5.730
 3856SOL    HW112467   6.853   0.245   5.742
 3856SOL    HW212468   6.725   0.346   5.733
 3857SOL     OW12469   0.793   6.527   5.033
 3857SOL    HW112470   0.799   6.577   4.946
 3857SOL    HW212471   0.835   6.437   5.021
 3858SOL     OW12472   1.219   5.773   6.203
 3858SOL    HW112473   1.223   5.800   6.106
 3858SOL    HW212474   1.173   5.684   6.210
 3859SOL     OW12475   0.046   2.783   3.383
 3859SOL    HW112476   0.074   2.691   3.357
 3859SOL    HW212477   0.006   2.830   3.304
 3860SOL     OW12478   2.120   5.626   5.685
 3860SOL    HW112479   2.182   5.657   5.757
 3860SOL    HW212480   2.070   5.545   5.716
 3861SOL     OW12481   4.998   4.878   1.629
 3861SOL    HW112482   4.960   4.950   1.687
 3861SOL    HW212483   5.027   4.801   1.687
 3862SOL     OW12484   0.814   6.855   5.985
 3862SOL    HW112485   0.806   6.862   6.084
 3862SOL    HW212486   0.782   6.940   5.943
 3863SOL     OW12487   3.328   3.571   1.023
 3863SOL    HW112488   3.284   3.519   0.950
 3863SOL    HW212489   3.267   3.576   1.102
 3864SOL     OW12490   3.709   1.708   6.571
 3864SOL    HW112491   3.771   1.738   6.499
 3864SOL    HW212492   3.753   1.636   6.625
 3865SOL     OW12493   4.057   0.590   2.122
 3865SOL    HW112494   4.124   0.601   2.048
 3865SOL    HW212495   4.064   0.498   2.159
 3866SOL     OW12496   3.819   6.870   1.038
 3866SOL    HW112497   3.906   6.824   1.020
 3866SOL    HW212498   3.744   6.818   0.999
 3867SOL     OW12499   2.050   3.504   3.227
 3867SOL    HW112500   2.084   3.593   3.255
 3867SOL    HW212501   2.127   3.439   3.222
 3868SOL     OW12502   2.923   6.806   1.858
 3868SOL    HW112503   2.870   6.724   1.841
 3868SOL    HW212504   2.867   6.873   1.906
 3869SOL     OW12505   0.471   2.740   3.424
 3869SOL    HW112506   0.423   2.804   3.484
 3869SOL    HW212507   0.426   2.650   3.429
 3870SOL     OW12508   3.022   5.443   0.057
 3870SOL    HW112509   3.058   5.376   0.122
 3870SOL    HW212510   3.053   5.421   6.983
 3871SOL     OW12511   3.097   6.870   2.916
 3871SOL    HW112512   3.043   6.948   2.885
 3871SOL    HW212513   3.125   6.886   3.011
 3872SOL     OW12514   4.148   3.999   1.232
 3872SOL    HW112515   4.224   3.946   1.195
 3872SOL    HW212516   4.091   4.033   1.157
 3873SOL     OW12517   5.585   4.984   1.497
 3873SOL    HW112518   5.523   5.046   1.547
 3873SOL    HW212519   5.555   4.890   1.509
 3874SOL     OW12520   3.763   6.481   0.306
 3874SOL    HW112521   3.861   6.498   0.299
 3874SOL    HW212522   3.747   6.383   0.320
 3875SOL     OW12523   1.726   4.293   1.530
 3875SOL    HW112524   1.632   4.304   1.497
 3875SOL    HW212525   1.783   4.257   1.455
 3876SOL     OW12526   5.525   4.386   4.664
 3876SOL    HW112527   5.542   4.336   4.749
 3876SOL    HW212528   5.477   4.471   4.685
 3877SOL     OW12529   6.071   1.344   2.702
 3877SOL    HW112530   6.167   1.366   2.684
 3877SOL    HW212531   6.063   1.249   2.732
 3878SOL     OW12532   4.000   6.887   6.408
 3878SOL    HW112533   4.020   6.789   6.405
 3878SOL    HW212534   4.060   6.935   6.345
 3879SOL     OW12535   4.143   5.403   1.794
 3879SOL    HW112536   4.058   5.358   1.822
 3879SOL    HW212537   4.122   5.493   1.757
 3880SOL     OW12538   5.859   3.317   3.110
 3880SOL    HW112539   5.899   3.242   3.057
 3880SOL    HW212540   5.924   3.347   3.180
 3881SOL     OW12541   1.040   4.458   0.742
 3881SOL    HW112542   0.976   4.514   0.690
 3881SOL    HW212543   1.094   4.516   0.803
 3882SOL     OW12544   6.583   1.472   5.471
 3882SOL    HW112545   6.678   1.497   5.492
 3882SOL    HW212546   6.524   1.499   5.546
 3883SOL     OW12547   4.054   0.765   4.398
 3883SOL    HW112548   4.051   0.671   4.364
 3883SOL    HW212549   4.012   0.827   4.332
 3884SOL     OW12550   1.742   5.733   5.455
 3884SOL    HW112551   1.788   5.747   5.543
 3884SOL    HW212552   1.721   5.822   5.414
 3885SOL     OW12553   6.539   1.086   3.685
 3885SOL    HW112554   6.618   1.025   3.678
 3885SOL    HW212555   6.552   1.164   3.625
 3886SOL     OW12556   6.878   0.084   4.973
 3886SOL    HW112557   6.798   0.030   5.000
 3886SOL    HW212558   6.949   0.023   4.939
 3887SOL     OW12559   4.432   1.895   5.600
 3887SOL    HW112560   4.361   1.864   5.663
 3887SOL    HW212561   4.521   1.892   5.647
 3888SOL     OW12562   6.631   1.485   0.796
 3888SOL    HW112563   6.661   1.399   0.756
 3888SOL    HW212564   6.641   1.481   0.896
 3889SOL     OW12565   0.865   6.292   6.571
 3889SOL    HW112566   0.795   6.250   6.628
 3889SOL    HW212567   0.862   6.392   6.583
 3890SOL     OW12568   5.864   5.011   3.297
 3890SOL    HW112569   5.908   5.062   3.223
 3890SOL    HW212570   5.927   5.004   3.374
 3891SOL     OW12571   5.392   5.067   5.125
 3891SOL    HW112572   5.482   5.110   5.116
 3891SOL    HW212573   5.393   4.977   5.081
 3892SOL     OW12574   5.716   6.755   2.959
 3892SOL    HW112575   5.689   6.683   2.895
 3892SOL    HW212576   5.799   6.800   2.926
 3893SOL     OW12577   3.364   5.694   4.625
 3893SOL    HW112578   3.268   5.668   4.619
 3893SOL    HW212579   3.411   5.666   4.541
 3894SOL     OW12580   4.558   3.856   0.266
 3894SOL    HW112581   4.499   3.871   0.344
 3894SOL    HW212582   4.515   3.790   0.203
 3895SOL     OW12583   2.671   1.722   5.866
 3895SOL    HW112584   2.604   1.659   5.906
 3895SOL    HW212585   2.624   1.790   5.811
 3896SOL     OW12586   0.002   3.092   5.385
 3896SOL    HW112587   0.082   3.033   5.374
 3896SOL    HW212588   0.030   3.180   5.423
 3897SOL     OW12589   3.842   0.171   2.058
 3897SOL    HW112590   3.787   0.139   2.135
 3897SOL    HW212591   3.904   0.243   2.089
 3898SOL     OW12592   4.102   3.811   3.878
 3898SOL    HW112593   4.035   3.879   3.846
 3898SOL    HW212594   4.085   3.791   3.974
 3899SOL     OW12595   4.663   1.895   5.742
 3899SOL    HW112596   4.724   1.829   5.701
 3899SOL    HW212597   4.698   1.923   5.832
 3900SOL     OW12598   6.393   2.675   3.067
 3900SOL    HW112599   6.300   2.710   3.055
 3900SOL    HW212600   6.433   2.656   2.977
 3901SOL     OW12601   1.694   6.970   5.393
 3901SOL    HW112602   1.618   6.990   5.331
 3901SOL    HW212603   1.716   0.033   5.446
 3902SOL     OW12604   4.399   5.048   1.389
 3902SOL    HW112605   4.494   5.072   1.372
 3902SOL    HW212606   4.364   4.992   1.313
 3903SOL     OW12607   4.273   2.840   6.706
 3903SOL    HW112608   4.261   2.877   6.798
 3903SOL    HW212609   4.350   2.776   6.706
 3904SOL     OW12610   1.146   6.256   0.641
 3904SOL    HW112611   1.163   6.186   0.571
 3904SOL    HW212612   1.092   6.216   0.715
 3905SOL     OW12613   6.837   0.575   5.405
 3905SOL    HW112614   6.844   0.670   5.435
 3905SOL    HW212615   6.907   0.520   5.452
 3906SOL     OW12616   1.872   4.805   4.008
 3906SOL    HW112617   1.895   4.772   3.916
 3906SOL    HW212618   1.888   4.903   4.013
 3907SOL     OW12619   6.721   1.311   3.793
 3907SOL    HW112620   6.683   1.259   3.870
 3907SOL    HW212621   6.649   1.367   3.751
 3908SOL     OW12622   1.267   0.368   5.091
 3908SOL    HW112623   1.228   0.309   5.162
 3908SOL    HW212624   1.215   0.357   5.006
 3909SOL     OW12625   5.717   2.989   6.560
 3909SOL    HW112626   5.769   2.990   6.474
 3909SOL    HW212627   5.713   2.895   6.594
 3910SOL     OW12628   3.579   1.996   0.248
 3910SOL    HW112629   3.607   1.940   0.171
 3910SOL    HW212630   3.541   1.937   0.320
 3911SOL     OW12631   6.732   0.804   0.833
 3911SOL    HW112632   6.726   0.729   0.899
 3911SOL    HW212633   6.648   0.859   0.838
 3912SOL     OW12634   4.290   1.485   0.532
 3912SOL    HW112635   4.351   1.546   0.582
 3912SOL    HW212636   4.299   1.392   0.569
 3913SOL     OW12637   4.902   5.253   0.539
 3913SOL    HW112638   4.956   5.303   0.605
 3913SOL    HW212639   4.877   5.164   0.576
 3914SOL     OW12640   5.916   1.184   0.619
 3914SOL    HW112641   5.921   1.190   0.519
 3914SOL    HW212642   6.004   1.155   0.655
 3915SOL     OW12643   4.456   5.248   6.750
 3915SOL    HW112644   4.366   5.233   6.711
 3915SOL    HW212645   4.521   5.182   6.711
 3916SOL     OW12646   1.997   1.640   2.062
 3916SOL    HW112647   2.043   1.551   2.051
 3916SOL    HW212648   1.936   1.636   2.141
 3917SOL     OW12649   2.870   5.373   0.973
 3917SOL    HW112650   2.812   5.308   1.022
 3917SOL    HW212651   2.944   5.403   1.034
 3918SOL     OW12652   5.308   0.491   0.899
 3918SOL    HW112653   5.392   0.436   0.905
 3918SOL    HW212654   5.330   0.582   0.863
 3919SOL     OW12655   3.580   0.719   2.112
 3919SOL    HW112656   3.647   0.696   2.183
 3919SOL    HW212657   3.611   0.683   2.024
 3920SOL     OW12658   3.009   1.306   5.524
 3920SOL    HW112659   2.975   1.245   5.595
 3920SOL    HW212660   3.047   1.252   5.449
 3921SOL     OW12661   0.521   2.919   6.077
 3921SOL    HW112662   0.508   2.941   6.174
 3921SOL    HW212663   0.610   2.874   6.065
 3922SOL     OW12664   5.267   4.783   2.961
 3922SOL    HW112665   5.360   4.797   2.925
 3922SOL    HW212666   5.235   4.692   2.936
 3923SOL     OW12667   5.703   1.104   1.209
 3923SOL    HW112668   5.775   1.090   1.277
 3923SOL    HW212669   5.713   1.195   1.169
 3924SOL     OW12670   5.646   5.015   4.697
 3924SOL    HW112671   5.705   4.935   4.711
 3924SOL    HW212672   5.622   5.022   4.601
 3925SOL     OW12673   4.528   3.673   0.978
 3925SOL    HW112674   4.544   3.605   1.049
 3925SOL    HW212675   4.582   3.755   0.997
 3926SOL     OW12676   0.516   6.940   6.063
 3926SOL    HW112677   0.568   6.874   6.118
 3926SOL    HW212678   0.419   6.934   6.087
 3927SOL     OW12679   6.045   3.088   5.006
 3927SOL    HW112680   6.026   3.182   5.034
 3927SOL    HW212681   5.960   3.035   5.006
 3928SOL     OW12682   2.589   6.239   2.276
 3928SOL    HW112683   2.501   6.195   2.257
 3928SOL    HW212684   2.645   6.180   2.334
 3929SOL     OW12685   0.496   2.215   5.202
 3929SOL    HW112686   0.414   2.220   5.146
 3929SOL    HW212687   0.550   2.134   5.176
 3930SOL     OW12688   0.633   3.982   3.618
 3930SOL    HW112689   0.666   3.986   3.712
 3930SOL    HW212690   0.697   3.929   3.562
 3931SOL     OW12691   1.731   2.106   1.690
 3931SOL    HW112692   1.737   2.140   1.784
 3931SOL    HW212693   1.637   2.115   1.657
 3932SOL     OW12694   2.333   5.395   3.848
 3932SOL    HW112695   2.387   5.478   3.834
 3932SOL    HW212696   2.312   5.385   3.945
 3933SOL     OW12697   2.142   5.506   1.290
 3933SOL    HW112698   2.168   5.453   1.209
 3933SOL    HW212699   2.120   5.445   1.365
 3934SOL     OW12700   0.608   1.445   1.076
 3934SOL    HW112701   0.665   1.525   1.063
 3934SOL    HW212702   0.526   1.452   1.019
 3935SOL     OW12703   5.999   3.517   6.796
 3935SOL    HW112704   5.928   3.561   6.850
 3935SOL    HW212705   5.987   3.542   6.700
 3936SOL     OW12706   0.751   5.140   5.302
 3936SOL    HW112707   0.799   5.058   5.272
 3936SOL    HW212708   0.662   5.115   5.340
 3937SOL     OW12709   0.025   0.040   1.974
 3937SOL    HW112710   6.971   6.993   1.998
 3937SOL    HW212711   0.016   0.122   2.030
 3938SOL     OW12712   0.382   4.440   2.538
 3938SOL    HW112713   0.311   4.384   2.579
 3938SOL    HW212714   0.342   4.499   2.469
 3939SOL     OW12715   1.491   1.074   2.242
 3939SOL    HW112716   1.537   1.033   2.163
 3939SOL    HW212717   1.409   1.021   2.265
 3940SOL     OW12718   3.482   5.455   1.906
 3940SOL    HW112719   3.554   5.523   1.924
 3940SOL    HW212720   3.398   5.502   1.879
 3941SOL     OW12721   5.303   6.580   3.396
 3941SOL    HW112722   5.380   6.643   3.405
 3941SOL    HW212723   5.308   6.510   3.467
 3942SOL     OW12724   6.862   5.736   5.655
 3942SOL    HW112725   6.949   5.741   5.607
 3942SOL    HW212726   6.875   5.696   5.746
 3943SOL     OW12727   1.468   2.416   6.915
 3943SOL    HW112728   1.488   2.513   6.931
 3943SOL    HW212729   1.476   2.366   7.002
 3944SOL     OW12730   5.808   2.366   0.118
 3944SOL    HW112731   5.903   2.342   0.094
 3944SOL    HW212732   5.808   2.445   0.178
 3945SOL     OW12733   6.335   0.457   3.462
 3945SOL    HW112734   6.337   0.452   3.561
 3945SOL    HW212735   6.404   0.523   3.430
 3946SOL     OW12736   1.220   3.062   0.705
 3946SOL    HW112737   1.249   2.972   0.735
 3946SOL    HW212738   1.158   3.102   0.773
 3947SOL     OW12739   5.719   4.965   2.196
 3947SOL    HW112740   5.777   4.963   2.115
 3947SOL    HW212741   5.633   4.918   2.177
 3948SOL     OW12742   1.197   2.654   6.166
 3948SOL    HW112743   1.267   2.636   6.236
 3948SOL    HW212744   1.185   2.573   6.109
 3949SOL     OW12745   5.830   6.376   2.358
 3949SOL    HW112746   5.928   6.356   2.363
 3949SOL    HW212747   5.816   6.459   2.305
 3950SOL     OW12748   2.990   4.499   1.584
 3950SOL    HW112749   2.994   4.507   1.683
 3950SOL    HW212750   2.895   4.505   1.554
 3951SOL     OW12751   0.905   2.645   5.596
 3951SOL    HW112752   0.847   2.726   5.593
 3951SOL    HW212753   0.891   2.598   5.684
 3952SOL     OW12754   5.964   3.722   6.093
 3952SOL    HW112755   5.884   3.692   6.144
 3952SOL    HW212756   6.003   3.644   6.043
 3953SOL     OW12757   3.392   3.999   6.578
 3953SOL    HW112758   3.450   3.926   6.542
 3953SOL    HW212759   3.425   4.087   6.544
 3954SOL     OW12760   0.634   3.289   5.474
 3954SOL    HW112761   0.720   3.240   5.456
 3954SOL    HW212762   0.567   3.266   5.403
 3955SOL     OW12763   6.558   4.818   6.968
 3955SOL    HW112764   6.562   4.868   0.036
 3955SOL    HW212765   6.589   4.724   6.982
 3956SOL     OW12766   1.219   2.973   5.552
 3956SOL    HW112767   1.239   2.883   5.592
 3956SOL    HW212768   1.146   3.018   5.604
 3957SOL     OW12769   1.172   1.093   2.423
 3957SOL    HW112770   1.181   1.011   2.480
 3957SOL    HW212771   1.109   1.157   2.467
 3958SOL     OW12772   5.343   6.529   5.285
 3958SOL    HW112773   5.388   6.598   5.228
 3958SOL    HW212774   5.247   6.554   5.297
 3959SOL     OW12775   2.406   4.862   0.632
 3959SOL    HW112776   2.426   4.910   0.718
 3959SOL    HW212777   2.344   4.917   0.576
 3960SOL     OW12778   4.215   3.328   0.356
 3960SOL    HW112779   4.184   3.268   0.281
 3960SOL    HW212780   4.135   3.372   0.398
 3961SOL     OW12781   5.775   1.016   2.169
 3961SOL    HW112782   5.709   0.943   2.149
 3961SOL    HW212783   5.757   1.053   2.260
 3962SOL     OW12784   0.473   0.142   6.378
 3962SOL    HW112785   0.543   0.197   6.333
 3962SOL    HW212786   0.507   0.049   6.392
 3963SOL     OW12787   5.290   5.964   3.120
 3963SOL    HW112788   5.228   6.042   3.110
 3963SOL    HW212789   5.385   5.996   3.120
 3964SOL     OW12790   5.466   6.287   5.196
 3964SOL    HW112791   5.425   6.378   5.205
 3964SOL    HW212792   5.456   6.255   5.102
 3965SOL     OW12793   3.965   3.522   0.125
 3965SOL    HW112794   3.897   3.542   0.196
 3965SOL    HW212795   3.934   3.559   0.038
 3966SOL     OW12796   5.520   3.644   5.280
 3966SOL    HW112797   5.476   3.628   5.192
 3966SOL    HW212798   5.479   3.584   5.349
 3967SOL     OW12799   0.718   5.589   6.300
 3967SOL    HW112800   0.795   5.649   6.279
 3967SOL    HW212801   0.632   5.636   6.279
 3968SOL     OW12802   5.786   0.331   1.624
 3968SOL    HW112803   5.708   0.390   1.647
 3968SOL    HW212804   5.813   0.279   1.705
 3969SOL     OW12805   0.378   5.193   1.929
 3969SOL    HW112806   0.308   5.166   1.864
 3969SOL    HW212807   0.345   5.272   1.982
 3970SOL     OW12808   4.957   4.845   3.373
 3970SOL    HW112809   4.926   4.751   3.386
 3970SOL    HW212810   4.960   4.891   3.462
 3971SOL     OW12811   1.495   5.562   3.673
 3971SOL    HW112812   1.483   5.603   3.583
 3971SOL    HW212813   1.561   5.488   3.667
 3972SOL     OW12814   1.636   6.846   0.388
 3972SOL    HW112815   1.560   6.888   0.437
 3972SOL    HW212816   1.610   6.832   0.292
 3973SOL     OW12817   2.877   3.487   4.031
 3973SOL    HW112818   2.795   3.477   4.088
 3973SOL    HW212819   2.860   3.448   3.941
 3974SOL     OW12820   6.057   1.741   6.580
 3974SOL    HW112821   5.983   1.709   6.521
 3974SOL    HW212822   6.132   1.674   6.580
 3975SOL     OW12823   6.956   1.229   5.722
 3975SOL    HW112824   6.894   1.219   5.800
 3975SOL    HW212825   0.002   1.152   5.720
 3976SOL     OW12826   0.913   3.519   0.131
 3976SOL    HW112827   0.932   3.481   0.040
 3976SOL    HW212828   0.828   3.572   0.128
 3977SOL     OW12829   3.919   6.081   6.375
 3977SOL    HW112830   3.947   6.059   6.469
 3977SOL    HW212831   3.969   6.024   6.311
 3978SOL     OW12832   5.799   3.288   6.519
 3978SOL    HW112833   5.814   3.275   6.421
 3978SOL    HW212834   5.749   3.210   6.556
 3979SOL     OW12835   0.879   6.859   3.056
 3979SOL    HW112836   0.786   6.823   3.050
 3979SOL    HW212837   0.941   6.801   3.004
 3980SOL     OW12838   5.069   2.778   4.102
 3980SOL    HW112839   5.103   2.850   4.163
 3980SOL    HW212840   4.981   2.745   4.137
 3981SOL     OW12841   6.502   2.316   6.363
 3981SOL    HW112842   6.496   2.248   6.435
 3981SOL    HW212843   6.484   2.273   6.274
 3982SOL     OW12844   2.498   1.913   3.849
 3982SOL    HW112845   2.421   1.926   3.911
 3982SOL    HW212846   2.557   1.840   3.884
 3983SOL     OW12847   3.506   6.282   4.312
 3983SOL    HW112848   3.410   6.273   4.339
 3983SOL    HW212849   3.558   6.321   4.388
 3984SOL     OW12850   1.895   6.549   1.706
 3984SOL    HW112851   1.859   6.581   1.619
 3984SOL    HW212852   1.867   6.612   1.779
 3985SOL     OW12853   2.046   2.819   1.796
 3985SOL    HW112854   2.077   2.779   1.883
 3985SOL    HW212855   2.044   2.918   1.804
 3986SOL     OW12856   0.834   2.517   1.844
 3986SOL    HW112857   0.881   2.545   1.760
 3986SOL    HW212858   0.849   2.419   1.859
 3987SOL     OW12859   2.594   4.493   6.671
 3987SOL    HW112860   2.549   4.567   6.622
 3987SOL    HW212861   2.579   4.407   6.622
 3988SOL     OW12862   3.868   2.749   0.610
 3988SOL    HW112863   3.798   2.726   0.543
 3988SOL    HW212864   3.865   2.847   0.630
 3989SOL     OW12865   5.086   6.825   6.560
 3989SOL    HW112866   5.013   6.798   6.497
 3989SOL    HW212867   5.114   6.746   6.614
 3990SOL     OW12868   0.941   3.040   3.671
 3990SOL    HW112869   0.909   3.015   3.580
 3990SOL    HW212870   0.888   3.118   3.705
 3991SOL     OW12871   0.514   1.665   4.276
 3991SOL    HW112872   0.512   1.765   4.284
 3991SOL    HW212873   0.446   1.636   4.209
 3992SOL     OW12874   4.380   3.822   6.648
 3992SOL    HW112875   4.422   3.911   6.668
 3992SOL    HW212876   4.421   3.784   6.565
 3993SOL     OW12877   2.487   2.500   2.690
 3993SOL    HW112878   2.451   2.539   2.774
 3993SOL    HW212879   2.459   2.556   2.612
 3994SOL     OW12880   2.356   2.720   3.630
 3994SOL    HW112881   2.389   2.786   3.697
 3994SOL    HW212882   2.294   2.656   3.675
 3995SOL     OW12883   2.160   3.618   2.462
 3995SOL    HW112884   2.214   3.616   2.546
 3995SOL    HW212885   2.139   3.524   2.433
 3996SOL     OW12886   6.174   0.518   3.034
 3996SOL    HW112887   6.199   0.423   3.051
 3996SOL    HW212888   6.237   0.578   3.083
 3997SOL     OW12889   5.746   3.969   2.916
 3997SOL    HW112890   5.679   3.944   2.986
 3997SOL    HW212891   5.704   4.031   2.850
 3998SOL     OW12892   6.274   1.788   2.910
 3998SOL    HW112893   6.292   1.720   2.839
 3998SOL    HW212894   6.309   1.876   2.881
 3999SOL     OW12895   5.450   3.259   2.722
 3999SOL    HW112896   5.385   3.205   2.669
 3999SOL    HW212897   5.498   3.323   2.661
 4000SOL     OW12898   2.851   5.881   2.010
 4000SOL    HW112899   2.825   5.801   1.954
 4000SOL    HW212900   2.770   5.913   2.059
 4001SOL     OW12901   2.404   4.132   5.400
 4001SOL    HW112902   2.444   4.223   5.385
 4001SOL    HW212903   2.410   4.079   5.316
 4002SOL     OW12904   3.341   3.233   4.156
 4002SOL    HW112905   3.273   3.165   4.185
 4002SOL    HW212906   3.296   3.303   4.100
 4003SOL     OW12907   1.984   0.782   5.308
 4003SOL    HW112908   1.885   0.792   5.295
 4003SOL    HW212909   2.015   0.846   5.378
 4004SOL     OW12910   0.385   3.867   3.521
 4004SOL    HW112911   0.426   3.939   3.577
 4004SOL    HW212912   0.291   3.850   3.551
 4005SOL     OW12913   4.304   3.665   1.363
 4005SOL    HW112914   4.211   3.685   1.393
 4005SOL    HW212915   4.331   3.731   1.292
 4006SOL     OW12916   4.970   5.462   3.243
 4006SOL    HW112917   5.058   5.486   3.285
 4006SOL    HW212918   4.973   5.484   3.145
 4007SOL     OW12919   0.131   1.308   2.577
 4007SOL    HW112920   0.214   1.362   2.591
 4007SOL    HW212921   0.120   1.288   2.480
 4008SOL     OW12922   2.220   0.146   0.627
 4008SOL    HW112923   2.204   0.243   0.647
 4008SOL    HW212924   2.216   0.093   0.712
 4009SOL     OW12925   4.255   2.205   0.697
 4009SOL    HW112926   4.166   2.229   0.659
 4009SOL    HW212927   4.304   2.147   0.632
 4010SOL     OW12928   2.379   5.115   1.699
 4010SOL    HW112929   2.281   5.111   1.716
 4010SOL    HW212930   2.411   5.209   1.706
 4011SOL     OW12931   6.420   6.158   0.447
 4011SOL    HW112932   6.470   6.098   0.384
 4011SOL    HW212933   6.424   6.252   0.414
 4012SOL     OW12934   3.911   6.779   2.308
 4012SOL    HW112935   3.902   6.681   2.325
 4012SOL    HW212936   3.838   6.809   2.246
 4013SOL     OW12937   1.313   1.346   0.929
 4013SOL    HW112938   1.291   1.310   1.019
 4013SOL    HW212939   1.393   1.298   0.893
 4014SOL     OW12940   2.678   5.316   3.963
 4014SOL    HW112941   2.669   5.335   3.865
 4014SOL    HW212942   2.684   5.217   3.977
 4015SOL     OW12943   4.501   4.981   6.429
 4015SOL    HW112944   4.406   4.995   6.458
 4015SOL    HW212945   4.541   4.908   6.484
 4016SOL     OW12946   3.896   6.180   5.968
 4016SOL    HW112947   3.857   6.221   6.051
 4016SOL    HW212948   3.885   6.244   5.891
 4017SOL     OW12949   0.777   5.671   5.383
 4017SOL    HW112950   0.802   5.720   5.467
 4017SOL    HW212951   0.678   5.674   5.371
 4018SOL     OW12952   4.007   6.209   2.197
 4018SOL    HW112953   4.070   6.283   2.175
 4018SOL    HW212954   3.935   6.205   2.128
 4019SOL     OW12955   5.152   3.191   2.935
 4019SOL    HW112956   5.054   3.188   2.953
 4019SOL    HW212957   5.168   3.237   2.848
 4020SOL     OW12958   6.796   4.158   4.611
 4020SOL    HW112959   6.876   4.205   4.650
 4020SOL    HW212960   6.724   4.154   4.680
 4021SOL     OW12961   3.471   3.780   5.866
 4021SOL    HW112962   3.385   3.776   5.815
 4021SOL    HW212963   3.548   3.788   5.802
 4022SOL     OW12964   2.769   0.260   0.588
 4022SOL    HW112965   2.683   0.279   0.635
 4022SOL    HW212966   2.836   0.225   0.654
 4023SOL     OW12967   0.200   2.497   5.635
 4023SOL    HW112968   0.287   2.464   5.671
 4023SOL    HW212969   0.213   2.528   5.541
 4024SOL     OW12970   0.953   4.820   3.781
 4024SOL    HW112971   0.860   4.785   3.770
 4024SOL    HW212972   0.958   4.912   3.741
 4025SOL     OW12973   1.056   5.980   4.094
 4025SOL    HW112974   0.963   6.017   4.100
 4025SOL    HW212975   1.102   6.020   4.015
 4026SOL     OW12976   6.817   6.163   3.943
 4026SOL    HW112977   6.797   6.175   4.040
 4026SOL    HW212978   6.735   6.133   3.895
 4027SOL     OW12979   2.428   3.046   6.091
 4027SOL    HW112980   2.461   2.952   6.098
 4027SOL    HW212981   2.497   3.108   6.127
 4028SOL     OW12982   5.036   1.589   3.148
 4028SOL    HW112983   5.060   1.500   3.186
 4028SOL    HW212984   5.033   1.584   3.048
 4029SOL     OW12985   3.015   4.306   6.649
 4029SOL    HW112986   3.096   4.301   6.707
 4029SOL    HW212987   3.038   4.276   6.556
 4030SOL     OW12988   6.893   0.933   1.945
 4030SOL    HW112989   6.921   1.019   1.902
 4030SOL    HW212990   6.932   0.856   1.894
 4031SOL     OW12991   5.525   0.118   1.804
 4031SOL    HW112992   5.614   0.082   1.775
 4031SOL    HW212993   5.453   0.057   1.773
 4032SOL     OW12994   6.213   6.836   1.414
 4032SOL    HW112995   6.122   6.812   1.446
 4032SOL    HW212996   6.239   6.776   1.338
 4033SOL     OW12997   3.198   2.075   2.381
 4033SOL    HW112998   3.250   2.088   2.296
 4033SOL    HW212999   3.103   2.102   2.366
 4034SOL     OW13000   0.102   2.893   5.038
 4034SOL    HW113001   0.025   2.845   5.078
 4034SOL    HW213002   0.080   2.917   4.943
 4035SOL     OW13003   6.559   2.348   0.906
 4035SOL    HW113004   6.487   2.297   0.951
 4035SOL    HW213005   6.648   2.323   0.945
 4036SOL     OW13006   3.566   5.195   3.406
 4036SOL    HW113007   3.634   5.210   3.334
 4036SOL    HW213008   3.526   5.282   3.433
 4037SOL     OW13009   2.823   0.830   6.022
 4037SOL    HW113010   2.772   0.780   5.952
 4037SOL    HW213011   2.767   0.838   6.105
 4038SOL     OW13012   3.954   3.759   6.664
 4038SOL    HW113013   3.894   3.696   6.615
 4038SOL    HW213014   3.968   3.841   6.609
 4039SOL     OW13015   5.444   5.450   1.779
 4039SOL    HW113016   5.455   5.497   1.866
 4039SOL    HW213017   5.361   5.394   1.781
 4040SOL     OW13018   3.761   5.227   5.115
 4040SOL    HW113019   3.737   5.152   5.053
 4040SOL    HW213020   3.860   5.228   5.129
 4041SOL     OW13021   2.063   6.766   1.389
 4041SOL    HW113022   2.135   6.779   1.457
 4041SOL    HW213023   1.979   6.738   1.435
 4042SOL     OW13024   6.245   6.956   2.642
 4042SOL    HW113025   6.153   6.978   2.609
 4042SOL    HW213026   6.312   6.995   2.579
 4043SOL     OW13027   6.314   2.957   0.106
 4043SOL    HW113028   6.368   2.884   0.064
 4043SOL    HW213029   6.324   3.041   0.052
 4044SOL     OW13030   4.041   4.930   2.873
 4044SOL    HW113031   4.098   5.008   2.899
 4044SOL    HW213032   4.091   4.845   2.890
 4045SOL     OW13033   5.202   7.015   6.410
 4045SOL    HW113034   5.136   6.967   6.468
 4045SOL    HW213035   5.204   6.974   6.319
 4046SOL     OW13036   0.738   1.002   3.318
 4046SOL    HW113037   0.697   1.093   3.330
 4046SOL    HW213038   0.831   1.013   3.283
 4047SOL     OW13039   2.135   3.086   6.794
 4047SOL    HW113040   2.100   3.138   6.872
 4047SOL    HW213041   2.209   3.137   6.750
 4048SOL     OW13042   4.986   1.128   2.285
 4048SOL    HW113043   4.975   1.038   2.243
 4048SOL    HW213044   4.898   1.159   2.322
 4049SOL     OW13045   3.887   5.758   6.705
 4049SOL    HW113046   3.975   5.773   6.748
 4049SOL    HW213047   3.896   5.766   6.605
 4050SOL     OW13048   0.948   5.772   2.440
 4050SOL    HW113049   1.031   5.718   2.429
 4050SOL    HW213050   0.941   5.839   2.366
 4051SOL     OW13051   5.137   1.050   6.246
 4051SOL    HW113052   5.055   1.031   6.192
 4051SOL    HW213053   5.129   1.141   6.288
 4052SOL     OW13054   6.792   2.053   2.858
 4052SOL    HW113055   6.800   1.963   2.900
 4052SOL    HW213056   6.881   2.099   2.860
 4053SOL     OW13057   1.266   6.112   4.807
 4053SOL    HW113058   1.270   6.202   4.850
 4053SOL    HW213059   1.340   6.103   4.740
 4054SOL     OW13060   4.900   4.039   1.368
 4054SOL    HW113061   4.941   3.948   1.373
 4054SOL    HW213062   4.800   4.031   1.363
 4055SOL     OW13063   1.575   3.744   1.979
 4055SOL    HW113064   1.661   3.726   2.026
 4055SOL    HW213065   1.509   3.672   2.001
 4056SOL     OW13066   5.717   3.544   0.807
 4056SOL    HW113067   5.671   3.631   0.825
 4056SOL    HW213068   5.714   3.488   0.890
 4057SOL     OW13069   6.437   3.337   6.588
 4057SOL    HW113070   6.344   3.323   6.620
 4057SOL    HW213071   6.502   3.298   6.653
 4058SOL     OW13072   2.757   5.697   5.104
 4058SOL    HW113073   2.782   5.602   5.084
 4058SOL    HW213074   2.679   5.723   5.047
 4059SOL     OW13075   0.701   2.745   4.172
 4059SOL    HW113076   0.729   2.775   4.081
 4059SOL    HW213077   0.637   2.668   4.163
 4060SOL     OW13078   6.162   5.817   4.720
 4060SOL    HW113079   6.148   5.777   4.811
 4060SOL    HW213080   6.090   5.785   4.658
 4061SOL     OW13081   2.296   4.844   2.161
 4061SOL    HW113082   2.299   4.910   2.236
 4061SOL    HW213083   2.302   4.893   2.073
 4062SOL     OW13084   2.790   1.245   1.919
 4062SOL    HW113085   2.843   1.221   1.838
 4062SOL    HW213086   2.692   1.237   1.898
 4063SOL     OW13087   5.752   6.465   1.013
 4063SOL    HW113088   5.803   6.492   1.095
 4063SOL    HW213089   5.787   6.377   0.979
 4064SOL     OW13090   2.009   1.865   4.791
 4064SOL    HW113091   2.076   1.792   4.806
 4064SOL    HW213092   1.953   1.843   4.711
 4065SOL     OW13093   1.362   6.948   6.965
 4065SOL    HW113094   1.390   7.009   0.021
 4065SOL    HW213095   1.322   6.865   7.003
 4066SOL     OW13096   6.395   4.146   2.529
 4066SOL    HW113097   6.320   4.187   2.580
 4066SOL    HW213098   6.370   4.053   2.503
 4067SOL     OW13099   6.205   4.269   2.633
 4067SOL    HW113100   6.213   4.368   2.630
 4067SOL    HW213101   6.119   4.243   2.677
 4068SOL     OW13102   1.703   2.608   4.500
 4068SOL    HW113103   1.691   2.609   4.599
 4068SOL    HW213104   1.749   2.692   4.471
 4069SOL     OW13105   3.678   6.065   6.548
 4069SOL    HW113106   3.583   6.083   6.523
 4069SOL    HW213107   3.723   6.017   6.472
 4070SOL     OW13108   1.053   3.255   3.046
 4070SOL    HW113109   1.081   3.311   3.124
 4070SOL    HW213110   1.124   3.189   3.024
 4071SOL     OW13111   1.686   0.183   4.470
 4071SOL    HW113112   1.725   0.133   4.393
 4071SOL    HW213113   1.757   0.205   4.536
 4072SOL     OW13114   1.531   5.044   4.484
 4072SOL    HW113115   1.585   5.120   4.448
 4072SOL    HW213116   1.485   4.997   4.408
 4073SOL     OW13117   1.745   5.185   6.701
 4073SOL    HW113118   1.709   5.160   6.612
 4073SOL    HW213119   1.790   5.106   6.743
 4074SOL     OW13120   1.430   4.887   1.398
 4074SOL    HW113121   1.453   4.906   1.303
 4074SOL    HW213122   1.331   4.870   1.406
 4075SOL     OW13123   5.260   1.845   0.904
 4075SOL    HW113124   5.255   1.931   0.955
 4075SOL    HW213125   5.204   1.776   0.950
 4076SOL     OW13126   3.543   3.522   5.534
 4076SOL    HW113127   3.576   3.449   5.473
 4076SOL    HW213128   3.468   3.571   5.489
 4077SOL     OW13129   4.951   1.056   1.523
 4077SOL    HW113130   4.952   1.143   1.475
 4077SOL    HW213131   5.030   1.051   1.584
 4078SOL     OW13132   2.756   4.816   2.408
 4078SOL    HW113133   2.718   4.728   2.436
 4078SOL    HW213134   2.840   4.834   2.458
 4079SOL     OW13135   1.711   1.752   4.150
 4079SOL    HW113136   1.631   1.809   4.169
 4079SOL    HW213137   1.715   1.677   4.216
 4080SOL     OW13138   5.115   2.332   4.775
 4080SOL    HW113139   5.037   2.272   4.759
 4080SOL    HW213140   5.095   2.393   4.851
 4081SOL     OW13141   1.518   2.908   4.438
 4081SOL    HW113142   1.577   2.877   4.513
 4081SOL    HW213143   1.530   3.006   4.425
 4082SOL     OW13144   1.583   2.750   0.732
 4082SOL    HW113145   1.585   2.695   0.816
 4082SOL    HW213146   1.491   2.787   0.719
 4083SOL     OW13147   5.990   3.539   3.659
 4083SOL    HW113148   6.030   3.460   3.612
 4083SOL    HW213149   6.029   3.623   3.622
 4084SOL     OW13150   6.056   1.966   4.231
 4084SOL    HW113151   6.093   2.034   4.168
 4084SOL    HW213152   6.044   1.879   4.183
 4085SOL     OW13153   4.394   6.270   1.102
 4085SOL    HW113154   4.297   6.287   1.084
 4085SOL    HW213155   4.425   6.329   1.177
 4086SOL     OW13156   2.061   5.861   1.554
 4086SOL    HW113157   1.979   5.843   1.609
 4086SOL    HW213158   2.132   5.794   1.575
 4087SOL     OW13159   2.413   2.509   3.154
 4087SOL    HW113160   2.428   2.555   3.242
 4087SOL    HW213161   2.419   2.410   3.167
 4088SOL     OW13162   6.799   1.738   0.727
 4088SOL    HW113163   6.779   1.833   0.754
 4088SOL    HW213164   6.735   1.677   0.773
 4089SOL     OW13165   7.002   6.571   3.195
 4089SOL    HW113166   6.973   6.595   3.102
 4089SOL    HW213167   6.923   6.578   3.257
 4090SOL     OW13168   2.654   3.993   5.918
 4090SOL    HW113169   2.677   3.981   5.821
 4090SOL    HW213170   2.723   3.948   5.974
 4091SOL     OW13171   6.005   6.686   6.978
 4091SOL    HW113172   6.063   6.607   6.956
 4091SOL    HW213173   5.948   6.665   0.039
 4092SOL     OW13174   6.905   2.766   5.169
 4092SOL    HW113175   6.816   2.726   5.147
 4092SOL    HW213176   6.898   2.817   5.255
 4093SOL     OW13177   4.736   0.319   3.787
 4093SOL    HW113178   4.647   0.361   3.809
 4093SOL    HW213179   4.734   0.222   3.812
 4094SOL     OW13180   2.449   5.182   5.157
 4094SOL    HW113181   2.401   5.095   5.169
 4094SOL    HW213182   2.491   5.208   5.244
 4095SOL     OW13183   0.897   3.810   6.234
 4095SOL    HW113184   0.970   3.758   6.190
 4095SOL    HW213185   0.913   3.812   6.333
 4096SOL     OW13186   4.660   5.717   0.671
 4096SOL    HW113187   4.694   5.681   0.757
 4096SOL    HW213188   4.737   5.734   0.609
 4097SOL     OW13189   3.313   4.127   6.028
 4097SOL    HW113190   3.283   4.181   5.949
 4097SOL    HW213191   3.287   4.174   6.112
 4098SOL     OW13192   0.339   3.078   2.426
 4098SOL    HW113193   0.256   3.071   2.481
 4098SOL    HW213194   0.386   3.164   2.449
 4099SOL     OW13195   2.917   5.181   1.302
 4099SOL    HW113196   3.010   5.190   1.266
 4099SOL    HW213197   2.908   5.094   1.350
 4100SOL     OW13198   5.616   5.771   4.118
 4100SOL    HW113199   5.671   5.735   4.043
 4100SOL    HW213200   5.570   5.696   4.165
 4101SOL     OW13201   5.685   0.806   6.912
 4101SOL    HW113202   5.728   0.827   6.824
 4101SOL    HW213203   5.730   0.860   6.984
 4102SOL     OW13204   6.795   0.507   1.322
 4102SOL    HW113205   6.822   0.531   1.415
 4102SOL    HW213206   6.759   0.589   1.276
 4103SOL     OW13207   0.739   0.738   1.858
 4103SOL    HW113208   0.668   0.744   1.789
 4103SOL    HW213209   0.790   0.825   1.862
 4104SOL     OW13210   1.267   4.604   2.352
 4104SOL    HW113211   1.263   4.578   2.255
 4104SOL    HW213212   1.323   4.537   2.401
 4105SOL     OW13213   4.155   5.639   1.161
 4105SOL    HW113214   4.105   5.553   1.158
 4105SOL    HW213215   4.101   5.708   1.210
 4106SOL     OW13216   0.464   3.452   4.604
 4106SOL    HW113217   0.437   3.412   4.692
 4106SOL    HW213218   0.423   3.542   4.593
 4107SOL     OW13219   0.979   6.586   0.847
 4107SOL    HW113220   0.892   6.542   0.871
 4107SOL    HW213221   1.013   6.637   0.925
 4108SOL     OW13222   0.303   4.637   6.041
 4108SOL    HW113223   0.298   4.732   6.073
 4108SOL    HW213224   0.343   4.580   6.113
 4109SOL     OW13225   4.594   6.479   4.487
 4109SOL    HW113226   4.570   6.527   4.571
 4109SOL    HW213227   4.689   6.449   4.491
 4110SOL     OW13228   4.179   3.720   6.829
 4110SOL    HW113229   4.098   3.732   6.771
 4110SOL    HW213230   4.261   3.716   6.772
 4111SOL     OW13231   3.187   2.814   6.881
 4111SOL    HW113232   3.277   2.782   6.909
 4111SOL    HW213233   3.150   2.876   6.950
 4112SOL     OW13234   5.138   1.810   5.438
 4112SOL    HW113235   5.212   1.863   5.397
 4112SOL    HW213236   5.133   1.830   5.536
 4113SOL     OW13237   4.157   6.175   4.830
 4113SOL    HW113238   4.087   6.193   4.762
 4113SOL    HW213239   4.141   6.085   4.872
 4114SOL     OW13240   3.427   2.047   3.753
 4114SOL    HW113241   3.443   2.013   3.660
 4114SOL    HW213242   3.403   2.144   3.750
 4115SOL     OW13243   4.875   5.802   2.080
 4115SOL    HW113244   4.786   5.848   2.081
 4115SOL    HW213245   4.878   5.735   2.154
 4116SOL     OW13246   4.285   2.322   1.442
 4116SOL    HW113247   4.271   2.365   1.353
 4116SOL    HW213248   4.383   2.314   1.461
 4117SOL     OW13249   0.434   4.789   1.478
 4117SOL    HW113250   0.495   4.845   1.423
 4117SOL    HW213251   0.439   4.818   1.574
 4118SOL     OW13252   1.474   6.566   0.898
 4118SOL    HW113253   1.489   6.504   0.822
 4118SOL    HW213254   1.388   6.616   0.885
 4119SOL     OW13255   4.067   1.318   3.745
 4119SOL    HW113256   4.145   1.373   3.776
 4119SOL    HW213257   4.097   1.254   3.675
 4120SOL     OW13258   4.710   6.283   1.886
 4120SOL    HW113259   4.630   6.230   1.858
 4120SOL    HW213260   4.698   6.379   1.862
 4121SOL     OW13261   6.520   1.730   4.815
 4121SOL    HW113262   6.489   1.813   4.769
 4121SOL    HW213263   6.470   1.651   4.779
 4122SOL     OW13264   0.855   6.396   5.408
 4122SOL    HW113265   0.882   6.407   5.503
 4122SOL    HW213266   0.884   6.477   5.356
 4123SOL     OW13267   5.160   4.643   5.438
 4123SOL    HW113268   5.203   4.733   5.442
 4123SOL    HW213269   5.092   4.641   5.365
 4124SOL     OW13270   6.172   5.587   5.246
 4124SOL    HW113271   6.159   5.556   5.151
 4124SOL    HW213272   6.116   5.531   5.307
 4125SOL     OW13273   4.980   0.460   1.762
 4125SOL    HW113274   5.029   0.546   1.750
 4125SOL    HW213275   4.999   0.400   1.684
 4126SOL     OW13276   1.356   4.365   4.014
 4126SOL    HW113277   1.367   4.369   3.915
 4126SOL    HW213278   1.408   4.287   4.050
 4127SOL     OW13279   5.371   3.890   4.146
 4127SOL    HW113280   5.309   3.811   4.146
 4127SOL    HW213281   5.327   3.967   4.192
 4128SOL     OW13282   1.888   4.008   2.500
 4128SOL    HW113283   1.923   3.965   2.417
 4128SOL    HW213284   1.945   4.087   2.522
 4129SOL     OW13285   5.388   2.025   6.107
 4129SOL    HW113286   5.289   2.032   6.123
 4129SOL    HW213287   5.437   2.076   6.178
 4130SOL     OW13288   0.110   3.435   5.920
 4130SOL    HW113289   0.172   3.434   5.842
 4130SOL    HW213290   0.028   3.488   5.896
 4131SOL     OW13291   0.748   5.790   3.787
 4131SOL    HW113292   0.777   5.720   3.852
 4131SOL    HW213293   0.648   5.797   3.788
 4132SOL     OW13294   5.989   4.197   3.994
 4132SOL    HW113295   5.975   4.098   3.985
 4132SOL    HW213296   5.976   4.241   3.905
 4133SOL     OW13297   2.876   6.642   1.400
 4133SOL    HW113298   2.888   6.668   1.305
 4133SOL    HW213299   2.882   6.723   1.458
 4134SOL     OW13300   1.696   2.085   0.552
 4134SOL    HW113301   1.606   2.091   0.509
 4134SOL    HW213302   1.766   2.115   0.487
 4135SOL     OW13303   2.074   0.576   2.296
 4135SOL    HW113304   2.040   0.526   2.216
 4135SOL    HW213305   2.001   0.633   2.333
 4136SOL     OW13306   0.651   2.112   4.136
 4136SOL    HW113307   0.597   2.120   4.052
 4136SOL    HW213308   0.700   2.198   4.152
 4137SOL     OW13309   2.102   3.680   0.850
 4137SOL    HW113310   2.141   3.624   0.922
 4137SOL    HW213311   2.005   3.657   0.838
 4138SOL     OW13312   3.756   4.901   3.997
 4138SOL    HW113313   3.777   4.951   3.913
 4138SOL    HW213314   3.665   4.860   3.989
 4139SOL     OW13315   2.043   2.313   6.097
 4139SOL    HW113316   2.122   2.372   6.109
 4139SOL    HW213317   2.029   2.293   6.000
 4140SOL     OW13318   3.290   0.406   5.429
 4140SOL    HW113319   3.301   0.505   5.426
 4140SOL    HW213320   3.195   0.383   5.448
 4141SOL     OW13321   5.472   5.384   1.135
 4141SOL    HW113322   5.558   5.352   1.174
 4141SOL    HW213323   5.446   5.326   1.058
 4142SOL     OW13324   6.756   5.490   1.049
 4142SOL    HW113325   6.783   5.394   1.055
 4142SOL    HW213326   6.748   5.529   1.140
 4143SOL     OW13327   0.029   3.499   0.862
 4143SOL    HW113328   0.067   3.501   0.769
 4143SOL    HW213329   6.982   3.575   0.872
 4144SOL     OW13330   5.664   2.349   1.087
 4144SOL    HW113331   5.647   2.251   1.077
 4144SOL    HW213332   5.705   2.384   1.003
 4145SOL     OW13333   6.994   6.061   1.725
 4145SOL    HW113334   6.989   6.130   1.653
 4145SOL    HW213335   6.970   5.972   1.687
 4146SOL     OW13336   5.883   0.841   5.925
 4146SOL    HW113337   5.946   0.764   5.911
 4146SOL    HW213338   5.827   0.823   6.006
 4147SOL     OW13339   3.678   1.815   5.333
 4147SOL    HW113340   3.640   1.775   5.416
 4147SOL    HW213341   3.775   1.834   5.346
 4148SOL     OW13342   0.472   6.824   3.937
 4148SOL    HW113343   0.393   6.847   3.992
 4148SOL    HW213344   0.532   6.904   3.928
 4149SOL     OW13345   0.557   3.358   0.263
 4149SOL    HW113346   0.534   3.454   0.280
 4149SOL    HW213347   0.629   3.353   0.194
 4150SOL     OW13348   5.645   0.772   6.076
 4150SOL    HW113349   5.613   0.794   6.168
 4150SOL    HW213350   5.614   0.843   6.013
 4151SOL     OW13351   5.514   5.831   0.260
 4151SOL    HW113352   5.522   5.734   0.240
 4151SOL    HW213353   5.603   5.867   0.290
 4152SOL     OW13354   3.076   4.861   1.620
 4152SOL    HW113355   3.135   4.941   1.625
 4152SOL    HW213356   3.072   4.816   1.710
 4153SOL     OW13357   5.222   5.621   6.297
 4153SOL    HW113358   5.235   5.538   6.243
 4153SOL    HW213359   5.230   5.701   6.237
 4154SOL     OW13360   6.563   3.875   5.435
 4154SOL    HW113361   6.659   3.879   5.463
 4154SOL    HW213362   6.556   3.887   5.336
 4155SOL     OW13363   0.273   3.386   3.174
 4155SOL    HW113364   0.176   3.412   3.183
 4155SOL    HW213365   0.330   3.467   3.180
 4156SOL     OW13366   5.653   0.228   5.109
 4156SOL    HW113367   5.723   0.197   5.173
 4156SOL    HW213368   5.638   0.158   5.039
 4157SOL     OW13369   3.728   0.316   3.922
 4157SOL    HW113370   3.687   0.407   3.914
 4157SOL    HW213371   3.657   0.249   3.942
 4158SOL     OW13372   1.123   5.090   3.806
 4158SOL    HW113373   1.050   5.155   3.829
 4158SOL    HW213374   1.181   5.076   3.886
 4159SOL     OW13375   1.658   3.218   4.164
 4159SOL    HW113376   1.623   3.151   4.099
 4159SOL    HW213377   1.627   3.195   4.256
 4160SOL     OW13378   6.326   0.653   1.093
 4160SOL    HW113379   6.311   0.572   1.150
 4160SOL    HW213380   6.238   0.689   1.062
 4161SOL     OW13381   2.184   0.362   6.739
 4161SOL    HW113382   2.210   0.304   6.661
 4161SOL    HW213383   2.215   0.456   6.723
 4162SOL     OW13384   6.189   0.368   4.937
 4162SOL    HW113385   6.255   0.341   4.867
 4162SOL    HW213386   6.165   0.289   4.993
 4163SOL     OW13387   6.169   1.594   3.093
 4163SOL    HW113388   6.071   1.597   3.110
 4163SOL    HW213389   6.194   1.666   3.028
 4164SOL     OW13390   1.859   0.218   6.721
 4164SOL    HW113391   1.852   0.128   6.765
 4164SOL    HW213392   1.910   0.279   6.781
 4165SOL     OW13393   4.477   6.659   0.965
 4165SOL    HW113394   4.389   6.632   0.926
 4165SOL    HW213395   4.516   6.733   0.910
 4166SOL     OW13396   4.684   2.596   1.301
 4166SOL    HW113397   4.774   2.553   1.289
 4166SOL    HW213398   4.687   2.657   1.380
 4167SOL     OW13399   2.553   3.306   1.320
 4167SOL    HW113400   2.642   3.298   1.364
 4167SOL    HW213401   2.554   3.381   1.254
 4168SOL     OW13402   0.201   4.600   1.146
 4168SOL    HW113403   0.270   4.568   1.211
 4168SOL    HW213404   0.246   4.651   1.073
 4169SOL     OW13405   5.076   3.919   4.662
 4169SOL    HW113406   5.044   3.929   4.568
 4169SOL    HW213407   5.020   3.851   4.709
 4170SOL     OW13408   3.982   3.139   5.147
 4170SOL    HW113409   3.990   3.090   5.234
 4170SOL    HW213410   4.072   3.145   5.104
 4171SOL     OW13411   5.317   4.005   0.782
 4171SOL    HW113412   5.305   3.911   0.814
 4171SOL    HW213413   5.412   4.033   0.795
 4172SOL     OW13414   6.963   2.495   6.704
 4172SOL    HW113415   0.004   2.532   6.632
 4172SOL    HW213416   6.871   2.532   6.694
 4173SOL     OW13417   5.512   3.325   5.289
 4173SOL    HW113418   5.483   3.420   5.281
 4173SOL    HW213419   5.470   3.283   5.369
 4174SOL     OW13420   4.936   1.028   4.202
 4174SOL    HW113421   5.028   1.060   4.224
 4174SOL    HW213422   4.922   0.937   4.242
 4175SOL     OW13423   3.111   6.689   4.589
 4175SOL    HW113424   3.168   6.722   4.514
 4175SOL    HW213425   3.162   6.623   4.644
 4176SOL     OW13426   4.026   0.344   2.290
 4176SOL    HW113427   3.991   0.278   2.356
 4176SOL    HW213428   4.116   0.314   2.258
 4177SOL     OW13429   0.360   4.904   4.949
 4177SOL    HW113430   0.323   4.946   4.866
 4177SOL    HW213431   0.426   4.966   4.990
 4178SOL     OW13432   3.811   1.000   5.153
 4178SOL    HW113433   3.839   1.087   5.113
 4178SOL    HW213434   3.882   0.968   5.217
 4179SOL     OW13435   5.725   3.434   4.152
 4179SOL    HW113436   5.817   3.413   4.185
 4179SOL    HW213437   5.668   3.352   4.157
 4180SOL     OW13438   5.380   4.510   1.962
 4180SOL    HW113439   5.295   4.457   1.953
 4180SOL    HW213440   5.404   4.518   2.059
 4181SOL     OW13441   1.409   2.091   6.194
 4181SOL    HW113442   1.316   2.055   6.196
 4181SOL    HW213443   1.446   2.093   6.287
 4182SOL     OW13444   0.241   0.798   2.535
 4182SOL    HW113445   0.248   0.754   2.624
 4182SOL    HW213446   0.186   0.881   2.544
 4183SOL     OW13447   2.497   1.448   1.761
 4183SOL    HW113448   2.514   1.542   1.789
 4183SOL    HW213449   2.485   1.391   1.842
 4184SOL     OW13450   3.805   5.230   1.335
 4184SOL    HW113451   3.900   5.202   1.321
 4184SOL    HW213452   3.779   5.216   1.430
 4185SOL     OW13453   0.464   5.493   3.432
 4185SOL    HW113454   0.460   5.553   3.513
 4185SOL    HW213455   0.420   5.406   3.453
 4186SOL     OW13456   2.021   4.223   6.928
 4186SOL    HW113457   1.932   4.249   6.891
 4186SOL    HW213458   2.088   4.223   6.854
 4187SOL     OW13459   3.837   3.313   5.681
 4187SOL    HW113460   3.875   3.331   5.590
 4187SOL    HW213461   3.740   3.338   5.682
 4188SOL     OW13462   4.403   0.995   4.458
 4188SOL    HW113463   4.421   1.080   4.507
 4188SOL    HW213464   4.486   0.939   4.458
 4189SOL     OW13465   2.945   1.792   4.129
 4189SOL    HW113466   2.970   1.753   4.041
 4189SOL    HW213467   2.895   1.878   4.114
 4190SOL     OW13468   2.934   0.094   6.455
 4190SOL    HW113469   2.985   0.068   6.537
 4190SOL    HW213470   2.914   0.192   6.457
 4191SOL     OW13471   5.583   3.349   3.189
 4191SOL    HW113472   5.513   3.290   3.149
 4191SOL    HW213473   5.670   3.335   3.142
 4192SOL     OW13474   6.498   1.692   3.099
 4192SOL    HW113475   6.529   1.727   3.187
 4192SOL    HW213476   6.415   1.741   3.071
 4193SOL     OW13477   2.289   6.556   2.126
 4193SOL    HW113478   2.264   6.606   2.209
 4193SOL    HW213479   2.385   6.574   2.104
 4194SOL     OW13480   6.844   2.010   4.441
 4194SOL    HW113481   6.938   1.976   4.444
 4194SOL    HW213482   6.797   1.985   4.526
 4195SOL     OW13483   3.975   0.335   1.185
 4195SOL    HW113484   3.882   0.305   1.204
 4195SOL    HW213485   4.002   0.404   1.253
 4196SOL     OW13486   6.101   2.736   4.019
 4196SOL    HW113487   6.159   2.674   4.072
 4196SOL    HW213488   6.009   2.735   4.057
 4197SOL     OW13489   5.233   4.111   4.223
 4197SOL    HW113490   5.177   4.180   4.177
 4197SOL    HW213491   5.199   4.098   4.316
 4198SOL     OW13492   6.268   3.691   0.106
 4198SOL    HW113493   6.300   3.654   0.019
 4198SOL    HW213494   6.211   3.623   0.152
 4199SOL     OW13495   3.082   3.308   5.043
 4199SOL    HW113496   3.052   3.403   5.050
 4199SOL    HW213497   3.175   3.304   5.008
 4200SOL     OW13498   2.621   6.580   6.382
 4200SOL    HW113499   2.613   6.625   6.293
 4200SOL    HW213500   2.544   6.518   6.396
 4201SOL     OW13501   6.211   6.531   3.080
 4201SOL    HW113502   6.276   6.503   3.151
 4201SOL    HW213503   6.149   6.600   3.118
 4202SOL     OW13504   4.907   4.646   6.090
 4202SOL    HW113505   4.844   4.694   6.029
 4202SOL    HW213506   4.877   4.551   6.102
 4203SOL     OW13507   4.715   5.990   3.063
 4203SOL    HW113508   4.638   5.930   3.084
 4203SOL    HW213509   4.681   6.081   3.039
 4204SOL     OW13510   3.120   2.905   1.990
 4204SOL    HW113511   3.078   2.849   2.062
 4204SOL    HW213512   3.191   2.852   1.944
 4205SOL     OW13513   3.290   4.894   4.474
 4205SOL    HW113514   3.200   4.936   4.482
 4205SOL    HW213515   3.303   4.861   4.381
 4206SOL     OW13516   4.609   0.890   5.833
 4206SOL    HW113517   4.692   0.834   5.836
 4206SOL    HW213518   4.530   0.830   5.819
 4207SOL     OW13519   1.992   0.999   1.914
 4207SOL    HW113520   1.994   1.042   1.824
 4207SOL    HW213521   2.049   0.917   1.913
 4208SOL     OW13522   1.777   2.314   1.003
 4208SOL    HW113523   1.719   2.278   1.076
 4208SOL    HW213524   1.782   2.248   0.929
 4209SOL     OW13525   1.520   0.456   4.996
 4209SOL    HW113526   1.541   0.552   5.014
 4209SOL    HW213527   1.424   0.438   5.018
 4210SOL     OW13528   3.508   3.517   1.698
 4210SOL    HW113529   3.453   3.524   1.781
 4210SOL    HW213530   3.586   3.579   1.704
 4211SOL     OW13531   4.688   5.027   5.190
 4211SOL    HW113532   4.710   5.100   5.256
 4211SOL    HW213533   4.769   5.009   5.134
 4212SOL     OW13534   6.561   1.459   2.408
 4212SOL    HW113535   6.598   1.529   2.470
 4212SOL    HW213536   6.627   1.384   2.400
 4213SOL     OW13537   2.143   1.081   2.403
 4213SOL    HW113538   2.131   1.108   2.499
 4213SOL    HW213539   2.241   1.067   2.385
 4214SOL     OW13540   0.802   3.484   6.348
 4214SOL    HW113541   0.857   3.497   6.430
 4214SOL    HW213542   0.853   3.516   6.268
 4215SOL     OW13543   0.915   5.343   4.378
 4215SOL    HW113544   0.943   5.248   4.395
 4215SOL    HW213545   0.993   5.395   4.345
 4216SOL     OW13546   1.264   2.032   3.876
 4216SOL    HW113547   1.348   1.993   3.914
 4216SOL    HW213548   1.258   2.010   3.779
 4217SOL     OW13549   0.355   6.942   2.321
 4217SOL    HW113550   0.327   6.907   2.232
 4217SOL    HW213551   0.348   6.869   2.389
 4218SOL     OW13552   4.917   0.262   1.553
 4218SOL    HW113553   4.937   0.171   1.587
 4218SOL    HW213554   4.819   0.272   1.537
 4219SOL     OW13555   3.559   4.724   5.393
 4219SOL    HW113556   3.553   4.639   5.445
 4219SOL    HW213557   3.501   4.793   5.435
 4220SOL     OW13558   6.536   3.428   3.450
 4220SOL    HW113559   6.462   3.426   3.518
 4220SOL    HW213560   6.497   3.416   3.359
 4221SOL     OW13561   5.332   5.850   6.807
 4221SOL    HW113562   5.341   5.883   6.901
 4221SOL    HW213563   5.415   5.872   6.756
 4222SOL     OW13564   6.098   2.251   2.483
 4222SOL    HW113565   6.136   2.326   2.428
 4222SOL    HW213566   6.171   2.211   2.538
 4223SOL     OW13567   3.008   3.194   2.919
 4223SOL    HW113568   2.937   3.193   2.848
 4223SOL    HW213569   3.089   3.241   2.885
 4224SOL     OW13570   4.782   2.832   4.755
 4224SOL    HW113571   4.768   2.931   4.751
 4224SOL    HW213572   4.699   2.789   4.791
 4225SOL     OW13573   5.817   0.941   4.851
 4225SOL    HW113574   5.749   0.967   4.920
 4225SOL    HW213575   5.789   0.854   4.809
 4226SOL     OW13576   1.700   0.716   3.827
 4226SOL    HW113577   1.686   0.801   3.877
 4226SOL    HW213578   1.641   0.714   3.747
 4227SOL     OW13579   4.084   4.685   0.386
 4227SOL    HW113580   4.145   4.755   0.424
 4227SOL    HW213581   4.105   4.596   0.428
 4228SOL     OW13582   5.614   6.516   3.945
 4228SOL    HW113583   5.617   6.431   3.998
 4228SOL    HW213584   5.679   6.581   3.982
 4229SOL     OW13585   3.883   4.896   6.480
 4229SOL    HW113586   3.873   4.953   6.399
 4229SOL    HW213587   3.887   4.800   6.452
 4230SOL     OW13588   2.769   0.047   5.185
 4230SOL    HW113589   2.743   0.096   5.268
 4230SOL    HW213590   2.860   0.077   5.157
 4231SOL     OW13591   4.991   6.444   5.488
 4231SOL    HW113592   4.952   6.503   5.559
 4231SOL    HW213593   4.975   6.348   5.511
 4232SOL     OW13594   1.068   5.572   1.628
 4232SOL    HW113595   1.146   5.509   1.636
 4232SOL    HW213596   1.097   5.656   1.582
 4233SOL     OW13597   6.089   0.541   6.453
 4233SOL    HW113598   6.106   0.444   6.436
 4233SOL    HW213599   6.043   0.580   6.373
 4234SOL     OW13600   2.815   5.003   6.028
 4234SOL    HW113601   2.837   4.969   6.120
 4234SOL    HW213602   2.841   4.935   5.960
 4235SOL     OW13603   6.389   4.744   5.725
 4235SOL    HW113604   6.357   4.684   5.798
 4235SOL    HW213605   6.485   4.768   5.742
 4236SOL     OW13606   0.430   2.517   3.753
 4236SOL    HW113607   0.461   2.604   3.714
 4236SOL    HW213608   0.347   2.532   3.806
 4237SOL     OW13609   5.525   3.960   4.490
 4237SOL    HW113610   5.620   3.933   4.508
 4237SOL    HW213611   5.465   3.914   4.554
 4238SOL     OW13612   4.303   5.399   4.027
 4238SOL    HW113613   4.325   5.305   4.052
 4238SOL    HW213614   4.261   5.446   4.104
 4239SOL     OW13615   4.661   6.623   5.024
 4239SOL    HW113616   4.637   6.714   4.990
 4239SOL    HW213617   4.725   6.632   5.100
 4240SOL     OW13618   2.592   5.144   6.844
 4240SOL    HW113619   2.599   5.240   6.870
 4240SOL    HW213620   2.580   5.088   6.926
 4241SOL     OW13621   5.192   0.069   1.383
 4241SOL    HW113622   5.273   0.128   1.384
 4241SOL    HW213623   5.171   0.039   1.476
 4242SOL     OW13624   2.273   6.987   2.645
 4242SOL    HW113625   2.297   6.997   2.742
 4242SOL    HW213626   2.335   6.921   2.603
 4243SOL     OW13627   0.945   3.753   1.977
 4243SOL    HW113628   1.010   3.729   2.048
 4243SOL    HW213629   0.993   3.799   1.901
 4244SOL     OW13630   4.830   5.954   1.374
 4244SOL    HW113631   4.738   5.948   1.337
 4244SOL    HW213632   4.896   5.962   1.299
 4245SOL     OW13633   6.701   2.900   0.107
 4245SOL    HW113634   6.745   2.975   0.057
 4245SOL    HW213635   6.692   2.926   0.203
 4246SOL     OW13636   5.248   2.373   2.756
 4246SOL    HW113637   5.156   2.334   2.760
 4246SOL    HW213638   5.299   2.332   2.680
 4247SOL     OW13639   1.990   5.115   4.588
 4247SOL    HW113640   2.017   5.138   4.681
 4247SOL    HW213641   1.912   5.053   4.590
 4248SOL     OW13642   1.866   0.642   2.493
 4248SOL    HW113643   1.863   0.741   2.478
 4248SOL    HW213644   1.891   0.622   2.587
 4249SOL     OW13645   0.286   1.180   4.527
 4249SOL    HW113646   0.187   1.176   4.515
 4249SOL    HW213647   0.316   1.103   4.583
 4250SOL     OW13648   0.691   5.438   4.183
 4250SOL    HW113649   0.698   5.343   4.151
 4250SOL    HW213650   0.665   5.438   4.280
 4251SOL     OW13651   5.782   2.425   6.631
 4251SOL    HW113652   5.780   2.493   6.557
 4251SOL    HW213653   5.738   2.464   6.712
 4252SOL     OW13654   6.138   6.329   5.443
 4252SOL    HW113655   6.195   6.409   5.423
 4252SOL    HW213656   6.066   6.354   5.508
 4253SOL     OW13657   3.880   6.179   2.466
 4253SOL    HW113658   3.906   6.099   2.522
 4253SOL    HW213659   3.920   6.170   2.375
 4254SOL     OW13660   2.436   3.347   6.927
 4254SOL    HW113661   2.403   3.416   6.991
 4254SOL    HW213662   2.404   3.257   6.955
 4255SOL     OW13663   0.870   4.559   2.540
 4255SOL    HW113664   0.778   4.549   2.578
 4255SOL    HW213665   0.938   4.546   2.612
 4256SOL     OW13666   0.866   4.578   1.736
 4256SOL    HW113667   0.842   4.657   1.793
 4256SOL    HW213668   0.952   4.597   1.688
 4257SOL     OW13669   6.080   1.183   4.902
 4257SOL    HW113670   6.043   1.093   4.923
 4257SOL    HW213671   6.068   1.243   4.981
 4258SOL     OW13672   3.099   5.618   0.633
 4258SOL    HW113673   3.023   5.555   0.648
 4258SOL    HW213674   3.160   5.617   0.711
 4259SOL     OW13675   1.441   6.533   1.393
 4259SOL    HW113676   1.380   6.465   1.434
 4259SOL    HW213677   1.522   6.487   1.355
 4260SOL     OW13678   4.845   6.893   4.898
 4260SOL    HW113679   4.838   6.869   4.995
 4260SOL    HW213680   4.801   6.981   4.882
 4261SOL     OW13681   2.548   0.118   4.672
 4261SOL    HW113682   2.575   0.037   4.619
 4261SOL    HW213683   2.567   0.103   4.769
 4262SOL     OW13684   1.165   4.925   6.385
 4262SOL    HW113685   1.157   4.997   6.316
 4262SOL    HW213686   1.099   4.852   6.364
 4263SOL     OW13687   2.700   2.430   3.566
 4263SOL    HW113688   2.778   2.448   3.506
 4263SOL    HW213689   2.698   2.333   3.590
 4264SOL     OW13690   5.461   1.416   4.519
 4264SOL    HW113691   5.534   1.408   4.587
 4264SOL    HW213692   5.398   1.340   4.528
 4265SOL     OW13693   2.796   0.367   1.281
 4265SOL    HW113694   2.891   0.395   1.295
 4265SOL    HW213695   2.748   0.369   1.368
 4266SOL     OW13696   1.103   0.042   6.982
 4266SOL    HW113697   1.083   0.139   6.970
 4266SOL    HW213698   1.200   0.025   6.961
 4267SOL     OW13699   2.188   3.809   3.967
 4267SOL    HW113700   2.215   3.830   3.873
 4267SOL    HW213701   2.096   3.772   3.968
 4268SOL     OW13702   1.492   5.054   6.072
 4268SOL    HW113703   1.578   5.099   6.050
 4268SOL    HW213704   1.506   4.989   6.146
 4269SOL     OW13705   3.148   1.747   4.305
 4269SOL    HW113706   3.203   1.830   4.303
 4269SOL    HW213707   3.066   1.759   4.248
 4270SOL     OW13708   3.803   3.066   0.969
 4270SOL    HW113709   3.740   3.141   0.947
 4270SOL    HW213710   3.889   3.104   1.004
 4271SOL     OW13711   6.530   0.367   0.885
 4271SOL    HW113712   6.520   0.316   0.800
 4271SOL    HW213713   6.461   0.439   0.889
 4272SOL     OW13714   6.745   3.394   5.743
 4272SOL    HW113715   6.780   3.452   5.669
 4272SOL    HW213716   6.645   3.387   5.735
 4273SOL     OW13717   4.628   6.147   4.572
 4273SOL    HW113718   4.593   6.193   4.490
 4273SOL    HW213719   4.608   6.202   4.653
 4274SOL     OW13720   6.962   6.800   1.534
 4274SOL    HW113721   6.871   6.765   1.513
 4274SOL    HW213722   6.966   6.824   1.631
 4275SOL     OW13723   0.930   2.491   3.773
 4275SOL    HW113724   0.937   2.483   3.674
 4275SOL    HW213725   0.949   2.402   3.814
 4276SOL     OW13726   2.864   5.564   4.397
 4276SOL    HW113727   2.788   5.609   4.443
 4276SOL    HW213728   2.832   5.528   4.309
 4277SOL     OW13729   6.387   5.537   4.506
 4277SOL    HW113730   6.375   5.637   4.505
 4277SOL    HW213731   6.462   5.513   4.568
 4278SOL     OW13732   0.588   6.623   2.071
 4278SOL    HW113733   0.538   6.563   2.132
 4278SOL    HW213734   0.625   6.700   2.123
 4279SOL     OW13735   1.366   1.772   2.292
 4279SOL    HW113736   1.391   1.834   2.218
 4279SOL    HW213737   1.423   1.790   2.372
 4280SOL     OW13738   6.646   0.261   6.665
 4280SOL    HW113739   6.648   0.359   6.642
 4280SOL    HW213740   6.599   0.248   6.752
 4281SOL     OW13741   4.725   5.535   4.134
 4281SOL    HW113742   4.804   5.593   4.116
 4281SOL    HW213743   4.662   5.539   4.056
 4282SOL     OW13744   2.869   4.274   1.178
 4282SOL    HW113745   2.905   4.246   1.266
 4282SOL    HW213746   2.811   4.202   1.140
 4283SOL     OW13747   4.788   0.779   3.821
 4283SOL    HW113748   4.858   0.851   3.823
 4283SOL    HW213749   4.743   0.774   3.910
 4284SOL     OW13750   4.901   5.455   0.046
 4284SOL    HW113751   4.867   5.422   6.977
 4284SOL    HW213752   4.997   5.430   0.056
 4285SOL     OW13753   3.200   0.800   6.335
 4285SOL    HW113754   3.200   0.702   6.354
 4285SOL    HW213755   3.263   0.820   6.261
 4286SOL     OW13756   6.576   1.036   6.597
 4286SOL    HW113757   6.604   1.094   6.520
 4286SOL    HW213758   6.562   0.942   6.566
 4287SOL     OW13759   4.408   0.658   0.150
 4287SOL    HW113760   4.500   0.650   0.189
 4287SOL    HW213761   4.411   0.634   0.053
 4288SOL     OW13762   6.582   6.048   1.965
 4288SOL    HW113763   6.662   6.109   1.960
 4288SOL    HW213764   6.546   6.033   1.873
 4289SOL     OW13765   0.915   2.785   5.053
 4289SOL    HW113766   1.007   2.753   5.075
 4289SOL    HW213767   0.848   2.720   5.088
 4290SOL     OW13768   0.273   0.841   3.195
 4290SOL    HW113769   0.299   0.913   3.130
 4290SOL    HW213770   0.286   0.875   3.289
 4291SOL     OW13771   4.792   3.281   6.045
 4291SOL    HW113772   4.891   3.294   6.047
 4291SOL    HW213773   4.748   3.367   6.020
 4292SOL     OW13774   5.246   1.959   0.607
 4292SOL    HW113775   5.248   1.911   0.694
 4292SOL    HW213776   5.329   2.015   0.597
 4293SOL     OW13777   4.945   4.084   6.535
 4293SOL    HW113778   4.859   4.105   6.489
 4293SOL    HW213779   4.950   3.986   6.552
 4294SOL     OW13780   3.139   2.079   6.300
 4294SOL    HW113781   3.042   2.093   6.281
 4294SOL    HW213782   3.175   2.008   6.240
 4295SOL     OW13783   4.519   6.813   2.133
 4295SOL    HW113784   4.486   6.835   2.041
 4295SOL    HW213785   4.441   6.796   2.193
 4296SOL     OW13786   2.706   6.644   0.770
 4296SOL    HW113787   2.680   6.571   0.708
 4296SOL    HW213788   2.732   6.606   0.858
 4297SOL     OW13789   6.315   5.222   0.951
 4297SOL    HW113790   6.328   5.126   0.928
 4297SOL    HW213791   6.274   5.230   1.042
 4298SOL     OW13792   3.310   6.378   1.449
 4298SOL    HW113793   3.312   6.333   1.359
 4298SOL    HW213794   3.282   6.312   1.518
 4299SOL     OW13795   0.398   2.636   6.891
 4299SOL    HW113796   0.329   2.611   6.959
 4299SOL    HW213797   0.479   2.672   6.937
 4300SOL     OW13798   4.206   0.753   0.828
 4300SOL    HW113799   4.167   0.667   0.860
 4300SOL    HW213800   4.207   0.819   0.903
 4301SOL     OW13801   3.167   6.489   1.831
 4301SOL    HW113802   3.144   6.523   1.740
 4301SOL    HW213803   3.263   6.505   1.850
 4302SOL     OW13804   1.555   6.450   6.578
 4302SOL    HW113805   1.605   6.375   6.535
 4302SOL    HW213806   1.459   6.444   6.553
 4303SOL     OW13807   6.291   4.582   4.623
 4303SOL    HW113808   6.220   4.553   4.560
 4303SOL    HW213809   6.261   4.665   4.671
 4304SOL     OW13810   3.210   3.575   1.644
 4304SOL    HW113811   3.241   3.652   1.700
 4304SOL    HW213812   3.289   3.521   1.616
 4305SOL     OW13813   6.864   0.066   5.752
 4305SOL    HW113814   6.791   0.068   5.684
 4305SOL    HW213815   6.940   0.011   5.718
 4306SOL     OW13816   4.858   3.694   4.596
 4306SOL    HW113817   4.847   3.732   4.688
 4306SOL    HW213818   4.891   3.600   4.603
 4307SOL     OW13819   6.180   2.547   5.337
 4307SOL    HW113820   6.178   2.625   5.275
 4307SOL    HW213821   6.098   2.491   5.324
 4308SOL     OW13822   5.342   4.766   1.855
 4308SOL    HW113823   5.334   4.668   1.873
 4308SOL    HW213824   5.307   4.786   1.763
 4309SOL     OW13825   0.849   3.209   0.739
 4309SOL    HW113826   0.858   3.262   0.655
 4309SOL    HW213827   0.890   3.119   0.727
 4310SOL     OW13828   0.212   1.695   2.158
 4310SOL    HW113829   0.252   1.629   2.221
 4310SOL    HW213830   0.196   1.782   2.205
 4311SOL     OW13831   0.949   6.057   2.275
 4311SOL    HW113832   0.945   5.994   2.197
 4311SOL    HW213833   0.857   6.093   2.293
 4312SOL     OW13834   0.796   4.964   2.110
 4312SOL    HW113835   0.878   4.950   2.055
 4312SOL    HW213836   0.719   4.986   2.049
 4313SOL     OW13837   5.897   1.803   0.552
 4313SOL    HW113838   5.945   1.715   0.544
 4313SOL    HW213839   5.871   1.834   0.461
 4314SOL     OW13840   6.804   2.906   5.388
 4314SOL    HW113841   6.855   2.986   5.421
 4314SOL    HW213842   6.713   2.935   5.357
 4315SOL     OW13843   2.317   1.393   3.936
 4315SOL    HW113844   2.223   1.427   3.936
 4315SOL    HW213845   2.363   1.422   3.852
 4316SOL     OW13846   5.648   0.158   2.205
 4316SOL    HW113847   5.563   0.114   2.233
 4316SOL    HW213848   5.699   0.097   2.144
 4317SOL     OW13849   4.792   1.107   5.814
 4317SOL    HW113850   4.713   1.045   5.819
 4317SOL    HW213851   4.850   1.081   5.737
 4318SOL     OW13852   0.399   0.911   3.560
 4318SOL    HW113853   0.445   0.936   3.645
 4318SOL    HW213854   0.328   0.843   3.579
 4319SOL     OW13855   1.467   3.556   2.200
 4319SOL    HW113856   1.388   3.607   2.235
 4319SOL    HW213857   1.435   3.478   2.146
 4320SOL     OW13858   3.476   6.284   0.536
 4320SOL    HW113859   3.389   6.278   0.586
 4320SOL    HW213860   3.495   6.197   0.491
 4321SOL     OW13861   6.300   6.151   2.335
 4321SOL    HW113862   6.365   6.080   2.307
 4321SOL    HW213863   6.340   6.204   2.411
 4322SOL     OW13864   0.596   2.451   5.288
 4322SOL    HW113865   0.638   2.509   5.218
 4322SOL    HW213866   0.583   2.359   5.250
 4323SOL     OW13867   4.359   5.326   0.001
 4323SOL    HW113868   4.367   5.419   6.982
 4323SOL    HW213869   4.388   5.260   6.950
 4324SOL     OW13870   6.950   3.772   5.851
 4324SOL    HW113871   7.015   3.769   5.775
 4324SOL    HW213872   6.969   3.852   5.908
 4325SOL     OW13873   2.889   0.601   2.906
 4325SOL    HW113874   2.903   0.504   2.925
 4325SOL    HW213875   2.973   0.641   2.872
 4326SOL     OW13876   5.203   2.649   2.196
 4326SOL    HW113877   5.222   2.743   2.222
 4326SOL    HW213878   5.178   2.596   2.277
 4327SOL     OW13879   3.800   5.585   4.271
 4327SOL    HW113880   3.824   5.681   4.288
 4327SOL    HW213881   3.796   5.536   4.358
 4328SOL     OW13882   6.426   5.699   5.408
 4328SOL    HW113883   6.412   5.759   5.330
 4328SOL    HW213884   6.372   5.615   5.396
 4329SOL     OW13885   5.737   2.922   5.837
 4329SOL    HW113886   5.790   2.916   5.921
 4329SOL    HW213887   5.755   3.009   5.792
 4330SOL     OW13888   2.469   5.554   5.455
 4330SOL    HW113889   2.399   5.490   5.424
 4330SOL    HW213890   2.559   5.514   5.440
 4331SOL     OW13891   6.068   0.461   1.477
 4331SOL    HW113892   6.128   0.528   1.520
 4331SOL    HW213893   6.003   0.427   1.545
 4332SOL     OW13894   0.047   4.014   2.365
 4332SOL    HW113895   6.989   3.985   2.423
 4332SOL    HW213896   0.050   4.114   2.362
 4333SOL     OW13897   4.241   1.990   4.968
 4333SOL    HW113898   4.173   2.063   4.961
 4333SOL    HW213899   4.214   1.926   5.041
 4334SOL     OW13900   1.035   2.805   3.158
 4334SOL    HW113901   1.105   2.807   3.086
 4334SOL    HW213902   0.968   2.877   3.140
 4335SOL     OW13903   3.402   3.108   1.078
 4335SOL    HW113904   3.447   3.060   1.003
 4335SOL    HW213905   3.309   3.072   1.089
 4336SOL     OW13906   2.156   5.615   6.117
 4336SOL    HW113907   2.075   5.622   6.058
 4336SOL    HW213908   2.169   5.700   6.167
 4337SOL     OW13909   1.113   5.784   2.179
 4337SOL    HW113910   1.069   5.858   2.129
 4337SOL    HW213911   1.056   5.702   2.174
 4338SOL     OW13912   5.511   0.514   5.360
 4338SOL    HW113913   5.564   0.591   5.396
 4338SOL    HW213914   5.516   0.438   5.425
 4339SOL     OW13915   4.224   2.457   6.347
 4339SOL    HW113916   4.240   2.504   6.260
 4339SOL    HW213917   4.280   2.500   6.418
 4340SOL     OW13918   6.519   4.047   0.870
 4340SOL    HW113919   6.576   4.105   0.929
 4340SOL    HW213920   6.569   4.027   0.786
 4341SOL     OW13921   0.925   5.940   2.009
 4341SOL    HW113922   0.930   6.029   1.964
 4341SOL    HW213923   0.836   5.898   1.992
 4342SOL     OW13924   4.906   3.819   2.591
 4342SOL    HW113925   4.920   3.721   2.583
 4342SOL    HW213926   4.825   3.846   2.537
 4343SOL     OW13927   4.340   0.527   5.593
 4343SOL    HW113928   4.249   0.506   5.558
 4343SOL    HW213929   4.409   0.472   5.545
 4344SOL     OW13930   0.296   2.841   4.110
 4344SOL    HW113931   0.219   2.856   4.172
 4344SOL    HW213932   0.370   2.904   4.132
 4345SOL     OW13933   2.955   3.228   2.545
 4345SOL    HW113934   3.046   3.268   2.527
 4345SOL    HW213935   2.935   3.160   2.475
 4346SOL     OW13936   2.360   2.610   2.453
 4346SOL    HW113937   2.415   2.632   2.373
 4346SOL    HW213938   2.303   2.689   2.477
 4347SOL     OW13939   5.925   5.252   1.572
 4347SOL    HW113940   5.872   5.213   1.496
 4347SOL    HW213941   6.011   5.202   1.582
 4348SOL     OW13942   6.836   5.829   3.876
 4348SOL    HW113943   6.789   5.803   3.960
 4348SOL    HW213944   6.935   5.829   3.891
 4349SOL     OW13945   0.156   3.795   3.676
 4349SOL    HW113946   0.232   3.737   3.707
 4349SOL    HW213947   0.084   3.795   3.746
 4350SOL     OW13948   5.299   1.785   4.499
 4350SOL    HW113949   5.203   1.796   4.472
 4350SOL    HW213950   5.306   1.712   4.568
 4351SOL     OW13951   1.551   7.001   1.160
 4351SOL    HW113952   1.607   0.040   1.100
 4351SOL    HW213953   1.464   0.029   1.178
 4352SOL     OW13954   4.319   3.860   0.906
 4352SOL    HW113955   4.390   3.791   0.889
 4352SOL    HW213956   4.229   3.820   0.887
 4353SOL     OW13957   3.127   3.540   6.947
 4353SOL    HW113958   3.037   3.575   6.920
 4353SOL    HW213959   3.119   3.494   0.018
 4354SOL     OW13960   6.508   0.438   3.780
 4354SOL    HW113961   6.574   0.368   3.807
 4354SOL    HW213962   6.415   0.406   3.801
 4355SOL     OW13963   1.110   7.004   3.638
 4355SOL    HW113964   1.012   6.993   3.655
 4355SOL    HW213965   1.130   0.083   3.622
 4356SOL     OW13966   4.953   2.916   6.192
 4356SOL    HW113967   4.938   2.925   6.094
 4356SOL    HW213968   4.996   2.999   6.227
 4357SOL     OW13969   6.551   0.472   1.883
 4357SOL    HW113970   6.645   0.497   1.860
 4357SOL    HW213971   6.548   0.378   1.916
 4358SOL     OW13972   0.728   0.684   0.416
 4358SOL    HW113973   0.680   0.725   0.338
 4358SOL    HW213974   0.771   0.598   0.388
 4359SOL     OW13975   2.548   0.838   0.060
 4359SOL    HW113976   2.551   0.870   0.154
 4359SOL    HW213977   2.549   0.738   0.059
 4360SOL     OW13978   1.379   2.767   3.259
 4360SOL    HW113979   1.345   2.813   3.177
 4360SOL    HW213980   1.303   2.752   3.323
 4361SOL     OW13981   1.153   1.964   1.027
 4361SOL    HW113982   1.193   2.056   1.026
 4361SOL    HW213983   1.114   1.944   0.937
 4362SOL     OW13984   0.936   5.823   4.394
 4362SOL    HW113985   0.950   5.784   4.485
 4362SOL    HW213986   0.972   5.917   4.392
 4363SOL     OW13987   4.478   0.796   2.522
 4363SOL    HW113988   4.548   0.868   2.521
 4363SOL    HW213989   4.520   0.710   2.554
 4364SOL     OW13990   3.237   3.715   2.564
 4364SOL    HW113991   3.321   3.759   2.594
 4364SOL    HW213992   3.161   3.780   2.568
 4365SOL     OW13993   2.935   2.171   1.742
 4365SOL    HW113994   2.933   2.263   1.780
 4365SOL    HW213995   2.954   2.105   1.815
 4366SOL     OW13996   5.157   5.950   5.246
 4366SOL    HW113997   5.116   6.005   5.318
 4366SOL    HW213998   5.123   5.856   5.252
 4367SOL     OW13999   2.947   5.615   3.940
 4367SOL    HW114000   2.901   5.576   4.020
 4367SOL    HW214001   3.041   5.639   3.964
 4368SOL     OW14002   4.763   5.206   2.554
 4368SOL    HW114003   4.821   5.152   2.614
 4368SOL    HW214004   4.689   5.247   2.607
 4369SOL     OW14005   4.414   5.442   3.044
 4369SOL    HW114006   4.503   5.469   3.007
 4369SOL    HW214007   4.416   5.344   3.065
 4370SOL     OW14008   3.976   4.669   1.822
 4370SOL    HW114009   3.899   4.624   1.778
 4370SOL    HW214010   3.943   4.719   1.903
 4371SOL     OW14011   2.494   0.598   1.364
 4371SOL    HW114012   2.426   0.593   1.437
 4371SOL    HW214013   2.491   0.689   1.322
 4372SOL     OW14014   2.005   2.645   4.635
 4372SOL    HW114015   2.085   2.584   4.635
 4372SOL    HW214016   1.955   2.633   4.721
 4373SOL     OW14017   4.494   1.065   6.034
 4373SOL    HW114018   4.472   1.034   6.126
 4373SOL    HW214019   4.558   1.001   5.992
 4374SOL     OW14020   2.618   2.075   1.237
 4374SOL    HW114021   2.518   2.082   1.244
 4374SOL    HW214022   2.650   2.000   1.296
 4375SOL     OW14023   3.382   0.535   3.375
 4375SOL    HW114024   3.300   0.570   3.421
 4375SOL    HW214025   3.381   0.435   3.377
 4376SOL     OW14026   6.710   6.722   1.450
 4376SOL    HW114027   6.734   6.744   1.355
 4376SOL    HW214028   6.612   6.733   1.463
 4377SOL     OW14029   6.106   6.288   6.542
 4377SOL    HW114030   6.054   6.316   6.461
 4377SOL    HW214031   6.170   6.361   6.567
 4378SOL     OW14032   1.966   6.042   2.960
 4378SOL    HW114033   2.008   6.060   2.871
 4378SOL    HW214034   1.867   6.032   2.949
 4379SOL     OW14035   1.348   0.783   1.501
 4379SOL    HW114036   1.367   0.719   1.576
 4379SOL    HW214037   1.402   0.757   1.421
 4380SOL     OW14038   2.083   5.903   5.355
 4380SOL    HW114039   2.016   5.834   5.382
 4380SOL    HW214040   2.067   5.929   5.259
 4381SOL     OW14041   4.276   6.492   4.461
 4381SOL    HW114042   4.355   6.549   4.437
 4381SOL    HW214043   4.306   6.397   4.472
 4382SOL     OW14044   4.848   3.753   4.312
 4382SOL    HW114045   4.889   3.719   4.228
 4382SOL    HW214046   4.857   3.684   4.384
 4383SOL     OW14047   1.627   2.269   5.899
 4383SOL    HW114048   1.688   2.196   5.929
 4383SOL    HW214049   1.674   2.357   5.905
 4384SOL     OW14050   3.499   6.390   1.157
 4384SOL    HW114051   3.404   6.360   1.167
 4384SOL    HW214052   3.560   6.322   1.199
 4385SOL     OW14053   6.961   1.393   3.925
 4385SOL    HW114054   6.868   1.387   3.889
 4385SOL    HW214055   6.959   1.379   4.024
 4386SOL     OW14056   0.594   3.911   6.834
 4386SOL    HW114057   0.503   3.944   6.862
 4386SOL    HW214058   0.597   3.812   6.843
 4387SOL     OW14059   6.426   3.146   1.305
 4387SOL    HW114060   6.440   3.241   1.277
 4387SOL    HW214061   6.356   3.104   1.249
 4388SOL     OW14062   3.352   0.378   5.965
 4388SOL    HW114063   3.336   0.363   6.063
 4388SOL    HW214064   3.304   0.308   5.912
 4389SOL     OW14065   5.615   2.926   1.822
 4389SOL    HW114066   5.698   2.871   1.816
 4389SOL    HW214067   5.601   2.976   1.737
 4390SOL     OW14068   5.105   2.229   1.581
 4390SOL    HW114069   5.175   2.159   1.597
 4390SOL    HW214070   5.136   2.316   1.619
 4391SOL     OW14071   1.064   5.796   0.280
 4391SOL    HW114072   1.051   5.765   0.186
 4391SOL    HW214073   1.085   5.894   0.280
 4392SOL     OW14074   5.090   2.991   4.274
 4392SOL    HW114075   4.996   3.005   4.242
 4392SOL    HW214076   5.121   3.072   4.324
 4393SOL     OW14077   5.220   0.336   3.249
 4393SOL    HW114078   5.316   0.363   3.239
 4393SOL    HW214079   5.215   0.252   3.304
 4394SOL     OW14080   5.635   6.295   2.729
 4394SOL    HW114081   5.616   6.212   2.781
 4394SOL    HW214082   5.654   6.271   2.634
 4395SOL     OW14083   4.618   1.336   2.045
 4395SOL    HW114084   4.640   1.396   1.968
 4395SOL    HW214085   4.547   1.379   2.101
 4396SOL     OW14086   0.942   0.861   4.322
 4396SOL    HW114087   1.011   0.927   4.292
 4396SOL    HW214088   0.850   0.900   4.309
 4397SOL     OW14089   6.901   1.053   4.719
 4397SOL    HW114090   6.916   1.096   4.808
 4397SOL    HW214091   6.941   1.110   4.647
 4398SOL     OW14092   0.892   4.313   4.493
 4398SOL    HW114093   0.937   4.344   4.577
 4398SOL    HW214094   0.950   4.335   4.414
 4399SOL     OW14095   2.188   1.111   0.385
 4399SOL    HW114096   2.107   1.164   0.410
 4399SOL    HW214097   2.177   1.076   0.291
 4400SOL     OW14098   2.720   6.578   4.190
 4400SOL    HW114099   2.635   6.567   4.138
 4400SOL    HW214100   2.736   6.497   4.246
 4401SOL     OW14101   5.745   5.891   4.730
 4401SOL    HW114102   5.680   5.845   4.791
 4401SOL    HW214103   5.800   5.956   4.782
 4402SOL     OW14104   1.014   5.633   2.995
 4402SOL    HW114105   1.002   5.541   2.957
 4402SOL    HW214106   0.996   5.630   3.094
 4403SOL     OW14107   6.851   0.212   3.217
 4403SOL    HW114108   6.927   0.147   3.211
 4403SOL    HW214109   6.861   0.281   3.145
 4404SOL     OW14110   0.795   4.373   3.510
 4404SOL    HW114111   0.771   4.369   3.606
 4404SOL    HW214112   0.859   4.449   3.495
 4405SOL     OW14113   3.058   4.588   6.178
 4405SOL    HW114114   2.986   4.654   6.158
 4405SOL    HW214115   3.147   4.630   6.161
 4406SOL     OW14116   4.858   4.622   1.844
 4406SOL    HW114117   4.862   4.560   1.922
 4406SOL    HW214118   4.770   4.670   1.843
 4407SOL     OW14119   6.941   6.245   0.422
 4407SOL    HW114120   6.849   6.283   0.415
 4407SOL    HW214121   6.943   6.175   0.493
 4408SOL     OW14122   4.886   0.318   0.534
 4408SOL    HW114123   4.874   0.337   0.437
 4408SOL    HW214124   4.939   0.234   0.546
 4409SOL     OW14125   3.999   1.779   2.204
 4409SOL    HW114126   4.081   1.818   2.161
 4409SOL    HW214127   3.922   1.785   2.141
 4410SOL     OW14128   2.272   4.866   1.380
 4410SOL    HW114129   2.246   4.961   1.398
 4410SOL    HW214130   2.363   4.863   1.338
 4411SOL     OW14131   3.492   3.228   2.786
 4411SOL    HW114132   3.484   3.151   2.850
 4411SOL    HW214133   3.530   3.196   2.700
 4412SOL     OW14134   3.744   1.020   6.029
 4412SOL    HW114135   3.655   1.000   6.068
 4412SOL    HW214136   3.747   1.115   6.000
 4413SOL     OW14137   4.054   5.628   4.088
 4413SOL    HW114138   4.011   5.542   4.063
 4413SOL    HW214139   3.983   5.695   4.113
 4414SOL     OW14140   4.087   4.749   2.281
 4414SOL    HW114141   4.049   4.840   2.301
 4414SOL    HW214142   4.066   4.724   2.186
 4415SOL     OW14143   5.183   4.102   6.054
 4415SOL    HW114144   5.220   4.192   6.077
 4415SOL    HW214145   5.098   4.113   6.004
 4416SOL     OW14146   2.684   1.418   4.520
 4416SOL    HW114147   2.686   1.320   4.501
 4416SOL    HW214148   2.720   1.468   4.441
 4417SOL     OW14149   0.414   4.864   1.739
 4417SOL    HW114150   0.371   4.949   1.708
 4417SOL    HW214151   0.373   4.837   1.826
 4418SOL     OW14152   4.388   6.482   3.766
 4418SOL    HW114153   4.318   6.536   3.720
 4418SOL    HW214154   4.463   6.465   3.702
 4419SOL     OW14155   6.425   5.241   0.524
 4419SOL    HW114156   6.401   5.291   0.607
 4419SOL    HW214157   6.484   5.164   0.547
 4420SOL     OW14158   4.500   0.987   0.886
 4420SOL    HW114159   4.562   1.049   0.838
 4420SOL    HW214160   4.459   0.923   0.821
 4421SOL     OW14161   1.841   1.691   2.622
 4421SOL    HW114162   1.860   1.789   2.619
 4421SOL    HW214163   1.754   1.675   2.668
 4422SOL     OW14164   2.735   3.756   6.427
 4422SOL    HW114165   2.778   3.688   6.368
 4422SOL    HW214166   2.650   3.787   6.386
 4423SOL     OW14167   1.181   1.966   6.198
 4423SOL    HW114168   1.142   1.902   6.264
 4423SOL    HW214169   1.172   1.928   6.106
 4424SOL     OW14170   5.247   6.159   3.425
 4424SOL    HW114171   5.166   6.198   3.470
 4424SOL    HW214172   5.255   6.195   3.332
 4425SOL     OW14173   3.551   5.885   5.693
 4425SOL    HW114174   3.601   5.962   5.732
 4425SOL    HW214175   3.610   5.838   5.627
 4426SOL     OW14176   6.910   0.966   5.137
 4426SOL    HW114177   7.007   0.945   5.122
 4426SOL    HW214178   6.855   0.922   5.066
 4427SOL     OW14179   0.403   0.357   3.083
 4427SOL    HW114180   0.385   0.453   3.061
 4427SOL    HW214181   0.401   0.344   3.182
 4428SOL     OW14182   2.820   4.753   4.442
 4428SOL    HW114183   2.754   4.680   4.456
 4428SOL    HW214184   2.845   4.794   4.530
 4429SOL     OW14185   2.801   6.426   3.484
 4429SOL    HW114186   2.736   6.497   3.455
 4429SOL    HW214187   2.751   6.351   3.527
 4430SOL     OW14188   3.928   1.817   2.616
 4430SOL    HW114189   3.857   1.852   2.676
 4430SOL    HW214190   3.887   1.786   2.530
 4431SOL     OW14191   2.799   1.654   3.623
 4431SOL    HW114192   2.897   1.635   3.625
 4431SOL    HW214193   2.766   1.651   3.528
 4432SOL     OW14194   3.330   3.238   3.121
 4432SOL    HW114195   3.410   3.198   3.076
 4432SOL    HW214196   3.258   3.168   3.128
 4433SOL     OW14197   5.461   6.509   3.086
 4433SOL    HW114198   5.461   6.548   3.178
 4433SOL    HW214199   5.393   6.555   3.030
 4434SOL     OW14200   5.155   1.771   3.843
 4434SOL    HW114201   5.147   1.849   3.905
 4434SOL    HW214202   5.238   1.720   3.865
 4435SOL     OW14203   3.380   3.427   1.474
 4435SOL    HW114204   3.426   3.412   1.387
 4435SOL    HW214205   3.444   3.467   1.539
 4436SOL     OW14206   3.283   2.109   0.270
 4436SOL    HW114207   3.375   2.137   0.241
 4436SOL    HW214208   3.247   2.174   0.337
 4437SOL     OW14209   4.252   0.674   4.569
 4437SOL    HW114210   4.178   0.721   4.520
 4437SOL    HW214211   4.250   0.700   4.665
 4438SOL     OW14212   4.192   2.046   6.846
 4438SOL    HW114213   4.188   2.096   6.933
 4438SOL    HW214214   4.112   1.986   6.839
 4439SOL     OW14215   0.574   5.392   1.831
 4439SOL    HW114216   0.517   5.312   1.814
 4439SOL    HW214217   0.529   5.475   1.798
 4440SOL     OW14218   1.939   6.053   0.082
 4440SOL    HW114219   1.980   6.080   0.170
 4440SOL    HW214220   1.997   6.086   0.008
 4441SOL     OW14221   6.540   2.907   2.601
 4441SOL    HW114222   6.626   2.880   2.644
 4441SOL    HW214223   6.464   2.856   2.644
 4442SOL     OW14224   4.018   6.387   3.647
 4442SOL    HW114225   3.933   6.422   3.686
 4442SOL    HW214226   4.076   6.350   3.719
 4443SOL     OW14227   2.395   2.239   6.247
 4443SOL    HW114228   2.394   2.146   6.284
 4443SOL    HW214229   2.364   2.303   6.318
 4444SOL     OW14230   4.448   6.366   1.342
 4444SOL    HW114231   4.441   6.308   1.423
 4444SOL    HW214232   4.518   6.436   1.357
 4445SOL     OW14233   1.461   0.929   6.009
 4445SOL    HW114234   1.501   0.915   5.919
 4445SOL    HW214235   1.528   0.905   6.080
 4446SOL     OW14236   5.914   6.978   2.216
 4446SOL    HW114237   5.967   0.045   2.219
 4446SOL    HW214238   5.867   6.965   2.303
 4447SOL     OW14239   5.800   3.361   6.234
 4447SOL    HW114240   5.825   3.334   6.141
 4447SOL    HW214241   5.701   3.376   6.239
 4448SOL     OW14242   2.639   3.528   0.743
 4448SOL    HW114243   2.701   3.605   0.757
 4448SOL    HW214244   2.606   3.529   0.648
 4449SOL     OW14245   2.674   0.461   5.228
 4449SOL    HW114246   2.714   0.513   5.303
 4449SOL    HW214247   2.699   0.503   5.141
 4450SOL     OW14248   3.444   2.930   3.213
 4450SOL    HW114249   3.367   2.915   3.275
 4450SOL    HW214250   3.528   2.896   3.256
 4451SOL     OW14251   6.695   4.154   2.409
 4451SOL    HW114252   6.754   4.223   2.452
 4451SOL    HW214253   6.603   4.192   2.397
 4452SOL     OW14254   5.873   6.530   5.890
 4452SOL    HW114255   5.778   6.552   5.868
 4452SOL    HW214256   5.926   6.614   5.899
 4453SOL     OW14257   5.833   2.774   1.765
 4453SOL    HW114258   5.871   2.808   1.851
 4453SOL    HW214259   5.905   2.729   1.712
 4454SOL     OW14260   5.366   2.384   1.054
 4454SOL    HW114261   5.338   2.366   0.960
 4454SOL    HW214262   5.455   2.430   1.055
 4455SOL     OW14263   3.516   6.624   2.349
 4455SOL    HW114264   3.532   6.591   2.256
 4455SOL    HW214265   3.557   6.560   2.414
 4456SOL     OW14266   1.991   5.534   2.600
 4456SOL    HW114267   1.913   5.563   2.544
 4456SOL    HW214268   2.044   5.615   2.627
 4457SOL     OW14269   4.242   2.188   6.396
 4457SOL    HW114270   4.259   2.273   6.346
 4457SOL    HW214271   4.327   2.138   6.406
 4458SOL     OW14272   2.476   2.877   6.520
 4458SOL    HW114273   2.547   2.821   6.477
 4458SOL    HW214274   2.517   2.938   6.587
 4459SOL     OW14275   4.566   6.870   4.939
 4459SOL    HW114276   4.467   6.878   4.954
 4459SOL    HW214277   4.584   6.859   4.841
 4460SOL     OW14278   2.693   3.443   6.852
 4460SOL    HW114279   2.606   3.408   6.887
 4460SOL    HW214280   2.678   3.486   6.763
 4461SOL     OW14281   1.268   0.193   2.245
 4461SOL    HW114282   1.334   0.126   2.279
 4461SOL    HW214283   1.199   0.210   2.315
 4462SOL     OW14284   6.160   4.730   0.808
 4462SOL    HW114285   6.112   4.745   0.894
 4462SOL    HW214286   6.232   4.799   0.798
 4463SOL     OW14287   2.017   3.244   6.312
 4463SOL    HW114288   2.022   3.308   6.235
 4463SOL    HW214289   1.922   3.234   6.340
 4464SOL     OW14290   5.851   4.473   6.248
 4464SOL    HW114291   5.934   4.440   6.203
 4464SOL    HW214292   5.876   4.529   6.328
 4465SOL     OW14293   2.038   6.310   2.129
 4465SOL    HW114294   1.990   6.345   2.209
 4465SOL    HW214295   1.974   6.260   2.071
 4466SOL     OW14296   0.895   1.474   2.341
 4466SOL    HW114297   0.916   1.408   2.269
 4466SOL    HW214298   0.963   1.547   2.340
 4467SOL     OW14299   1.354   6.504   3.104
 4467SOL    HW114300   1.329   6.581   3.045
 4467SOL    HW214301   1.313   6.518   3.194
 4468SOL     OW14302   0.985   2.221   6.764
 4468SOL    HW114303   1.051   2.168   6.711
 4468SOL    HW214304   0.921   2.159   6.810
 4469SOL     OW14305   3.172   0.358   1.620
 4469SOL    HW114306   3.192   0.448   1.582
 4469SOL    HW214307   3.110   0.368   1.698
 4470SOL     OW14308   4.836   3.859   1.886
 4470SOL    HW114309   4.871   3.942   1.929
 4470SOL    HW214310   4.871   3.779   1.936
 4471SOL     OW14311   0.524   2.597   1.445
 4471SOL    HW114312   0.426   2.595   1.467
 4471SOL    HW214313   0.537   2.642   1.357
 4472SOL     OW14314   1.773   4.250   2.362
 4472SOL    HW114315   1.762   4.152   2.381
 4472SOL    HW214316   1.691   4.284   2.316
 4473SOL     OW14317   0.123   0.128   4.787
 4473SOL    HW114318   0.185   0.207   4.785
 4473SOL    HW214319   0.047   0.148   4.849
 4474SOL     OW14320   3.941   0.119   2.463
 4474SOL    HW114321   3.951   0.134   2.562
 4474SOL    HW214322   3.848   0.086   2.445
 4475SOL     OW14323   1.814   3.848   0.950
 4475SOL    HW114324   1.888   3.889   1.003
 4475SOL    HW214325   1.817   3.749   0.959
 4476SOL     OW14326   5.304   6.476   2.226
 4476SOL    HW114327   5.388   6.528   2.239
 4476SOL    HW214328   5.284   6.424   2.308
 4477SOL     OW14329   1.883   1.212   6.778
 4477SOL    HW114330   1.881   1.271   6.858
 4477SOL    HW214331   1.800   1.156   6.775
 4478SOL     OW14332   2.462   6.819   2.530
 4478SOL    HW114333   2.559   6.827   2.510
 4478SOL    HW214334   2.415   6.779   2.451
 4479SOL     OW14335   1.051   0.535   6.091
 4479SOL    HW114336   1.003   0.491   6.166
 4479SOL    HW214337   1.003   0.618   6.064
 4480SOL     OW14338   1.461   4.003   4.726
 4480SOL    HW114339   1.476   4.030   4.821
 4480SOL    HW214340   1.537   4.034   4.669
 4481SOL     OW14341   1.378   6.420   4.124
 4481SOL    HW114342   1.288   6.382   4.105
 4481SOL    HW214343   1.411   6.385   4.212
 4482SOL     OW14344   1.103   4.399   4.324
 4482SOL    HW114345   1.037   4.388   4.250
 4482SOL    HW214346   1.184   4.343   4.305
 4483SOL     OW14347   6.631   2.832   1.074
 4483SOL    HW114348   6.661   2.821   1.169
 4483SOL    HW214349   6.563   2.762   1.052
 4484SOL     OW14350   3.867   2.782   5.431
 4484SOL    HW114351   3.801   2.803   5.359
 4484SOL    HW214352   3.921   2.702   5.404
 4485SOL     OW14353   4.935   1.991   6.489
 4485SOL    HW114354   4.988   2.075   6.500
 4485SOL    HW214355   4.969   1.921   6.552
 4486SOL     OW14356   0.101   4.256   4.993
 4486SOL    HW114357   0.096   4.332   5.058
 4486SOL    HW214358   0.194   4.221   4.988
 4487SOL     OW14359   2.641   3.537   6.592
 4487SOL    HW114360   2.641   3.444   6.554
 4487SOL    HW214361   2.686   3.599   6.528
 4488SOL     OW14362   5.693   2.627   5.252
 4488SOL    HW114363   5.623   2.561   5.280
 4488SOL    HW214364   5.661   2.678   5.172
 4489SOL     OW14365   5.618   5.363   4.454
 4489SOL    HW114366   5.562   5.432   4.500
 4489SOL    HW214367   5.558   5.298   4.406
 4490SOL     OW14368   6.060   1.389   1.538
 4490SOL    HW114369   6.136   1.349   1.589
 4490SOL    HW214370   5.983   1.325   1.537
 4491SOL     OW14371   1.638   3.658   2.688
 4491SOL    HW114372   1.713   3.595   2.669
 4491SOL    HW214373   1.672   3.752   2.686
 4492SOL     OW14374   5.310   2.128   0.171
 4492SOL    HW114375   5.369   2.054   0.203
 4492SOL    HW214376   5.215   2.097   0.170
 4493SOL     OW14377   5.011   5.364   4.985
 4493SOL    HW114378   5.015   5.444   4.926
 4493SOL    HW214379   5.039   5.283   4.934
 4494SOL     OW14380   0.058   3.416   5.460
 4494SOL    HW114381   6.988   3.457   5.484
 4494SOL    HW214382   0.082   3.441   5.366
 4495SOL     OW14383   5.531   6.578   2.273
 4495SOL    HW114384   5.547   6.637   2.352
 4495SOL    HW214385   5.612   6.579   2.214
 4496SOL     OW14386   6.035   4.551   6.465
 4496SOL    HW114387   6.079   4.635   6.496
 4496SOL    HW214388   5.966   4.523   6.531
 4497SOL     OW14389   5.286   6.139   6.595
 4497SOL    HW114390   5.217   6.207   6.619
 4497SOL    HW214391   5.363   6.145   6.659
 4498SOL     OW14392   0.205   4.182   6.505
 4498SOL    HW114393   0.283   4.219   6.555
 4498SOL    HW214394   0.159   4.255   6.455
 4499SOL     OW14395   6.985   3.119   4.676
 4499SOL    HW114396   6.958   3.213   4.696
 4499SOL    HW214397   6.982   3.064   4.760
 4500SOL     OW14398   3.094   3.684   4.068
 4500SOL    HW114399   3.015   3.625   4.057
 4500SOL    HW214400   3.073   3.775   4.033
 4501SOL     OW14401   1.127   3.864   5.525
 4501SOL    HW114402   1.035   3.827   5.532
 4501SOL    HW214403   1.123   3.964   5.524
 4502SOL     OW14404   1.631   2.778   6.265
 4502SOL    HW114405   1.625   2.820   6.356
 4502SOL    HW214406   1.677   2.840   6.202
 4503SOL     OW14407   2.162   1.204   3.514
 4503SOL    HW114408   2.082   1.145   3.518
 4503SOL    HW214409   2.225   1.180   3.588
 4504SOL     OW14410   5.953   2.762   5.759
 4504SOL    HW114411   5.879   2.830   5.767
 4504SOL    HW214412   5.915   2.670   5.767
 4505SOL     OW14413   0.581   6.269   4.878
 4505SOL    HW114414   0.660   6.281   4.817
 4505SOL    HW214415   0.558   6.357   4.920
 4506SOL     OW14416   3.609   1.391   4.802
 4506SOL    HW114417   3.521   1.364   4.762
 4506SOL    HW214418   3.612   1.490   4.813
 4507SOL     OW14419   4.862   4.873   1.202
 4507SOL    HW114420   4.813   4.856   1.116
 4507SOL    HW214421   4.951   4.827   1.199
 4508SOL     OW14422   1.990   3.702   0.070
 4508SOL    HW114423   1.898   3.727   0.042
 4508SOL    HW214424   2.056   3.765   0.029
 4509SOL     OW14425   4.265   1.973   4.639
 4509SOL    HW114426   4.342   2.035   4.654
 4509SOL    HW214427   4.181   2.015   4.675
 4510SOL     OW14428   5.960   0.647   5.197
 4510SOL    HW114429   6.016   0.640   5.114
 4510SOL    HW214430   5.881   0.586   5.189
 4511SOL     OW14431   0.113   3.032   0.670
 4511SOL    HW114432   0.043   2.963   0.688
 4511SOL    HW214433   0.116   3.097   0.746
 4512SOL     OW14434   2.710   6.792   7.013
 4512SOL    HW114435   2.671   6.884   7.010
 4512SOL    HW214436   2.757   6.779   0.082
 4513SOL     OW14437   4.320   6.403   1.646
 4513SOL    HW114438   4.251   6.330   1.644
 4513SOL    HW214439   4.283   6.485   1.602
 4514SOL     OW14440   3.622   1.022   4.296
 4514SOL    HW114441   3.639   0.933   4.338
 4514SOL    HW214442   3.615   1.092   4.367
 4515SOL     OW14443   6.657   4.504   6.893
 4515SOL    HW114444   6.633   4.519   6.798
 4515SOL    HW214445   6.738   4.558   6.916
 4516SOL     OW14446   1.410   1.290   5.800
 4516SOL    HW114447   1.346   1.362   5.828
 4516SOL    HW214448   1.494   1.331   5.764
 4517SOL     OW14449   3.433   0.261   6.811
 4517SOL    HW114450   3.514   0.211   6.842
 4517SOL    HW214451   3.431   0.351   6.856
 4518SOL     OW14452   1.012   1.845   3.853
 4518SOL    HW114453   0.948   1.825   3.927
 4518SOL    HW214454   0.964   1.898   3.783
 4519SOL     OW14455   0.609   1.821   3.524
 4519SOL    HW114456   0.681   1.881   3.489
 4519SOL    HW214457   0.636   1.726   3.510
 4520SOL     OW14458   6.175   4.689   2.362
 4520SOL    HW114459   6.185   4.782   2.397
 4520SOL    HW214460   6.094   4.683   2.305
 4521SOL     OW14461   4.943   2.586   5.758
 4521SOL    HW114462   5.035   2.549   5.746
 4521SOL    HW214463   4.890   2.525   5.815
 4522SOL     OW14464   5.411   6.929   3.912
 4522SOL    HW114465   5.454   6.904   3.999
 4522SOL    HW214466   5.401   0.010   3.907
 4523SOL     OW14467   2.576   5.354   0.475
 4523SOL    HW114468   2.676   5.349   0.464
 4523SOL    HW214469   2.544   5.443   0.444
 4524SOL     OW14470   5.423   1.908   5.347
 4524SOL    HW114471   5.448   1.822   5.391
 4524SOL    HW214472   5.443   1.903   5.250
 4525SOL     OW14473   6.425   1.775   4.402
 4525SOL    HW114474   6.500   1.710   4.415
 4525SOL    HW214475   6.462   1.864   4.376
 4526SOL     OW14476   4.984   6.680   1.545
 4526SOL    HW114477   4.943   6.589   1.532
 4526SOL    HW214478   4.945   6.722   1.627
 4527SOL     OW14479   3.789   0.916   3.237
 4527SOL    HW114480   3.693   0.934   3.255
 4527SOL    HW214481   3.839   0.914   3.324
 4528SOL     OW14482   5.251   6.833   0.000
 4528SOL    HW114483   5.214   6.782   0.077
 4528SOL    HW214484   5.324   6.894   0.032
 4529SOL     OW14485   2.496   0.686   3.262
 4529SOL    HW114486   2.401   0.713   3.276
 4529SOL    HW214487   2.505   0.638   3.175
 4530SOL     OW14488   0.706   3.056   5.685
 4530SOL    HW114489   0.653   3.096   5.610
 4530SOL    HW214490   0.655   3.066   5.770
 4531SOL     OW14491   1.028   3.776   3.293
 4531SOL    HW114492   1.112   3.751   3.341
 4531SOL    HW214493   0.978   3.693   3.269
 4532SOL     OW14494   6.794   1.304   1.044
 4532SOL    HW114495   6.820   1.231   1.106
 4532SOL    HW214496   6.695   1.298   1.025
 4533SOL     OW14497   2.012   6.507   3.153
 4533SOL    HW114498   2.023   6.425   3.096
 4533SOL    HW214499   2.095   6.562   3.148
 4534SOL     OW14500   6.006   3.635   5.274
 4534SOL    HW114501   5.982   3.671   5.364
 4534SOL    HW214502   6.105   3.631   5.264
 4535SOL     OW14503   4.730   2.750   1.976
 4535SOL    HW114504   4.801   2.699   1.927
 4535SOL    HW214505   4.753   2.847   1.977
 4536SOL     OW14506   5.226   1.031   4.897
 4536SOL    HW114507   5.132   1.061   4.880
 4536SOL    HW214508   5.258   0.977   4.820
 4537SOL     OW14509   3.793   3.251   6.629
 4537SOL    HW114510   3.790   3.227   6.725
 4537SOL    HW214511   3.809   3.169   6.574
 4538SOL     OW14512   3.682   1.527   3.738
 4538SOL    HW114513   3.730   1.453   3.690
 4538SOL    HW214514   3.593   1.495   3.769
 4539SOL     OW14515   2.734   2.172   3.604
 4539SOL    HW114516   2.694   2.082   3.616
 4539SOL    HW214517   2.790   2.173   3.520
 4540SOL     OW14518   3.639   3.737   4.455
 4540SOL    HW114519   3.681   3.773   4.372
 4540SOL    HW214520   3.689   3.656   4.485
 4541SOL     OW14521   5.312   0.903   0.255
 4541SOL    HW114522   5.336   0.901   0.352
 4541SOL    HW214523   5.292   0.810   0.224
 4542SOL     OW14524   6.395   6.088   1.700
 4542SOL    HW114525   6.396   6.187   1.715
 4542SOL    HW214526   6.301   6.056   1.690
 4543SOL     OW14527   4.900   1.552   0.809
 4543SOL    HW114528   4.903   1.452   0.814
 4543SOL    HW214529   4.894   1.580   0.713
 4544SOL     OW14530   2.385   6.228   6.920
 4544SOL    HW114531   2.478   6.217   6.955
 4544SOL    HW214532   2.376   6.319   6.879
 4545SOL     OW14533   4.103   2.269   5.388
 4545SOL    HW114534   4.069   2.206   5.318
 4545SOL    HW214535   4.071   2.239   5.478
 4546SOL     OW14536   1.128   6.498   6.035
 4546SOL    HW114537   1.033   6.507   6.066
 4546SOL    HW214538   1.178   6.581   6.058
 4547SOL     OW14539   5.644   2.471   1.327
 4547SOL    HW114540   5.630   2.410   1.405
 4547SOL    HW214541   5.643   2.418   1.243
 4548SOL     OW14542   0.474   4.538   3.828
 4548SOL    HW114543   0.434   4.558   3.918
 4548SOL    HW214544   0.409   4.562   3.757
 4549SOL     OW14545   6.942   3.135   3.051
 4549SOL    HW114546   6.960   3.230   3.029
 4549SOL    HW214547   6.903   3.089   2.970
 4550SOL     OW14548   0.807   6.136   3.593
 4550SOL    HW114549   0.895   6.132   3.640
 4550SOL    HW214550   0.741   6.078   3.641
 4551SOL     OW14551   0.604   2.896   5.079
 4551SOL    HW114552   0.680   2.957   5.054
 4551SOL    HW214553   0.640   2.806   5.105
 4552SOL     OW14554   0.427   3.279   5.309
 4552SOL    HW114555   0.386   3.325   5.230
 4552SOL    HW214556   0.373   3.199   5.332
 4553SOL     OW14557   4.772   4.954   0.211
 4553SOL    HW114558   4.839   5.020   0.176
 4553SOL    HW214559   4.682   4.974   0.173
 4554SOL     OW14560   4.302   0.427   2.628
 4554SOL    HW114561   4.265   0.349   2.679
 4554SOL    HW214562   4.238   0.504   2.634
 4555SOL     OW14563   4.698   2.284   6.598
 4555SOL    HW114564   4.642   2.294   6.680
 4555SOL    HW214565   4.652   2.329   6.521
 4556SOL     OW14566   3.847   0.725   3.935
 4556SOL    HW114567   3.923   0.669   3.903
 4556SOL    HW214568   3.781   0.737   3.860
 4557SOL     OW14569   5.067   0.359   5.042
 4557SOL    HW114570   5.076   0.433   5.109
 4557SOL    HW214571   5.124   0.380   4.963
 4558SOL     OW14572   6.485   3.692   6.630
 4558SOL    HW114573   6.521   3.610   6.585
 4558SOL    HW214574   6.400   3.719   6.586
 4559SOL     OW14575   1.352   5.901   1.407
 4559SOL    HW114576   1.390   5.939   1.492
 4559SOL    HW214577   1.426   5.863   1.352
 4560SOL     OW14578   4.874   3.474   3.309
 4560SOL    HW114579   4.879   3.434   3.400
 4560SOL    HW214580   4.904   3.570   3.312
 4561SOL     OW14581   3.075   1.378   0.427
 4561SOL    HW114582   2.980   1.370   0.455
 4561SOL    HW214583   3.098   1.475   0.414
 4562SOL     OW14584   3.298   5.867   5.555
 4562SOL    HW114585   3.387   5.878   5.600
 4562SOL    HW214586   3.265   5.774   5.569
 4563SOL     OW14587   5.835   2.561   0.361
 4563SOL    HW114588   5.808   2.526   0.451
 4563SOL    HW214589   5.826   2.661   0.360
 4564SOL     OW14590   0.882   5.225   0.639
 4564SOL    HW114591   0.851   5.316   0.610
 4564SOL    HW214592   0.873   5.217   0.738
 4565SOL     OW14593   0.499   1.856   4.901
 4565SOL    HW114594   0.511   1.759   4.921
 4565SOL    HW214595   0.549   1.910   4.969
 4566SOL     OW14596   0.128   7.000   6.956
 4566SOL    HW114597   0.220   0.015   6.934
 4566SOL    HW214598   0.077   0.054   7.002
 4567SOL     OW14599   0.017   0.542   0.680
 4567SOL    HW114600   0.057   0.632   0.691
 4567SOL    HW214601   7.003   0.508   0.768
 4568SOL     OW14602   2.753   4.906   5.402
 4568SOL    HW114603   2.757   4.948   5.492
 4568SOL    HW214604   2.759   4.806   5.411
 4569SOL     OW14605   1.085   1.605   4.184
 4569SOL    HW114606   0.986   1.619   4.187
 4569SOL    HW214607   1.120   1.593   4.277
 4570SOL     OW14608   6.996   5.853   3.265
 4570SOL    HW114609   6.984   5.776   3.327
 4570SOL    HW214610   6.944   5.839   3.181
 4571SOL     OW14611   2.948   3.248   4.794
 4571SOL    HW114612   2.947   3.156   4.754
 4571SOL    HW214613   3.010   3.249   4.872
 4572SOL     OW14614   0.030   6.789   0.786
 4572SOL    HW114615   6.958   6.758   0.756
 4572SOL    HW214616   0.021   6.872   0.841
 4573SOL     OW14617   5.940   6.221   1.321
 4573SOL    HW114618   5.955   6.318   1.341
 4573SOL    HW214619   5.985   6.165   1.390
 4574SOL     OW14620   6.985   4.537   1.238
 4574SOL    HW114621   6.986   4.449   1.286
 4574SOL    HW214622   0.058   4.557   1.203
 4575SOL     OW14623   6.258   1.822   0.445
 4575SOL    HW114624   6.354   1.796   0.442
 4575SOL    HW214625   6.249   1.914   0.484
 4576SOL     OW14626   2.771   5.629   6.734
 4576SOL    HW114627   2.822   5.542   6.733
 4576SOL    HW214628   2.785   5.676   6.647
 4577SOL     OW14629   0.880   3.547   3.239
 4577SOL    HW114630   0.840   3.566   3.149
 4577SOL    HW214631   0.808   3.546   3.308
 4578SOL     OW14632   0.439   3.681   3.904
 4578SOL    HW114633   0.437   3.700   4.002
 4578SOL    HW214634   0.473   3.761   3.855
 4579SOL     OW14635   4.733   1.718   2.930
 4579SOL    HW114636   4.787   1.794   2.894
 4579SOL    HW214637   4.745   1.712   3.029
 4580SOL     OW14638   6.043   5.419   0.772
 4580SOL    HW114639   6.059   5.517   0.781
 4580SOL    HW214640   6.028   5.379   0.863
 4581SOL     OW14641   3.086   5.045   3.287
 4581SOL    HW114642   3.014   4.986   3.251
 4581SOL    HW214643   3.157   4.989   3.330
 4582SOL     OW14644   5.178   6.596   3.881
 4582SOL    HW114645   5.181   6.696   3.874
 4582SOL    HW214646   5.270   6.559   3.875
 4583SOL     OW14647   3.241   2.024   5.075
 4583SOL    HW114648   3.231   2.124   5.076
 4583SOL    HW214649   3.167   1.984   5.020
 4584SOL     OW14650   0.157   5.845   5.634
 4584SOL    HW114651   0.205   5.767   5.673
 4584SOL    HW214652   0.115   5.817   5.547
 4585SOL     OW14653   3.405   6.121   2.927
 4585SOL    HW114654   3.364   6.212   2.919
 4585SOL    HW214655   3.440   6.092   2.838
 4586SOL     OW14656   3.157   5.165   1.161
 4586SOL    HW114657   3.163   5.260   1.129
 4586SOL    HW214658   3.221   5.151   1.237
 4587SOL     OW14659   3.958   3.344   1.727
 4587SOL    HW114660   3.972   3.287   1.808
 4587SOL    HW214661   4.044   3.351   1.676
 4588SOL     OW14662   3.839   4.096   4.778
 4588SOL    HW114663   3.881   4.045   4.854
 4588SOL    HW214664   3.755   4.139   4.810
 4589SOL     OW14665   6.245   2.436   2.833
 4589SOL    HW114666   6.179   2.364   2.812
 4589SOL    HW214667   6.209   2.496   2.904
 4590SOL     OW14668   4.271   6.238   3.001
 4590SOL    HW114669   4.225   6.267   3.085
 4590SOL    HW214670   4.241   6.146   2.977
 4591SOL     OW14671   6.462   5.989   5.656
 4591SOL    HW114672   6.385   6.015   5.598
 4591SOL    HW214673   6.449   6.027   5.748
 4592SOL     OW14674   4.121   3.227   0.802
 4592SOL    HW114675   4.086   3.222   0.708
 4592SOL    HW214676   4.197   3.163   0.812
 4593SOL     OW14677   4.099   5.687   3.125
 4593SOL    HW114678   4.101   5.606   3.067
 4593SOL    HW214679   4.057   5.664   3.213
 4594SOL     OW14680   3.619   1.952   2.379
 4594SOL    HW114681   3.596   1.963   2.282
 4594SOL    HW214682   3.684   1.878   2.390
 4595SOL     OW14683   3.689   2.986   6.444
 4595SOL    HW114684   3.779   2.948   6.466
 4595SOL    HW214685   3.647   2.933   6.370
 4596SOL     OW14686   5.962   6.070   2.111
 4596SOL    HW114687   5.960   5.998   2.042
 4596SOL    HW214688   5.982   6.030   2.201
 4597SOL     OW14689   5.535   5.263   6.600
 4597SOL    HW114690   5.574   5.334   6.659
 4597SOL    HW214691   5.461   5.302   6.546
 4598SOL     OW14692   1.613   5.111   6.413
 4598SOL    HW114693   1.554   5.075   6.486
 4598SOL    HW214694   1.626   5.041   6.343
 4599SOL     OW14695   1.177   3.561   1.083
 4599SOL    HW114696   1.246   3.578   1.013
 4599SOL    HW214697   1.100   3.624   1.070
 4600SOL     OW14698   2.940   4.872   6.486
 4600SOL    HW114699   2.917   4.776   6.504
 4600SOL    HW214700   2.913   4.928   6.565
 4601SOL     OW14701   1.321   0.844   5.072
 4601SOL    HW114702   1.310   0.846   4.973
 4601SOL    HW214703   1.419   0.851   5.095
 4602SOL     OW14704   1.708   6.770   1.244
 4602SOL    HW114705   1.632   6.818   1.201
 4602SOL    HW214706   1.751   6.710   1.177
 4603SOL     OW14707   3.420   6.581   1.815
 4603SOL    HW114708   3.467   6.535   1.739
 4603SOL    HW214709   3.389   6.671   1.786
 4604SOL     OW14710   3.875   0.505   1.873
 4604SOL    HW114711   3.932   0.522   1.954
 4604SOL    HW214712   3.812   0.582   1.860
 4605SOL     OW14713   4.838   0.774   4.289
 4605SOL    HW114714   4.749   0.731   4.308
 4605SOL    HW214715   4.911   0.712   4.316
 4606SOL     OW14716   0.008   6.582   3.960
 4606SOL    HW114717   6.929   6.563   3.957
 4606SOL    HW214718   0.034   6.639   3.882
 4607SOL     OW14719   2.483   2.430   1.325
 4607SOL    HW114720   2.566   2.401   1.278
 4607SOL    HW214721   2.403   2.396   1.276
 4608SOL     OW14722   1.844   4.957   5.295
 4608SOL    HW114723   1.746   4.972   5.283
 4608SOL    HW214724   1.895   5.026   5.244
 4609SOL     OW14725   4.296   5.701   6.343
 4609SOL    HW114726   4.331   5.713   6.435
 4609SOL    HW214727   4.212   5.754   6.331
 4610SOL     OW14728   6.715   2.665   0.428
 4610SOL    HW114729   6.751   2.647   0.519
 4610SOL    HW214730   6.718   2.764   0.410
 4611SOL     OW14731   0.063   3.962   0.214
 4611SOL    HW114732   0.059   4.051   0.260
 4611SOL    HW214733   0.154   3.948   0.176
 4612SOL     OW14734   2.046   5.910   6.821
 4612SOL    HW114735   2.049   6.009   6.837
 4612SOL    HW214736   2.118   5.885   6.755
 4613SOL     OW14737   2.587   5.013   2.773
 4613SOL    HW114738   2.521   5.081   2.805
 4613SOL    HW214739   2.541   4.951   2.708
 4614SOL     OW14740   1.865   5.537   0.064
 4614SOL    HW114741   1.888   5.449   0.106
 4614SOL    HW214742   1.788   5.524   0.001
 4615SOL     OW14743   1.504   1.518   0.201
 4615SOL    HW114744   1.496   1.612   0.167
 4615SOL    HW214745   1.430   1.462   0.163
 4616SOL     OW14746   6.058   0.604   6.978
 4616SOL    HW114747   5.998   0.534   7.016
 4616SOL    HW214748   6.095   0.572   6.891
 4617SOL     OW14749   0.855   2.160   2.822
 4617SOL    HW114750   0.947   2.198   2.814
 4617SOL    HW214751   0.831   2.113   2.737
 4618SOL     OW14752   1.387   2.324   5.745
 4618SOL    HW114753   1.377   2.296   5.650
 4618SOL    HW214754   1.482   2.316   5.773
 4619SOL     OW14755   4.064   0.549   3.913
 4619SOL    HW114756   4.128   0.589   3.847
 4619SOL    HW214757   4.112   0.534   4.000
 4620SOL     OW14758   3.581   4.463   0.153
 4620SOL    HW114759   3.614   4.369   0.150
 4620SOL    HW214760   3.656   4.525   0.129
 4621SOL     OW14761   6.574   1.887   5.045
 4621SOL    HW114762   6.546   1.807   4.991
 4621SOL    HW214763   6.581   1.861   5.142
 4622SOL     OW14764   1.598   2.572   0.931
 4622SOL    HW114765   1.667   2.513   0.974
 4622SOL    HW214766   1.518   2.577   0.990
 4623SOL     OW14767   6.898   4.670   0.914
 4623SOL    HW114768   6.962   4.635   0.845
 4623SOL    HW214769   6.871   4.763   0.890
 4624SOL     OW14770   4.499   1.002   3.896
 4624SOL    HW114771   4.465   0.911   3.918
 4624SOL    HW214772   4.583   1.019   3.946
 4625SOL     OW14773   1.378   4.601   6.997
 4625SOL    HW114774   1.457   4.636   6.947
 4625SOL    HW214775   1.403   4.513   0.022
 4626SOL     OW14776   6.275   4.496   1.729
 4626SOL    HW114777   6.374   4.489   1.718
 4626SOL    HW214778   6.229   4.440   1.661
 4627SOL     OW14779   3.915   6.458   5.579
 4627SOL    HW114780   4.008   6.468   5.546
 4627SOL    HW214781   3.857   6.530   5.539
 4628SOL     OW14782   6.404   4.905   2.251
 4628SOL    HW114783   6.325   4.868   2.202
 4628SOL    HW214784   6.374   4.941   2.339
 4629SOL     OW14785   1.883   4.868   6.214
 4629SOL    HW114786   1.938   4.903   6.138
 4629SOL    HW214787   1.920   4.780   6.244
 4630SOL     OW14788   2.680   5.906   3.612
 4630SOL    HW114789   2.619   5.887   3.535
 4630SOL    HW214790   2.685   5.826   3.671
 4631SOL     OW14791   2.059   6.477   3.474
 4631SOL    HW114792   2.151   6.504   3.503
 4631SOL    HW214793   2.021   6.548   3.414
 4632SOL     OW14794   4.185   5.698   4.445
 4632SOL    HW114795   4.154   5.742   4.529
 4632SOL    HW214796   4.281   5.720   4.429
 4633SOL     OW14797   6.546   2.154   5.582
 4633SOL    HW114798   6.505   2.210   5.654
 4633SOL    HW214799   6.519   2.191   5.493
 4634SOL     OW14800   2.741   4.623   0.342
 4634SOL    HW114801   2.834   4.588   0.341
 4634SOL    HW214802   2.676   4.547   0.338
 4635SOL     OW14803   5.948   3.622   2.830
 4635SOL    HW114804   5.911   3.616   2.922
 4635SOL    HW214805   5.880   3.663   2.769
 4636SOL     OW14806   2.454   5.592   0.318
 4636SOL    HW114807   2.405   5.667   0.363
 4636SOL    HW214808   2.475   5.618   0.224
 4637SOL     OW14809   0.942   0.815   6.619
 4637SOL    HW114810   0.999   0.880   6.568
 4637SOL    HW214811   0.968   0.722   6.596
 4638SOL     OW14812   3.869   2.923   6.140
 4638SOL    HW114813   3.867   2.970   6.052
 4638SOL    HW214814   3.775   2.908   6.171
 4639SOL     OW14815   0.764   4.065   5.952
 4639SOL    HW114816   0.722   3.994   6.009
 4639SOL    HW214817   0.848   4.097   5.995
 4640SOL     OW14818   4.807   4.586   3.743
 4640SOL    HW114819   4.822   4.547   3.834
 4640SOL    HW214820   4.741   4.529   3.693
 4641SOL     OW14821   2.554   5.004   4.465
 4641SOL    HW114822   2.558   4.904   4.455
 4641SOL    HW214823   2.584   5.029   4.558
 4642SOL     OW14824   6.525   5.379   4.760
 4642SOL    HW114825   6.590   5.454   4.775
 4642SOL    HW214826   6.554   5.325   4.681
 4643SOL     OW14827   4.528   2.396   1.209
 4643SOL    HW114828   4.593   2.463   1.244
 4643SOL    HW214829   4.435   2.428   1.227
 4644SOL     OW14830   1.436   5.261   4.753
 4644SOL    HW114831   1.429   5.315   4.669
 4644SOL    HW214832   1.447   5.323   4.831
 4645SOL     OW14833   1.967   6.503   4.662
 4645SOL    HW114834   1.913   6.466   4.738
 4645SOL    HW214835   2.037   6.437   4.635
 4646SOL     OW14836   3.084   0.235   2.408
 4646SOL    HW114837   3.150   0.209   2.338
 4646SOL    HW214838   3.026   0.308   2.373
 4647SOL     OW14839   0.802   6.927   3.320
 4647SOL    HW114840   0.847   6.865   3.384
 4647SOL    HW214841   0.842   6.917   3.230
 4648SOL     OW14842   3.416   6.660   2.682
 4648SOL    HW114843   3.493   6.723   2.693
 4648SOL    HW214844   3.448   6.576   2.638
 4649SOL     OW14845   4.928   0.975   5.580
 4649SOL    HW114846   4.938   0.876   5.593
 4649SOL    HW214847   5.007   1.010   5.529
 4650SOL     OW14848   4.061   6.258   3.181
 4650SOL    HW114849   3.989   6.244   3.113
 4650SOL    HW214850   4.044   6.199   3.260
 4651SOL     OW14851   0.350   2.425   1.947
 4651SOL    HW114852   0.371   2.428   2.044
 4651SOL    HW214853   0.333   2.518   1.913
 4652SOL     OW14854   0.543   6.973   3.369
 4652SOL    HW114855   0.641   6.955   3.354
 4652SOL    HW214856   0.531   0.047   3.403
 4653SOL     OW14857   6.843   6.496   0.022
 4653SOL    HW114858   6.834   6.558   6.962
 4653SOL    HW214859   6.765   6.507   0.083
 4654SOL     OW14860   0.997   6.933   0.170
 4654SOL    HW114861   1.036   6.980   0.091
 4654SOL    HW214862   1.066   6.923   0.241
 4655SOL     OW14863   0.424   4.841   2.680
 4655SOL    HW114864   0.412   4.805   2.588
 4655SOL    HW214865   0.367   4.790   2.744
 4656SOL     OW14866   1.041   0.443   3.112
 4656SOL    HW114867   0.947   0.438   3.078
 4656SOL    HW214868   1.041   0.470   3.208
 4657SOL     OW14869   4.915   6.719   1.274
 4657SOL    HW114870   4.953   6.719   1.366
 4657SOL    HW214871   4.979   6.761   1.210
 4658SOL     OW14872   4.240   0.177   2.785
 4658SOL    HW114873   4.187   0.098   2.816
 4658SOL    HW214874   4.324   0.145   2.740
 4659SOL     OW14875   1.665   3.186   5.128
 4659SOL    HW114876   1.652   3.119   5.202
 4659SOL    HW214877   1.761   3.184   5.099
 4660SOL     OW14878   0.895   1.836   5.229
 4660SOL    HW114879   0.865   1.742   5.216
 4660SOL    HW214880   0.863   1.869   5.318
 4661SOL     OW14881   3.368   4.161   4.279
 4661SOL    HW114882   3.279   4.120   4.259
 4661SOL    HW214883   3.406   4.117   4.360
 4662SOL     OW14884   5.201   0.372   5.562
 4662SOL    HW114885   5.190   0.464   5.526
 4662SOL    HW214886   5.124   0.315   5.533
 4663SOL     OW14887   0.110   1.837   1.811
 4663SOL    HW114888   0.153   1.852   1.900
 4663SOL    HW214889   0.039   1.767   1.820
 4664SOL     OW14890   2.104   2.599   6.469
 4664SOL    HW114891   2.161   2.657   6.527
 4664SOL    HW214892   2.031   2.654   6.429
 4665SOL     OW14893   5.407   0.315   6.166
 4665SOL    HW114894   5.481   0.339   6.104
 4665SOL    HW214895   5.427   0.351   6.258
 4666SOL     OW14896   2.518   1.793   6.961
 4666SOL    HW114897   2.462   1.762   0.020
 4666SOL    HW214898   2.599   1.842   6.996
 4667SOL     OW14899   0.096   5.023   6.544
 4667SOL    HW114900   0.159   4.948   6.566
 4667SOL    HW214901   0.149   5.106   6.526
 4668SOL     OW14902   7.003   1.724   4.696
 4668SOL    HW114903   6.921   1.698   4.746
 4668SOL    HW214904   0.029   1.643   4.660
 4669SOL     OW14905   1.873   6.466   0.213
 4669SOL    HW114906   1.807   6.403   0.172
 4669SOL    HW214907   1.846   6.487   0.307
 4670SOL     OW14908   3.111   1.033   4.584
 4670SOL    HW114909   3.203   1.048   4.620
 4670SOL    HW214910   3.080   1.116   4.536
 4671SOL     OW14911   6.260   2.848   1.641
 4671SOL    HW114912   6.339   2.856   1.580
 4671SOL    HW214913   6.226   2.753   1.640
 4672SOL     OW14914   1.717   4.054   6.023
 4672SOL    HW114915   1.657   3.987   6.067
 4672SOL    HW214916   1.717   4.040   5.924
 4673SOL     OW14917   3.481   0.625   1.643
 4673SOL    HW114918   3.424   0.596   1.567
 4673SOL    HW214919   3.577   0.608   1.622
 4674SOL     OW14920   5.379   5.418   5.684
 4674SOL    HW114921   5.299   5.396   5.739
 4674SOL    HW214922   5.354   5.420   5.587
 4675SOL     OW14923   1.390   3.593   0.835
 4675SOL    HW114924   1.348   3.668   0.784
 4675SOL    HW214925   1.481   3.574   0.798
 4676SOL     OW14926   1.460   6.170   3.709
 4676SOL    HW114927   1.502   6.159   3.618
 4676SOL    HW214928   1.428   6.081   3.741
 4677SOL     OW14929   1.889   1.501   0.635
 4677SOL    HW114930   1.851   1.580   0.587
 4677SOL    HW214931   1.988   1.501   0.627
 4678SOL     OW14932   2.169   3.934   2.780
 4678SOL    HW114933   2.193   3.951   2.684
 4678SOL    HW214934   2.156   3.836   2.793
 4679SOL     OW14935   5.361   6.377   1.771
 4679SOL    HW114936   5.372   6.277   1.766
 4679SOL    HW214937   5.290   6.398   1.838
 4680SOL     OW14938   3.640   1.570   1.333
 4680SOL    HW114939   3.708   1.525   1.391
 4680SOL    HW214940   3.601   1.648   1.382
 4681SOL     OW14941   5.046   4.482   0.250
 4681SOL    HW114942   5.037   4.576   0.281
 4681SOL    HW214943   5.092   4.428   0.320
 4682SOL     OW14944   4.505   3.783   6.408
 4682SOL    HW114945   4.515   3.684   6.405
 4682SOL    HW214946   4.551   3.824   6.329
 4683SOL     OW14947   5.664   4.458   3.473
 4683SOL    HW114948   5.713   4.515   3.407
 4683SOL    HW214949   5.578   4.502   3.497
 4684SOL     OW14950   4.318   6.073   6.803
 4684SOL    HW114951   4.334   6.010   6.880
 4684SOL    HW214952   4.248   6.140   6.829
 4685SOL     OW14953   2.208   3.678   5.868
 4685SOL    HW114954   2.150   3.597   5.863
 4685SOL    HW214955   2.160   3.755   5.826
 4686SOL     OW14956   3.222   6.150   0.520
 4686SOL    HW114957   3.207   6.070   0.578
 4686SOL    HW214958   3.134   6.194   0.502
 4687SOL     OW14959   3.506   1.811   3.309
 4687SOL    HW114960   3.506   1.895   3.255
 4687SOL    HW214961   3.599   1.777   3.319
 4688SOL     OW14962   5.478   2.396   5.898
 4688SOL    HW114963   5.471   2.420   5.802
 4688SOL    HW214964   5.556   2.444   5.939
 4689SOL     OW14965   5.438   0.239   1.364
 4689SOL    HW114966   5.523   0.290   1.348
 4689SOL    HW214967   5.381   0.289   1.429
 4690SOL     OW14968   2.109   1.578   0.870
 4690SOL    HW114969   2.191   1.522   0.864
 4690SOL    HW214970   2.032   1.522   0.898
 4691SOL     OW14971   5.299   4.669   0.099
 4691SOL    HW114972   5.311   4.573   0.122
 4691SOL    HW214973   5.387   4.717   0.106
 4692SOL     OW14974   6.394   4.240   2.893
 4692SOL    HW114975   6.315   4.271   2.840
 4692SOL    HW214976   6.454   4.318   2.913
 4693SOL     OW14977   1.468   0.626   4.239
 4693SOL    HW114978   1.473   0.569   4.157
 4693SOL    HW214979   1.560   0.656   4.265
 4694SOL     OW14980   2.322   1.739   0.128
 4694SOL    HW114981   2.379   1.801   0.182
 4694SOL    HW214982   2.248   1.790   0.084
 4695SOL     OW14983   1.541   5.843   0.820
 4695SOL    HW114984   1.547   5.912   0.748
 4695SOL    HW214985   1.590   5.761   0.792
 4696SOL     OW14986   0.679   5.163   5.651
 4696SOL    HW114987   0.745   5.237   5.665
 4696SOL    HW214988   0.648   5.129   5.740
 4697SOL     OW14989   1.228   3.773   1.453
 4697SOL    HW114990   1.307   3.714   1.438
 4697SOL    HW214991   1.242   3.860   1.406
 4698SOL     OW14992   4.642   0.229   3.368
 4698SOL    HW114993   4.616   0.297   3.436
 4698SOL    HW214994   4.629   0.137   3.406
 4699SOL     OW14995   0.599   0.462   2.080
 4699SOL    HW114996   0.601   0.429   1.985
 4699SOL    HW214997   0.687   0.441   2.124
 4700SOL     OW14998   6.667   2.121   2.634
 4700SOL    HW114999   6.719   2.077   2.561
 4700SOL    HW215000   6.721   2.119   2.718
 4701SOL     OW15001   3.166   1.739   2.248
 4701SOL    HW115002   3.100   1.786   2.307
 4701SOL    HW215003   3.129   1.734   2.155
 4702SOL     OW15004   5.120   5.012   6.953
 4702SOL    HW115005   5.208   5.045   6.987
 4702SOL    HW215006   5.062   5.089   6.927
 4703SOL     OW15007   1.066   5.271   2.158
 4703SOL    HW115008   1.141   5.233   2.105
 4703SOL    HW215009   1.087   5.366   2.183
 4704SOL     OW15010   0.235   6.481   5.666
 4704SOL    HW115011   0.298   6.509   5.594
 4704SOL    HW215012   0.141   6.500   5.637
 4705SOL     OW15013   3.192   2.852   0.953
 4705SOL    HW115014   3.193   2.842   1.052
 4705SOL    HW215015   3.258   2.790   0.912
 4706SOL     OW15016   1.297   6.866   1.132
 4706SOL    HW115017   1.381   6.920   1.120
 4706SOL    HW215018   1.225   6.903   1.073
 4707SOL     OW15019   1.814   6.467   1.205
 4707SOL    HW115020   1.909   6.497   1.215
 4707SOL    HW215021   1.778   6.499   1.117
 4708SOL     OW15022   1.561   1.599   4.978
 4708SOL    HW115023   1.541   1.666   4.907
 4708SOL    HW215024   1.573   1.508   4.936
 4709SOL     OW15025   5.112   5.089   5.132
 4709SOL    HW115026   5.084   5.164   5.192
 4709SOL    HW215027   5.212   5.084   5.128
 4710SOL     OW15028   5.584   6.371   4.364
 4710SOL    HW115029   5.485   6.375   4.379
 4710SOL    HW215030   5.602   6.361   4.266
 4711SOL     OW15031   6.025   3.100   3.344
 4711SOL    HW115032   5.960   3.037   3.301
 4711SOL    HW215033   6.018   3.093   3.443
 4712SOL     OW15034   4.386   4.262   5.919
 4712SOL    HW115035   4.422   4.213   5.999
 4712SOL    HW215036   4.301   4.308   5.944
 4713SOL     OW15037   5.118   4.862   1.128
 4713SOL    HW115038   5.150   4.939   1.185
 4713SOL    HW215039   5.196   4.804   1.105
 4714SOL     OW15040   6.471   1.862   6.673
 4714SOL    HW115041   6.530   1.782   6.669
 4714SOL    HW215042   6.376   1.835   6.661
 4715SOL     OW15043   6.272   1.707   1.751
 4715SOL    HW115044   6.323   1.707   1.665
 4715SOL    HW215045   6.175   1.726   1.732
 4716SOL     OW15046   4.453   5.252   5.303
 4716SOL    HW115047   4.546   5.226   5.330
 4716SOL    HW215048   4.452   5.275   5.206
 4717SOL     OW15049   2.786   5.977   5.996
 4717SOL    HW115050   2.738   5.900   6.039
 4717SOL    HW215051   2.728   6.015   5.924
 4718SOL     OW15052   5.293   2.837   1.222
 4718SOL    HW115053   5.341   2.803   1.303
 4718SOL    HW215054   5.235   2.764   1.185
 4719SOL     OW15055   6.022   3.631   3.250
 4719SOL    HW115056   6.041   3.532   3.250
 4719SOL    HW215057   6.048   3.669   3.339
 4720SOL     OW15058   2.863   5.312   0.388
 4720SOL    HW115059   2.852   5.214   0.372
 4720SOL    HW215060   2.950   5.342   0.349
 4721SOL     OW15061   6.123   3.238   1.600
 4721SOL    HW115062   6.171   3.240   1.688
 4721SOL    HW215063   6.172   3.296   1.534
 4722SOL     OW15064   1.157   4.645   6.841
 4722SOL    HW115065   1.241   4.650   6.895
 4722SOL    HW215066   1.079   4.670   6.898
 4723SOL     OW15067   3.468   4.494   5.608
 4723SOL    HW115068   3.462   4.523   5.703
 4723SOL    HW215069   3.396   4.537   5.555
 4724SOL     OW15070   0.197   6.384   4.075
 4724SOL    HW115071   0.135   6.456   4.043
 4724SOL    HW215072   0.144   6.307   4.109
 4725SOL     OW15073   5.981   5.392   0.506
 4725SOL    HW115074   5.979   5.380   0.605
 4725SOL    HW215075   6.073   5.374   0.472
 4726SOL     OW15076   1.927   2.744   5.543
 4726SOL    HW115077   1.876   2.667   5.503
 4726SOL    HW215078   1.880   2.777   5.624
 4727SOL     OW15079   0.696   5.527   0.210
 4727SOL    HW115080   0.749   5.500   0.129
 4727SOL    HW215081   0.711   5.624   0.228
 4728SOL     OW15082   6.115   1.348   3.234
 4728SOL    HW115083   6.136   1.444   3.251
 4728SOL    HW215084   6.025   1.327   3.272
 4729SOL     OW15085   5.112   0.293   0.202
 4729SOL    HW115086   5.028   0.315   0.251
 4729SOL    HW215087   5.124   0.356   0.126
 4730SOL     OW15088   3.788   6.989   4.542
 4730SOL    HW115089   3.769   0.058   4.496
 4730SOL    HW215090   3.784   6.915   4.475
 4731SOL     OW15091   2.893   0.604   0.632
 4731SOL    HW115092   2.832   0.555   0.695
 4731SOL    HW215093   2.969   0.544   0.607
 4732SOL     OW15094   0.911   3.478   4.973
 4732SOL    HW115095   0.942   3.384   4.986
 4732SOL    HW215096   0.874   3.513   5.060
 4733SOL     OW15097   1.834   4.268   2.773
 4733SOL    HW115098   1.845   4.175   2.809
 4733SOL    HW215099   1.836   4.333   2.849
 4734SOL     OW15100   4.748   3.283   6.495
 4734SOL    HW115101   4.789   3.212   6.551
 4734SOL    HW215102   4.816   3.320   6.431
 4735SOL     OW15103   0.556   6.155   3.975
 4735SOL    HW115104   0.526   6.194   3.888
 4735SOL    HW215105   0.478   6.142   4.035
 4736SOL     OW15106   6.646   2.338   3.802
 4736SOL    HW115107   6.699   2.259   3.769
 4736SOL    HW215108   6.701   2.421   3.793
 4737SOL     OW15109   2.008   4.503   0.527
 4737SOL    HW115110   1.968   4.414   0.549
 4737SOL    HW215111   2.070   4.531   0.600
 4738SOL     OW15112   3.051   6.902   3.811
 4738SOL    HW115113   3.147   6.915   3.838
 4738SOL    HW215114   2.993   6.897   3.892
 4739SOL     OW15115   6.525   2.667   4.751
 4739SOL    HW115116   6.540   2.575   4.785
 4739SOL    HW215117   6.608   2.701   4.707
 4740SOL     OW15118   0.896   1.011   1.023
 4740SOL    HW115119   0.901   0.933   0.961
 4740SOL    HW215120   0.805   1.052   1.018
 4741SOL     OW15121   4.559   4.630   1.020
 4741SOL    HW115122   4.615   4.713   1.021
 4741SOL    HW215123   4.614   4.552   1.047
 4742SOL     OW15124   2.801   5.651   1.851
 4742SOL    HW115125   2.767   5.635   1.759
 4742SOL    HW215126   2.873   5.585   1.873
 4743SOL     OW15127   2.677   1.377   5.508
 4743SOL    HW115128   2.645   1.300   5.453
 4743SOL    HW215129   2.754   1.422   5.462
 4744SOL     OW15130   2.173   2.608   5.131
 4744SOL    HW115131   2.171   2.708   5.132
 4744SOL    HW215132   2.220   2.576   5.049
 4745SOL     OW15133   3.361   5.332   5.814
 4745SOL    HW115134   3.387   5.239   5.790
 4745SOL    HW215135   3.262   5.339   5.821
 4746SOL     OW15136   6.053   5.946   0.494
 4746SOL    HW115137   6.127   5.880   0.484
 4746SOL    HW215138   6.019   5.972   0.403
 4747SOL     OW15139   0.101   3.005   0.133
 4747SOL    HW115140   0.165   3.035   0.204
 4747SOL    HW215141   0.021   3.066   0.132
 4748SOL     OW15142   1.202   0.711   1.239
 4748SOL    HW115143   1.212   0.672   1.330
 4748SOL    HW215144   1.112   0.689   1.203
 4749SOL     OW15145   2.704   6.819   6.730
 4749SOL    HW115146   2.717   6.795   6.826
 4749SOL    HW215147   2.700   6.918   6.721
 4750SOL     OW15148   0.068   1.509   4.533
 4750SOL    HW115149   0.161   1.544   4.546
 4750SOL    HW215150   0.024   1.557   4.457
 4751SOL     OW15151   2.217   4.225   6.747
 4751SOL    HW115152   2.219   4.285   6.667
 4751SOL    HW215153   2.287   4.253   6.812
 4752SOL     OW15154   2.808   6.147   1.034
 4752SOL    HW115155   2.869   6.153   0.955
 4752SOL    HW215156   2.804   6.235   1.080
 4753SOL     OW15157   5.643   7.010   4.970
 4753SOL    HW115158   5.631   6.989   4.873
 4753SOL    HW215159   5.663   6.926   5.020
 4754SOL     OW15160   6.280   0.629   6.236
 4754SOL    HW115161   6.279   0.728   6.229
 4754SOL    HW215162   6.190   0.593   6.211
 4755SOL     OW15163   2.716   0.771   6.383
 4755SOL    HW115164   2.677   0.862   6.365
 4755SOL    HW215165   2.649   0.701   6.359
 4756SOL     OW15166   5.714   2.132   1.862
 4756SOL    HW115167   5.703   2.231   1.870
 4756SOL    HW215168   5.805   2.106   1.896
 4757SOL     OW15169   2.488   2.561   2.163
 4757SOL    HW115170   2.529   2.474   2.192
 4757SOL    HW215171   2.507   2.577   2.066
 4758SOL     OW15172   4.135   5.736   5.455
 4758SOL    HW115173   4.174   5.647   5.431
 4758SOL    HW215174   4.133   5.746   5.554
 4759SOL     OW15175   5.529   5.797   4.863
 4759SOL    HW115176   5.501   5.809   4.768
 4759SOL    HW215177   5.467   5.848   4.923
 4760SOL     OW15178   2.648   1.285   1.599
 4760SOL    HW115179   2.594   1.336   1.666
 4760SOL    HW215180   2.617   1.307   1.507
 4761SOL     OW15181   6.146   0.278   6.457
 4761SOL    HW115182   6.095   0.238   6.380
 4761SOL    HW215183   6.141   0.216   6.535
 4762SOL     OW15184   2.415   4.387   2.356
 4762SOL    HW115185   2.357   4.307   2.373
 4762SOL    HW215186   2.374   4.442   2.283
 4763SOL     OW15187   6.134   6.042   2.829
 4763SOL    HW115188   6.129   6.002   2.921
 4763SOL    HW215189   6.119   6.141   2.836
 4764SOL     OW15190   4.625   3.862   5.316
 4764SOL    HW115191   4.689   3.786   5.317
 4764SOL    HW215192   4.655   3.930   5.248
 4765SOL     OW15193   4.788   6.234   5.070
 4765SOL    HW115194   4.882   6.241   5.038
 4765SOL    HW215195   4.726   6.224   4.992
 4766SOL     OW15196   3.118   0.552   3.457
 4766SOL    HW115197   3.097   0.614   3.381
 4766SOL    HW215198   3.032   0.522   3.500
 4767SOL     OW15199   4.122   6.706   1.301
 4767SOL    HW115200   4.222   6.715   1.294
 4767SOL    HW215201   4.081   6.732   1.214
 4768SOL     OW15202   5.076   1.926   4.673
 4768SOL    HW115203   5.080   1.911   4.772
 4768SOL    HW215204   5.059   1.838   4.627
 4769SOL     OW15205   3.756   5.467   1.609
 4769SOL    HW115206   3.779   5.380   1.652
 4769SOL    HW215207   3.829   5.495   1.546
 4770SOL     OW15208   2.366   0.253   2.891
 4770SOL    HW115209   2.364   0.306   2.805
 4770SOL    HW215210   2.408   0.164   2.873
 4771SOL     OW15211   3.295   4.774   5.689
 4771SOL    HW115212   3.221   4.708   5.685
 4771SOL    HW215213   3.265   4.857   5.736
 4772SOL     OW15214   2.475   0.044   1.258
 4772SOL    HW115215   2.555   0.089   1.220
 4772SOL    HW215216   2.499   0.001   1.345
 4773SOL     OW15217   0.222   5.438   4.259
 4773SOL    HW115218   0.139   5.440   4.204
 4773SOL    HW215219   0.227   5.520   4.316
 4774SOL     OW15220   0.884   3.170   2.140
 4774SOL    HW115221   0.886   3.144   2.236
 4774SOL    HW215222   0.938   3.106   2.086
 4775SOL     OW15223   5.478   0.467   3.121
 4775SOL    HW115224   5.521   0.391   3.072
 4775SOL    HW215225   5.393   0.492   3.075
 4776SOL     OW15226   2.505   6.586   3.112
 4776SOL    HW115227   2.502   6.625   3.020
 4776SOL    HW215228   2.411   6.571   3.144
 4777SOL     OW15229   2.511   4.044   1.344
 4777SOL    HW115230   2.592   4.003   1.301
 4777SOL    HW215231   2.538   4.121   1.401
 4778SOL     OW15232   5.216   2.739   1.871
 4778SOL    HW115233   5.150   2.667   1.893
 4778SOL    HW215234   5.253   2.777   1.956
 4779SOL     OW15235   6.610   0.210   2.452
 4779SOL    HW115236   6.663   0.166   2.525
 4779SOL    HW215237   6.591   0.305   2.477
 4780SOL     OW15238   0.448   0.891   6.064
 4780SOL    HW115239   0.477   0.811   6.116
 4780SOL    HW215240   0.528   0.943   6.035
 4781SOL     OW15241   2.808   5.952   1.685
 4781SOL    HW115242   2.802   6.046   1.720
 4781SOL    HW215243   2.848   5.893   1.755
 4782SOL     OW15244   4.913   0.079   0.168
 4782SOL    HW115245   4.907   7.015   0.110
 4782SOL    HW215246   5.000   0.124   0.153
 4783SOL     OW15247   4.733   4.542   0.720
 4783SOL    HW115248   4.811   4.577   0.669
 4783SOL    HW215249   4.649   4.567   0.673
 4784SOL     OW15250   6.116   5.247   5.734
 4784SOL    HW115251   6.110   5.160   5.782
 4784SOL    HW215252   6.205   5.289   5.752
 4785SOL     OW15253   6.854   6.383   1.043
 4785SOL    HW115254   6.887   6.323   1.115
 4785SOL    HW215255   6.917   6.459   1.031
 4786SOL     OW15256   1.551   2.385   2.707
 4786SOL    HW115257   1.560   2.330   2.624
 4786SOL    HW215258   1.521   2.328   2.783
 4787SOL     OW15259   3.156   2.180   3.670
 4787SOL    HW115260   3.140   2.197   3.573
 4787SOL    HW215261   3.211   2.097   3.681
 4788SOL     OW15262   1.246   5.864   5.941
 4788SOL    HW115263   1.211   5.908   5.858
 4788SOL    HW215264   1.276   5.771   5.920
 4789SOL     OW15265   4.967   0.605   0.128
 4789SOL    HW115266   4.938   0.674   0.062
 4789SOL    HW215267   5.067   0.601   0.130
 4790SOL     OW15268   5.487   3.388   6.843
 4790SOL    HW115269   5.438   3.305   6.817
 4790SOL    HW215270   5.585   3.369   6.846
 4791SOL     OW15271   6.232   0.840   1.943
 4791SOL    HW115272   6.260   0.745   1.952
 4791SOL    HW215273   6.162   0.861   2.011
 4792SOL     OW15274   1.967   3.022   2.910
 4792SOL    HW115275   1.952   2.938   2.962
 4792SOL    HW215276   2.042   3.008   2.845
 4793SOL     OW15277   1.151   0.721   5.734
 4793SOL    HW115278   1.228   0.664   5.764
 4793SOL    HW215279   1.081   0.663   5.692
 4794SOL     OW15280   3.790   0.582   2.859
 4794SOL    HW115281   3.864   0.536   2.811
 4794SOL    HW215282   3.776   0.673   2.820
 4795SOL     OW15283   6.759   2.626   4.176
 4795SOL    HW115284   6.733   2.559   4.106
 4795SOL    HW215285   6.790   2.578   4.258
 4796SOL     OW15286   4.984   2.381   0.314
 4796SOL    HW115287   5.035   2.381   0.228
 4796SOL    HW215288   4.943   2.291   0.328
 4797SOL     OW15289   1.454   5.842   5.600
 4797SOL    HW115290   1.532   5.883   5.648
 4797SOL    HW215291   1.430   5.756   5.644
 4798SOL     OW15292   0.461   3.965   5.378
 4798SOL    HW115293   0.438   4.061   5.362
 4798SOL    HW215294   0.420   3.908   5.306
 4799SOL     OW15295   5.404   1.935   5.075
 4799SOL    HW115296   5.334   1.996   5.112
 4799SOL    HW215297   5.417   1.954   4.978
 4800SOL     OW15298   3.245   3.555   6.144
 4800SOL    HW115299   3.208   3.499   6.069
 4800SOL    HW215300   3.235   3.505   6.230
 4801SOL     OW15301   2.288   2.270   0.294
 4801SOL    HW115302   2.320   2.246   0.385
 4801SOL    HW215303   2.357   2.326   0.248
 4802SOL     OW15304   1.340   6.322   2.377
 4802SOL    HW115305   1.316   6.413   2.343
 4802SOL    HW215306   1.265   6.287   2.432
 4803SOL     OW15307   0.690   6.823   1.033
 4803SOL    HW115308   0.697   6.729   0.999
 4803SOL    HW215309   0.677   6.885   0.956
 4804SOL     OW15310   4.177   5.516   6.640
 4804SOL    HW115311   4.198   5.601   6.688
 4804SOL    HW215312   4.084   5.519   6.604
 4805SOL     OW15313   6.628   0.025   0.726
 4805SOL    HW115314   6.613   0.060   0.819
 4805SOL    HW215315   6.540   0.005   0.683
 4806SOL     OW15316   6.941   3.999   3.552
 4806SOL    HW115317   6.913   3.957   3.639
 4806SOL    HW215318   6.934   3.931   3.479
 4807SOL     OW15319   1.000   5.473   1.296
 4807SOL    HW115320   0.956   5.486   1.207
 4807SOL    HW215321   1.027   5.561   1.334
 4808SOL     OW15322   5.527   3.381   0.692
 4808SOL    HW115323   5.570   3.420   0.774
 4808SOL    HW215324   5.428   3.377   0.705
 4809SOL     OW15325   3.303   4.436   0.173
 4809SOL    HW115326   3.233   4.503   0.147
 4809SOL    HW215327   3.389   4.457   0.127
 4810SOL     OW15328   0.841   4.888   1.135
 4810SOL    HW115329   0.862   4.892   1.037
 4810SOL    HW215330   0.915   4.928   1.188
 4811SOL     OW15331   2.353   4.971   1.947
 4811SOL    HW115332   2.359   4.997   1.851
 4811SOL    HW215333   2.427   4.907   1.969
 4812SOL     OW15334   6.770   5.212   5.357
 4812SOL    HW115335   6.849   5.156   5.331
 4812SOL    HW215336   6.688   5.174   5.314
 4813SOL     OW15337   4.833   0.992   3.008
 4813SOL    HW115338   4.822   1.088   2.984
 4813SOL    HW215339   4.794   0.935   2.935
 4814SOL     OW15340   6.035   4.527   0.653
 4814SOL    HW115341   6.080   4.440   0.634
 4814SOL    HW215342   6.099   4.588   0.700
 4815SOL     OW15343   4.937   4.981   2.700
 4815SOL    HW115344   4.999   4.936   2.635
 4815SOL    HW215345   4.980   4.985   2.790
 4816SOL     OW15346   5.667   5.294   3.303
 4816SOL    HW115347   5.603   5.225   3.271
 4816SOL    HW215348   5.737   5.251   3.361
 4817SOL     OW15349   0.753   2.363   6.007
 4817SOL    HW115350   0.678   2.340   6.068
 4817SOL    HW215351   0.813   2.284   5.995
 4818SOL     OW15352   0.857   6.717   3.509
 4818SOL    HW115353   0.798   6.755   3.581
 4818SOL    HW215354   0.919   6.650   3.550
 4819SOL     OW15355   1.262   3.215   0.172
 4819SOL    HW115356   1.199   3.252   0.240
 4819SOL    HW215357   1.240   3.119   0.154
 4820SOL     OW15358   6.929   2.959   1.718
 4820SOL    HW115359   6.886   2.957   1.628
 4820SOL    HW215360   6.939   3.054   1.748
 4821SOL     OW15361   0.717   5.851   1.681
 4821SOL    HW115362   0.789   5.786   1.658
 4821SOL    HW215363   0.696   5.907   1.601
 4822SOL     OW15364   1.565   4.171   4.049
 4822SOL    HW115365   1.616   4.134   4.127
 4822SOL    HW215366   1.623   4.237   4.000
 4823SOL     OW15367   1.258   2.144   2.623
 4823SOL    HW115368   1.229   2.209   2.552
 4823SOL    HW215369   1.213   2.168   2.710
 4824SOL     OW15370   5.060   1.631   5.108
 4824SOL    HW115371   4.994   1.622   5.034
 4824SOL    HW215372   5.150   1.653   5.070
 4825SOL     OW15373   1.059   0.629   4.259
 4825SOL    HW115374   1.034   0.725   4.251
 4825SOL    HW215375   0.983   0.571   4.230
 4826SOL     OW15376   4.740   0.302   1.186
 4826SOL    HW115377   4.793   0.218   1.195
 4826SOL    HW215378   4.800   0.381   1.194
 4827SOL     OW15379   6.467   1.477   0.232
 4827SOL    HW115380   6.514   1.502   0.317
 4827SOL    HW215381   6.425   1.559   0.193
 4828SOL     OW15382   4.157   0.161   1.792
 4828SOL    HW115383   4.203   0.236   1.840
 4828SOL    HW215384   4.192   0.074   1.827
 4829SOL     OW15385   3.734   6.971   6.374
 4829SOL    HW115386   3.724   0.050   6.392
 4829SOL    HW215387   3.828   6.942   6.395
 4830SOL     OW15388   4.039   5.953   3.806
 4830SOL    HW115389   4.052   5.934   3.709
 4830SOL    HW215390   4.124   5.988   3.845
 4831SOL     OW15391   3.535   5.541   5.740
 4831SOL    HW115392   3.484   5.457   5.757
 4831SOL    HW215393   3.472   5.612   5.708
 4832SOL     OW15394   3.438   3.897   4.497
 4832SOL    HW115395   3.514   3.835   4.479
 4832SOL    HW215396   3.357   3.865   4.448
 4833SOL     OW15397   5.922   2.415   4.131
 4833SOL    HW115398   5.841   2.466   4.160
 4833SOL    HW215399   5.974   2.387   4.212
 4834SOL     OW15400   2.582   5.262   2.597
 4834SOL    HW115401   2.500   5.311   2.569
 4834SOL    HW215402   2.594   5.270   2.696
 4835SOL     OW15403   6.483   3.864   6.336
 4835SOL    HW115404   6.396   3.864   6.384
 4835SOL    HW215405   6.538   3.787   6.367
 4836SOL     OW15406   4.767   1.355   5.069
 4836SOL    HW115407   4.696   1.284   5.072
 4836SOL    HW215408   4.726   1.442   5.045
 4837SOL     OW15409   6.506   3.063   3.588
 4837SOL    HW115410   6.426   3.121   3.601
 4837SOL    HW215411   6.588   3.111   3.620
 4838SOL     OW15412   1.113   4.987   5.990
 4838SOL    HW115413   1.197   4.961   5.943
 4838SOL    HW215414   1.037   4.986   5.925
 4839SOL     OW15415   1.242   2.586   6.962
 4839SOL    HW115416   1.306   2.509   6.962
 4839SOL    HW215417   1.239   2.628   6.872
 4840SOL     OW15418   5.503   4.062   5.211
 4840SOL    HW115419   5.577   4.062   5.143
 4840SOL    HW215420   5.526   3.998   5.284
 4841SOL     OW15421   2.811   4.853   3.533
 4841SOL    HW115422   2.762   4.918   3.474
 4841SOL    HW215423   2.872   4.796   3.477
 4842SOL     OW15424   2.498   5.131   3.054
 4842SOL    HW115425   2.429   5.126   3.126
 4842SOL    HW215426   2.557   5.050   3.059
 4843SOL     OW15427   0.401   3.129   2.173
 4843SOL    HW115428   0.347   3.208   2.144
 4843SOL    HW215429   0.382   3.108   2.269
 4844SOL     OW15430   0.910   4.926   5.236
 4844SOL    HW115431   0.973   4.944   5.160
 4844SOL    HW215432   0.885   4.830   5.236
 4845SOL     OW15433   4.546   4.610   5.237
 4845SOL    HW115434   4.560   4.548   5.314
 4845SOL    HW215435   4.473   4.574   5.178
 4846SOL     OW15436   0.673   2.526   4.395
 4846SOL    HW115437   0.632   2.438   4.419
 4846SOL    HW215438   0.605   2.599   4.403
 4847SOL     OW15439   2.856   6.777   5.484
 4847SOL    HW115440   2.807   6.784   5.571
 4847SOL    HW215441   2.945   6.822   5.492
 4848SOL     OW15442   1.937   1.250   4.023
 4848SOL    HW115443   1.874   1.288   3.955
 4848SOL    HW215444   2.023   1.227   3.978
 4849SOL     OW15445   1.868   0.943   0.283
 4849SOL    HW115446   1.856   0.875   0.211
 4849SOL    HW215447   1.914   1.023   0.245
 4850SOL     OW15448   4.564   0.610   1.327
 4850SOL    HW115449   4.483   0.626   1.271
 4850SOL    HW215450   4.592   0.695   1.372
 4851SOL     OW15451   3.496   5.798   0.081
 4851SOL    HW115452   3.483   5.832   7.007
 4851SOL    HW215453   3.446   5.711   0.092
 4852SOL     OW15454   3.661   5.816   4.915
 4852SOL    HW115455   3.719   5.784   4.989
 4852SOL    HW215456   3.577   5.762   4.912
 4853SOL     OW15457   3.150   0.609   2.871
 4853SOL    HW115458   3.159   0.678   2.799
 4853SOL    HW215459   3.207   0.530   2.849
 4854SOL     OW15460   5.640   6.082   1.458
 4854SOL    HW115461   5.644   6.090   1.358
 4854SOL    HW215462   5.697   6.152   1.500
 4855SOL     OW15463   6.835   4.146   5.168
 4855SOL    HW115464   6.864   4.075   5.103
 4855SOL    HW215465   6.915   4.183   5.214
 4856SOL     OW15466   0.580   3.770   2.875
 4856SOL    HW115467   0.495   3.771   2.927
 4856SOL    HW215468   0.578   3.840   2.804
 4857SOL     OW15469   3.019   2.247   4.308
 4857SOL    HW115470   3.022   2.160   4.357
 4857SOL    HW215471   2.928   2.288   4.318
 4858SOL     OW15472   0.465   0.372   5.535
 4858SOL    HW115473   0.544   0.432   5.526
 4858SOL    HW215474   0.449   0.325   5.448
 4859SOL     OW15475   0.490   5.264   2.262
 4859SOL    HW115476   0.447   5.319   2.190
 4859SOL    HW215477   0.428   5.190   2.289
 4860SOL     OW15478   4.676   5.488   0.281
 4860SOL    HW115479   4.768   5.528   0.284
 4860SOL    HW215480   4.681   5.396   0.244
 4861SOL     OW15481   6.631   4.794   5.811
 4861SOL    HW115482   6.697   4.810   5.884
 4861SOL    HW215483   6.678   4.791   5.723
 4862SOL     OW15484   3.012   4.818   5.007
 4862SOL    HW115485   2.943   4.779   5.068
 4862SOL    HW215486   2.983   4.806   4.912
 4863SOL     OW15487   4.874   2.862   2.772
 4863SOL    HW115488   4.938   2.785   2.774
 4863SOL    HW215489   4.922   2.945   2.743
 4864SOL     OW15490   3.231   1.430   2.132
 4864SOL    HW115491   3.208   1.344   2.087
 4864SOL    HW215492   3.215   1.506   2.068
 4865SOL     OW15493   3.612   5.150   5.807
 4865SOL    HW115494   3.608   5.114   5.714
 4865SOL    HW215495   3.695   5.206   5.817
 4866SOL     OW15496   6.197   5.161   1.612
 4866SOL    HW115497   6.221   5.145   1.708
 4866SOL    HW215498   6.180   5.073   1.567
 4867SOL     OW15499   4.927   5.466   2.581
 4867SOL    HW115500   4.964   5.421   2.662
 4867SOL    HW215501   4.835   5.433   2.562
 4868SOL     OW15502   0.641   5.320   1.140
 4868SOL    HW115503   0.569   5.257   1.170
 4868SOL    HW215504   0.725   5.270   1.123
 4869SOL     OW15505   6.947   1.662   0.204
 4869SOL    HW115506   6.902   1.694   0.287
 4869SOL    HW215507   6.987   1.572   0.221
 4870SOL     OW15508   4.234   6.358   2.152
 4870SOL    HW115509   4.264   6.263   2.149
 4870SOL    HW215510   4.258   6.403   2.066
 4871SOL     OW15511   1.155   2.003   3.529
 4871SOL    HW115512   1.119   1.955   3.450
 4871SOL    HW215513   1.220   1.944   3.578
 4872SOL     OW15514   0.956   0.205   2.524
 4872SOL    HW115515   0.910   0.294   2.530
 4872SOL    HW215516   0.888   0.134   2.506
 4873SOL     OW15517   0.405   5.304   4.557
 4873SOL    HW115518   0.352   5.291   4.474
 4873SOL    HW215519   0.453   5.392   4.552
 4874SOL     OW15520   5.194   3.621   3.475
 4874SOL    HW115521   5.231   3.682   3.404
 4874SOL    HW215522   5.180   3.530   3.436
 4875SOL     OW15523   5.859   1.415   1.243
 4875SOL    HW115524   5.894   1.347   1.178
 4875SOL    HW215525   5.773   1.454   1.208
 4876SOL     OW15526   6.303   1.088   6.263
 4876SOL    HW115527   6.223   1.054   6.313
 4876SOL    HW215528   6.278   1.170   6.212
 4877SOL     OW15529   6.280   1.538   1.002
 4877SOL    HW115530   6.208   1.544   1.071
 4877SOL    HW215531   6.324   1.628   0.993
 4878SOL     OW15532   0.370   1.657   1.939
 4878SOL    HW115533   0.391   1.742   1.890
 4878SOL    HW215534   0.330   1.679   2.028
 4879SOL     OW15535   4.030   4.831   3.488
 4879SOL    HW115536   4.075   4.759   3.436
 4879SOL    HW215537   4.099   4.890   3.531
 4880SOL     OW15538   5.667   1.105   7.016
 4880SOL    HW115539   5.637   1.185   0.050
 4880SOL    HW215540   5.745   1.131   6.958
 4881SOL     OW15541   3.183   6.505   6.240
 4881SOL    HW115542   3.276   6.490   6.273
 4881SOL    HW215543   3.148   6.592   6.277
 4882SOL     OW15544   5.746   1.191   5.139
 4882SOL    HW115545   5.751   1.092   5.154
 4882SOL    HW215546   5.666   1.212   5.083
 4883SOL     OW15547   5.981   4.670   2.153
 4883SOL    HW115548   5.921   4.725   2.095
 4883SOL    HW215549   5.988   4.577   2.115
 4884SOL     OW15550   3.827   6.549   1.570
 4884SOL    HW115551   3.786   6.602   1.497
 4884SOL    HW215552   3.776   6.562   1.655
 4885SOL     OW15553   1.974   6.678   1.101
 4885SOL    HW115554   1.951   6.770   1.133
 4885SOL    HW215555   2.070   6.659   1.121
 4886SOL     OW15556   6.329   0.278   6.820
 4886SOL    HW115557   6.396   0.320   6.882
 4886SOL    HW215558   6.378   0.224   6.751
 4887SOL     OW15559   0.156   2.077   3.530
 4887SOL    HW115560   0.143   2.170   3.563
 4887SOL    HW215561   0.246   2.044   3.558
 4888SOL     OW15562   1.632   5.913   2.911
 4888SOL    HW115563   1.626   5.966   2.826
 4888SOL    HW215564   1.582   5.961   2.983
 4889SOL     OW15565   1.446   1.988   0.373
 4889SOL    HW115566   1.382   1.966   0.299
 4889SOL    HW215567   1.535   1.947   0.353
 4890SOL     OW15568   0.701   0.973   4.305
 4890SOL    HW115569   0.710   1.032   4.385
 4890SOL    HW215570   0.647   0.893   4.329
 4891SOL     OW15571   0.975   4.742   0.353
 4891SOL    HW115572   0.892   4.756   0.299
 4891SOL    HW215573   1.055   4.746   0.293
 4892SOL     OW15574   1.559   5.655   1.458
 4892SOL    HW115575   1.498   5.644   1.380
 4892SOL    HW215576   1.616   5.736   1.445
 4893SOL     OW15577   0.065   3.816   6.535
 4893SOL    HW115578   0.146   3.820   6.593
 4893SOL    HW215579   7.003   3.795   6.590
 4894SOL     OW15580   1.554   0.734   3.095
 4894SOL    HW115581   1.584   0.675   3.020
 4894SOL    HW215582   1.480   0.688   3.146
 4895SOL     OW15583   0.796   3.008   0.507
 4895SOL    HW115584   0.893   3.033   0.516
 4895SOL    HW215585   0.786   2.909   0.517
 4896SOL     OW15586   3.701   4.906   4.618
 4896SOL    HW115587   3.609   4.894   4.655
 4896SOL    HW215588   3.769   4.885   4.688
 4897SOL     OW15589   3.382   5.552   0.105
 4897SOL    HW115590   3.328   5.548   0.189
 4897SOL    HW215591   3.397   5.459   0.070
 4898SOL     OW15592   5.592   2.483   5.642
 4898SOL    HW115593   5.542   2.565   5.666
 4898SOL    HW215594   5.571   2.458   5.548
 4899SOL     OW15595   5.976   4.347   3.040
 4899SOL    HW115596   6.027   4.405   3.103
 4899SOL    HW215597   5.916   4.285   3.092
 4900SOL     OW15598   0.521   6.889   5.773
 4900SOL    HW115599   0.610   6.924   5.743
 4900SOL    HW215600   0.505   6.916   5.868
 4901SOL     OW15601   0.867   6.733   3.992
 4901SOL    HW115602   0.959   6.711   3.960
 4901SOL    HW215603   0.864   6.729   4.092
 4902SOL     OW15604   2.465   4.720   1.913
 4902SOL    HW115605   2.458   4.758   1.820
 4902SOL    HW215606   2.456   4.621   1.909
 4903SOL     OW15607   3.818   6.985   0.027
 4903SOL    HW115608   3.879   6.914   7.010
 4903SOL    HW215609   3.740   6.942   0.073
 4904SOL     OW15610   1.848   5.879   3.977
 4904SOL    HW115611   1.786   5.955   3.957
 4904SOL    HW215612   1.940   5.902   3.945
 4905SOL     OW15613   5.013   2.829   1.710
 4905SOL    HW115614   5.098   2.802   1.756
 4905SOL    HW215615   4.940   2.764   1.734
 4906SOL     OW15616   4.627   0.116   0.484
 4906SOL    HW115617   4.556   0.058   0.523
 4906SOL    HW215618   4.715   0.095   0.528
 4907SOL     OW15619   4.246   0.028   3.966
 4907SOL    HW115620   4.230   0.107   4.025
 4907SOL    HW215621   4.244   6.963   4.021
 4908SOL     OW15622   3.736   5.795   6.400
 4908SOL    HW115623   3.824   5.785   6.353
 4908SOL    HW215624   3.673   5.723   6.369
 4909SOL     OW15625   6.286   6.565   5.348
 4909SOL    HW115626   6.282   6.621   5.431
 4909SOL    HW215627   6.366   6.593   5.293
 4910SOL     OW15628   5.022   0.591   5.178
 4910SOL    HW115629   5.104   0.610   5.123
 4910SOL    HW215630   4.946   0.645   5.143
 4911SOL     OW15631   0.390   2.394   6.070
 4911SOL    HW115632   0.377   2.296   6.089
 4911SOL    HW215633   0.459   2.406   5.999
 4912SOL     OW15634   3.808   2.116   2.529
 4912SOL    HW115635   3.765   2.048   2.470
 4912SOL    HW215636   3.788   2.208   2.496
 4913SOL     OW15637   3.102   3.904   3.448
 4913SOL    HW115638   3.094   3.882   3.545
 4913SOL    HW215639   3.028   3.860   3.397
 4914SOL     OW15640   2.577   0.121   3.897
 4914SOL    HW115641   2.530   0.085   3.816
 4914SOL    HW215642   2.639   0.051   3.933
 4915SOL     OW15643   4.026   6.440   4.631
 4915SOL    HW115644   4.112   6.453   4.582
 4915SOL    HW215645   3.958   6.399   4.570
 4916SOL     OW15646   2.894   2.164   3.344
 4916SOL    HW115647   2.823   2.098   3.322
 4916SOL    HW215648   2.886   2.243   3.283
 4917SOL     OW15649   1.924   3.902   0.636
 4917SOL    HW115650   2.017   3.934   0.654
 4917SOL    HW215651   1.876   3.891   0.723
 4918SOL     OW15652   2.586   0.459   2.165
 4918SOL    HW115653   2.488   0.466   2.151
 4918SOL    HW215654   2.634   0.469   2.078
 4919SOL     OW15655   1.660   1.845   2.212
 4919SOL    HW115656   1.697   1.807   2.127
 4919SOL    HW215657   1.691   1.791   2.290
 4920SOL     OW15658   4.130   0.995   0.666
 4920SOL    HW115659   4.142   0.911   0.719
 4920SOL    HW215660   4.073   0.976   0.586
 4921SOL     OW15661   2.408   4.144   1.835
 4921SOL    HW115662   2.411   4.177   1.929
 4921SOL    HW215663   2.315   4.157   1.798
 4922SOL     OW15664   1.649   2.973   5.297
 4922SOL    HW115665   1.730   2.955   5.354
 4922SOL    HW215666   1.569   2.928   5.337
 4923SOL     OW15667   5.195   0.220   1.859
 4923SOL    HW115668   5.165   0.192   1.950
 4923SOL    HW215669   5.276   0.277   1.866
 4924SOL     OW15670   1.114   3.842   4.060
 4924SOL    HW115671   1.126   3.751   4.099
 4924SOL    HW215672   1.190   3.901   4.089
 4925SOL     OW15673   4.730   6.519   1.240
 4925SOL    HW115674   4.782   6.450   1.191
 4925SOL    HW215675   4.785   6.602   1.251
 4926SOL     OW15676   5.463   2.524   1.966
 4926SOL    HW115677   5.397   2.567   1.904
 4926SOL    HW215678   5.499   2.594   2.028
 4927SOL     OW15679   3.626   2.898   2.746
 4927SOL    HW115680   3.545   2.859   2.701
 4927SOL    HW215681   3.602   2.924   2.840
 4928SOL     OW15682   0.878   6.772   6.991
 4928SOL    HW115683   0.907   6.840   0.041
 4928SOL    HW215684   0.804   6.810   6.936
 4929SOL     OW15685   1.462   4.802   4.622
 4929SOL    HW115686   1.476   4.890   4.575
 4929SOL    HW215687   1.448   4.819   4.720
 4930SOL     OW15688   0.336   2.072   0.203
 4930SOL    HW115689   0.331   2.069   0.303
 4930SOL    HW215690   0.313   1.982   0.166
 4931SOL     OW15691   0.679   0.145   0.140
 4931SOL    HW115692   0.729   0.206   0.202
 4931SOL    HW215693   0.588   0.128   0.176
 4932SOL     OW15694   2.782   2.642   1.435
 4932SOL    HW115695   2.752   2.643   1.530
 4932SOL    HW215696   2.762   2.730   1.393
 4933SOL     OW15697   2.482   1.520   4.116
 4933SOL    HW115698   2.449   1.499   4.208
 4933SOL    HW215699   2.430   1.467   4.049
 4934SOL     OW15700   6.947   5.141   3.751
 4934SOL    HW115701   7.012   5.125   3.825
 4934SOL    HW215702   6.996   5.149   3.664
 4935SOL     OW15703   2.284   1.055   6.596
 4935SOL    HW115704   2.229   1.003   6.662
 4935SOL    HW215705   2.349   1.113   6.645
 4936SOL     OW15706   3.494   6.061   1.630
 4936SOL    HW115707   3.477   6.098   1.721
 4936SOL    HW215708   3.410   6.064   1.576
 4937SOL     OW15709   1.186   3.378   5.999
 4937SOL    HW115710   1.239   3.293   6.005
 4937SOL    HW215711   1.208   3.426   5.915
 4938SOL     OW15712   3.137   4.453   1.154
 4938SOL    HW115713   3.096   4.543   1.143
 4938SOL    HW215714   3.103   4.411   1.238
 4939SOL     OW15715   1.481   1.337   1.505
 4939SOL    HW115716   1.393   1.369   1.470
 4939SOL    HW215717   1.520   1.406   1.566
 4940SOL     OW15718   0.024   2.490   4.045
 4940SOL    HW115719   6.961   2.526   3.998
 4940SOL    HW215720   7.015   2.439   4.126
 4941SOL     OW15721   4.055   2.551   5.428
 4941SOL    HW115722   4.004   2.467   5.410
 4941SOL    HW215723   4.102   2.580   5.344
 4942SOL     OW15724   5.542   3.134   3.550
 4942SOL    HW115725   5.487   3.053   3.529
 4942SOL    HW215726   5.613   3.109   3.616
 4943SOL     OW15727   5.227   3.168   6.571
 4943SOL    HW115728   5.229   3.070   6.591
 4943SOL    HW215729   5.190   3.217   6.650
 4944SOL     OW15730   1.696   4.647   0.806
 4944SOL    HW115731   1.610   4.682   0.845
 4944SOL    HW215732   1.713   4.555   0.840
 4945SOL     OW15733   2.079   0.936   4.629
 4945SOL    HW115734   2.126   1.019   4.598
 4945SOL    HW215735   2.089   0.926   4.728
 4946SOL     OW15736   1.287   4.166   0.322
 4946SOL    HW115737   1.281   4.266   0.330
 4946SOL    HW215738   1.276   4.125   0.413
 4947SOL     OW15739   2.309   0.633   1.554
 4947SOL    HW115740   2.281   0.683   1.472
 4947SOL    HW215741   2.350   0.697   1.619
 4948SOL     OW15742   1.765   2.227   1.985
 4948SOL    HW115743   1.829   2.150   1.989
 4948SOL    HW215744   1.813   2.309   1.954
 4949SOL     OW15745   6.793   3.375   6.008
 4949SOL    HW115746   6.815   3.466   6.045
 4949SOL    HW215747   6.764   3.384   5.913
 4950SOL     OW15748   2.552   4.593   5.464
 4950SOL    HW115749   2.569   4.681   5.508
 4950SOL    HW215750   2.560   4.603   5.365
 4951SOL     OW15751   5.779   6.532   3.737
 4951SOL    HW115752   5.700   6.525   3.798
 4951SOL    HW215753   5.815   6.441   3.718
 4952SOL     OW15754   6.810   0.344   6.151
 4952SOL    HW115755   6.848   0.435   6.135
 4952SOL    HW215756   6.714   0.343   6.126
 4953SOL     OW15757   1.288   1.917   4.985
 4953SOL    HW115758   1.226   1.942   5.059
 4953SOL    HW215759   1.270   1.974   4.905
 4954SOL     OW15760   2.599   3.853   5.321
 4954SOL    HW115761   2.521   3.896   5.275
 4954SOL    HW215762   2.671   3.835   5.255
 4955SOL     OW15763   3.120   5.781   0.006
 4955SOL    HW115764   3.127   5.710   6.954
 4955SOL    HW215765   3.062   5.748   0.081
 4956SOL     OW15766   2.478   0.364   4.936
 4956SOL    HW115767   2.444   0.413   5.016
 4956SOL    HW215768   2.407   0.361   4.866
 4957SOL     OW15769   6.528   4.234   6.711
 4957SOL    HW115770   6.515   4.276   6.621
 4957SOL    HW215771   6.552   4.138   6.699
 4958SOL     OW15772   2.637   0.095   6.001
 4958SOL    HW115773   2.662   0.062   6.092
 4958SOL    HW215774   2.626   0.017   5.939
 4959SOL     OW15775   6.813   2.531   1.511
 4959SOL    HW115776   6.865   2.599   1.459
 4959SOL    HW215777   6.725   2.570   1.539
 4960SOL     OW15778   3.782   4.890   3.606
 4960SOL    HW115779   3.859   4.854   3.553
 4960SOL    HW215780   3.815   4.952   3.676
 4961SOL     OW15781   3.013   0.737   6.762
 4961SOL    HW115782   2.939   0.772   6.819
 4961SOL    HW215783   3.002   0.771   6.668
 4962SOL     OW15784   6.528   3.389   1.000
 4962SOL    HW115785   6.612   3.337   0.982
 4962SOL    HW215786   6.495   3.431   0.916
 4963SOL     OW15787   0.324   4.318   0.535
 4963SOL    HW115788   0.284   4.402   0.498
 4963SOL    HW215789   0.399   4.341   0.597
 4964SOL     OW15790   2.873   6.560   4.554
 4964SOL    HW115791   2.950   6.624   4.562
 4964SOL    HW215792   2.833   6.546   4.645
 4965SOL     OW15793   1.301   6.763   2.739
 4965SOL    HW115794   1.337   6.797   2.826
 4965SOL    HW215795   1.201   6.763   2.742
 4966SOL     OW15796   3.233   6.519   4.785
 4966SOL    HW115797   3.203   6.530   4.880
 4966SOL    HW215798   3.321   6.472   4.783
 4967SOL     OW15799   3.959   4.520   5.323
 4967SOL    HW115800   3.911   4.604   5.347
 4967SOL    HW215801   3.909   4.442   5.361
 4968SOL     OW15802   0.204   0.965   4.007
 4968SOL    HW115803   0.135   1.028   4.042
 4968SOL    HW215804   0.295   1.005   4.021
 4969SOL     OW15805   0.646   6.321   1.625
 4969SOL    HW115806   0.650   6.235   1.676
 4969SOL    HW215807   0.621   6.395   1.688
 4970SOL     OW15808   2.031   1.073   1.661
 4970SOL    HW115809   1.961   1.134   1.623
 4970SOL    HW215810   2.120   1.097   1.623
 4971SOL     OW15811   6.395   6.325   2.805
 4971SOL    HW115812   6.441   6.236   2.815
 4971SOL    HW215813   6.392   6.371   2.894
 4972SOL     OW15814   1.537   4.130   1.152
 4972SOL    HW115815   1.535   4.159   1.247
 4972SOL    HW215816   1.526   4.030   1.147
 4973SOL     OW15817   0.427   0.472   1.257
 4973SOL    HW115818   0.432   0.400   1.326
 4973SOL    HW215819   0.519   0.497   1.227
 4974SOL     OW15820   3.992   3.932   6.473
 4974SOL    HW115821   3.931   4.010   6.465
 4974SOL    HW215822   4.019   3.902   6.382
 4975SOL     OW15823   5.885   3.577   0.590
 4975SOL    HW115824   5.873   3.541   0.498
 4975SOL    HW215825   5.796   3.584   0.635
 4976SOL     OW15826   0.597   0.258   4.571
 4976SOL    HW115827   0.691   0.250   4.540
 4976SOL    HW215828   0.552   0.169   4.565
 4977SOL     OW15829   2.820   4.593   6.515
 4977SOL    HW115830   2.839   4.507   6.467
 4977SOL    HW215831   2.775   4.573   6.602
 4978SOL     OW15832   5.127   4.188   5.481
 4978SOL    HW115833   5.195   4.256   5.510
 4978SOL    HW215834   5.163   4.136   5.403
 4979SOL     OW15835   1.561   6.966   6.366
 4979SOL    HW115836   1.624   6.904   6.320
 4979SOL    HW215837   1.498   6.913   6.423
 4980SOL     OW15838   6.592   4.405   3.012
 4980SOL    HW115839   6.648   4.483   3.040
 4980SOL    HW215840   6.517   4.392   3.078
 4981SOL     OW15841   3.294   4.876   2.000
 4981SOL    HW115842   3.225   4.814   1.964
 4981SOL    HW215843   3.383   4.832   1.997
 4982SOL     OW15844   4.454   1.622   6.752
 4982SOL    HW115845   4.376   1.636   6.692
 4982SOL    HW215846   4.536   1.663   6.711
 4983SOL     OW15847   6.248   5.150   3.887
 4983SOL    HW115848   6.304   5.216   3.937
 4983SOL    HW215849   6.190   5.199   3.822
 4984SOL     OW15850   4.521   4.524   3.266
 4984SOL    HW115851   4.567   4.593   3.322
 4984SOL    HW215852   4.526   4.550   3.170
 4985SOL     OW15853   5.606   5.878   2.599
 4985SOL    HW115854   5.540   5.835   2.537
 4985SOL    HW215855   5.578   5.862   2.693
 4986SOL     OW15856   0.424   4.531   1.860
 4986SOL    HW115857   0.478   4.553   1.940
 4986SOL    HW215858   0.475   4.555   1.777
 4987SOL     OW15859   0.833   6.786   2.531
 4987SOL    HW115860   0.802   6.881   2.531
 4987SOL    HW215861   0.835   6.751   2.438
 4988SOL     OW15862   5.757   0.821   4.006
 4988SOL    HW115863   5.730   0.734   3.966
 4988SOL    HW215864   5.772   0.888   3.933
 4989SOL     OW15865   5.315   0.518   1.819
 4989SOL    HW115866   5.261   0.571   1.884
 4989SOL    HW215867   5.409   0.550   1.819
 4990SOL     OW15868   4.044   1.580   6.888
 4990SOL    HW115869   4.065   1.510   6.821
 4990SOL    HW215870   4.125   1.637   6.904
 4991SOL     OW15871   0.270   5.665   4.462
 4991SOL    HW115872   0.352   5.715   4.436
 4991SOL    HW215873   0.197   5.683   4.397
 4992SOL     OW15874   6.382   0.722   3.092
 4992SOL    HW115875   6.408   0.707   3.188
 4992SOL    HW215876   6.341   0.812   3.082
 4993SOL     OW15877   4.758   6.667   5.274
 4993SOL    HW115878   4.807   6.752   5.297
 4993SOL    HW215879   4.678   6.659   5.332
 4994SOL     OW15880   2.230   5.289   5.008
 4994SOL    HW115881   2.210   5.204   4.959
 4994SOL    HW215882   2.318   5.280   5.056
 4995SOL     OW15883   0.896   0.581   4.809
 4995SOL    HW115884   0.829   0.510   4.787
 4995SOL    HW215885   0.882   0.659   4.748
 4996SOL     OW15886   0.292   1.719   4.454
 4996SOL    HW115887   0.374   1.687   4.406
 4996SOL    HW215888   0.239   1.779   4.393
 4997SOL     OW15889   3.505   2.124   1.212
 4997SOL    HW115890   3.467   2.215   1.226
 4997SOL    HW215891   3.509   2.104   1.114
 4998SOL     OW15892   1.304   3.621   3.153
 4998SOL    HW115893   1.398   3.588   3.140
 4998SOL    HW215894   1.278   3.678   3.076
 4999SOL     OW15895   1.141   3.526   4.845
 4999SOL    HW115896   1.046   3.523   4.878
 4999SOL    HW215897   1.170   3.621   4.834
 5000SOL     OW15898   3.174   6.145   3.576
 5000SOL    HW115899   3.128   6.230   3.600
 5000SOL    HW215900   3.107   6.080   3.540
 5001SOL     OW15901   0.535   5.378   2.601
 5001SOL    HW115902   0.515   5.441   2.526
 5001SOL    HW215903   0.472   5.397   2.677
 5002SOL     OW15904   0.798   4.735   2.221
 5002SOL    HW115905   0.800   4.828   2.184
 5002SOL    HW215906   0.739   4.732   2.302
 5003SOL     OW15907   4.197   5.991   2.953
 5003SOL    HW115908   4.249   5.913   2.919
 5003SOL    HW215909   4.116   5.958   3.003
 5004SOL     OW15910   3.644   5.654   5.992
 5004SOL    HW115911   3.580   5.608   5.932
 5004SOL    HW215912   3.615   5.749   6.006
 5005SOL     OW15913   2.609   3.246   6.526
 5005SOL    HW115914   2.642   3.185   6.455
 5005SOL    HW215915   2.509   3.248   6.525
 5006SOL     OW15916   5.797   1.366   2.265
 5006SOL    HW115917   5.708   1.410   2.254
 5006SOL    HW215918   5.870   1.431   2.242
 5007SOL     OW15919   6.464   0.317   0.626
 5007SOL    HW115920   6.385   0.377   0.611
 5007SOL    HW215921   6.537   0.340   0.562
 5008SOL     OW15922   6.805   6.504   1.578
 5008SOL    HW115923   6.781   6.580   1.518
 5008SOL    HW215924   6.904   6.499   1.587
 5009SOL     OW15925   0.460   2.754   0.263
 5009SOL    HW115926   0.365   2.781   0.248
 5009SOL    HW215927   0.492   2.699   0.185
 5010SOL     OW15928   3.433   2.548   0.830
 5010SOL    HW115929   3.361   2.481   0.848
 5010SOL    HW215930   3.521   2.510   0.858
 5011SOL     OW15931   1.383   3.876   0.480
 5011SOL    HW115932   1.465   3.927   0.508
 5011SOL    HW215933   1.400   3.833   0.392
 5012SOL     OW15934   5.657   2.979   5.399
 5012SOL    HW115935   5.733   2.914   5.408
 5012SOL    HW215936   5.676   3.041   5.323
 5013SOL     OW15937   5.834   0.360   5.425
 5013SOL    HW115938   5.817   0.410   5.339
 5013SOL    HW215939   5.750   0.357   5.479
 5014SOL     OW15940   6.590   4.463   0.180
 5014SOL    HW115941   6.649   4.433   0.105
 5014SOL    HW215942   6.573   4.386   0.242
 5015SOL     OW15943   5.366   0.723   4.959
 5015SOL    HW115944   5.294   0.693   4.896
 5015SOL    HW215945   5.355   0.677   5.047
 5016SOL     OW15946   1.194   3.056   4.998
 5016SOL    HW115947   1.222   3.043   4.903
 5016SOL    HW215948   1.104   3.100   5.001
 5017SOL     OW15949   0.832   2.709   1.334
 5017SOL    HW115950   0.809   2.664   1.421
 5017SOL    HW215951   0.809   2.806   1.340
 5018SOL     OW15952   0.747   4.796   1.838
 5018SOL    HW115953   0.723   4.828   1.747
 5018SOL    HW215954   0.839   4.826   1.861
 5019SOL     OW15955   2.047   5.591   5.424
 5019SOL    HW115956   2.081   5.617   5.514
 5019SOL    HW215957   2.114   5.615   5.354
 5020SOL     OW15958   0.271   6.705   5.167
 5020SOL    HW115959   0.353   6.742   5.123
 5020SOL    HW215960   0.196   6.770   5.157
 5021SOL     OW15961   1.507   0.624   1.341
 5021SOL    HW115962   1.590   0.651   1.391
 5021SOL    HW215963   1.485   0.529   1.361
 5022SOL     OW15964   0.104   2.710   1.678
 5022SOL    HW115965   0.054   2.725   1.763
 5022SOL    HW215966   0.091   2.788   1.617
 5023SOL     OW15967   0.115   3.987   1.632
 5023SOL    HW115968   0.134   4.049   1.709
 5023SOL    HW215969   0.076   3.902   1.667
 5024SOL     OW15970   5.476   4.836   0.787
 5024SOL    HW115971   5.401   4.800   0.843
 5024SOL    HW215972   5.482   4.783   0.703
 5025SOL     OW15973   3.928   1.543   3.868
 5025SOL    HW115974   3.831   1.540   3.843
 5025SOL    HW215975   3.979   1.595   3.800
 5026SOL     OW15976   6.506   5.255   4.509
 5026SOL    HW115977   6.575   5.209   4.452
 5026SOL    HW215978   6.433   5.291   4.451
 5027SOL     OW15979   5.736   0.208   1.374
 5027SOL    HW115980   5.812   0.148   1.349
 5027SOL    HW215981   5.763   0.264   1.453
 5028SOL     OW15982   6.926   1.675   3.202
 5028SOL    HW115983   6.855   1.610   3.229
 5028SOL    HW215984   6.969   1.713   3.284
 5029SOL     OW15985   6.596   3.328   2.342
 5029SOL    HW115986   6.566   3.350   2.250
 5029SOL    HW215987   6.518   3.295   2.396
 5030SOL     OW15988   0.038   5.641   5.847
 5030SOL    HW115989   0.130   5.633   5.809
 5030SOL    HW215990   0.045   5.675   5.941
 5031SOL     OW15991   6.964   1.050   5.389
 5031SOL    HW115992   6.926   1.015   5.303
 5031SOL    HW215993   6.952   1.149   5.392
 5032SOL     OW15994   2.884   2.177   6.250
 5032SOL    HW115995   2.889   2.251   6.316
 5032SOL    HW215996   2.821   2.202   6.176
 5033SOL     OW15997   2.260   1.425   6.921
 5033SOL    HW115998   2.182   1.451   6.864
 5033SOL    HW215999   2.315   1.506   6.941
 5034SOL     OW16000   4.912   6.976   4.278
 5034SOL    HW116001   4.844   6.911   4.313
 5034SOL    HW216002   4.871   0.049   4.272
 5035SOL     OW16003   0.403   3.894   5.116
 5035SOL    HW116004   0.369   3.920   5.025
 5035SOL    HW216005   0.491   3.846   5.106
 5036SOL     OW16006   6.805   4.767   6.025
 5036SOL    HW116007   6.872   4.718   6.081
 5036SOL    HW216008   6.792   4.859   6.062
 5037SOL     OW16009   4.535   4.561   1.459
 5037SOL    HW116010   4.519   4.471   1.420
 5037SOL    HW216011   4.628   4.566   1.494
 5038SOL     OW16012   3.900   3.549   4.418
 5038SOL    HW116013   3.887   3.526   4.515
 5038SOL    HW216014   3.842   3.490   4.362
 5039SOL     OW16015   2.033   3.675   5.493
 5039SOL    HW116016   2.096   3.749   5.468
 5039SOL    HW216017   2.055   3.594   5.439
 5040SOL     OW16018   0.930   5.807   5.178
 5040SOL    HW116019   1.005   5.748   5.150
 5040SOL    HW216020   0.860   5.752   5.224
 5041SOL     OW16021   1.193   2.385   2.489
 5041SOL    HW116022   1.142   2.414   2.570
 5041SOL    HW216023   1.273   2.443   2.477
 5042SOL     OW16024   6.413   3.357   0.328
 5042SOL    HW116025   6.510   3.382   0.336
 5042SOL    HW216026   6.403   3.259   0.346
 5043SOL     OW16027   4.269   0.823   0.365
 5043SOL    HW116028   4.179   0.799   0.402
 5043SOL    HW216029   4.307   0.745   0.315
 5044SOL     OW16030   0.480   5.805   1.383
 5044SOL    HW116031   0.550   5.734   1.384
 5044SOL    HW216032   0.395   5.768   1.347
 5045SOL     OW16033   6.355   5.345   5.780
 5045SOL    HW116034   6.380   5.410   5.709
 5045SOL    HW216035   6.406   5.260   5.767
 5046SOL     OW16036   3.654   3.798   3.341
 5046SOL    HW116037   3.699   3.858   3.407
 5046SOL    HW216038   3.708   3.795   3.256
 5047SOL     OW16039   2.006   3.684   2.973
 5047SOL    HW116040   1.948   3.603   2.970
 5047SOL    HW216041   2.005   3.721   3.066
 5048SOL     OW16042   1.302   0.597   5.268
 5048SOL    HW116043   1.289   0.660   5.191
 5048SOL    HW216044   1.295   0.502   5.235
 5049SOL     OW16045   5.382   1.478   6.434
 5049SOL    HW116046   5.312   1.526   6.487
 5049SOL    HW216047   5.469   1.480   6.484
 5050SOL     OW16048   1.797   1.576   6.694
 5050SOL    HW116049   1.746   1.526   6.764
 5050SOL    HW216050   1.775   1.540   6.604
 5051SOL     OW16051   4.429   4.303   1.211
 5051SOL    HW116052   4.396   4.285   1.119
 5051SOL    HW216053   4.367   4.367   1.257
 5052SOL     OW16054   3.554   2.007   6.229
 5052SOL    HW116055   3.583   2.078   6.165
 5052SOL    HW216056   3.526   2.049   6.315
 5053SOL     OW16057   0.591   4.938   3.306
 5053SOL    HW116058   0.616   5.010   3.370
 5053SOL    HW216059   0.537   4.868   3.353
 5054SOL     OW16060   3.468   4.577   5.901
 5054SOL    HW116061   3.514   4.489   5.895
 5054SOL    HW216062   3.529   4.649   5.868
 5055SOL     OW16063   0.982   2.321   5.635
 5055SOL    HW116064   0.955   2.355   5.725
 5055SOL    HW216065   1.046   2.385   5.593
 5056SOL     OW16066   5.259   3.967   5.315
 5056SOL    HW116067   5.330   4.018   5.267
 5056SOL    HW216068   5.191   3.933   5.250
 5057SOL     OW16069   0.650   6.848   2.221
 5057SOL    HW116070   0.650   6.921   2.152
 5057SOL    HW216071   0.620   6.885   2.309
 5058SOL     OW16072   3.382   4.763   6.884
 5058SOL    HW116073   3.304   4.719   6.927
 5058SOL    HW216074   3.458   4.699   6.877
 5059SOL     OW16075   6.692   0.438   3.285
 5059SOL    HW116076   6.688   0.344   3.250
 5059SOL    HW216077   6.773   0.449   3.342
 5060SOL     OW16078   6.264   2.007   6.303
 5060SOL    HW116079   6.238   2.025   6.398
 5060SOL    HW216080   6.284   2.094   6.257
 5061SOL     OW16081   4.524   2.190   0.081
 5061SOL    HW116082   4.469   2.107   0.075
 5061SOL    HW216083   4.472   2.268   0.046
 5062SOL     OW16084   6.979   0.041   2.416
 5062SOL    HW116085   7.013   6.998   2.488
 5062SOL    HW216086   6.885   0.016   2.393
 5063SOL     OW16087   0.257   6.407   1.825
 5063SOL    HW116088   0.205   6.445   1.748
 5063SOL    HW216089   0.231   6.311   1.838
 5064SOL     OW16090   4.841   3.216   0.510
 5064SOL    HW116091   4.868   3.137   0.455
 5064SOL    HW216092   4.758   3.193   0.561
 5065SOL     OW16093   3.161   0.186   5.874
 5065SOL    HW116094   3.108   0.149   5.798
 5065SOL    HW216095   3.120   0.158   5.961
 5066SOL     OW16096   5.236   4.060   2.322
 5066SOL    HW116097   5.335   4.074   2.328
 5066SOL    HW216098   5.195   4.070   2.412
 5067SOL     OW16099   5.425   1.284   0.709
 5067SOL    HW116100   5.448   1.375   0.674
 5067SOL    HW216101   5.497   1.219   0.683
 5068SOL     OW16102   2.737   4.393   0.659
 5068SOL    HW116103   2.736   4.489   0.632
 5068SOL    HW216104   2.688   4.382   0.745
 5069SOL     OW16105   1.109   4.264   2.174
 5069SOL    HW116106   1.195   4.315   2.182
 5069SOL    HW216107   1.047   4.290   2.248
 5070SOL     OW16108   5.099   3.286   3.916
 5070SOL    HW116109   5.153   3.268   3.834
 5070SOL    HW216110   5.002   3.269   3.897
 5071SOL     OW16111   4.362   2.360   4.883
 5071SOL    HW116112   4.326   2.329   4.795
 5071SOL    HW216113   4.288   2.362   4.950
 5072SOL     OW16114   0.603   5.336   0.418
 5072SOL    HW116115   0.638   5.376   0.333
 5072SOL    HW216116   0.660   5.364   0.495
 5073SOL     OW16117   6.549   6.418   2.345
 5073SOL    HW116118   6.478   6.377   2.401
 5073SOL    HW216119   6.638   6.405   2.389
 5074SOL     OW16120   3.255   4.201   0.059
 5074SOL    HW116121   3.164   4.169   0.086
 5074SOL    HW216122   3.280   4.280   0.114
 5075SOL     OW16123   0.106   1.027   5.794
 5075SOL    HW116124   0.083   0.929   5.793
 5075SOL    HW216125   0.167   1.047   5.871
 5076SOL     OW16126   4.019   1.043   1.344
 5076SOL    HW116127   3.975   0.968   1.296
 5076SOL    HW216128   4.118   1.034   1.336
 5077SOL     OW16129   1.462   2.099   3.610
 5077SOL    HW116130   1.442   2.165   3.538
 5077SOL    HW216131   1.561   2.088   3.619
 5078SOL     OW16132   1.160   1.678   3.438
 5078SOL    HW116133   1.215   1.702   3.518
 5078SOL    HW216134   1.186   1.736   3.361
 5079SOL     OW16135   2.544   4.879   6.036
 5079SOL    HW116136   2.636   4.842   6.048
 5079SOL    HW216137   2.540   4.933   5.952
 5080SOL     OW16138   5.758   6.575   4.879
 5080SOL    HW116139   5.794   6.547   4.968
 5080SOL    HW216140   5.696   6.504   4.845
 5081SOL     OW16141   3.054   3.502   2.891
 5081SOL    HW116142   3.140   3.459   2.865
 5081SOL    HW216143   2.983   3.480   2.824
 5082SOL     OW16144   5.525   6.727   5.391
 5082SOL    HW116145   5.532   6.794   5.465
 5082SOL    HW216146   5.491   6.640   5.428
 5083SOL     OW16147   1.735   6.729   1.968
 5083SOL    HW116148   1.730   6.637   2.007
 5083SOL    HW216149   1.702   6.795   2.035
 5084SOL     OW16150   1.555   4.526   4.098
 5084SOL    HW116151   1.569   4.561   4.191
 5084SOL    HW216152   1.464   4.487   4.090
 5085SOL     OW16153   5.291   1.653   6.685
 5085SOL    HW116154   5.368   1.602   6.723
 5085SOL    HW216155   5.205   1.610   6.712
 5086SOL     OW16156   6.009   4.718   4.243
 5086SOL    HW116157   6.095   4.757   4.213
 5086SOL    HW216158   5.987   4.637   4.188
 5087SOL     OW16159   6.572   6.134   3.774
 5087SOL    HW116160   6.479   6.103   3.757
 5087SOL    HW216161   6.594   6.212   3.716
 5088SOL     OW16162   6.211   1.315   6.106
 5088SOL    HW116163   6.115   1.291   6.117
 5088SOL    HW216164   6.219   1.412   6.087
 5089SOL     OW16165   6.434   3.789   3.486
 5089SOL    HW116166   6.500   3.862   3.470
 5089SOL    HW216167   6.423   3.734   3.403
 5090SOL     OW16168   2.177   4.301   1.248
 5090SOL    HW116169   2.214   4.385   1.286
 5090SOL    HW216170   2.252   4.242   1.218
 5091SOL     OW16171   1.211   5.984   2.791
 5091SOL    HW116172   1.284   5.930   2.749
 5091SOL    HW216173   1.122   5.946   2.764
 5092SOL     OW16174   3.753   2.524   1.735
 5092SOL    HW116175   3.668   2.548   1.689
 5092SOL    HW216176   3.737   2.446   1.795
 5093SOL     OW16177   1.148   2.424   1.681
 5093SOL    HW116178   1.146   2.341   1.625
 5093SOL    HW216179   1.243   2.447   1.703
 5094SOL     OW16180   0.561   0.472   5.852
 5094SOL    HW116181   0.605   0.390   5.889
 5094SOL    HW216182   0.625   0.549   5.858
 5095SOL     OW16183   1.392   0.553   4.663
 5095SOL    HW116184   1.470   0.601   4.703
 5095SOL    HW216185   1.424   0.480   4.603
 5096SOL     OW16186   4.721   3.214   0.891
 5096SOL    HW116187   4.625   3.230   0.869
 5096SOL    HW216188   4.780   3.270   0.833
 5097SOL     OW16189   1.780   0.495   5.924
 5097SOL    HW116190   1.830   0.581   5.929
 5097SOL    HW216191   1.689   0.507   5.965
 5098SOL     OW16192   1.006   0.599   1.716
 5098SOL    HW116193   1.047   0.612   1.806
 5098SOL    HW216194   1.064   0.640   1.646
 5099SOL     OW16195   0.989   0.258   6.023
 5099SOL    HW116196   0.945   0.209   6.097
 5099SOL    HW216197   1.030   0.342   6.058
 5100SOL     OW16198   4.669   0.151   6.033
 5100SOL    HW116199   4.715   0.240   6.026
 5100SOL    HW216200   4.713   0.096   6.103
 5101SOL     OW16201   5.132   6.322   6.688
 5101SOL    HW116202   5.035   6.327   6.712
 5101SOL    HW216203   5.188   6.336   6.770
 5102SOL     OW16204   5.934   0.799   5.553
 5102SOL    HW116205   5.980   0.718   5.589
 5102SOL    HW216206   5.902   0.856   5.628
 5103SOL     OW16207   0.099   0.776   3.839
 5103SOL    HW116208   0.121   0.774   3.742
 5103SOL    HW216209   0.148   0.852   3.883
 5104SOL     OW16210   1.806   0.001   1.346
 5104SOL    HW116211   1.770   6.932   1.313
 5104SOL    HW216212   1.739   0.073   1.329
 5105SOL     OW16213   4.294   4.035   6.827
 5105SOL    HW116214   4.267   3.954   6.879
 5105SOL    HW216215   4.369   4.081   6.874
 5106SOL     OW16216   3.596   0.222   2.653
 5106SOL    HW116217   3.535   0.285   2.702
 5106SOL    HW216218   3.548   0.136   2.636
 5107SOL     OW16219   2.779   0.831   6.859
 5107SOL    HW116220   2.727   0.865   6.938
 5107SOL    HW216221   2.767   0.894   6.782
 5108SOL     OW16222   2.973   3.917   3.955
 5108SOL    HW116223   3.035   3.989   3.986
 5108SOL    HW216224   2.884   3.929   3.999
 5109SOL     OW16225   0.888   1.805   1.299
 5109SOL    HW116226   0.790   1.801   1.316
 5109SOL    HW216227   0.918   1.901   1.295
 5110SOL     OW16228   1.804   6.384   5.840
 5110SOL    HW116229   1.753   6.298   5.835
 5110SOL    HW216230   1.897   6.369   5.805
 5111SOL     OW16231   0.993   0.952   6.094
 5111SOL    HW116232   0.968   1.049   6.089
 5111SOL    HW216233   1.033   0.924   6.007
 5112SOL     OW16234   0.198   6.872   3.721
 5112SOL    HW116235   0.263   6.883   3.796
 5112SOL    HW216236   0.244   6.886   3.634
 5113SOL     OW16237   0.449   0.294   0.706
 5113SOL    HW116238   0.415   0.369   0.649
 5113SOL    HW216239   0.385   0.278   0.781
 5114SOL     OW16240   3.146   4.351   0.418
 5114SOL    HW116241   3.225   4.374   0.361
 5114SOL    HW216242   3.178   4.324   0.509
 5115SOL     OW16243   1.448   4.195   5.682
 5115SOL    HW116244   1.538   4.152   5.692
 5115SOL    HW216245   1.459   4.294   5.671
 5116SOL     OW16246   5.015   4.973   6.397
 5116SOL    HW116247   4.930   4.981   6.345
 5116SOL    HW216248   5.084   4.928   6.340
 5117SOL     OW16249   2.397   4.753   3.598
 5117SOL    HW116250   2.436   4.676   3.649
 5117SOL    HW216251   2.436   4.755   3.506
 5118SOL     OW16252   4.678   6.205   1.134
 5118SOL    HW116253   4.594   6.241   1.175
 5118SOL    HW216254   4.752   6.212   1.200
 5119SOL     OW16255   5.280   0.393   1.569
 5119SOL    HW116256   5.278   0.435   1.660
 5119SOL    HW216257   5.223   0.447   1.507
 5120SOL     OW16258   6.089   1.224   2.969
 5120SOL    HW116259   6.081   1.301   2.905
 5120SOL    HW216260   6.122   1.258   3.057
 5121SOL     OW16261   0.790   3.210   6.249
 5121SOL    HW116262   0.840   3.237   6.167
 5121SOL    HW216263   0.767   3.291   6.303
 5122SOL     OW16264   2.737   0.581   3.352
 5122SOL    HW116265   2.714   0.496   3.306
 5122SOL    HW216266   2.675   0.653   3.321
 5123SOL     OW16267   5.396   3.839   3.588
 5123SOL    HW116268   5.340   3.840   3.505
 5123SOL    HW216269   5.337   3.845   3.668
 5124SOL     OW16270   3.128   5.990   6.652
 5124SOL    HW116271   3.094   6.080   6.625
 5124SOL    HW216272   3.075   5.919   6.606
 5125SOL     OW16273   0.185   3.789   4.260
 5125SOL    HW116274   0.161   3.698   4.294
 5125SOL    HW216275   0.130   3.809   4.179
 5126SOL     OW16276   6.602   5.046   6.094
 5126SOL    HW116277   6.627   5.142   6.083
 5126SOL    HW216278   6.517   5.026   6.045
 5127SOL     OW16279   5.806   4.084   7.004
 5127SOL    HW116280   5.876   4.012   7.003
 5127SOL    HW216281   5.806   4.129   0.076
 5128SOL     OW16282   1.331   0.944   6.825
 5128SOL    HW116283   1.383   0.955   6.909
 5128SOL    HW216284   1.270   0.865   6.834
 5129SOL     OW16285   5.318   0.286   2.356
 5129SOL    HW116286   5.363   0.303   2.444
 5129SOL    HW216287   5.220   0.303   2.366
 5130SOL     OW16288   1.057   5.282   4.709
 5130SOL    HW116289   1.080   5.371   4.668
 5130SOL    HW216290   1.080   5.209   4.645
 5131SOL     OW16291   3.055   5.111   3.893
 5131SOL    HW116292   3.022   5.167   3.817
 5131SOL    HW216293   2.977   5.067   3.938
 5132SOL     OW16294   3.221   1.854   6.148
 5132SOL    HW116295   3.147   1.798   6.184
 5132SOL    HW216296   3.211   1.864   6.049
 5133SOL     OW16297   3.650   5.497   6.490
 5133SOL    HW116298   3.599   5.512   6.575
 5133SOL    HW216299   3.590   5.511   6.412
 5134SOL     OW16300   6.498   6.765   1.618
 5134SOL    HW116301   6.403   6.782   1.589
 5134SOL    HW216302   6.529   6.839   1.678
 5135SOL     OW16303   6.381   3.589   2.590
 5135SOL    HW116304   6.392   3.609   2.493
 5135SOL    HW216305   6.331   3.503   2.601
 5136SOL     OW16306   0.655   0.576   6.392
 5136SOL    HW116307   0.618   0.488   6.421
 5136SOL    HW216308   0.622   0.648   6.453
 5137SOL     OW16309   5.188   2.656   5.211
 5137SOL    HW116310   5.274   2.604   5.203
 5137SOL    HW216311   5.151   2.644   5.303
 5138SOL     OW16312   3.747   4.091   4.046
 5138SOL    HW116313   3.818   4.070   4.112
 5138SOL    HW216314   3.751   4.187   4.020
 5139SOL     OW16315   1.643   0.718   4.949
 5139SOL    HW116316   1.656   0.735   5.046
 5139SOL    HW216317   1.682   0.793   4.895
 5140SOL     OW16318   4.244   1.791   5.772
 5140SOL    HW116319   4.188   1.708   5.766
 5140SOL    HW216320   4.301   1.787   5.854
 5141SOL     OW16321   6.610   3.027   1.807
 5141SOL    HW116322   6.709   3.037   1.805
 5141SOL    HW216323   6.570   3.071   1.726
 5142SOL     OW16324   6.871   6.560   3.563
 5142SOL    HW116325   6.803   6.505   3.613
 5142SOL    HW216326   6.916   6.623   3.627
 5143SOL     OW16327   0.665   4.461   4.467
 5143SOL    HW116328   0.583   4.421   4.426
 5143SOL    HW216329   0.721   4.390   4.508
 5144SOL     OW16330   1.926   3.323   6.707
 5144SOL    HW116331   1.891   3.282   6.623
 5144SOL    HW216332   1.902   3.265   6.786
 5145SOL     OW16333   3.396   6.051   6.619
 5145SOL    HW116334   3.302   6.030   6.647
 5145SOL    HW216335   3.396   6.135   6.565
 5146SOL     OW16336   4.322   4.525   5.431
 5146SOL    HW116337   4.301   4.441   5.480
 5146SOL    HW216338   4.407   4.564   5.467
 5147SOL     OW16339   4.964   3.584   3.761
 5147SOL    HW116340   4.977   3.546   3.670
 5147SOL    HW216341   4.896   3.528   3.811
 5148SOL     OW16342   0.588   0.795   1.569
 5148SOL    HW116343   0.595   0.894   1.560
 5148SOL    HW216344   0.501   0.764   1.531
 5149SOL     OW16345   5.755   4.515   4.018
 5149SOL    HW116346   5.714   4.513   3.927
 5149SOL    HW216347   5.723   4.436   4.071
 5150SOL     OW16348   1.290   4.613   3.728
 5150SOL    HW116349   1.328   4.651   3.644
 5150SOL    HW216350   1.245   4.686   3.779
 5151SOL     OW16351   5.863   4.989   1.968
 5151SOL    HW116352   5.821   4.964   1.880
 5151SOL    HW216353   5.956   4.952   1.972
 5152SOL     OW16354   1.793   0.444   6.578
 5152SOL    HW116355   1.808   0.360   6.629
 5152SOL    HW216356   1.697   0.472   6.586
 5153SOL     OW16357   1.846   1.465   0.927
 5153SOL    HW116358   1.758   1.464   0.973
 5153SOL    HW216359   1.832   1.472   0.828
 5154SOL     OW16360   1.205   2.656   6.664
 5154SOL    HW116361   1.298   2.692   6.667
 5154SOL    HW216362   1.158   2.691   6.583
 5155SOL     OW16363   2.277   1.651   0.544
 5155SOL    HW116364   2.258   1.651   0.446
 5155SOL    HW216365   2.314   1.562   0.571
 5156SOL     OW16366   5.667   5.308   5.579
 5156SOL    HW116367   5.747   5.264   5.619
 5156SOL    HW216368   5.587   5.291   5.637
 5157SOL     OW16369   4.057   1.500   2.204
 5157SOL    HW116370   4.057   1.599   2.219
 5157SOL    HW216371   4.040   1.481   2.107
 5158SOL     OW16372   3.835   1.246   2.322
 5158SOL    HW116373   3.807   1.309   2.249
 5158SOL    HW216374   3.762   1.180   2.338
 5159SOL     OW16375   5.967   3.971   6.440
 5159SOL    HW116376   6.036   3.976   6.368
 5159SOL    HW216377   5.915   4.056   6.442
 5160SOL     OW16378   6.778   6.339   3.214
 5160SOL    HW116379   6.702   6.297   3.264
 5160SOL    HW216380   6.853   6.273   3.207
 5161SOL     OW16381   0.347   2.989   6.930
 5161SOL    HW116382   0.351   2.890   6.929
 5161SOL    HW216383   0.440   3.027   6.930
 5162SOL     OW16384   0.160   6.325   2.533
 5162SOL    HW116385   0.140   6.347   2.437
 5162SOL    HW216386   0.085   6.355   2.591
 5163SOL     OW16387   3.189   6.017   1.808
 5163SOL    HW116388   3.155   5.958   1.735
 5163SOL    HW216389   3.160   6.111   1.792
 5164SOL     OW16390   2.790   3.598   1.081
 5164SOL    HW116391   2.768   3.613   1.177
 5164SOL    HW216392   2.872   3.650   1.057
 5165SOL     OW16393   1.675   4.901   6.887
 5165SOL    HW116394   1.581   4.916   6.916
 5165SOL    HW216395   1.676   4.866   6.793
 5166SOL     OW16396   1.894   5.553   1.688
 5166SOL    HW116397   1.928   5.542   1.781
 5166SOL    HW216398   1.798   5.582   1.692
 5167SOL     OW16399   5.211   3.722   5.899
 5167SOL    HW116400   5.272   3.801   5.898
 5167SOL    HW216401   5.228   3.667   5.817
 5168SOL     OW16402   4.595   2.204   2.099
 5168SOL    HW116403   4.514   2.236   2.148
 5168SOL    HW216404   4.644   2.281   2.060
 5169SOL     OW16405   3.866   0.579   4.166
 5169SOL    HW116406   3.829   0.490   4.142
 5169SOL    HW216407   3.859   0.640   4.086
 5170SOL     OW16408   1.268   3.554   6.449
 5170SOL    HW116409   1.279   3.455   6.452
 5170SOL    HW216410   1.351   3.599   6.482
 5171SOL     OW16411   2.041   5.346   5.793
 5171SOL    HW116412   2.084   5.291   5.865
 5171SOL    HW216413   2.044   5.296   5.707
 5172SOL     OW16414   0.689   4.705   3.789
 5172SOL    HW116415   0.603   4.653   3.787
 5172SOL    HW216416   0.690   4.763   3.870
 5173SOL     OW16417   4.642   3.472   5.853
 5173SOL    HW116418   4.578   3.545   5.827
 5173SOL    HW216419   4.675   3.426   5.771
 5174SOL     OW16420   1.869   6.952   3.274
 5174SOL    HW116421   1.894   6.858   3.298
 5174SOL    HW216422   1.900   6.972   3.181
 5175SOL     OW16423   2.689   4.279   6.922
 5175SOL    HW116424   2.717   4.375   6.916
 5175SOL    HW216425   2.717   4.231   6.840
 5176SOL     OW16426   5.825   5.103   6.866
 5176SOL    HW116427   5.885   5.151   6.931
 5176SOL    HW216428   5.846   5.134   6.773
 5177SOL     OW16429   4.463   0.224   1.182
 5177SOL    HW116430   4.464   0.135   1.227
 5177SOL    HW216431   4.556   0.261   1.177
 5178SOL     OW16432   0.700   3.464   1.726
 5178SOL    HW116433   0.800   3.463   1.729
 5178SOL    HW216434   0.665   3.526   1.796
 5179SOL     OW16435   5.639   4.615   3.019
 5179SOL    HW116436   5.645   4.573   2.928
 5179SOL    HW216437   5.609   4.710   3.010
 5180SOL     OW16438   2.554   6.774   1.264
 5180SOL    HW116439   2.528   6.862   1.226
 5180SOL    HW216440   2.653   6.762   1.257
 5181SOL     OW16441   0.243   0.902   6.652
 5181SOL    HW116442   0.217   0.965   6.579
 5181SOL    HW216443   0.229   0.808   6.621
 5182SOL     OW16444   4.229   4.670   3.329
 5182SOL    HW116445   4.267   4.582   3.299
 5182SOL    HW216446   4.300   4.740   3.322
 5183SOL     OW16447   3.955   1.893   3.575
 5183SOL    HW116448   3.859   1.904   3.600
 5183SOL    HW216449   3.975   1.949   3.494
 5184SOL     OW16450   2.025   2.064   3.885
 5184SOL    HW116451   1.988   2.028   3.970
 5184SOL    HW216452   2.037   2.163   3.894
 5185SOL     OW16453   5.211   0.617   2.075
 5185SOL    HW116454   5.223   0.713   2.099
 5185SOL    HW216455   5.286   0.563   2.114
 5186SOL     OW16456   6.707   2.952   5.667
 5186SOL    HW116457   6.771   3.018   5.707
 5186SOL    HW216458   6.730   2.860   5.698
 5187SOL     OW16459   2.159   5.002   4.912
 5187SOL    HW116460   2.168   4.936   4.837
 5187SOL    HW216461   2.170   4.954   4.999
 5188SOL     OW16462   0.045   6.409   1.408
 5188SOL    HW116463   0.022   6.465   1.328
 5188SOL    HW216464   0.089   6.467   1.477
 5189SOL     OW16465   5.792   0.553   6.340
 5189SOL    HW116466   5.719   0.621   6.333
 5189SOL    HW216467   5.800   0.524   6.435
 5190SOL     OW16468   2.084   3.071   1.979
 5190SOL    HW116469   1.999   3.100   1.933
 5190SOL    HW216470   2.108   3.137   2.049
 5191SOL     OW16471   2.764   5.554   2.347
 5191SOL    HW116472   2.792   5.500   2.268
 5191SOL    HW216473   2.793   5.507   2.431
 5192SOL     OW16474   2.000   5.356   1.452
 5192SOL    HW116475   1.960   5.431   1.506
 5192SOL    HW216476   1.927   5.308   1.404
 5193SOL     OW16477   5.200   0.625   6.549
 5193SOL    HW116478   5.164   0.534   6.527
 5193SOL    HW216479   5.252   0.620   6.634
 5194SOL     OW16480   4.261   1.736   6.927
 5194SOL    HW116481   4.341   1.716   6.871
 5194SOL    HW216482   4.278   1.817   6.982
 5195SOL     OW16483   0.035   0.538   3.935
 5195SOL    HW116484   0.007   0.549   4.031
 5195SOL    HW216485   0.032   0.626   3.889
 5196SOL     OW16486   4.267   0.208   3.338
 5196SOL    HW116487   4.223   0.152   3.267
 5196SOL    HW216488   4.207   0.216   3.417
 5197SOL     OW16489   1.257   4.060   5.823
 5197SOL    HW116490   1.168   4.064   5.778
 5197SOL    HW216491   1.322   4.118   5.774
 5198SOL     OW16492   5.201   5.884   2.700
 5198SOL    HW116493   5.119   5.935   2.727
 5198SOL    HW216494   5.274   5.949   2.677
 5199SOL     OW16495   6.871   5.184   0.847
 5199SOL    HW116496   6.790   5.177   0.905
 5199SOL    HW216497   6.881   5.100   0.793
 5200SOL     OW16498   0.355   4.216   5.383
 5200SOL    HW116499   0.364   4.213   5.482
 5200SOL    HW216500   0.393   4.302   5.348
 5201SOL     OW16501   1.375   5.929   3.802
 5201SOL    HW116502   1.305   5.857   3.802
 5201SOL    HW216503   1.460   5.894   3.763
 5202SOL     OW16504   6.582   3.365   7.006
 5202SOL    HW116505   6.585   3.386   0.085
 5202SOL    HW216506   6.503   3.307   6.987
 5203SOL     OW16507   0.658   2.895   6.644
 5203SOL    HW116508   0.742   2.845   6.621
 5203SOL    HW216509   0.582   2.831   6.649
 5204SOL     OW16510   4.285   4.863   0.447
 5204SOL    HW116511   4.267   4.932   0.517
 5204SOL    HW216512   4.329   4.905   0.368
 5205SOL     OW16513   2.055   0.437   1.266
 5205SOL    HW116514   2.121   0.363   1.263
 5205SOL    HW216515   1.964   0.403   1.242
 5206SOL     OW16516   0.057   4.284   6.907
 5206SOL    HW116517   7.002   4.247   6.964
 5206SOL    HW216518   0.020   4.357   6.849
 5207SOL     OW16519   1.731   5.380   4.008
 5207SOL    HW116520   1.794   5.393   4.084
 5207SOL    HW216521   1.715   5.467   3.962
 5208SOL     OW16522   3.800   0.713   0.553
 5208SOL    HW116523   3.885   0.689   0.506
 5208SOL    HW216524   3.820   0.751   0.643
 5209SOL     OW16525   6.078   6.171   3.475
 5209SOL    HW116526   6.114   6.262   3.456
 5209SOL    HW216527   5.979   6.169   3.458
 5210SOL     OW16528   5.252   3.586   4.659
 5210SOL    HW116529   5.156   3.612   4.655
 5210SOL    HW216530   5.260   3.493   4.696
 5211SOL     OW16531   3.158   3.417   3.802
 5211SOL    HW116532   3.173   3.461   3.714
 5211SOL    HW216533   3.066   3.378   3.805
 5212SOL     OW16534   0.233   2.588   0.066
 5212SOL    HW116535   0.227   2.489   0.075
 5212SOL    HW216536   0.191   2.631   0.146
 5213SOL     OW16537   5.064   2.838   5.833
 5213SOL    HW116538   5.060   2.848   5.733
 5213SOL    HW216539   4.998   2.770   5.863
 5214SOL     OW16540   5.567   2.403   5.350
 5214SOL    HW116541   5.503   2.335   5.388
 5214SOL    HW216542   5.659   2.365   5.349
 5215SOL     OW16543   5.411   4.596   3.634
 5215SOL    HW116544   5.486   4.631   3.689
 5215SOL    HW216545   5.365   4.671   3.587
 5216SOL     OW16546   5.287   4.867   1.550
 5216SOL    HW116547   5.239   4.800   1.495
 5216SOL    HW216548   5.256   4.959   1.528
 5217SOL     OW16549   3.291   5.368   3.916
 5217SOL    HW116550   3.229   5.441   3.944
 5217SOL    HW216551   3.237   5.288   3.890
 5218SOL     OW16552   1.831   0.090   4.175
 5218SOL    HW116553   1.876   0.018   4.226
 5218SOL    HW216554   1.857   0.179   4.212
 5219SOL     OW16555   3.700   0.122   6.826
 5219SOL    HW116556   3.639   0.069   6.767
 5219SOL    HW216557   3.752   0.060   6.884
 5220SOL     OW16558   1.170   5.441   1.901
 5220SOL    HW116559   1.178   5.346   1.931
 5220SOL    HW216560   1.170   5.444   1.801
 5221SOL     OW16561   5.483   1.975   4.398
 5221SOL    HW116562   5.451   2.019   4.314
 5221SOL    HW216563   5.410   1.920   4.438
 5222SOL     OW16564   2.179   0.320   3.961
 5222SOL    HW116565   2.185   0.249   3.891
 5222SOL    HW216566   2.154   0.279   4.049
 5223SOL     OW16567   4.752   6.924   1.219
 5223SOL    HW116568   4.785   6.833   1.243
 5223SOL    HW216569   4.674   6.948   1.276
 5224SOL     OW16570   0.021   2.889   2.786
 5224SOL    HW116571   6.962   2.938   2.746
 5224SOL    HW216572   7.006   2.818   2.847
 5225SOL     OW16573   6.847   0.695   3.240
 5225SOL    HW116574   6.788   0.746   3.302
 5225SOL    HW216575   6.863   0.603   3.276
 5226SOL     OW16576   0.815   6.239   4.456
 5226SOL    HW116577   0.730   6.216   4.409
 5226SOL    HW216578   0.795   6.263   4.551
 5227SOL     OW16579   6.710   4.994   3.783
 5227SOL    HW116580   6.729   4.897   3.767
 5227SOL    HW216581   6.792   5.048   3.762
 5228SOL     OW16582   6.046   2.042   0.639
 5228SOL    HW116583   5.987   1.969   0.603
 5228SOL    HW216584   5.994   2.100   0.702
 5229SOL     OW16585   1.120   4.376   6.806
 5229SOL    HW116586   1.057   4.393   6.730
 5229SOL    HW216587   1.147   4.462   6.847
 5230SOL     OW16588   0.504   0.238   1.373
 5230SOL    HW116589   0.481   0.141   1.381
 5230SOL    HW216590   0.600   0.251   1.400
 5231SOL     OW16591   3.662   2.891   4.459
 5231SOL    HW116592   3.638   2.863   4.552
 5231SOL    HW216593   3.760   2.912   4.454
 5232SOL     OW16594   4.085   1.911   6.383
 5232SOL    HW116595   4.108   2.008   6.377
 5232SOL    HW216596   4.125   1.872   6.466
 5233SOL     OW16597   6.528   6.514   1.717
 5233SOL    HW116598   6.620   6.476   1.704
 5233SOL    HW216599   6.520   6.599   1.665
 5234SOL     OW16600   3.172   0.791   0.474
 5234SOL    HW116601   3.190   0.844   0.557
 5234SOL    HW216602   3.087   0.740   0.486
 5235SOL     OW16603   1.317   2.816   0.757
 5235SOL    HW116604   1.289   2.743   0.694
 5235SOL    HW216605   1.302   2.786   0.851
 5236SOL     OW16606   5.468   2.694   1.427
 5236SOL    HW116607   5.508   2.613   1.384
 5236SOL    HW216608   5.457   2.678   1.525
 5237SOL     OW16609   2.881   2.111   5.477
 5237SOL    HW116610   2.866   2.034   5.414
 5237SOL    HW216611   2.892   2.195   5.424
 5238SOL     OW16612   1.446   5.006   0.275
 5238SOL    HW116613   1.484   4.936   0.335
 5238SOL    HW216614   1.521   5.060   0.236
 5239SOL     OW16615   3.247   3.755   4.346
 5239SOL    HW116616   3.290   3.736   4.257
 5239SOL    HW216617   3.233   3.669   4.395
 5240SOL     OW16618   3.239   2.027   5.363
 5240SOL    HW116619   3.212   2.007   5.268
 5240SOL    HW216620   3.271   2.122   5.369
 5241SOL     OW16621   0.596   6.261   6.766
 5241SOL    HW116622   0.614   6.210   6.851
 5241SOL    HW216623   0.562   6.198   6.696
 5242SOL     OW16624   6.393   1.465   5.701
 5242SOL    HW116625   6.348   1.380   5.731
 5242SOL    HW216626   6.326   1.539   5.698
 5243SOL     OW16627   0.865   6.151   0.776
 5243SOL    HW116628   0.893   6.204   0.856
 5243SOL    HW216629   0.860   6.212   0.696
 5244SOL     OW16630   3.810   3.911   5.806
 5244SOL    HW116631   3.799   3.906   5.905
 5244SOL    HW216632   3.748   3.846   5.762
 5245SOL     OW16633   4.302   3.962   5.808
 5245SOL    HW116634   4.260   3.943   5.720
 5245SOL    HW216635   4.320   3.876   5.856
 5246SOL     OW16636   0.417   3.492   2.712
 5246SOL    HW116637   0.328   3.467   2.748
 5246SOL    HW216638   0.470   3.538   2.783
 5247SOL     OW16639   0.405   6.094   6.934
 5247SOL    HW116640   0.475   6.128   6.996
 5247SOL    HW216641   0.414   6.140   6.846
 5248SOL     OW16642   5.570   0.465   5.744
 5248SOL    HW116643   5.557   0.564   5.737
 5248SOL    HW216644   5.597   0.441   5.837
 5249SOL     OW16645   1.247   5.194   4.244
 5249SOL    HW116646   1.257   5.191   4.145
 5249SOL    HW216647   1.291   5.278   4.279
 5250SOL     OW16648   0.327   1.595   6.155
 5250SOL    HW116649   0.301   1.628   6.246
 5250SOL    HW216650   0.253   1.614   6.090
 5251SOL     OW16651   6.941   3.059   1.236
 5251SOL    HW116652   6.924   3.156   1.254
 5251SOL    HW216653   6.914   3.037   1.142
 5252SOL     OW16654   2.407   5.675   1.242
 5252SOL    HW116655   2.334   5.608   1.229
 5252SOL    HW216656   2.372   5.754   1.292
 5253SOL     OW16657   5.979   3.311   4.694
 5253SOL    HW116658   5.945   3.376   4.762
 5253SOL    HW216659   6.059   3.349   4.649
 5254SOL     OW16660   4.930   1.259   3.721
 5254SOL    HW116661   4.999   1.252   3.792
 5254SOL    HW216662   4.913   1.169   3.682
 5255SOL     OW16663   4.155   7.011   4.534
 5255SOL    HW116664   4.125   6.944   4.467
 5255SOL    HW216665   4.101   0.077   4.524
 5256SOL     OW16666   4.758   1.276   3.001
 5256SOL    HW116667   4.767   1.352   2.937
 5256SOL    HW216668   4.664   1.272   3.035
 5257SOL     OW16669   3.706   6.645   1.825
 5257SOL    HW116670   3.742   6.738   1.816
 5257SOL    HW216671   3.607   6.649   1.840
 5258SOL     OW16672   4.926   4.117   1.958
 5258SOL    HW116673   4.879   4.193   2.002
 5258SOL    HW216674   4.999   4.083   2.018
 5259SOL     OW16675   4.608   5.922   2.092
 5259SOL    HW116676   4.529   5.881   2.137
 5259SOL    HW216677   4.631   6.009   2.136
 5260SOL     OW16678   5.062   3.630   0.973
 5260SOL    HW116679   5.023   3.567   1.040
 5260SOL    HW216680   5.004   3.634   0.892
 5261SOL     OW16681   0.895   2.243   5.181
 5261SOL    HW116682   0.917   2.202   5.092
 5261SOL    HW216683   0.977   2.245   5.238
 5262SOL     OW16684   2.778   0.193   2.554
 5262SOL    HW116685   2.828   0.128   2.611
 5262SOL    HW216686   2.776   0.159   2.460
 5263SOL     OW16687   1.949   0.309   6.053
 5263SOL    HW116688   1.884   0.377   6.018
 5263SOL    HW216689   1.898   0.231   6.090
 5264SOL     OW16690   6.477   1.345   1.037
 5264SOL    HW116691   6.496   1.375   1.130
 5264SOL    HW216692   6.396   1.392   1.002
 5265SOL     OW16693   5.579   4.030   2.692
 5265SOL    HW116694   5.552   3.953   2.634
 5265SOL    HW216695   5.617   4.102   2.634
 5266SOL     OW16696   2.482   6.511   1.301
 5266SOL    HW116697   2.508   6.608   1.305
 5266SOL    HW216698   2.430   6.487   1.383
 5267SOL     OW16699   4.424   4.820   6.084
 5267SOL    HW116700   4.357   4.811   6.010
 5267SOL    HW216701   4.505   4.869   6.051
 5268SOL     OW16702   6.428   5.952   5.218
 5268SOL    HW116703   6.497   6.023   5.208
 5268SOL    HW216704   6.347   5.976   5.164
 5269SOL     OW16705   2.202   5.292   3.632
 5269SOL    HW116706   2.103   5.302   3.643
 5269SOL    HW216707   2.249   5.349   3.700
 5270SOL     OW16708   5.081   2.187   1.274
 5270SOL    HW116709   5.110   2.237   1.355
 5270SOL    HW216710   5.054   2.094   1.299
 5271SOL     OW16711   4.332   5.080   4.836
 5271SOL    HW116712   4.235   5.082   4.861
 5271SOL    HW216713   4.341   5.097   4.738
 5272SOL     OW16714   1.093   5.926   4.709
 5272SOL    HW116715   1.179   5.946   4.756
 5272SOL    HW216716   1.080   5.992   4.635
 5273SOL     OW16717   1.015   2.719   3.905
 5273SOL    HW116718   0.972   2.638   3.864
 5273SOL    HW216719   1.109   2.726   3.874
 5274SOL     OW16720   6.476   4.860   3.494
 5274SOL    HW116721   6.567   4.878   3.531
 5274SOL    HW216722   6.454   4.763   3.505
 5275SOL     OW16723   3.396   0.335   6.475
 5275SOL    HW116724   3.450   0.409   6.513
 5275SOL    HW216725   3.390   0.260   6.541
 5276SOL     OW16726   0.195   6.383   0.624
 5276SOL    HW116727   0.294   6.394   0.635
 5276SOL    HW216728   0.173   6.377   0.526
 5277SOL     OW16729   2.153   1.541   3.202
 5277SOL    HW116730   2.054   1.553   3.212
 5277SOL    HW216731   2.189   1.607   3.137
 5278SOL     OW16732   5.415   6.382   6.141
 5278SOL    HW116733   5.405   6.476   6.109
 5278SOL    HW216734   5.460   6.327   6.070
 5279SOL     OW16735   1.098   5.837   6.642
 5279SOL    HW116736   1.094   5.887   6.728
 5279SOL    HW216737   1.005   5.823   6.608
 5280SOL     OW16738   3.806   6.221   5.027
 5280SOL    HW116739   3.892   6.247   5.070
 5280SOL    HW216740   3.730   6.258   5.079
 5281SOL     OW16741   0.655   0.882   4.622
 5281SOL    HW116742   0.673   0.961   4.682
 5281SOL    HW216743   0.741   0.833   4.606
 5282SOL     OW16744   1.761   0.414   2.426
 5282SOL    HW116745   1.700   0.424   2.347
 5282SOL    HW216746   1.805   0.501   2.446
 5283SOL     OW16747   1.561   0.423   3.731
 5283SOL    HW116748   1.577   0.521   3.722
 5283SOL    HW216749   1.646   0.374   3.718
 5284SOL     OW16750   5.166   2.392   2.396
 5284SOL    HW116751   5.095   2.328   2.367
 5284SOL    HW216752   5.251   2.341   2.414
 5285SOL     OW16753   0.966   3.567   3.604
 5285SOL    HW116754   0.915   3.557   3.689
 5285SOL    HW216755   1.022   3.649   3.608
 5286SOL     OW16756   6.456   3.475   0.741
 5286SOL    HW116757   6.380   3.497   0.681
 5286SOL    HW216758   6.538   3.525   0.711
 5287SOL     OW16759   2.955   5.261   1.845
 5287SOL    HW116760   2.958   5.204   1.763
 5287SOL    HW216761   2.863   5.260   1.883
 5288SOL     OW16762   4.889   0.061   2.567
 5288SOL    HW116763   4.853   0.137   2.621
 5288SOL    HW216764   4.847   6.994   2.598
 5289SOL     OW16765   2.117   4.930   0.153
 5289SOL    HW116766   2.148   4.839   0.128
 5289SOL    HW216767   2.134   4.993   0.077
 5290SOL     OW16768   1.979   4.510   5.406
 5290SOL    HW116769   2.011   4.561   5.326
 5290SOL    HW216770   1.938   4.424   5.376
 5291SOL     OW16771   3.072   4.391   5.744
 5291SOL    HW116772   3.104   4.477   5.703
 5291SOL    HW216773   3.147   4.325   5.745
 5292SOL     OW16774   6.309   4.086   5.980
 5292SOL    HW116775   6.373   4.020   5.940
 5292SOL    HW216776   6.262   4.135   5.907
 5293SOL     OW16777   2.113   5.909   4.459
 5293SOL    HW116778   2.181   5.924   4.387
 5293SOL    HW216779   2.021   5.919   4.419
 5294SOL     OW16780   4.379   1.405   5.733
 5294SOL    HW116781   4.412   1.369   5.820
 5294SOL    HW216782   4.454   1.450   5.685
 5295SOL     OW16783   3.673   0.777   3.748
 5295SOL    HW116784   3.682   0.874   3.724
 5295SOL    HW216785   3.643   0.726   3.668
 5296SOL     OW16786   3.398   4.034   0.319
 5296SOL    HW116787   3.412   4.052   0.221
 5296SOL    HW216788   3.342   3.952   0.330
 5297SOL     OW16789   2.128   3.304   0.846
 5297SOL    HW116790   2.215   3.350   0.827
 5297SOL    HW216791   2.088   3.272   0.760
 5298SOL     OW16792   2.366   6.111   6.674
 5298SOL    HW116793   2.443   6.158   6.631
 5298SOL    HW216794   2.375   6.115   6.773
 5299SOL     OW16795   2.894   2.713   0.682
 5299SOL    HW116796   2.974   2.763   0.648
 5299SOL    HW216797   2.875   2.742   0.776
 5300SOL     OW16798   0.709   5.012   0.881
 5300SOL    HW116799   0.694   4.984   0.976
 5300SOL    HW216800   0.638   5.078   0.855
 5301SOL     OW16801   4.118   0.323   6.967
 5301SOL    HW116802   4.056   0.271   6.909
 5301SOL    HW216803   4.136   0.271   0.033
 5302SOL     OW16804   5.415   6.453   3.788
 5302SOL    HW116805   5.426   6.363   3.745
 5302SOL    HW216806   5.491   6.468   3.852
 5303SOL     OW16807   0.154   5.119   4.941
 5303SOL    HW116808   0.157   5.217   4.921
 5303SOL    HW216809   0.147   5.104   5.040
 5304SOL     OW16810   5.716   0.832   0.426
 5304SOL    HW116811   5.662   0.762   0.379
 5304SOL    HW216812   5.806   0.795   0.447
 5305SOL     OW16813   0.978   5.351   2.774
 5305SOL    HW116814   0.998   5.440   2.734
 5305SOL    HW216815   1.057   5.291   2.764
 5306SOL     OW16816   0.519   4.476   5.596
 5306SOL    HW116817   0.609   4.439   5.619
 5306SOL    HW216818   0.481   4.522   5.675
 5307SOL     OW16819   4.451   1.815   0.292
 5307SOL    HW116820   4.485   1.722   0.305
 5307SOL    HW216821   4.353   1.812   0.273
 5308SOL     OW16822   1.259   4.513   2.095
 5308SOL    HW116823   1.194   4.589   2.098
 5308SOL    HW216824   1.267   4.479   2.001
 5309SOL     OW16825   3.425   5.009   2.309
 5309SOL    HW116826   3.335   4.988   2.271
 5309SOL    HW216827   3.490   5.024   2.235
 5310SOL     OW16828   6.404   3.889   2.245
 5310SOL    HW116829   6.449   3.972   2.277
 5310SOL    HW216830   6.318   3.876   2.294
 5311SOL     OW16831   5.388   6.847   6.621
 5311SOL    HW116832   5.304   6.893   6.650
 5311SOL    HW216833   5.383   6.751   6.645
 5312SOL     OW16834   0.070   5.496   2.054
 5312SOL    HW116835   0.029   5.412   2.018
 5312SOL    HW216836   0.042   5.509   2.149
 5313SOL     OW16837   1.032   4.104   5.693
 5313SOL    HW116838   0.948   4.049   5.696
 5313SOL    HW216839   1.009   4.201   5.695
 5314SOL     OW16840   4.078   6.858   0.453
 5314SOL    HW116841   4.109   6.818   0.539
 5314SOL    HW216842   4.127   6.816   0.377
 5315SOL     OW16843   5.267   2.928   2.820
 5315SOL    HW116844   5.336   2.894   2.884
 5315SOL    HW216845   5.222   3.008   2.859
 5316SOL     OW16846   1.392   3.788   5.552
 5316SOL    HW116847   1.293   3.800   5.544
 5316SOL    HW216848   1.414   3.749   5.641
 5317SOL     OW16849   6.490   1.811   5.920
 5317SOL    HW116850   6.536   1.745   5.863
 5317SOL    HW216851   6.396   1.823   5.888
 5318SOL     OW16852   0.585   2.756   0.511
 5318SOL    HW116853   0.513   2.769   0.579
 5318SOL    HW216854   0.545   2.755   0.419
 5319SOL     OW16855   4.381   5.991   1.081
 5319SOL    HW116856   4.388   6.091   1.090
 5319SOL    HW216857   4.423   5.962   0.995
 5320SOL     OW16858   4.257   5.500   0.969
 5320SOL    HW116859   4.204   5.568   1.019
 5320SOL    HW216860   4.355   5.521   0.977
 5321SOL     OW16861   2.358   4.446   5.127
 5321SOL    HW116862   2.340   4.443   5.028
 5321SOL    HW216863   2.331   4.359   5.168
 5322SOL     OW16864   5.470   6.575   0.006
 5322SOL    HW116865   5.488   6.559   0.103
 5322SOL    HW216866   5.388   6.632   7.014
 5323SOL     OW16867   3.693   1.316   5.344
 5323SOL    HW116868   3.738   1.261   5.415
 5323SOL    HW216869   3.601   1.280   5.329
 5324SOL     OW16870   3.507   2.242   0.530
 5324SOL    HW116871   3.428   2.279   0.481
 5324SOL    HW216872   3.489   2.146   0.554
 5325SOL     OW16873   3.849   0.909   4.614
 5325SOL    HW116874   3.858   0.846   4.536
 5325SOL    HW216875   3.937   0.916   4.660
 5326SOL     OW16876   6.661   5.646   3.134
 5326SOL    HW116877   6.663   5.558   3.087
 5326SOL    HW216878   6.748   5.694   3.120
 5327SOL     OW16879   5.932   2.573   5.128
 5327SOL    HW116880   5.856   2.591   5.192
 5327SOL    HW216881   6.010   2.630   5.153
 5328SOL     OW16882   3.224   3.958   6.261
 5328SOL    HW116883   3.293   3.905   6.211
 5328SOL    HW216884   3.146   3.975   6.200
 5329SOL     OW16885   0.758   5.070   6.738
 5329SOL    HW116886   0.690   5.049   6.808
 5329SOL    HW216887   0.764   4.994   6.673
 5330SOL     OW16888   3.794   4.151   0.385
 5330SOL    HW116889   3.744   4.165   0.300
 5330SOL    HW216890   3.890   4.132   0.365
 5331SOL     OW16891   5.781   1.865   6.337
 5331SOL    HW116892   5.717   1.879   6.262
 5331SOL    HW216893   5.738   1.890   6.424
 5332SOL     OW16894   1.281   3.198   1.540
 5332SOL    HW116895   1.381   3.207   1.540
 5332SOL    HW216896   1.247   3.199   1.634
 5333SOL     OW16897   0.933   1.097   3.003
 5333SOL    HW116898   0.853   1.124   2.951
 5333SOL    HW216899   0.994   1.175   3.014
 5334SOL     OW16900   3.189   0.604   4.448
 5334SOL    HW116901   3.160   0.654   4.529
 5334SOL    HW216902   3.160   0.508   4.454
 5335SOL     OW16903   0.182   5.910   0.678
 5335SOL    HW116904   0.161   5.814   0.657
 5335SOL    HW216905   0.235   5.950   0.604
 5336SOL     OW16906   2.107   3.359   2.758
 5336SOL    HW116907   2.072   3.291   2.694
 5336SOL    HW216908   2.080   3.334   2.851
 5337SOL     OW16909   5.090   4.443   1.106
 5337SOL    HW116910   5.154   4.368   1.088
 5337SOL    HW216911   5.001   4.406   1.131
 5338SOL     OW16912   5.796   1.481   0.582
 5338SOL    HW116913   5.790   1.470   0.483
 5338SOL    HW216914   5.876   1.537   0.605
 5339SOL     OW16915   6.622   1.253   4.072
 5339SOL    HW116916   6.626   1.189   4.149
 5339SOL    HW216917   6.653   1.343   4.102
 5340SOL     OW16918   5.342   4.314   0.988
 5340SOL    HW116919   5.401   4.247   0.943
 5340SOL    HW216920   5.397   4.389   1.023
 5341SOL     OW16921   3.955   2.714   6.680
 5341SOL    HW116922   3.965   2.738   6.583
 5341SOL    HW216923   3.951   2.615   6.689
 5342SOL     OW16924   3.473   0.699   4.317
 5342SOL    HW116925   3.408   0.639   4.270
 5342SOL    HW216926   3.429   0.786   4.339
 5343SOL     OW16927   3.651   3.585   4.034
 5343SOL    HW116928   3.702   3.668   4.058
 5343SOL    HW216929   3.602   3.600   3.948
 5344SOL     OW16930   2.073   2.127   2.520
 5344SOL    HW116931   2.073   2.226   2.537
 5344SOL    HW216932   2.098   2.111   2.424
 5345SOL     OW16933   4.076   6.654   1.985
 5345SOL    HW116934   4.173   6.630   1.988
 5345SOL    HW216935   4.021   6.571   1.976
 5346SOL     OW16936   3.232   6.337   3.990
 5346SOL    HW116937   3.309   6.275   3.977
 5346SOL    HW216938   3.147   6.285   3.986
 5347SOL     OW16939   0.272   2.788   2.094
 5347SOL    HW116940   0.293   2.776   1.997
 5347SOL    HW216941   0.355   2.811   2.144
 5348SOL     OW16942   0.577   1.104   0.725
 5348SOL    HW116943   0.606   1.010   0.706
 5348SOL    HW216944   0.643   1.168   0.685
 5349SOL     OW16945   1.000   2.257   0.202
 5349SOL    HW116946   1.034   2.347   0.176
 5349SOL    HW216947   1.034   2.189   0.138
 5350SOL     OW16948   1.892   0.057   6.169
 5350SOL    HW116949   1.849   6.993   6.205
 5350SOL    HW216950   1.960   0.091   6.235
 5351SOL     OW16951   5.717   5.493   1.766
 5351SOL    HW116952   5.620   5.469   1.769
 5351SOL    HW216953   5.770   5.422   1.812
 5352SOL     OW16954   1.689   5.549   4.362
 5352SOL    HW116955   1.661   5.624   4.302
 5352SOL    HW216956   1.770   5.504   4.324
 5353SOL     OW16957   3.067   5.878   4.683
 5353SOL    HW116958   3.148   5.937   4.675
 5353SOL    HW216959   3.090   5.785   4.656
 5354SOL     OW16960   1.833   5.188   1.808
 5354SOL    HW116961   1.763   5.207   1.877
 5354SOL    HW216962   1.878   5.273   1.783
 5355SOL     OW16963   4.855   2.420   3.920
 5355SOL    HW116964   4.781   2.484   3.898
 5355SOL    HW216965   4.942   2.461   3.894
 5356SOL     OW16966   5.786   4.450   1.694
 5356SOL    HW116967   5.687   4.443   1.681
 5356SOL    HW216968   5.832   4.383   1.636
 5357SOL     OW16969   2.877   0.144   1.086
 5357SOL    HW116970   2.939   0.071   1.113
 5357SOL    HW216971   2.905   0.230   1.130
 5358SOL     OW16972   4.077   1.422   0.959
 5358SOL    HW116973   4.133   1.472   0.892
 5358SOL    HW216974   4.076   1.325   0.934
 5359SOL     OW16975   2.103   1.854   0.020
 5359SOL    HW116976   2.023   1.808   0.057
 5359SOL    HW216977   2.083   1.951   0.005
 5360SOL     OW16978   4.286   6.644   4.822
 5360SOL    HW116979   4.219   6.570   4.818
 5360SOL    HW216980   4.264   6.705   4.898
 5361SOL     OW16981   2.243   6.887   4.555
 5361SOL    HW116982   2.187   6.821   4.605
 5361SOL    HW216983   2.339   6.871   4.575
 5362SOL     OW16984   5.079   4.404   3.622
 5362SOL    HW116985   5.053   4.342   3.696
 5362SOL    HW216986   5.176   4.429   3.631
 5363SOL     OW16987   0.812   6.251   6.119
 5363SOL    HW116988   0.852   6.244   6.027
 5363SOL    HW216989   0.873   6.306   6.177
 5364SOL     OW16990   0.022   5.905   1.394
 5364SOL    HW116991   0.062   5.856   1.471
 5364SOL    HW216992   0.055   5.999   1.393
 5365SOL     OW16993   3.786   3.220   6.915
 5365SOL    HW116994   3.838   3.151   6.965
 5365SOL    HW216995   3.806   3.310   6.953
 5366SOL     OW16996   5.261   5.216   1.736
 5366SOL    HW116997   5.271   5.139   1.799
 5366SOL    HW216998   5.240   5.182   1.644
 5367SOL     OW16999   0.499   5.186   0.800
 5367SOL    HW117000   0.516   5.268   0.745
 5367SOL    HW217001   0.442   5.210   0.879
 5368SOL     OW17002   5.040   0.903   3.158
 5368SOL    HW117003   5.099   0.863   3.088
 5368SOL    HW217004   4.960   0.945   3.115
 5369SOL     OW17005   3.296   6.291   3.287
 5369SOL    HW117006   3.360   6.261   3.359
 5369SOL    HW217007   3.320   6.383   3.257
 5370SOL     OW17008   3.841   3.062   1.383
 5370SOL    HW117009   3.835   3.158   1.411
 5370SOL    HW217010   3.763   3.039   1.325
 5371SOL     OW17011   1.788   3.476   4.155
 5371SOL    HW117012   1.777   3.486   4.056
 5371SOL    HW217013   1.732   3.399   4.187
 5372SOL     OW17014   2.532   5.702   3.294
 5372SOL    HW117015   2.538   5.642   3.374
 5372SOL    HW217016   2.535   5.648   3.210
 5373SOL     OW17017   3.006   5.247   4.142
 5373SOL    HW117018   3.012   5.216   4.047
 5373SOL    HW217019   2.938   5.193   4.190
 5374SOL     OW17020   0.702   3.626   6.762
 5374SOL    HW117021   0.663   3.558   6.699
 5374SOL    HW217022   0.770   3.681   6.713
 5375SOL     OW17023   1.807   4.525   4.721
 5375SOL    HW117024   1.816   4.624   4.725
 5375SOL    HW217025   1.718   4.498   4.759
 5376SOL     OW17026   2.073   2.910   0.848
 5376SOL    HW117027   2.145   2.856   0.891
 5376SOL    HW217028   2.087   2.913   0.749
 5377SOL     OW17029   0.242   6.911   1.318
 5377SOL    HW117030   0.167   6.951   1.266
 5377SOL    HW217031   0.235   6.938   1.413
 5378SOL     OW17032   0.196   0.376   1.125
 5378SOL    HW117033   0.117   0.437   1.119
 5378SOL    HW217034   0.275   0.427   1.158
 5379SOL     OW17035   0.897   5.251   5.116
 5379SOL    HW117036   0.864   5.343   5.095
 5379SOL    HW217037   0.828   5.203   5.170
 5380SOL     OW17038   1.960   1.024   3.392
 5380SOL    HW117039   1.951   0.948   3.456
 5380SOL    HW217040   1.968   0.988   3.299
 5381SOL     OW17041   6.440   4.363   0.524
 5381SOL    HW117042   6.375   4.427   0.484
 5381SOL    HW217043   6.421   4.270   0.491
 5382SOL     OW17044   3.274   0.341   2.079
 5382SOL    HW117045   3.213   0.273   2.039
 5382SOL    HW217046   3.320   0.391   2.006
 5383SOL     OW17047   2.613   2.545   5.236
 5383SOL    HW117048   2.585   2.600   5.157
 5383SOL    HW217049   2.654   2.605   5.305
 5384SOL     OW17050   5.920   0.585   4.141
 5384SOL    HW117051   5.976   0.645   4.198
 5384SOL    HW217052   5.844   0.638   4.102
 5385SOL     OW17053   2.952   3.482   3.347
 5385SOL    HW117054   2.912   3.547   3.411
 5385SOL    HW217055   3.022   3.527   3.292
 5386SOL     OW17056   4.356   0.093   4.294
 5386SOL    HW117057   4.361   7.012   4.307
 5386SOL    HW217058   4.430   0.122   4.233
 5387SOL     OW17059   2.489   5.949   3.424
 5387SOL    HW117060   2.533   6.004   3.353
 5387SOL    HW217061   2.492   5.852   3.398
 5388SOL     OW17062   5.476   0.036   3.229
 5388SOL    HW117063   5.388   0.048   3.276
 5388SOL    HW217064   5.548   0.082   3.280
 5389SOL     OW17065   5.293   0.860   1.647
 5389SOL    HW117066   5.324   0.824   1.559
 5389SOL    HW217067   5.295   0.960   1.644
 5390SOL     OW17068   4.456   4.694   3.695
 5390SOL    HW117069   4.468   4.600   3.663
 5390SOL    HW217070   4.409   4.747   3.625
 5391SOL     OW17071   1.764   2.113   0.834
 5391SOL    HW117072   1.825   2.071   0.901
 5391SOL    HW217073   1.750   2.049   0.758
 5392SOL     OW17074   5.666   3.356   0.989
 5392SOL    HW117075   5.616   3.328   1.071
 5392SOL    HW217076   5.683   3.276   0.931
 5393SOL     OW17077   5.768   6.753   6.341
 5393SOL    HW117078   5.751   6.676   6.279
 5393SOL    HW217079   5.681   6.794   6.368
 5394SOL     OW17080   6.836   3.933   6.803
 5394SOL    HW117081   6.845   3.941   6.902
 5394SOL    HW217082   6.889   4.005   6.758
 5395SOL     OW17083   5.126   1.169   1.880
 5395SOL    HW117084   5.042   1.218   1.906
 5395SOL    HW217085   5.181   1.153   1.962
 5396SOL     OW17086   5.121   4.073   2.600
 5396SOL    HW117087   5.029   4.105   2.624
 5396SOL    HW217088   5.122   3.973   2.599
 5397SOL     OW17089   6.556   2.759   1.846
 5397SOL    HW117090   6.558   2.857   1.826
 5397SOL    HW217091   6.535   2.745   1.943
 5398SOL     OW17092   3.182   1.892   2.558
 5398SOL    HW117093   3.121   1.813   2.552
 5398SOL    HW217094   3.177   1.944   2.472
 5399SOL     OW17095   2.645   6.117   6.926
 5399SOL    HW117096   2.686   6.071   6.848
 5399SOL    HW217097   2.698   6.199   6.948
 5400SOL     OW17098   2.560   4.086   0.884
 5400SOL    HW117099   2.542   3.992   0.910
 5400SOL    HW217100   2.524   4.104   0.793
 5401SOL     OW17101   5.623   3.525   1.815
 5401SOL    HW117102   5.693   3.596   1.824
 5401SOL    HW217103   5.655   3.455   1.751
 5402SOL     OW17104   2.402   5.408   1.560
 5402SOL    HW117105   2.326   5.409   1.625
 5402SOL    HW217106   2.486   5.438   1.607
 5403SOL     OW17107   5.914   2.969   6.350
 5403SOL    HW117108   5.958   3.031   6.286
 5403SOL    HW217109   5.924   2.875   6.317
 5404SOL     OW17110   0.551   1.399   3.023
 5404SOL    HW117111   0.501   1.353   3.097
 5404SOL    HW217112   0.487   1.453   2.969
 5405SOL     OW17113   6.090   5.438   0.029
 5405SOL    HW117114   6.019   5.489   0.077
 5405SOL    HW217115   6.071   5.340   0.035
 5406SOL     OW17116   2.481   1.935   6.712
 5406SOL    HW117117   2.452   2.028   6.688
 5406SOL    HW217118   2.487   1.927   6.812
 5407SOL     OW17119   4.709   3.122   1.159
 5407SOL    HW117120   4.722   3.166   1.070
 5407SOL    HW217121   4.721   3.189   1.232
 5408SOL     OW17122   3.225   1.435   6.407
 5408SOL    HW117123   3.275   1.504   6.354
 5408SOL    HW217124   3.140   1.412   6.360
 5409SOL     OW17125   5.019   0.618   3.848
 5409SOL    HW117126   5.070   0.599   3.765
 5409SOL    HW217127   4.950   0.688   3.829
 5410SOL     OW17128   2.702   2.166   1.607
 5410SOL    HW117129   2.788   2.166   1.659
 5410SOL    HW217130   2.707   2.095   1.536
 5411SOL     OW17131   6.606   5.381   5.605
 5411SOL    HW117132   6.552   5.386   5.522
 5411SOL    HW217133   6.704   5.377   5.582
 5412SOL     OW17134   5.012   1.507   0.328
 5412SOL    HW117135   5.060   1.420   0.331
 5412SOL    HW217136   4.938   1.507   0.395
 5413SOL     OW17137   2.815   1.743   1.141
 5413SOL    HW117138   2.720   1.769   1.130
 5413SOL    HW217139   2.863   1.755   1.055
 5414SOL     OW17140   4.872   2.164   4.755
 5414SOL    HW117141   4.869   2.097   4.829
 5414SOL    HW217142   4.790   2.220   4.757
 5415SOL     OW17143   1.085   5.981   1.068
 5415SOL    HW117144   0.993   5.972   1.031
 5415SOL    HW217145   1.118   6.074   1.053
 5416SOL     OW17146   4.893   5.406   5.776
 5416SOL    HW117147   4.852   5.320   5.805
 5416SOL    HW217148   4.831   5.481   5.795
 5417SOL     OW17149   4.105   6.912   5.308
 5417SOL    HW117150   4.016   6.890   5.270
 5417SOL    HW217151   4.134   7.002   5.274
 5418SOL     OW17152   3.298   6.813   3.908
 5418SOL    HW117153   3.331   6.748   3.977
 5418SOL    HW217154   3.376   6.854   3.861
 5419SOL     OW17155   3.742   5.464   0.482
 5419SOL    HW117156   3.649   5.498   0.482
 5419SOL    HW217157   3.777   5.460   0.388
 5420SOL     OW17158   1.552   2.686   2.626
 5420SOL    HW117159   1.559   2.592   2.659
 5420SOL    HW217160   1.561   2.750   2.702
 5421SOL     OW17161   2.154   2.796   2.504
 5421SOL    HW117162   2.095   2.733   2.454
 5421SOL    HW217163   2.163   2.881   2.452
 5422SOL     OW17164   0.634   5.044   0.453
 5422SOL    HW117165   0.555   5.004   0.499
 5422SOL    HW217166   0.616   5.142   0.436
 5423SOL     OW17167   6.052   2.922   7.013
 5423SOL    HW117168   6.119   2.915   0.068
 5423SOL    HW217169   6.099   2.941   6.927
 5424SOL     OW17170   5.787   3.104   3.703
 5424SOL    HW117171   5.886   3.102   3.690
 5424SOL    HW217172   5.761   3.192   3.745
 5425SOL     OW17173   4.182   1.119   4.357
 5425SOL    HW117174   4.197   1.081   4.266
 5425SOL    HW217175   4.252   1.083   4.420
 5426SOL     OW17176   6.433   5.789   4.243
 5426SOL    HW117177   6.380   5.854   4.190
 5426SOL    HW217178   6.374   5.744   4.310
 5427SOL     OW17179   4.858   4.843   6.886
 5427SOL    HW117180   4.939   4.891   6.918
 5427SOL    HW217181   4.814   4.896   6.814
 5428SOL     OW17182   0.254   6.652   1.227
 5428SOL    HW117183   0.312   6.603   1.292
 5428SOL    HW217184   0.256   6.750   1.248
 5429SOL     OW17185   2.013   2.132   6.338
 5429SOL    HW117186   2.029   2.184   6.254
 5429SOL    HW217187   1.998   2.196   6.414
 5430SOL     OW17188   0.061   3.106   6.267
 5430SOL    HW117189   0.107   3.030   6.221
 5430SOL    HW217190   0.096   3.114   6.361
 5431SOL     OW17191   2.979   6.231   0.094
 5431SOL    HW117192   2.996   6.173   0.015
 5431SOL    HW217193   2.906   6.296   0.073
 5432SOL     OW17194   5.208   6.986   6.788
 5432SOL    HW117195   5.141   6.943   6.728
 5432SOL    HW217196   5.221   6.930   6.870
 5433SOL     OW17197   0.288   1.590   4.707
 5433SOL    HW117198   0.305   1.640   4.622
 5433SOL    HW217199   0.371   1.542   4.736
 5434SOL     OW17200   3.364   0.655   5.439
 5434SOL    HW117201   3.436   0.692   5.381
 5434SOL    HW217202   3.346   0.719   5.515
 5435SOL     OW17203   6.045   0.604   2.147
 5435SOL    HW117204   6.094   0.517   2.147
 5435SOL    HW217205   6.095   0.671   2.203
 5436SOL     OW17206   5.236   3.582   4.381
 5436SOL    HW117207   5.265   3.593   4.476
 5436SOL    HW217208   5.316   3.565   4.323
 5437SOL     OW17209   2.392   4.095   0.060
 5437SOL    HW117210   2.388   4.171   7.013
 5437SOL    HW217211   2.455   4.026   0.025
 5438SOL     OW17212   6.836   3.088   2.777
 5438SOL    HW117213   6.809   3.150   2.704
 5438SOL    HW217214   6.756   3.063   2.831
 5439SOL     OW17215   0.815   2.116   0.588
 5439SOL    HW117216   0.760   2.198   0.605
 5439SOL    HW217217   0.832   2.109   0.490
 5440SOL     OW17218   1.167   1.083   1.052
 5440SOL    HW117219   1.173   1.163   1.111
 5440SOL    HW217220   1.077   1.040   1.064
 5441SOL     OW17221   4.684   2.319   3.061
 5441SOL    HW117222   4.627   2.262   3.120
 5441SOL    HW217223   4.728   2.262   2.991
 5442SOL     OW17224   3.154   5.911   3.951
 5442SOL    HW117225   3.174   5.814   3.938
 5442SOL    HW217226   3.129   5.928   4.046
 5443SOL     OW17227   3.118   0.632   4.003
 5443SOL    HW117228   3.140   0.704   3.938
 5443SOL    HW217229   3.019   0.620   4.008
 5444SOL     OW17230   1.047   0.486   3.971
 5444SOL    HW117231   1.063   0.412   4.036
 5444SOL    HW217232   1.120   0.487   3.903
 5445SOL     OW17233   5.914   3.914   3.590
 5445SOL    HW117234   5.869   3.881   3.673
 5445SOL    HW217235   5.995   3.968   3.615
 5446SOL     OW17236   6.414   4.972   4.977
 5446SOL    HW117237   6.480   4.944   4.906
 5446SOL    HW217238   6.421   5.071   4.991
 5447SOL     OW17239   3.123   2.413   6.730
 5447SOL    HW117240   3.061   2.467   6.672
 5447SOL    HW217241   3.214   2.412   6.689
 5448SOL     OW17242   4.473   2.973   5.386
 5448SOL    HW117243   4.458   3.071   5.387
 5448SOL    HW217244   4.392   2.927   5.350
 5449SOL     OW17245   1.646   3.113   6.284
 5449SOL    HW117246   1.589   3.045   6.331
 5449SOL    HW217247   1.684   3.074   6.201
 5450SOL     OW17248   1.696   0.252   1.486
 5450SOL    HW117249   1.744   0.180   1.536
 5450SOL    HW217250   1.733   0.341   1.512
 5451SOL     OW17251   1.418   6.529   3.456
 5451SOL    HW117252   1.510   6.504   3.485
 5451SOL    HW217253   1.366   6.447   3.432
 5452SOL     OW17254   2.250   4.668   6.887
 5452SOL    HW117255   2.284   4.758   6.862
 5452SOL    HW217256   2.265   4.653   6.985
 5453SOL     OW17257   5.552   4.382   1.192
 5453SOL    HW117258   5.639   4.340   1.168
 5453SOL    HW217259   5.504   4.325   1.259
 5454SOL     OW17260   0.079   4.059   6.754
 5454SOL    HW117261   0.051   4.145   6.798
 5454SOL    HW217262   0.089   4.074   6.656
 5455SOL     OW17263   6.147   3.477   0.258
 5455SOL    HW117264   6.241   3.444   0.263
 5455SOL    HW217265   6.129   3.538   0.335
 5456SOL     OW17266   3.457   6.912   6.845
 5456SOL    HW117267   3.427   6.818   6.863
 5456SOL    HW217268   3.398   6.976   6.894
 5457SOL     OW17269   5.719   2.158   0.299
 5457SOL    HW117270   5.703   2.234   0.236
 5457SOL    HW217271   5.774   2.189   0.376
 5458SOL     OW17272   0.221   4.841   6.848
 5458SOL    HW117273   0.171   4.925   6.869
 5458SOL    HW217274   0.258   4.801   6.932
 5459SOL     OW17275   2.422   4.329   6.926
 5459SOL    HW117276   2.519   4.306   6.927
 5459SOL    HW217277   2.408   4.418   6.881
 5460SOL     OW17278   2.530   0.191   2.653
 5460SOL    HW117279   2.623   0.170   2.623
 5460SOL    HW217280   2.492   0.263   2.596
 5461SOL     OW17281   5.774   6.567   5.164
 5461SOL    HW117282   5.738   6.547   5.255
 5461SOL    HW217283   5.871   6.545   5.161
 5462SOL     OW17284   0.602   1.028   6.849
 5462SOL    HW117285   0.594   0.929   6.836
 5462SOL    HW217286   0.618   1.071   6.760
 5463SOL     OW17287   6.246   2.222   0.132
 5463SOL    HW117288   6.234   2.282   0.053
 5463SOL    HW217289   6.205   2.265   0.213
 5464SOL     OW17290   1.235   0.746   4.050
 5464SOL    HW117291   1.159   0.681   4.051
 5464SOL    HW217292   1.302   0.720   4.120
 5465SOL     OW17293   3.802   6.783   3.459
 5465SOL    HW117294   3.802   6.723   3.379
 5465SOL    HW217295   3.895   6.817   3.476
 5466SOL     OW17296   5.972   4.534   5.393
 5466SOL    HW117297   5.901   4.591   5.437
 5466SOL    HW217298   6.048   4.593   5.365
 5467SOL     OW17299   5.240   2.600   3.178
 5467SOL    HW117300   5.219   2.507   3.211
 5467SOL    HW217301   5.160   2.638   3.133
 5468SOL     OW17302   4.905   2.021   4.189
 5468SOL    HW117303   4.873   2.114   4.203
 5468SOL    HW217304   4.877   1.990   4.097
 5469SOL     OW17305   3.866   4.845   6.990
 5469SOL    HW117306   3.793   4.781   7.011
 5469SOL    HW217307   3.902   4.826   6.899
 5470SOL     OW17308   3.009   5.845   2.911
 5470SOL    HW117309   3.061   5.786   2.850
 5470SOL    HW217310   2.989   5.797   2.996
 5471SOL     OW17311   5.664   6.747   2.042
 5471SOL    HW117312   5.672   6.843   2.019
 5471SOL    HW217313   5.569   6.717   2.032
 5472SOL     OW17314   3.827   3.508   5.921
 5472SOL    HW117315   3.903   3.539   5.977
 5472SOL    HW217316   3.860   3.443   5.852
 5473SOL     OW17317   0.625   3.505   3.494
 5473SOL    HW117318   0.537   3.473   3.530
 5473SOL    HW217319   0.619   3.602   3.473
 5474SOL     OW17320   1.132   4.548   4.004
 5474SOL    HW117321   1.212   4.489   4.017
 5474SOL    HW217322   1.163   4.641   3.982
 5475SOL     OW17323   2.418   2.308   0.794
 5475SOL    HW117324   2.488   2.345   0.856
 5475SOL    HW217325   2.334   2.362   0.803
 5476SOL     OW17326   2.501   3.683   5.872
 5476SOL    HW117327   2.536   3.772   5.902
 5476SOL    HW217328   2.402   3.681   5.879
 5477SOL     OW17329   1.908   3.998   3.441
 5477SOL    HW117330   2.002   4.034   3.444
 5477SOL    HW217331   1.884   3.976   3.347
 5478SOL     OW17332   4.501   4.876   5.615
 5478SOL    HW117333   4.489   4.975   5.627
 5478SOL    HW217334   4.513   4.856   5.518
 5479SOL     OW17335   4.919   1.268   6.033
 5479SOL    HW117336   4.883   1.193   5.977
 5479SOL    HW217337   4.895   1.253   6.129
 5480SOL     OW17338   0.366   3.451   3.577
 5480SOL    HW117339   0.312   3.389   3.520
 5480SOL    HW217340   0.326   3.455   3.668
 5481SOL     OW17341   3.383   0.991   4.146
 5481SOL    HW117342   3.478   0.989   4.178
 5481SOL    HW217343   3.323   0.954   4.217
 5482SOL     OW17344   3.781   4.551   1.696
 5482SOL    HW117345   3.788   4.452   1.698
 5482SOL    HW217346   3.691   4.579   1.730
 5483SOL     OW17347   0.474   2.707   5.694
 5483SOL    HW117348   0.485   2.624   5.749
 5483SOL    HW217349   0.395   2.759   5.728
 5484SOL     OW17350   4.876   0.951   4.914
 5484SOL    HW117351   4.852   1.037   4.870
 5484SOL    HW217352   4.892   0.967   5.012
 5485SOL     OW17353   4.042   0.348   5.374
 5485SOL    HW117354   3.965   0.411   5.370
 5485SOL    HW217355   4.025   0.278   5.444
 5486SOL     OW17356   2.912   5.894   5.741
 5486SOL    HW117357   2.842   5.876   5.811
 5486SOL    HW217358   2.867   5.927   5.658
 5487SOL     OW17359   2.860   3.918   6.626
 5487SOL    HW117360   2.827   3.840   6.574
 5487SOL    HW217361   2.939   3.959   6.580
 5488SOL     OW17362   6.801   0.918   0.424
 5488SOL    HW117363   6.812   0.960   0.334
 5488SOL    HW217364   6.853   0.970   0.492
 5489SOL     OW17365   6.259   3.438   2.116
 5489SOL    HW117366   6.343   3.384   2.107
 5489SOL    HW217367   6.232   3.473   2.026
 5490SOL     OW17368   1.569   0.221   2.184
 5490SOL    HW117369   1.554   0.320   2.186
 5490SOL    HW217370   1.545   0.182   2.272
 5491SOL     OW17371   0.453   2.772   0.829
 5491SOL    HW117372   0.441   2.829   0.747
 5491SOL    HW217373   0.502   2.825   0.898
 5492SOL     OW17374   1.078   3.349   5.604
 5492SOL    HW117375   1.093   3.299   5.518
 5492SOL    HW217376   1.158   3.404   5.625
 5493SOL     OW17377   4.106   3.624   2.074
 5493SOL    HW117378   4.203   3.598   2.071
 5493SOL    HW217379   4.090   3.684   2.152
 5494SOL     OW17380   6.559   3.926   5.162
 5494SOL    HW117381   6.569   4.024   5.181
 5494SOL    HW217382   6.480   3.912   5.103
 5495SOL     OW17383   5.588   0.948   0.997
 5495SOL    HW117384   5.522   0.936   0.923
 5495SOL    HW217385   5.678   0.966   0.959
 5496SOL     OW17386   4.526   0.504   3.904
 5496SOL    HW117387   4.501   0.524   3.810
 5496SOL    HW217388   4.600   0.565   3.932
 5497SOL     OW17389   0.240   1.088   6.016
 5497SOL    HW117390   0.285   1.009   6.060
 5497SOL    HW217391   0.295   1.170   6.030
 5498SOL     OW17392   6.933   4.911   1.612
 5498SOL    HW117393   6.854   4.901   1.552
 5498SOL    HW217394   7.014   4.932   1.558
 5499SOL     OW17395   0.629   0.520   3.496
 5499SOL    HW117396   0.610   0.608   3.452
 5499SOL    HW217397   0.679   0.535   3.581
 5500SOL     OW17398   1.606   0.725   0.062
 5500SOL    HW117399   1.563   0.665   7.013
 5500SOL    HW217400   1.567   0.708   0.152
 5501SOL     OW17401   4.136   2.305   0.408
 5501SOL    HW117402   4.077   2.287   0.486
 5501SOL    HW217403   4.115   2.396   0.371
 5502SOL     OW17404   5.200   4.168   6.520
 5502SOL    HW117405   5.111   4.124   6.506
 5502SOL    HW217406   5.227   4.157   6.616
 5503SOL     OW17407   0.467   4.105   0.984
 5503SOL    HW117408   0.539   4.040   0.958
 5503SOL    HW217409   0.432   4.081   1.074
 5504SOL     OW17410   4.635   1.555   5.897
 5504SOL    HW117411   4.707   1.571   5.965
 5504SOL    HW217412   4.594   1.642   5.871
 5505SOL     OW17413   2.229   3.976   3.721
 5505SOL    HW117414   2.216   4.015   3.629
 5505SOL    HW217415   2.209   4.046   3.790
 5506SOL     OW17416   6.759   3.446   6.798
 5506SOL    HW117417   6.709   3.412   6.878
 5506SOL    HW217418   6.730   3.395   6.717
 5507SOL     OW17419   3.695   0.657   5.968
 5507SOL    HW117420   3.765   0.673   6.039
 5507SOL    HW217421   3.737   0.663   5.878
 5508SOL     OW17422   1.249   0.915   0.455
 5508SOL    HW117423   1.184   0.845   0.484
 5508SOL    HW217424   1.211   0.964   0.376
 5509SOL     OW17425   0.814   5.472   0.580
 5509SOL    HW117426   0.902   5.514   0.558
 5509SOL    HW217427   0.749   5.543   0.608
 5510SOL     OW17428   5.249   5.599   6.722
 5510SOL    HW117429   5.298   5.682   6.747
 5510SOL    HW217430   5.292   5.557   6.642
 5511SOL     OW17431   0.694   1.308   5.040
 5511SOL    HW117432   0.751   1.227   5.051
 5511SOL    HW217433   0.735   1.370   4.974
 5512SOL     OW17434   3.702   1.140   1.247
 5512SOL    HW117435   3.784   1.183   1.209
 5512SOL    HW217436   3.624   1.202   1.238
 5513SOL     OW17437   3.282   5.072   6.039
 5513SOL    HW117438   3.261   5.013   5.961
 5513SOL    HW217439   3.205   5.073   6.102
 5514SOL     OW17440   3.664   6.885   5.000
 5514SOL    HW117441   3.592   6.821   4.972
 5514SOL    HW217442   3.688   6.944   4.923
 5515SOL     OW17443   1.669   5.751   2.212
 5515SOL    HW117444   1.693   5.839   2.172
 5515SOL    HW217445   1.569   5.744   2.219
 5516SOL     OW17446   2.449   2.709   5.046
 5516SOL    HW117447   2.395   2.698   4.963
 5516SOL    HW217448   2.464   2.806   5.065
 5517SOL     OW17449   1.885   3.618   2.503
 5517SOL    HW117450   1.906   3.567   2.586
 5517SOL    HW217451   1.965   3.672   2.476
 5518SOL     OW17452   6.088   4.991   5.823
 5518SOL    HW117453   6.036   4.929   5.882
 5518SOL    HW217454   6.133   4.938   5.751
 5519SOL     OW17455   4.883   2.888   3.671
 5519SOL    HW117456   4.842   2.800   3.646
 5519SOL    HW217457   4.975   2.893   3.634
 5520SOL     OW17458   5.767   6.059   2.515
 5520SOL    HW117459   5.714   6.142   2.498
 5520SOL    HW217460   5.705   5.980   2.514
 5521SOL     OW17461   5.597   5.538   1.464
 5521SOL    HW117462   5.636   5.566   1.552
 5521SOL    HW217463   5.558   5.617   1.418
 5522SOL     OW17464   6.710   5.570   1.321
 5522SOL    HW117465   6.697   5.547   1.418
 5522SOL    HW217466   6.624   5.605   1.284
 5523SOL     OW17467   5.207   0.824   2.950
 5523SOL    HW117468   5.292   0.867   2.920
 5523SOL    HW217469   5.217   0.725   2.945
 5524SOL     OW17470   3.705   0.426   5.424
 5524SOL    HW117471   3.648   0.386   5.352
 5524SOL    HW217472   3.722   0.358   5.495
 5525SOL     OW17473   6.879   2.850   0.598
 5525SOL    HW117474   6.833   2.907   0.530
 5525SOL    HW217475   6.811   2.792   0.644
 5526SOL     OW17476   4.900   3.915   2.827
 5526SOL    HW117477   4.924   3.873   2.740
 5526SOL    HW217478   4.879   3.844   2.894
 5527SOL     OW17479   4.836   3.036   4.196
 5527SOL    HW117480   4.824   3.000   4.104
 5527SOL    HW217481   4.757   3.011   4.253
 5528SOL     OW17482   1.083   1.706   1.810
 5528SOL    HW117483   1.088   1.664   1.900
 5528SOL    HW217484   1.042   1.797   1.817
 5529SOL     OW17485   2.253   0.094   3.390
 5529SOL    HW117486   2.176   0.157   3.382
 5529SOL    HW217487   2.225   0.015   3.444
 5530SOL     OW17488   0.106   2.563   2.184
 5530SOL    HW117489   0.107   2.478   2.131
 5530SOL    HW217490   0.167   2.630   2.141
 5531SOL     OW17491   3.813   4.326   1.405
 5531SOL    HW117492   3.887   4.258   1.404
 5531SOL    HW217493   3.834   4.399   1.340
 5532SOL     OW17494   1.853   2.560   0.318
 5532SOL    HW117495   1.770   2.543   0.265
 5532SOL    HW217496   1.836   2.537   0.414
 5533SOL     OW17497   4.841   1.622   4.173
 5533SOL    HW117498   4.799   1.666   4.094
 5533SOL    HW217499   4.773   1.566   4.220
 5534SOL     OW17500   1.086   1.184   5.452
 5534SOL    HW117501   1.107   1.282   5.455
 5534SOL    HW217502   1.095   1.151   5.358
 5535SOL     OW17503   0.585   1.335   2.520
 5535SOL    HW117504   0.648   1.391   2.466
 5535SOL    HW217505   0.563   1.251   2.469
 5536SOL     OW17506   3.522   0.621   4.726
 5536SOL    HW117507   3.620   0.639   4.718
 5536SOL    HW217508   3.481   0.624   4.635
 5537SOL     OW17509   3.750   1.493   2.689
 5537SOL    HW117510   3.696   1.440   2.625
 5537SOL    HW217511   3.847   1.483   2.667
 5538SOL     OW17512   4.662   5.657   4.791
 5538SOL    HW117513   4.614   5.720   4.730
 5538SOL    HW217514   4.597   5.594   4.833
 5539SOL     OW17515   2.242   2.931   1.240
 5539SOL    HW117516   2.244   2.997   1.166
 5539SOL    HW217517   2.172   2.957   1.307
 5540SOL     OW17518   4.960   5.010   3.597
 5540SOL    HW117519   4.987   5.097   3.556
 5540SOL    HW217520   4.925   5.026   3.689
 5541SOL     OW17521   4.459   2.033   6.356
 5541SOL    HW117522   4.492   2.057   6.265
 5541SOL    HW217523   4.536   2.035   6.420
 5542SOL     OW17524   3.890   3.966   6.082
 5542SOL    HW117525   3.803   4.000   6.119
 5542SOL    HW217526   3.943   4.043   6.046
 5543SOL     OW17527   6.581   3.967   6.715
 5543SOL    HW117528   6.547   3.888   6.664
 5543SOL    HW217529   6.676   3.951   6.741
 5544SOL     OW17530   5.732   1.208   5.889
 5544SOL    HW117531   5.701   1.295   5.850
 5544SOL    HW217532   5.773   1.152   5.818
 5545SOL     OW17533   4.561   2.188   2.469
 5545SOL    HW117534   4.473   2.186   2.422
 5545SOL    HW217535   4.607   2.100   2.460
 5546SOL     OW17536   2.073   4.944   6.039
 5546SOL    HW117537   2.149   5.008   6.049
 5546SOL    HW217538   1.992   4.994   6.006
 5547SOL     OW17539   3.345   5.455   5.470
 5547SOL    HW117540   3.305   5.445   5.378
 5547SOL    HW217541   3.343   5.367   5.517
 5548SOL     OW17542   5.913   3.521   5.629
 5548SOL    HW117543   5.916   3.602   5.687
 5548SOL    HW217544   5.996   3.467   5.641
 5549SOL     OW17545   2.866   4.814   6.805
 5549SOL    HW117546   2.959   4.781   6.787
 5549SOL    HW217547   2.811   4.739   6.842
 5550SOL     OW17548   2.409   6.219   1.241
 5550SOL    HW117549   2.469   6.139   1.244
 5550SOL    HW217550   2.412   6.266   1.329
 5551SOL     OW17551   1.480   1.126   3.384
 5551SOL    HW117552   1.445   1.214   3.417
 5551SOL    HW217553   1.573   1.139   3.349
 5552SOL     OW17554   0.071   1.699   1.231
 5552SOL    HW117555   0.043   1.728   1.323
 5552SOL    HW217556   0.021   1.617   1.205
 5553SOL     OW17557   4.051   6.566   0.172
 5553SOL    HW117558   4.098   6.522   0.249
 5553SOL    HW217559   4.065   6.513   0.089
 5554SOL     OW17560   2.909   2.170   5.130
 5554SOL    HW117561   2.996   2.212   5.104
 5554SOL    HW217562   2.926   2.099   5.199
 5555SOL     OW17563   0.106   5.133   3.528
 5555SOL    HW117564   0.199   5.148   3.559
 5555SOL    HW217565   0.096   5.038   3.496
 5556SOL     OW17566   0.631   1.976   5.140
 5556SOL    HW117567   0.568   1.919   5.193
 5556SOL    HW217568   0.724   1.942   5.152
 5557SOL     OW17569   2.185   6.148   3.744
 5557SOL    HW117570   2.182   6.049   3.731
 5557SOL    HW217571   2.149   6.193   3.662
 5558SOL     OW17572   5.384   2.942   4.726
 5558SOL    HW117573   5.406   2.922   4.631
 5558SOL    HW217574   5.384   2.857   4.779
 5559SOL     OW17575   1.868   0.278   0.699
 5559SOL    HW117576   1.825   0.194   0.732
 5559SOL    HW217577   1.822   0.357   0.739
 5560SOL     OW17578   0.204   1.274   3.925
 5560SOL    HW117579   0.115   1.301   3.886
 5560SOL    HW217580   0.249   1.209   3.864
 5561SOL     OW17581   1.335   3.211   3.244
 5561SOL    HW117582   1.276   3.288   3.219
 5561SOL    HW217583   1.295   3.162   3.321
 5562SOL     OW17584   2.011   3.127   5.794
 5562SOL    HW117585   2.102   3.129   5.754
 5562SOL    HW217586   1.962   3.046   5.762
 5563SOL     OW17587   4.635   6.209   2.519
 5563SOL    HW117588   4.544   6.173   2.537
 5563SOL    HW217589   4.649   6.291   2.575
 5564SOL     OW17590   5.177   3.881   1.850
 5564SOL    HW117591   5.087   3.854   1.884
 5564SOL    HW217592   5.196   3.833   1.765
 5565SOL     OW17593   3.655   2.496   5.553
 5565SOL    HW117594   3.579   2.562   5.550
 5565SOL    HW217595   3.676   2.466   5.460
 5566SOL     OW17596   1.979   5.052   1.388
 5566SOL    HW117597   1.918   5.115   1.437
 5566SOL    HW217598   1.947   4.958   1.399
 5567SOL     OW17599   1.394   5.635   1.245
 5567SOL    HW117600   1.386   5.551   1.191
 5567SOL    HW217601   1.302   5.670   1.265
 5568SOL     OW17602   4.207   1.321   1.594
 5568SOL    HW117603   4.206   1.372   1.680
 5568SOL    HW217604   4.246   1.378   1.521
 5569SOL     OW17605   3.847   1.558   0.724
 5569SOL    HW117606   3.850   1.561   0.824
 5569SOL    HW217607   3.877   1.469   0.692
 5570SOL     OW17608   6.369   4.570   5.505
 5570SOL    HW117609   6.288   4.594   5.451
 5570SOL    HW217610   6.372   4.627   5.587
 5571SOL     OW17611   6.987   5.684   0.507
 5571SOL    HW117612   6.902   5.729   0.533
 5571SOL    HW217613   6.969   5.588   0.485
 5572SOL     OW17614   4.600   2.686   6.464
 5572SOL    HW117615   4.626   2.592   6.443
 5572SOL    HW217616   4.574   2.733   6.380
 5573SOL     OW17617   1.007   3.689   0.874
 5573SOL    HW117618   0.934   3.638   0.919
 5573SOL    HW217619   1.061   3.627   0.817
 5574SOL     OW17620   0.561   6.159   5.148
 5574SOL    HW117621   0.476   6.115   5.174
 5574SOL    HW217622   0.556   6.188   5.053
 5575SOL     OW17623   0.760   1.269   0.601
 5575SOL    HW117624   0.841   1.293   0.654
 5575SOL    HW217625   0.787   1.213   0.523
 5576SOL     OW17626   5.686   6.359   0.288
 5576SOL    HW117627   5.741   6.305   0.225
 5576SOL    HW217628   5.673   6.450   0.250
 5577SOL     OW17629   1.888   4.280   5.306
 5577SOL    HW117630   1.796   4.264   5.271
 5577SOL    HW217631   1.954   4.228   5.251
 5578SOL     OW17632   4.194   2.802   0.279
 5578SOL    HW117633   4.218   2.860   0.201
 5578SOL    HW217634   4.218   2.850   0.364
 5579SOL     OW17635   5.070   3.836   6.742
 5579SOL    HW117636   5.108   3.799   6.658
 5579SOL    HW217637   4.975   3.808   6.751
 5580SOL     OW17638   5.553   0.997   0.603
 5580SOL    HW117639   5.598   1.044   0.680
 5580SOL    HW217640   5.619   0.938   0.557
 5581SOL     OW17641   2.150   1.540   6.013
 5581SOL    HW117642   2.234   1.579   5.976
 5581SOL    HW217643   2.168   1.504   6.104
 5582SOL     OW17644   3.328   3.735   3.460
 5582SOL    HW117645   3.413   3.765   3.418
 5582SOL    HW217646   3.260   3.718   3.388
 5583SOL     OW17647   3.585   0.304   1.528
 5583SOL    HW117648   3.660   0.257   1.481
 5583SOL    HW217649   3.614   0.333   1.619
 5584SOL     OW17650   6.768   3.422   3.326
 5584SOL    HW117651   6.757   3.361   3.247
 5584SOL    HW217652   6.677   3.448   3.361
 5585SOL     OW17653   6.034   0.446   4.567
 5585SOL    HW117654   6.099   0.502   4.618
 5585SOL    HW217655   6.022   0.358   4.614
 5586SOL     OW17656   2.180   1.042   5.822
 5586SOL    HW117657   2.172   1.139   5.798
 5586SOL    HW217658   2.263   1.004   5.782
 5587SOL     OW17659   3.476   0.388   4.071
 5587SOL    HW117660   3.404   0.430   4.126
 5587SOL    HW217661   3.512   0.455   4.006
 5588SOL     OW17662   2.660   6.914   5.790
 5588SOL    HW117663   2.617   6.826   5.770
 5588SOL    HW217664   2.641   6.978   5.715
 5589SOL     OW17665   4.338   2.787   6.099
 5589SOL    HW117666   4.241   2.765   6.086
 5589SOL    HW217667   4.365   2.855   6.031
 5590SOL     OW17668   0.677   5.403   4.524
 5590SOL    HW117669   0.771   5.415   4.493
 5590SOL    HW217670   0.632   5.492   4.532
 5591SOL     OW17671   5.449   0.439   0.507
 5591SOL    HW117672   5.374   0.500   0.481
 5591SOL    HW217673   5.482   0.463   0.598
 5592SOL     OW17674   1.723   3.176   2.744
 5592SOL    HW117675   1.669   3.233   2.682
 5592SOL    HW217676   1.706   3.204   2.839
 5593SOL     OW17677   1.841   2.866   5.775
 5593SOL    HW117678   1.885   2.850   5.864
 5593SOL    HW217679   1.750   2.823   5.776
 5594SOL     OW17680   2.140   0.805   0.418
 5594SOL    HW117681   2.164   0.816   0.322
 5594SOL    HW217682   2.119   0.709   0.437
 5595SOL     OW17683   6.971   2.646   5.786
 5595SOL    HW117684   0.041   2.668   5.826
 5595SOL    HW217685   6.947   2.715   5.717
 5596SOL     OW17686   5.128   0.169   3.036
 5596SOL    HW117687   5.079   0.168   3.123
 5596SOL    HW217688   5.129   0.077   2.997
 5597SOL     OW17689   7.006   1.099   6.126
 5597SOL    HW117690   0.071   1.106   6.070
 5597SOL    HW217691   7.011   1.018   6.183
 5598SOL     OW17692   6.814   1.719   4.119
 5598SOL    HW117693   6.771   1.681   4.037
 5598SOL    HW217694   6.846   1.812   4.101
 5599SOL     OW17695   5.026   3.514   2.868
 5599SOL    HW117696   4.984   3.547   2.783
 5599SOL    HW217697   5.061   3.422   2.855
 5600SOL     OW17698   2.241   1.429   2.457
 5600SOL    HW117699   2.158   1.405   2.508
 5600SOL    HW217700   2.217   1.460   2.366
 5601SOL     OW17701   5.988   3.191   5.383
 5601SOL    HW117702   5.984   3.125   5.308
 5601SOL    HW217703   5.924   3.265   5.366
 5602SOL     OW17704   0.055   2.109   3.137
 5602SOL    HW117705   0.008   2.147   3.217
 5602SOL    HW217706   0.008   2.026   3.108
 5603SOL     OW17707   4.289   2.279   4.618
 5603SOL    HW117708   4.266   2.309   4.526
 5603SOL    HW217709   4.366   2.216   4.614
 5604SOL     OW17710   0.308   0.175   3.944
 5604SOL    HW117711   0.293   0.261   3.896
 5604SOL    HW217712   0.368   0.191   4.023
 5605SOL     OW17713   2.791   5.885   4.711
 5605SOL    HW117714   2.888   5.909   4.714
 5605SOL    HW217715   2.768   5.848   4.621
 5606SOL     OW17716   4.881   2.204   0.794
 5606SOL    HW117717   4.798   2.213   0.740
 5606SOL    HW217718   4.859   2.172   0.886
 5607SOL     OW17719   6.288   2.881   2.194
 5607SOL    HW117720   6.248   2.898   2.104
 5607SOL    HW217721   6.240   2.805   2.238
 5608SOL     OW17722   4.439   1.142   3.483
 5608SOL    HW117723   4.446   1.190   3.571
 5608SOL    HW217724   4.526   1.098   3.461
 5609SOL     OW17725   6.740   6.794   0.879
 5609SOL    HW117726   6.729   6.698   0.854
 5609SOL    HW217727   6.682   6.851   0.820
 5610SOL     OW17728   5.122   4.577   6.915
 5610SOL    HW117729   5.172   4.621   6.990
 5610SOL    HW217730   5.029   4.555   6.945
 5611SOL     OW17731   0.032   4.840   1.109
 5611SOL    HW117732   0.029   4.859   1.207
 5611SOL    HW217733   0.034   4.741   1.094
 5612SOL     OW17734   2.589   1.136   0.832
 5612SOL    HW117735   2.494   1.165   0.834
 5612SOL    HW217736   2.614   1.107   0.740
 5613SOL     OW17737   6.696   5.695   5.429
 5613SOL    HW117738   6.741   5.696   5.518
 5613SOL    HW217739   6.597   5.695   5.441
 5614SOL     OW17740   6.279   2.240   4.210
 5614SOL    HW117741   6.253   2.198   4.297
 5614SOL    HW217742   6.378   2.237   4.200
 5615SOL     OW17743   0.377   3.253   2.949
 5615SOL    HW117744   0.475   3.272   2.945
 5615SOL    HW217745   0.332   3.325   3.001
 5616SOL     OW17746   1.732   3.313   3.048
 5616SOL    HW117747   1.825   3.347   3.058
 5616SOL    HW217748   1.684   3.322   3.136
 5617SOL     OW17749   2.031   5.431   6.582
 5617SOL    HW117750   1.951   5.371   6.588
 5617SOL    HW217751   2.040   5.465   6.489
 5618SOL     OW17752   7.017   5.761   3.652
 5618SOL    HW117753   6.930   5.766   3.701
 5618SOL    HW217754   0.015   5.847   3.603
 5619SOL     OW17755   3.894   3.021   4.447
 5619SOL    HW117756   3.821   3.064   4.394
 5619SOL    HW217757   3.975   3.079   4.445
 5620SOL     OW17758   4.781   4.421   5.775
 5620SOL    HW117759   4.796   4.380   5.685
 5620SOL    HW217760   4.700   4.479   5.772
 5621SOL     OW17761   1.369   2.238   5.452
 5621SOL    HW117762   1.394   2.141   5.445
 5621SOL    HW217763   1.370   2.279   5.361
 5622SOL     OW17764   5.217   5.769   4.751
 5622SOL    HW117765   5.144   5.837   4.751
 5622SOL    HW217766   5.285   5.793   4.682
 5623SOL     OW17767   5.167   6.188   4.034
 5623SOL    HW117768   5.228   6.246   4.089
 5623SOL    HW217769   5.083   6.170   4.084
 5624SOL     OW17770   6.711   5.086   4.412
 5624SOL    HW117771   6.756   5.020   4.473
 5624SOL    HW217772   6.675   5.038   4.332
 5625SOL     OW17773   1.262   5.923   5.033
 5625SOL    HW117774   1.172   5.966   5.041
 5625SOL    HW217775   1.323   5.982   4.982
 5626SOL     OW17776   1.978   4.092   4.577
 5626SOL    HW117777   2.061   4.061   4.623
 5626SOL    HW217778   1.949   4.023   4.511
 5627SOL     OW17779   1.261   5.572   6.776
 5627SOL    HW117780   1.336   5.589   6.840
 5627SOL    HW217781   1.180   5.622   6.806
 5628SOL     OW17782   2.643   2.833   1.081
 5628SOL    HW117783   2.742   2.838   1.064
 5628SOL    HW217784   2.613   2.916   1.128
 5629SOL     OW17785   5.221   3.813   1.582
 5629SOL    HW117786   5.277   3.731   1.580
 5629SOL    HW217787   5.225   3.859   1.493
 5630SOL     OW17788   2.785   4.156   6.713
 5630SOL    HW117789   2.810   4.068   6.673
 5630SOL    HW217790   2.855   4.224   6.691
 5631SOL     OW17791   4.697   0.975   1.643
 5631SOL    HW117792   4.667   1.068   1.665
 5631SOL    HW217793   4.784   0.977   1.594
 5632SOL     OW17794   5.699   0.210   5.867
 5632SOL    HW117795   5.721   0.243   5.959
 5632SOL    HW217796   5.758   0.256   5.801
 5633SOL     OW17797   0.773   5.369   5.450
 5633SOL    HW117798   0.798   5.438   5.382
 5633SOL    HW217799   0.796   5.278   5.415
 5634SOL     OW17800   2.827   6.748   0.229
 5634SOL    HW117801   2.902   6.802   0.268
 5634SOL    HW217802   2.859   6.656   0.207
 5635SOL     OW17803   2.263   0.690   6.914
 5635SOL    HW117804   2.347   0.717   6.867
 5635SOL    HW217805   2.273   0.597   6.950
 5636SOL     OW17806   6.213   1.795   5.516
 5636SOL    HW117807   6.307   1.829   5.517
 5636SOL    HW217808   6.208   1.709   5.566
 5637SOL     OW17809   5.086   6.959   4.797
 5637SOL    HW117810   4.998   6.913   4.814
 5637SOL    HW217811   5.070   0.037   4.779
 5638SOL     OW17812   5.393   5.183   0.970
 5638SOL    HW117813   5.324   5.128   0.923
 5638SOL    HW217814   5.479   5.133   0.972
 5639SOL     OW17815   0.741   0.563   1.615
 5639SOL    HW117816   0.820   0.586   1.672
 5639SOL    HW217817   0.680   0.641   1.610
 5640SOL     OW17818   2.796   5.818   3.235
 5640SOL    HW117819   2.845   5.763   3.303
 5640SOL    HW217820   2.698   5.815   3.254
 5641SOL     OW17821   0.354   4.183   4.063
 5641SOL    HW117822   0.315   4.148   4.148
 5641SOL    HW217823   0.419   4.256   4.084
 5642SOL     OW17824   1.504   4.648   0.371
 5642SOL    HW117825   1.551   4.596   0.442
 5642SOL    HW217826   1.405   4.639   0.383
 5643SOL     OW17827   4.544   2.108   4.629
 5643SOL    HW117828   4.606   2.034   4.603
 5643SOL    HW217829   4.586   2.196   4.605
 5644SOL     OW17830   4.659   1.608   5.045
 5644SOL    HW117831   4.574   1.632   4.999
 5644SOL    HW217832   4.736   1.651   4.997
 5645SOL     OW17833   6.007   5.534   3.640
 5645SOL    HW117834   6.064   5.538   3.559
 5645SOL    HW217835   6.003   5.624   3.684
 5646SOL     OW17836   0.479   6.515   3.817
 5646SOL    HW117837   0.576   6.525   3.835
 5646SOL    HW217838   0.427   6.536   3.900
 5647SOL     OW17839   6.047   5.397   6.723
 5647SOL    HW117840   5.962   5.349   6.700
 5647SOL    HW217841   6.025   5.484   6.767
 5648SOL     OW17842   1.912   1.722   3.969
 5648SOL    HW117843   1.897   1.796   3.904
 5648SOL    HW217844   1.833   1.714   4.030
 5649SOL     OW17845   0.932   1.099   5.023
 5649SOL    HW117846   1.027   1.127   5.033
 5649SOL    HW217847   0.907   1.041   5.101
 5650SOL     OW17848   6.692   4.486   6.530
 5650SOL    HW117849   6.656   4.578   6.548
 5650SOL    HW217850   6.617   4.420   6.531
 5651SOL     OW17851   0.033   1.189   1.971
 5651SOL    HW117852   0.067   1.226   2.057
 5651SOL    HW217853   0.007   1.265   1.910
 5652SOL     OW17854   4.787   5.399   1.650
 5652SOL    HW117855   4.689   5.382   1.635
 5652SOL    HW217856   4.839   5.320   1.618
 5653SOL     OW17857   0.049   5.764   5.378
 5653SOL    HW117858   0.028   5.801   5.288
 5653SOL    HW217859   0.086   5.672   5.369
 5654SOL     OW17860   6.826   0.226   5.395
 5654SOL    HW117861   6.775   0.160   5.451
 5654SOL    HW217862   6.761   0.286   5.348
 5655SOL     OW17863   0.442   3.759   4.183
 5655SOL    HW117864   0.460   3.669   4.223
 5655SOL    HW217865   0.344   3.779   4.189
 5656SOL     OW17866   3.594   3.758   0.626
 5656SOL    HW117867   3.636   3.679   0.670
 5656SOL    HW217868   3.514   3.729   0.574
 5657SOL     OW17869   3.641   0.324   1.793
 5657SOL    HW117870   3.676   0.231   1.801
 5657SOL    HW217871   3.717   0.389   1.799
 5658SOL     OW17872   3.730   0.165   5.525
 5658SOL    HW117873   3.824   0.135   5.507
 5658SOL    HW217874   3.667   0.117   5.465
 5659SOL     OW17875   2.942   3.675   2.578
 5659SOL    HW117876   2.948   3.766   2.538
 5659SOL    HW217877   3.031   3.631   2.575
 5660SOL     OW17878   4.726   0.228   6.896
 5660SOL    HW117879   4.798   0.160   6.883
 5660SOL    HW217880   4.655   0.190   6.955
 5661SOL     OW17881   6.973   5.941   4.161
 5661SOL    HW117882   6.994   5.933   4.063
 5661SOL    HW217883   6.907   6.015   4.174
 5662SOL     OW17884   2.158   4.564   3.886
 5662SOL    HW117885   2.076   4.595   3.838
 5662SOL    HW217886   2.210   4.643   3.919
 5663SOL     OW17887   0.961   3.956   0.893
 5663SOL    HW117888   0.961   3.859   0.870
 5663SOL    HW217889   0.928   4.009   0.815
 5664SOL     OW17890   7.000   4.528   2.420
 5664SOL    HW117891   0.015   4.445   2.377
 5664SOL    HW217892   6.912   4.511   2.464
 5665SOL     OW17893   2.271   3.177   5.651
 5665SOL    HW117894   2.271   3.274   5.626
 5665SOL    HW217895   2.332   3.163   5.729
 5666SOL     OW17896   5.000   5.425   0.712
 5666SOL    HW117897   5.000   5.387   0.804
 5666SOL    HW217898   4.991   5.525   0.716
 5667SOL     OW17899   6.549   5.144   2.780
 5667SOL    HW117900   6.639   5.187   2.785
 5667SOL    HW217901   6.491   5.194   2.716
 5668SOL     OW17902   5.180   2.341   6.179
 5668SOL    HW117903   5.124   2.389   6.246
 5668SOL    HW217904   5.175   2.389   6.091
 5669SOL     OW17905   0.829   4.634   6.139
 5669SOL    HW117906   0.806   4.565   6.070
 5669SOL    HW217907   0.926   4.658   6.131
 5670SOL     OW17908   0.527   3.498   4.289
 5670SOL    HW117909   0.552   3.475   4.194
 5670SOL    HW217910   0.546   3.420   4.348
 5671SOL     OW17911   1.992   0.649   6.643
 5671SOL    HW117912   1.956   0.557   6.630
 5671SOL    HW217913   1.983   0.676   6.739
 5672SOL     OW17914   4.941   4.053   5.655
 5672SOL    HW117915   4.860   4.066   5.597
 5672SOL    HW217916   5.024   4.064   5.600
 5673SOL     OW17917   0.201   0.346   1.970
 5673SOL    HW117918   0.261   0.305   2.039
 5673SOL    HW217919   0.224   0.309   1.880
 5674SOL     OW17920   6.776   3.351   1.286
 5674SOL    HW117921   6.683   3.334   1.254
 5674SOL    HW217922   6.773   3.385   1.380
 5675SOL     OW17923   4.385   2.502   5.429
 5675SOL    HW117924   4.466   2.472   5.479
 5675SOL    HW217925   4.335   2.569   5.485
 5676SOL     OW17926   2.144   0.048   1.614
 5676SOL    HW117927   2.162   0.097   1.528
 5676SOL    HW217928   2.230   0.027   1.659
 5677SOL     OW17929   6.531   0.946   3.922
 5677SOL    HW117930   6.561   1.009   3.994
 5677SOL    HW217931   6.511   0.997   3.838
 5678SOL     OW17932   3.553   6.940   2.863
 5678SOL    HW117933   3.489   7.016   2.875
 5678SOL    HW217934   3.585   6.910   2.953
 5679SOL     OW17935   2.177   6.461   4.955
 5679SOL    HW117936   2.255   6.484   5.014
 5679SOL    HW217937   2.094   6.502   4.992
 5680SOL     OW17938   1.800   5.606   6.453
 5680SOL    HW117939   1.778   5.592   6.357
 5680SOL    HW217940   1.900   5.604   6.465
 5681SOL     OW17941   1.152   2.172   6.397
 5681SOL    HW117942   1.149   2.106   6.323
 5681SOL    HW217943   1.129   2.263   6.362
 5682SOL     OW17944   1.598   2.778   5.818
 5682SOL    HW117945   1.559   2.836   5.889
 5682SOL    HW217946   1.536   2.702   5.799
 5683SOL     OW17947   3.388   2.764   6.506
 5683SOL    HW117948   3.316   2.725   6.564
 5683SOL    HW217949   3.406   2.702   6.429
 5684SOL     OW17950   3.765   3.701   3.710
 5684SOL    HW117951   3.822   3.643   3.769
 5684SOL    HW217952   3.804   3.703   3.618
 5685SOL     OW17953   0.095   4.703   2.614
 5685SOL    HW117954   0.016   4.652   2.579
 5685SOL    HW217955   0.081   4.801   2.600
 5686SOL     OW17956   3.574   6.769   0.874
 5686SOL    HW117957   3.486   6.754   0.828
 5686SOL    HW217958   3.648   6.735   0.816
 5687SOL     OW17959   5.421   4.327   5.307
 5687SOL    HW117960   5.455   4.233   5.318
 5687SOL    HW217961   5.485   4.380   5.251
 5688SOL     OW17962   5.708   2.265   1.532
 5688SOL    HW117963   5.789   2.322   1.549
 5688SOL    HW217964   5.627   2.309   1.572
 5689SOL     OW17965   4.459   1.659   0.695
 5689SOL    HW117966   4.526   1.585   0.693
 5689SOL    HW217967   4.396   1.644   0.772
 5690SOL     OW17968   4.504   5.913   0.845
 5690SOL    HW117969   4.550   5.843   0.791
 5690SOL    HW217970   4.433   5.957   0.790
 5691SOL     OW17971   2.734   6.947   2.229
 5691SOL    HW117972   2.658   7.013   2.236
 5691SOL    HW217973   2.713   6.867   2.285
 5692SOL     OW17974   6.437   3.023   5.960
 5692SOL    HW117975   6.385   3.086   6.017
 5692SOL    HW217976   6.533   3.022   5.991
 5693SOL     OW17977   4.663   2.752   2.607
 5693SOL    HW117978   4.728   2.826   2.628
 5693SOL    HW217979   4.644   2.752   2.509
 5694SOL     OW17980   0.003   0.976   3.481
 5694SOL    HW117981   0.004   1.029   3.396
 5694SOL    HW217982   6.977   1.030   3.553
 5695SOL     OW17983   1.328   2.187   3.318
 5695SOL    HW117984   1.269   2.109   3.300
 5695SOL    HW217985   1.411   2.180   3.262
 5696SOL     OW17986   2.351   1.457   5.017
 5696SOL    HW117987   2.377   1.397   4.940
 5696SOL    HW217988   2.433   1.483   5.068
 5697SOL     OW17989   6.763   2.583   0.673
 5697SOL    HW117990   6.828   2.551   0.743
 5697SOL    HW217991   6.676   2.606   0.716
 5698SOL     OW17992   0.913   2.886   2.048
 5698SOL    HW117993   0.837   2.895   1.984
 5698SOL    HW217994   0.878   2.858   2.137
 5699SOL     OW17995   6.499   1.103   4.557
 5699SOL    HW117996   6.433   1.156   4.611
 5699SOL    HW217997   6.452   1.060   4.480
 5700SOL     OW17998   1.575   6.245   4.883
 5700SOL    HW117999   1.575   6.212   4.978
 5700SOL    HW218000   1.511   6.322   4.876
 5701SOL     OW18001   0.127   5.959   2.097
 5701SOL    HW118002   0.197   5.969   2.167
 5701SOL    HW218003   0.148   5.881   2.039
 5702SOL     OW18004   1.905   6.315   6.473
 5702SOL    HW118005   1.981   6.334   6.536
 5702SOL    HW218006   1.941   6.303   6.380
 5703SOL     OW18007   4.493   4.564   0.375
 5703SOL    HW118008   4.466   4.617   0.455
 5703SOL    HW218009   4.507   4.469   0.402
 5704SOL     OW18010   4.747   5.456   3.399
 5704SOL    HW118011   4.823   5.409   3.354
 5704SOL    HW218012   4.673   5.391   3.416
 5705SOL     OW18013   6.152   0.275   0.741
 5705SOL    HW118014   6.131   0.307   0.833
 5705SOL    HW218015   6.181   0.353   0.685
 5706SOL     OW18016   1.270   1.399   0.087
 5706SOL    HW118017   1.255   1.459   0.009
 5706SOL    HW218018   1.200   1.327   0.088
 5707SOL     OW18019   2.062   0.661   6.251
 5707SOL    HW118020   2.113   0.602   6.189
 5707SOL    HW218021   2.120   0.688   6.328
 5708SOL     OW18022   4.992   6.981   2.168
 5708SOL    HW118023   4.909   6.938   2.132
 5708SOL    HW218024   5.008   0.049   2.119
 5709SOL     OW18025   0.825   6.351   3.409
 5709SOL    HW118026   0.849   6.260   3.442
 5709SOL    HW218027   0.728   6.367   3.422
 5710SOL     OW18028   3.188   3.322   5.935
 5710SOL    HW118029   3.278   3.346   5.899
 5710SOL    HW218030   3.155   3.239   5.890
 5711SOL     OW18031   5.316   1.224   3.793
 5711SOL    HW118032   5.323   1.129   3.824
 5711SOL    HW218033   5.247   1.271   3.849
 5712SOL     OW18034   6.828   6.843   5.514
 5712SOL    HW118035   6.860   6.833   5.608
 5712SOL    HW218036   6.792   6.755   5.482
 5713SOL     OW18037   0.049   2.932   2.123
 5713SOL    HW118038   0.043   3.008   2.189
 5713SOL    HW218039   0.139   2.889   2.130
 5714SOL     OW18040   1.593   0.599   6.476
 5714SOL    HW118041   1.672   0.618   6.417
 5714SOL    HW218042   1.573   0.680   6.531
 5715SOL     OW18043   1.614   6.349   2.448
 5715SOL    HW118044   1.557   6.302   2.381
 5715SOL    HW218045   1.567   6.432   2.480
 5716SOL     OW18046   1.581   3.652   6.040
 5716SOL    HW118047   1.597   3.565   6.087
 5716SOL    HW218048   1.664   3.681   5.993
 5717SOL     OW18049   0.865   4.379   1.057
 5717SOL    HW118050   0.892   4.284   1.066
 5717SOL    HW218051   0.936   4.438   1.096
 5718SOL     OW18052   1.608   4.882   6.267
 5718SOL    HW118053   1.708   4.881   6.264
 5718SOL    HW218054   1.574   4.789   6.278
 5719SOL     OW18055   3.607   0.519   6.471
 5719SOL    HW118056   3.663   0.571   6.535
 5719SOL    HW218057   3.578   0.579   6.396
 5720SOL     OW18058   0.977   5.475   4.886
 5720SOL    HW118059   1.014   5.397   4.835
 5720SOL    HW218060   0.887   5.450   4.924
 5721SOL     OW18061   0.825   2.722   0.655
 5721SOL    HW118062   0.742   2.704   0.602
 5721SOL    HW218063   0.823   2.667   0.738
 5722SOL     OW18064   5.316   0.553   5.181
 5722SOL    HW118065   5.370   0.530   5.263
 5722SOL    HW218066   5.316   0.476   5.118
 5723SOL     OW18067   3.924   5.578   0.276
 5723SOL    HW118068   4.024   5.580   0.286
 5723SOL    HW218069   3.899   5.513   0.205
 5724SOL     OW18070   5.144   2.443   5.898
 5724SOL    HW118071   5.183   2.535   5.907
 5724SOL    HW218072   5.209   2.385   5.849
 5725SOL     OW18073   5.181   5.358   4.335
 5725SOL    HW118074   5.125   5.424   4.284
 5725SOL    HW218075   5.257   5.328   4.277
 5726SOL     OW18076   5.604   3.815   6.049
 5726SOL    HW118077   5.648   3.756   6.116
 5726SOL    HW218078   5.624   3.782   5.957
 5727SOL     OW18079   5.825   2.173   3.183
 5727SOL    HW118080   5.872   2.261   3.179
 5727SOL    HW218081   5.853   2.124   3.265
 5728SOL     OW18082   6.417   1.318   5.311
 5728SOL    HW118083   6.446   1.376   5.388
 5728SOL    HW218084   6.402   1.375   5.231
 5729SOL     OW18085   6.728   1.573   6.357
 5729SOL    HW118086   6.752   1.557   6.261
 5729SOL    HW218087   6.794   1.528   6.416
 5730SOL     OW18088   3.865   6.112   5.384
 5730SOL    HW118089   3.856   6.204   5.422
 5730SOL    HW218090   3.957   6.100   5.348
 5731SOL     OW18091   1.923   6.949   4.400
 5731SOL    HW118092   1.954   6.854   4.412
 5731SOL    HW218093   1.950   7.003   4.479
 5732SOL     OW18094   6.219   4.857   4.652
 5732SOL    HW118095   6.134   4.863   4.599
 5732SOL    HW218096   6.292   4.904   4.603
 5733SOL     OW18097   3.327   0.960   0.265
 5733SOL    HW118098   3.277   1.046   0.270
 5733SOL    HW218099   3.295   0.899   0.338
 5734SOL     OW18100   1.872   6.899   5.693
 5734SOL    HW118101   1.939   6.968   5.666
 5734SOL    HW218102   1.915   6.808   5.689
 5735SOL     OW18103   4.302   1.003   2.615
 5735SOL    HW118104   4.335   0.914   2.584
 5735SOL    HW218105   4.287   1.062   2.535
 5736SOL     OW18106   4.782   4.533   6.706
 5736SOL    HW118107   4.831   4.589   6.639
 5736SOL    HW218108   4.809   4.560   6.798
 5737SOL     OW18109   5.336   5.450   1.488
 5737SOL    HW118110   5.325   5.351   1.474
 5737SOL    HW218111   5.429   5.477   1.462
 5738SOL     OW18112   3.704   1.160   6.568
 5738SOL    HW118113   3.759   1.078   6.553
 5738SOL    HW218114   3.711   1.188   6.664
 5739SOL     OW18115   2.184   0.182   5.902
 5739SOL    HW118116   2.106   0.242   5.922
 5739SOL    HW218117   2.268   0.226   5.936
 5740SOL     OW18118   5.289   3.756   0.850
 5740SOL    HW118119   5.347   3.686   0.892
 5740SOL    HW218120   5.197   3.750   0.889
 5741SOL     OW18121   0.707   4.090   4.408
 5741SOL    HW118122   0.712   4.182   4.368
 5741SOL    HW218123   0.729   4.022   4.338
 5742SOL     OW18124   4.051   0.271   3.512
 5742SOL    HW118125   3.991   0.253   3.434
 5742SOL    HW218126   3.996   0.288   3.594
 5743SOL     OW18127   3.566   4.243   5.444
 5743SOL    HW118128   3.533   4.320   5.497
 5743SOL    HW218129   3.665   4.251   5.430
 5744SOL     OW18130   5.769   0.143   2.850
 5744SOL    HW118131   5.777   0.239   2.822
 5744SOL    HW218132   5.681   0.129   2.894
 5745SOL     OW18133   2.431   2.559   4.041
 5745SOL    HW118134   2.353   2.497   4.027
 5745SOL    HW218135   2.507   2.530   3.981
 5746SOL     OW18136   3.492   0.623   3.128
 5746SOL    HW118137   3.583   0.661   3.149
 5746SOL    HW218138   3.448   0.594   3.213
 5747SOL     OW18139   1.436   6.016   1.631
 5747SOL    HW118140   1.355   5.989   1.683
 5747SOL    HW218141   1.518   5.999   1.686
 5748SOL     OW18142   0.426   5.988   0.353
 5748SOL    HW118143   0.348   5.978   0.292
 5748SOL    HW218144   0.510   5.964   0.304
 5749SOL     OW18145   1.908   6.700   5.353
 5749SOL    HW118146   2.007   6.714   5.356
 5749SOL    HW218147   1.889   6.610   5.314
 5750SOL     OW18148   6.735   4.368   4.424
 5750SOL    HW118149   6.646   4.403   4.453
 5750SOL    HW218150   6.756   4.285   4.476
 5751SOL     OW18151   2.234   3.997   4.165
 5751SOL    HW118152   2.216   3.930   4.093
 5751SOL    HW218153   2.149   4.038   4.195
 5752SOL     OW18154   5.319   7.004   0.868
 5752SOL    HW118155   5.332   6.923   0.811
 5752SOL    HW218156   5.306   0.066   0.809
 5753SOL     OW18157   3.016   3.890   4.958
 5753SOL    HW118158   3.008   3.959   5.030
 5753SOL    HW218159   3.101   3.839   4.969
 5754SOL     OW18160   1.194   6.316   1.642
 5754SOL    HW118161   1.177   6.339   1.546
 5754SOL    HW218162   1.290   6.290   1.654
 5755SOL     OW18163   2.480   2.442   0.118
 5755SOL    HW118164   2.576   2.468   0.122
 5755SOL    HW218165   2.460   2.399   0.031
 5756SOL     OW18166   6.559   6.776   1.994
 5756SOL    HW118167   6.508   6.691   1.976
 5756SOL    HW218168   6.573   6.825   1.909
 5757SOL     OW18169   6.779   5.991   3.679
 5757SOL    HW118170   6.698   6.029   3.723
 5757SOL    HW218171   6.841   5.954   3.749
 5758SOL     OW18172   1.641   6.485   2.829
 5758SOL    HW118173   1.639   6.575   2.872
 5758SOL    HW218174   1.572   6.481   2.757
 5759SOL     OW18175   4.306   6.782   1.652
 5759SOL    HW118176   4.281   6.873   1.619
 5759SOL    HW218177   4.224   6.724   1.657
 5760SOL     OW18178   6.664   3.536   1.964
 5760SOL    HW118179   6.631   3.620   2.007
 5760SOL    HW218180   6.760   3.521   1.988
 5761SOL     OW18181   5.449   5.831   4.614
 5761SOL    HW118182   5.413   5.911   4.567
 5761SOL    HW218183   5.511   5.781   4.554
 5762SOL     OW18184   5.511   4.330   0.237
 5762SOL    HW118185   5.535   4.233   0.232
 5762SOL    HW218186   5.424   4.346   0.190
 5763SOL     OW18187   5.199   0.164   0.460
 5763SOL    HW118188   5.215   0.216   0.376
 5763SOL    HW218189   5.154   0.078   0.439
 5764SOL     OW18190   4.518   5.299   3.706
 5764SOL    HW118191   4.555   5.208   3.720
 5764SOL    HW218192   4.477   5.332   3.791
 5765SOL     OW18193   6.598   4.990   0.719
 5765SOL    HW118194   6.570   4.992   0.623
 5765SOL    HW218195   6.690   4.951   0.726
 5766SOL     OW18196   1.483   1.780   4.811
 5766SOL    HW118197   1.414   1.834   4.859
 5766SOL    HW218198   1.466   1.783   4.713
 5767SOL     OW18199   1.796   0.961   0.547
 5767SOL    HW118200   1.812   0.964   0.449
 5767SOL    HW218201   1.780   0.866   0.575
 5768SOL     OW18202   7.018   6.922   3.393
 5768SOL    HW118203   0.059   6.860   3.445
 5768SOL    HW218204   0.041   6.941   3.304
 5769SOL     OW18205   2.158   5.408   6.829
 5769SOL    HW118206   2.141   5.495   6.874
 5769SOL    HW218207   2.110   5.405   6.741
 5770SOL     OW18208   0.855   6.178   0.325
 5770SOL    HW118209   0.896   6.220   0.243
 5770SOL    HW218210   0.897   6.089   0.340
 5771SOL     OW18211   2.123   5.911   3.955
 5771SOL    HW118212   2.172   5.926   3.869
 5771SOL    HW218213   2.149   5.982   4.021
 5772SOL     OW18214   4.820   0.755   1.823
 5772SOL    HW118215   4.785   0.838   1.780
 5772SOL    HW218216   4.865   0.698   1.754
 5773SOL     OW18217   5.010   2.074   2.580
 5773SOL    HW118218   4.975   2.107   2.492
 5773SOL    HW218219   5.008   2.148   2.647
 5774SOL     OW18220   1.620   6.942   4.727
 5774SOL    HW118221   1.553   7.012   4.702
 5774SOL    HW218222   1.577   6.852   4.725
 5775SOL     OW18223   0.731   5.943   2.780
 5775SOL    HW118224   0.636   5.948   2.748
 5775SOL    HW218225   0.748   5.852   2.819
 5776SOL     OW18226   1.514   0.639   2.806
 5776SOL    HW118227   1.496   0.673   2.713
 5776SOL    HW218228   1.612   0.647   2.825
 5777SOL     OW18229   1.315   0.334   3.119
 5777SOL    HW118230   1.217   0.323   3.136
 5777SOL    HW218231   1.329   0.374   3.029
 5778SOL     OW18232   1.101   1.175   6.982
 5778SOL    HW118233   1.135   1.217   6.898
 5778SOL    HW218234   1.031   1.107   6.958
 5779SOL     OW18235   4.864   2.500   6.878
 5779SOL    HW118236   4.929   2.471   6.948
 5779SOL    HW218237   4.899   2.473   6.788
 5780SOL     OW18238   5.980   5.732   4.565
 5780SOL    HW118239   5.907   5.702   4.626
 5780SOL    HW218240   5.975   5.680   4.479
 5781SOL     OW18241   6.574   4.638   5.356
 5781SOL    HW118242   6.664   4.612   5.389
 5781SOL    HW218243   6.504   4.591   5.411
 5782SOL     OW18244   0.681   1.435   0.152
 5782SOL    HW118245   0.645   1.526   0.173
 5782SOL    HW218246   0.628   1.366   0.200
 5783SOL     OW18247   1.520   1.452   2.286
 5783SOL    HW118248   1.518   1.425   2.190
 5783SOL    HW218249   1.468   1.536   2.298
 5784SOL     OW18250   0.576   5.785   6.664
 5784SOL    HW118251   0.588   5.883   6.646
 5784SOL    HW218252   0.570   5.769   6.762
 5785SOL     OW18253   2.889   2.024   0.256
 5785SOL    HW118254   2.850   2.074   0.334
 5785SOL    HW218255   2.904   1.929   0.282
 5786SOL     OW18256   6.516   4.199   0.256
 5786SOL    HW118257   6.456   4.149   0.319
 5786SOL    HW218258   6.507   4.161   0.164
 5787SOL     OW18259   1.974   1.844   5.729
 5787SOL    HW118260   2.043   1.820   5.661
 5787SOL    HW218261   1.905   1.902   5.686
 5788SOL     OW18262   2.383   1.261   2.661
 5788SOL    HW118263   2.346   1.278   2.753
 5788SOL    HW218264   2.398   1.348   2.614
 5789SOL     OW18265   3.518   5.126   6.330
 5789SOL    HW118266   3.451   5.084   6.391
 5789SOL    HW218267   3.585   5.178   6.384
 5790SOL     OW18268   0.236   3.515   4.285
 5790SOL    HW118269   0.314   3.460   4.313
 5790SOL    HW218270   0.179   3.535   4.365
 5791SOL     OW18271   3.560   0.295   2.267
 5791SOL    HW118272   3.463   0.276   2.251
 5791SOL    HW218273   3.605   0.213   2.301
 5792SOL     OW18274   0.743   2.522   3.101
 5792SOL    HW118275   0.684   2.449   3.136
 5792SOL    HW218276   0.763   2.586   3.175
 5793SOL     OW18277   5.859   1.315   3.571
 5793SOL    HW118278   5.890   1.224   3.544
 5793SOL    HW218279   5.762   1.312   3.593
 5794SOL     OW18280   3.844   2.416   0.341
 5794SOL    HW118281   3.916   2.464   0.291
 5794SOL    HW218282   3.840   2.321   0.308
 5795SOL     OW18283   5.866   5.203   5.699
 5795SOL    HW118284   5.826   5.166   5.783
 5795SOL    HW218285   5.960   5.233   5.717
 5796SOL     OW18286   3.837   0.849   0.142
 5796SOL    HW118287   3.738   0.862   0.130
 5796SOL    HW218288   3.885   0.929   0.106
 5797SOL     OW18289   4.396   1.563   4.634
 5797SOL    HW118290   4.395   1.518   4.545
 5797SOL    HW218291   4.318   1.625   4.640
 5798SOL     OW18292   0.480   4.001   5.650
 5798SOL    HW118293   0.447   4.088   5.688
 5798SOL    HW218294   0.473   4.004   5.550
 5799SOL     OW18295   5.403   0.745   4.057
 5799SOL    HW118296   5.320   0.696   4.082
 5799SOL    HW218297   5.477   0.680   4.040
 5800SOL     OW18298   5.586   6.110   0.807
 5800SOL    HW118299   5.535   6.090   0.723
 5800SOL    HW218300   5.522   6.121   0.883
 5801SOL     OW18301   0.901   1.962   4.186
 5801SOL    HW118302   0.984   2.004   4.149
 5801SOL    HW218303   0.843   2.033   4.225
 5802SOL     OW18304   0.767   4.599   0.138
 5802SOL    HW118305   0.743   4.519   0.083
 5802SOL    HW218306   0.703   4.608   0.214
 5803SOL     OW18307   1.625   4.876   1.583
 5803SOL    HW118308   1.704   4.845   1.528
 5803SOL    HW218309   1.550   4.900   1.522
 5804SOL     OW18310   6.104   4.300   3.578
 5804SOL    HW118311   6.153   4.322   3.662
 5804SOL    HW218312   6.005   4.312   3.592
 5805SOL     OW18313   3.924   4.443   0.127
 5805SOL    HW118314   4.021   4.463   0.109
 5805SOL    HW218315   3.913   4.345   0.140
 5806SOL     OW18316   0.379   6.443   6.760
 5806SOL    HW118317   0.379   6.482   6.668
 5806SOL    HW218318   0.455   6.379   6.769
 5807SOL     OW18319   1.566   3.668   1.683
 5807SOL    HW118320   1.666   3.668   1.681
 5807SOL    HW218321   1.535   3.691   1.775
 5808SOL     OW18322   5.506   4.154   3.132
 5808SOL    HW118323   5.567   4.078   3.109
 5808SOL    HW218324   5.476   4.199   3.049
 5809SOL     OW18325   0.134   2.618   4.786
 5809SOL    HW118326   0.045   2.657   4.808
 5809SOL    HW218327   0.140   2.602   4.687
 5810SOL     OW18328   2.856   0.664   4.035
 5810SOL    HW118329   2.873   0.763   4.033
 5810SOL    HW218330   2.765   0.645   3.999
 5811SOL     OW18331   3.115   0.736   4.665
 5811SOL    HW118332   3.072   0.825   4.652
 5811SOL    HW218333   3.174   0.739   4.745
 5812SOL     OW18334   4.950   0.156   4.721
 5812SOL    HW118335   4.963   0.249   4.688
 5812SOL    HW218336   4.853   0.141   4.742
 5813SOL     OW18337   1.428   1.295   6.497
 5813SOL    HW118338   1.459   1.377   6.448
 5813SOL    HW218339   1.461   1.213   6.451
 5814SOL     OW18340   6.108   4.186   0.574
 5814SOL    HW118341   6.139   4.098   0.611
 5814SOL    HW218342   6.128   4.190   0.476
 5815SOL     OW18343   4.277   2.263   3.797
 5815SOL    HW118344   4.181   2.245   3.778
 5815SOL    HW218345   4.332   2.183   3.773
 5816SOL     OW18346   5.043   6.327   0.465
 5816SOL    HW118347   4.960   6.365   0.507
 5816SOL    HW218348   5.110   6.308   0.536
 5817SOL     OW18349   5.442   3.207   5.783
 5817SOL    HW118350   5.506   3.186   5.858
 5817SOL    HW218351   5.349   3.209   5.818
 5818SOL     OW18352   6.905   6.233   4.643
 5818SOL    HW118353   6.990   6.181   4.629
 5818SOL    HW218354   6.834   6.172   4.677
 5819SOL     OW18355   4.319   0.408   0.270
 5819SOL    HW118356   4.401   0.378   0.319
 5819SOL    HW218357   4.342   0.484   0.209
 5820SOL     OW18358   4.457   0.145   3.859
 5820SOL    HW118359   4.425   0.155   3.765
 5820SOL    HW218360   4.385   0.104   3.915
 5821SOL     OW18361   1.461   0.045   2.381
 5821SOL    HW118362   1.550   0.000   2.390
 5821SOL    HW218363   1.407   0.028   2.464
 5822SOL     OW18364   0.536   1.959   1.985
 5822SOL    HW118365   0.474   2.035   1.967
 5822SOL    HW218366   0.515   1.918   2.074
 5823SOL     OW18367   0.810   0.916   5.789
 5823SOL    HW118368   0.907   0.938   5.789
 5823SOL    HW218369   0.786   0.872   5.703
 5824SOL     OW18370   6.954   6.427   2.678
 5824SOL    HW118371   6.929   6.351   2.739
 5824SOL    HW218372   6.874   6.485   2.663
 5825SOL     OW18373   2.466   2.321   5.661
 5825SOL    HW118374   2.535   2.254   5.633
 5825SOL    HW218375   2.423   2.360   5.580
 5826SOL     OW18376   0.225   5.557   5.322
 5826SOL    HW118377   0.255   5.535   5.415
 5826SOL    HW218378   0.182   5.476   5.281
 5827SOL     OW18379   1.781   4.925   4.605
 5827SOL    HW118380   1.687   4.927   4.571
 5827SOL    HW218381   1.843   4.894   4.532
 5828SOL     OW18382   0.038   3.244   2.220
 5828SOL    HW118383   0.040   3.279   2.126
 5828SOL    HW218384   0.098   3.301   2.278
 5829SOL     OW18385   2.748   1.717   3.083
 5829SOL    HW118386   2.814   1.647   3.053
 5829SOL    HW218387   2.674   1.723   3.016
 5830SOL     OW18388   3.896   0.610   5.331
 5830SOL    HW118389   3.890   0.603   5.231
 5830SOL    HW218390   3.818   0.561   5.371
 5831SOL     OW18391   0.031   0.155   4.093
 5831SOL    HW118392   7.011   0.066   4.068
 5831SOL    HW218393   6.989   0.228   4.063
 5832SOL     OW18394   4.047   3.960   5.451
 5832SOL    HW118395   4.081   4.025   5.519
 5832SOL    HW218396   4.074   3.990   5.360
 5833SOL     OW18397   3.545   3.170   4.575
 5833SOL    HW118398   3.456   3.215   4.567
 5833SOL    HW218399   3.535   3.073   4.552
 5834SOL     OW18400   6.170   1.916   0.847
 5834SOL    HW118401   6.151   1.965   0.762
 5834SOL    HW218402   6.083   1.895   0.892
 5835SOL     OW18403   5.067   2.674   2.781
 5835SOL    HW118404   5.151   2.716   2.747
 5835SOL    HW218405   5.037   2.604   2.715
 5836SOL     OW18406   2.587   6.535   3.350
 5836SOL    HW118407   2.564   6.552   3.254
 5836SOL    HW218408   2.586   6.437   3.368
 5837SOL     OW18409   4.355   4.678   6.301
 5837SOL    HW118410   4.386   4.732   6.223
 5837SOL    HW218411   4.341   4.738   6.380
 5838SOL     OW18412   2.242   1.498   5.580
 5838SOL    HW118413   2.306   1.503   5.503
 5838SOL    HW218414   2.281   1.545   5.659
 5839SOL     OW18415   0.665   2.750   2.397
 5839SOL    HW118416   0.609   2.776   2.318
 5839SOL    HW218417   0.699   2.657   2.384
 5840SOL     OW18418   1.526   5.334   6.766
 5840SOL    HW118419   1.602   5.275   6.793
 5840SOL    HW218420   1.440   5.285   6.775
 5841SOL     OW18421   5.976   2.874   2.376
 5841SOL    HW118422   6.003   2.948   2.438
 5841SOL    HW218423   5.958   2.912   2.285
 5842SOL     OW18424   4.218   3.424   1.600
 5842SOL    HW118425   4.249   3.487   1.671
 5842SOL    HW218426   4.282   3.348   1.593
 5843SOL     OW18427   2.200   3.919   2.489
 5843SOL    HW118428   2.231   3.834   2.533
 5843SOL    HW218429   2.147   3.897   2.407
 5844SOL     OW18430   0.174   0.051   5.657
 5844SOL    HW118431   0.219   0.010   5.578
 5844SOL    HW218432   0.187   7.012   5.737
 5845SOL     OW18433   0.951   0.649   2.768
 5845SOL    HW118434   1.026   0.622   2.707
 5845SOL    HW218435   0.962   0.745   2.794
 5846SOL     OW18436   6.399   3.058   4.753
 5846SOL    HW118437   6.406   3.001   4.671
 5846SOL    HW218438   6.490   3.083   4.785
 5847SOL     OW18439   2.127   1.800   2.370
 5847SOL    HW118440   2.113   1.891   2.330
 5847SOL    HW218441   2.049   1.741   2.346
 5848SOL     OW18442   2.426   4.540   3.346
 5848SOL    HW118443   2.433   4.553   3.247
 5848SOL    HW218444   2.507   4.577   3.391
 5849SOL     OW18445   6.730   0.629   6.053
 5849SOL    HW118446   6.778   0.556   6.004
 5849SOL    HW218447   6.748   0.717   6.008
 5850SOL     OW18448   1.212   3.111   2.002
 5850SOL    HW118449   1.273   3.034   2.018
 5850SOL    HW218450   1.202   3.164   2.087
 5851SOL     OW18451   4.878   3.179   2.920
 5851SOL    HW118452   4.790   3.137   2.895
 5851SOL    HW218453   4.886   3.183   3.019
 5852SOL     OW18454   5.105   6.358   2.942
 5852SOL    HW118455   5.075   6.358   2.847
 5852SOL    HW218456   5.118   6.452   2.972
 5853SOL     OW18457   3.405   6.188   5.572
 5853SOL    HW118458   3.325   6.131   5.591
 5853SOL    HW218459   3.436   6.232   5.656
 5854SOL     OW18460   6.473   3.475   5.883
 5854SOL    HW118461   6.462   3.394   5.941
 5854SOL    HW218462   6.542   3.536   5.923
 5855SOL     OW18463   0.484   0.446   4.849
 5855SOL    HW118464   0.545   0.367   4.846
 5855SOL    HW218465   0.506   0.502   4.929
 5856SOL     OW18466   2.205   5.096   3.853
 5856SOL    HW118467   2.162   5.032   3.789
 5856SOL    HW218468   2.250   5.169   3.802
 5857SOL     OW18469   5.291   2.904   5.098
 5857SOL    HW118470   5.307   2.833   5.030
 5857SOL    HW218471   5.268   2.862   5.186
 5858SOL     OW18472   2.613   2.443   1.946
 5858SOL    HW118473   2.552   2.402   1.879
 5858SOL    HW218474   2.705   2.406   1.935
 5859SOL     OW18475   5.470   6.442   1.019
 5859SOL    HW118476   5.433   6.484   1.102
 5859SOL    HW218477   5.570   6.452   1.019
 5860SOL     OW18478   2.116   3.653   1.842
 5860SOL    HW118479   2.136   3.591   1.918
 5860SOL    HW218480   2.176   3.630   1.765
 5861SOL     OW18481   5.533   1.417   3.838
 5861SOL    HW118482   5.497   1.335   3.794
 5861SOL    HW218483   5.511   1.415   3.936
 5862SOL     OW18484   4.386   5.191   3.164
 5862SOL    HW118485   4.297   5.183   3.119
 5862SOL    HW218486   4.376   5.171   3.261
 5863SOL     OW18487   3.043   0.587   5.241
 5863SOL    HW118488   3.132   0.570   5.198
 5863SOL    HW218489   2.974   0.528   5.199
 5864SOL     OW18490   4.099   4.086   1.671
 5864SOL    HW118491   4.030   4.100   1.743
 5864SOL    HW218492   4.094   3.992   1.638
 5865SOL     OW18493   5.128   0.300   4.036
 5865SOL    HW118494   5.137   0.265   4.130
 5865SOL    HW218495   5.051   0.364   4.032
 5866SOL     OW18496   3.727   6.198   6.242
 5866SOL    HW118497   3.756   6.288   6.276
 5866SOL    HW218498   3.798   6.131   6.261
 5867SOL     OW18499   0.363   3.248   0.942
 5867SOL    HW118500   0.349   3.284   0.849
 5867SOL    HW218501   0.294   3.177   0.960
 5868SOL     OW18502   6.859   0.701   4.739
 5868SOL    HW118503   6.940   0.724   4.684
 5868SOL    HW218504   6.838   0.777   4.800
 5869SOL     OW18505   1.686   5.366   3.623
 5869SOL    HW118506   1.743   5.370   3.705
 5869SOL    HW218507   1.744   5.355   3.542
 5870SOL     OW18508   4.815   5.720   5.236
 5870SOL    HW118509   4.824   5.796   5.301
 5870SOL    HW218510   4.740   5.660   5.265
 5871SOL     OW18511   4.406   3.586   0.449
 5871SOL    HW118512   4.312   3.555   0.465
 5871SOL    HW218513   4.433   3.562   0.356
 5872SOL     OW18514   4.127   5.200   6.954
 5872SOL    HW118515   4.045   5.217   7.009
 5872SOL    HW218516   4.202   5.258   6.987
 5873SOL     OW18517   2.077   2.558   0.621
 5873SOL    HW118518   2.082   2.501   0.703
 5873SOL    HW218519   1.981   2.569   0.594
 5874SOL     OW18520   2.917   2.961   1.235
 5874SOL    HW118521   2.856   2.935   1.310
 5874SOL    HW218522   3.012   2.942   1.261
 5875SOL     OW18523   3.965   1.322   0.614
 5875SOL    HW118524   4.036   1.305   0.546
 5875SOL    HW218525   3.912   1.238   0.629
 5876SOL     OW18526   3.518   2.931   6.658
 5876SOL    HW118527   3.588   2.961   6.593
 5876SOL    HW218528   3.461   2.860   6.615
 5877SOL     OW18529   6.031   6.702   1.016
 5877SOL    HW118530   5.981   6.784   0.986
 5877SOL    HW218531   6.084   6.666   0.940
 5878SOL     OW18532   5.533   6.101   3.191
 5878SOL    HW118533   5.580   6.177   3.144
 5878SOL    HW218534   5.593   6.065   3.262
 5879SOL     OW18535   3.319   2.595   5.997
 5879SOL    HW118536   3.223   2.581   5.974
 5879SOL    HW218537   3.350   2.681   5.957
 5880SOL     OW18538   4.463   4.148   5.687
 5880SOL    HW118539   4.430   4.072   5.744
 5880SOL    HW218540   4.459   4.233   5.740
 5881SOL     OW18541   1.046   6.698   2.647
 5881SOL    HW118542   1.087   6.659   2.564
 5881SOL    HW218543   0.962   6.747   2.622
 5882SOL     OW18544   1.331   6.745   5.856
 5882SOL    HW118545   1.254   6.788   5.809
 5882SOL    HW218546   1.413   6.800   5.844
 5883SOL     OW18547   0.109   2.436   0.520
 5883SOL    HW118548   0.078   2.529   0.541
 5883SOL    HW218549   0.204   2.440   0.487
 5884SOL     OW18550   6.505   0.722   4.535
 5884SOL    HW118551   6.533   0.628   4.556
 5884SOL    HW218552   6.572   0.786   4.574
 5885SOL     OW18553   0.792   5.797   0.353
 5885SOL    HW118554   0.890   5.776   0.343
 5885SOL    HW218555   0.762   5.770   0.444
 5886SOL     OW18556   1.110   3.342   3.575
 5886SOL    HW118557   1.122   3.326   3.673
 5886SOL    HW218558   1.044   3.415   3.561
 5887SOL     OW18559   2.473   2.022   1.686
 5887SOL    HW118560   2.562   2.048   1.650
 5887SOL    HW218561   2.407   2.095   1.668
 5888SOL     OW18562   2.882   0.147   0.807
 5888SOL    HW118563   2.878   0.187   0.899
 5888SOL    HW218564   2.910   0.052   0.814
 5889SOL     OW18565   0.261   1.628   1.463
 5889SOL    HW118566   0.244   1.591   1.372
 5889SOL    HW218567   0.277   1.553   1.527
 5890SOL     OW18568   2.047   6.844   2.329
 5890SOL    HW118569   2.058   6.744   2.330
 5890SOL    HW218570   2.025   6.876   2.421
 5891SOL     OW18571   2.942   3.382   0.230
 5891SOL    HW118572   3.020   3.444   0.219
 5891SOL    HW218573   2.918   3.377   0.327
 5892SOL     OW18574   0.501   4.342   1.077
 5892SOL    HW118575   0.478   4.259   1.027
 5892SOL    HW218576   0.519   4.417   1.013
 5893SOL     OW18577   1.093   5.066   0.978
 5893SOL    HW118578   1.185   5.079   0.941
 5893SOL    HW218579   1.049   4.989   0.932
 5894SOL     OW18580   0.964   5.912   5.529
 5894SOL    HW118581   1.013   5.907   5.442
 5894SOL    HW218582   0.893   5.983   5.524
 5895SOL     OW18583   6.385   3.159   4.271
 5895SOL    HW118584   6.375   3.131   4.175
 5895SOL    HW218585   6.296   3.183   4.309
 5896SOL     OW18586   5.536   1.168   1.578
 5896SOL    HW118587   5.440   1.167   1.607
 5896SOL    HW218588   5.588   1.102   1.633
 5897SOL     OW18589   4.171   1.760   1.850
 5897SOL    HW118590   4.117   1.800   1.777
 5897SOL    HW218591   4.195   1.830   1.917
 5898SOL     OW18592   2.451   1.932   5.749
 5898SOL    HW118593   2.533   1.984   5.726
 5898SOL    HW218594   2.370   1.986   5.725
 5899SOL     OW18595   0.408   5.309   5.748
 5899SOL    HW118596   0.455   5.347   5.828
 5899SOL    HW218597   0.380   5.215   5.769
 5900SOL     OW18598   0.486   5.131   2.845
 5900SOL    HW118599   0.557   5.088   2.900
 5900SOL    HW218600   0.528   5.199   2.784
 5901SOL     OW18601   0.988   0.673   0.234
 5901SOL    HW118602   1.039   0.712   0.157
 5901SOL    HW218603   0.991   0.737   0.311
 5902SOL     OW18604   5.586   3.429   4.725
 5902SOL    HW118605   5.659   3.447   4.791
 5902SOL    HW218606   5.627   3.403   4.637
 5903SOL     OW18607   5.337   3.086   6.912
 5903SOL    HW118608   5.317   2.998   6.956
 5903SOL    HW218609   5.429   3.084   6.874
 5904SOL     OW18610   1.299   4.685   1.175
 5904SOL    HW118611   1.393   4.663   1.201
 5904SOL    HW218612   1.249   4.719   1.254
 5905SOL     OW18613   5.336   0.872   3.546
 5905SOL    HW118614   5.336   0.797   3.479
 5905SOL    HW218615   5.262   0.936   3.525
 5906SOL     OW18616   5.651   1.723   5.025
 5906SOL    HW118617   5.703   1.670   4.958
 5906SOL    HW218618   5.554   1.720   5.002
 5907SOL     OW18619   1.716   0.682   0.595
 5907SOL    HW118620   1.625   0.694   0.634
 5907SOL    HW218621   1.714   0.607   0.529
 5908SOL     OW18622   4.935   3.662   0.432
 5908SOL    HW118623   4.897   3.725   0.364
 5908SOL    HW218624   4.873   3.584   0.443
 5909SOL     OW18625   0.730   4.026   5.362
 5909SOL    HW118626   0.766   4.033   5.269
 5909SOL    HW218627   0.633   4.003   5.358
 5910SOL     OW18628   1.244   3.932   0.983
 5910SOL    HW118629   1.265   4.030   0.975
 5910SOL    HW218630   1.147   3.918   0.965
 5911SOL     OW18631   0.442   5.653   6.276
 5911SOL    HW118632   0.405   5.713   6.347
 5911SOL    HW218633   0.416   5.688   6.186
 5912SOL     OW18634   5.644   3.557   6.610
 5912SOL    HW118635   5.589   3.575   6.529
 5912SOL    HW218636   5.660   3.459   6.618
 5913SOL     OW18637   2.177   2.837   5.774
 5913SOL    HW118638   2.205   2.796   5.861
 5913SOL    HW218639   2.101   2.785   5.736
 5914SOL     OW18640   2.771   5.764   6.975
 5914SOL    HW118641   2.760   5.754   6.876
 5914SOL    HW218642   2.732   5.684   0.002
 5915SOL     OW18643   5.529   3.053   2.381
 5915SOL    HW118644   5.617   3.086   2.413
 5915SOL    HW218645   5.541   2.970   2.326
 5916SOL     OW18646   4.706   0.421   5.867
 5916SOL    HW118647   4.621   0.472   5.853
 5916SOL    HW218648   4.735   0.382   5.779
 5917SOL     OW18649   3.736   2.960   3.911
 5917SOL    HW118650   3.664   3.026   3.893
 5917SOL    HW218651   3.702   2.889   3.973
 5918SOL     OW18652   1.654   3.472   4.468
 5918SOL    HW118653   1.573   3.516   4.506
 5918SOL    HW218654   1.734   3.498   4.520
 5919SOL     OW18655   3.007   2.094   0.871
 5919SOL    HW118656   2.961   2.066   0.956
 5919SOL    HW218657   3.106   2.092   0.886
 5920SOL     OW18658   3.507   6.959   0.254
 5920SOL    HW118659   3.556   6.891   0.199
 5920SOL    HW218660   3.568   0.017   0.275
 5921SOL     OW18661   4.015   5.204   5.187
 5921SOL    HW118662   4.037   5.193   5.284
 5921SOL    HW218663   4.052   5.291   5.154
 5922SOL     OW18664   6.642   4.682   3.050
 5922SOL    HW118665   6.552   4.699   3.010
 5922SOL    HW218666   6.699   4.763   3.039
 5923SOL     OW18667   6.515   0.647   3.348
 5923SOL    HW118668   6.575   0.727   3.336
 5923SOL    HW218669   6.563   0.565   3.318
 5924SOL     OW18670   5.381   2.705   4.925
 5924SOL    HW118671   5.463   2.690   4.869
 5924SOL    HW218672   5.361   2.623   4.977
 5925SOL     OW18673   4.496   5.800   3.116
 5925SOL    HW118674   4.431   5.767   3.047
 5925SOL    HW218675   4.574   5.737   3.120
 5926SOL     OW18676   3.343   5.245   2.067
 5926SOL    HW118677   3.311   5.199   1.984
 5926SOL    HW218678   3.384   5.333   2.041
 5927SOL     OW18679   2.752   5.539   1.610
 5927SOL    HW118680   2.760   5.486   1.526
 5927SOL    HW218681   2.699   5.487   1.677
 5928SOL     OW18682   2.231   0.718   2.115
 5928SOL    HW118683   2.320   0.753   2.144
 5928SOL    HW218684   2.184   0.677   2.193
 5929SOL     OW18685   0.945   6.432   5.654
 5929SOL    HW118686   1.043   6.427   5.676
 5929SOL    HW218687   0.899   6.490   5.721
 5930SOL     OW18688   6.137   1.540   4.242
 5930SOL    HW118689   6.079   1.521   4.163
 5930SOL    HW218690   6.179   1.631   4.231
 5931SOL     OW18691   6.107   5.133   2.055
 5931SOL    HW118692   6.151   5.208   2.103
 5931SOL    HW218693   6.174   5.085   1.999
 5932SOL     OW18694   2.227   6.460   0.869
 5932SOL    HW118695   2.294   6.404   0.820
 5932SOL    HW218696   2.153   6.402   0.903
 5933SOL     OW18697   0.105   3.990   2.080
 5933SOL    HW118698   0.125   3.960   2.173
 5933SOL    HW218699   0.165   3.941   2.016
 5934SOL     OW18700   4.128   3.644   2.863
 5934SOL    HW118701   4.146   3.657   2.960
 5934SOL    HW218702   4.138   3.547   2.841
 5935SOL     OW18703   3.793   4.103   4.501
 5935SOL    HW118704   3.854   4.129   4.576
 5935SOL    HW218705   3.703   4.144   4.516
 5936SOL     OW18706   4.404   4.378   6.956
 5936SOL    HW118707   4.459   4.294   6.960
 5936SOL    HW218708   4.387   4.402   6.861
 5937SOL     OW18709   0.969   3.408   1.611
 5937SOL    HW118710   1.025   3.334   1.650
 5937SOL    HW218711   1.020   3.453   1.537
 5938SOL     OW18712   1.560   5.108   3.453
 5938SOL    HW118713   1.480   5.085   3.509
 5938SOL    HW218714   1.610   5.183   3.497
 5939SOL     OW18715   3.102   0.496   3.149
 5939SOL    HW118716   3.102   0.523   3.053
 5939SOL    HW218717   3.125   0.575   3.206
 5940SOL     OW18718   3.702   6.884   2.138
 5940SOL    HW118719   3.758   6.909   2.058
 5940SOL    HW218720   3.616   6.844   2.107
 5941SOL     OW18721   6.200   4.834   2.100
 5941SOL    HW118722   6.109   4.835   2.142
 5941SOL    HW218723   6.193   4.798   2.007
 5942SOL     OW18724   4.259   3.136   6.656
 5942SOL    HW118725   4.302   3.046   6.664
 5942SOL    HW218726   4.311   3.203   6.708
 5943SOL     OW18727   2.506   6.230   0.532
 5943SOL    HW118728   2.506   6.309   0.470
 5943SOL    HW218729   2.483   6.147   0.481
 5944SOL     OW18730   5.559   1.462   1.658
 5944SOL    HW118731   5.561   1.394   1.584
 5944SOL    HW218732   5.566   1.416   1.746
 5945SOL     OW18733   6.655   4.822   5.209
 5945SOL    HW118734   6.612   4.756   5.271
 5945SOL    HW218735   6.642   4.914   5.246
 5946SOL     OW18736   3.111   3.865   5.959
 5946SOL    HW118737   3.156   3.953   5.974
 5946SOL    HW218738   3.170   3.806   5.904
 5947SOL     OW18739   4.110   3.089   1.673
 5947SOL    HW118740   4.030   3.031   1.656
 5947SOL    HW218741   4.148   3.119   1.586
 5948SOL     OW18742   3.619   5.080   2.874
 5948SOL    HW118743   3.696   5.119   2.823
 5948SOL    HW218744   3.653   5.009   2.936
 5949SOL     OW18745   3.684   4.648   1.041
 5949SOL    HW118746   3.630   4.696   1.110
 5949SOL    HW218747   3.658   4.681   0.950
 5950SOL     OW18748   5.671   2.175   4.462
 5950SOL    HW118749   5.730   2.166   4.382
 5950SOL    HW218750   5.612   2.094   4.468
 5951SOL     OW18751   1.462   6.625   4.825
 5951SOL    HW118752   1.365   6.636   4.849
 5951SOL    HW218753   1.471   6.566   4.746
 5952SOL     OW18754   6.330   6.021   3.707
 5952SOL    HW118755   6.308   6.002   3.611
 5952SOL    HW218756   6.302   5.942   3.762
 5953SOL     OW18757   0.147   3.230   5.052
 5953SOL    HW118758   0.172   3.204   4.959
 5953SOL    HW218759   0.181   3.161   5.116
 5954SOL     OW18760   6.776   4.827   5.580
 5954SOL    HW118761   6.740   4.819   5.486
 5954SOL    HW218762   6.828   4.912   5.587
 5955SOL     OW18763   5.900   5.744   2.127
 5955SOL    HW118764   5.853   5.656   2.128
 5955SOL    HW218765   5.841   5.814   2.167
 5956SOL     OW18766   3.916   1.686   0.204
 5956SOL    HW118767   3.861   1.723   0.129
 5956SOL    HW218768   3.898   1.587   0.212
 5957SOL     OW18769   4.831   6.726   6.025
 5957SOL    HW118770   4.847   6.824   6.024
 5957SOL    HW218771   4.906   6.680   6.072
 5958SOL     OW18772   6.464   6.321   2.086
 5958SOL    HW118773   6.500   6.353   2.173
 5958SOL    HW218774   6.476   6.222   2.079
 5959SOL     OW18775   3.110   2.096   5.622
 5959SOL    HW118776   3.182   2.058   5.564
 5959SOL    HW218777   3.022   2.087   5.577
 5960SOL     OW18778   3.300   0.281   4.329
 5960SOL    HW118779   3.394   0.310   4.346
 5960SOL    HW218780   3.299   0.186   4.299
 5961SOL     OW18781   3.946   0.989   4.034
 5961SOL    HW118782   3.887   0.910   4.015
 5961SOL    HW218783   3.982   0.981   4.127
 5962SOL     OW18784   5.305   5.545   2.505
 5962SOL    HW118785   5.292   5.446   2.513
 5962SOL    HW218786   5.223   5.586   2.464
 5963SOL     OW18787   3.343   3.863   3.722
 5963SOL    HW118788   3.434   3.847   3.760
 5963SOL    HW218789   3.341   3.836   3.625
 5964SOL     OW18790   6.855   5.306   6.372
 5964SOL    HW118791   6.924   5.371   6.402
 5964SOL    HW218792   6.765   5.337   6.402
 5965SOL     OW18793   1.808   1.981   6.792
 5965SOL    HW118794   1.811   2.078   6.767
 5965SOL    HW218795   1.846   1.926   6.718
 5966SOL     OW18796   3.185   5.516   4.832
 5966SOL    HW118797   3.122   5.587   4.861
 5966SOL    HW218798   3.276   5.556   4.818
 5967SOL     OW18799   4.208   6.479   2.404
 5967SOL    HW118800   4.111   6.460   2.421
 5967SOL    HW218801   4.230   6.453   2.310
 5968SOL     OW18802   6.203   2.204   3.120
 5968SOL    HW118803   6.291   2.198   3.072
 5968SOL    HW218804   6.143   2.132   3.086
 5969SOL     OW18805   6.341   2.867   4.553
 5969SOL    HW118806   6.416   2.819   4.510
 5969SOL    HW218807   6.256   2.848   4.504
 5970SOL     OW18808   0.783   3.953   2.104
 5970SOL    HW118809   0.781   3.898   2.021
 5970SOL    HW218810   0.878   3.970   2.130
 5971SOL     OW18811   1.516   0.143   3.123
 5971SOL    HW118812   1.441   0.209   3.109
 5971SOL    HW218813   1.597   0.191   3.155
 5972SOL     OW18814   4.634   6.269   0.611
 5972SOL    HW118815   4.730   6.261   0.636
 5972SOL    HW218816   4.579   6.283   0.693
 5973SOL     OW18817   1.826   5.295   2.335
 5973SOL    HW118818   1.760   5.358   2.376
 5973SOL    HW218819   1.779   5.211   2.308
 5974SOL     OW18820   6.259   3.831   6.499
 5974SOL    HW118821   6.182   3.769   6.513
 5974SOL    HW218822   6.225   3.923   6.480
 5975SOL     OW18823   3.856   2.773   1.077
 5975SOL    HW118824   3.931   2.726   1.124
 5975SOL    HW218825   3.890   2.857   1.036
 5976SOL     OW18826   3.295   2.934   4.484
 5976SOL    HW118827   3.356   2.860   4.456
 5976SOL    HW218828   3.260   2.980   4.403
 5977SOL     OW18829   1.269   4.463   1.718
 5977SOL    HW118830   1.366   4.442   1.716
 5977SOL    HW218831   1.221   4.397   1.776
 5978SOL     OW18832   4.864   4.344   2.887
 5978SOL    HW118833   4.962   4.326   2.872
 5978SOL    HW218834   4.831   4.289   2.963
 5979SOL     OW18835   6.176   0.231   3.461
 5979SOL    HW118836   6.215   0.323   3.463
 5979SOL    HW218837   6.238   0.168   3.508
 5980SOL     OW18838   4.234   4.121   0.100
 5980SOL    HW118839   4.225   4.023   0.085
 5980SOL    HW218840   4.271   4.165   0.018
 5981SOL     OW18841   6.872   1.762   1.902
 5981SOL    HW118842   6.783   1.768   1.947
 5981SOL    HW218843   6.870   1.815   1.817
 5982SOL     OW18844   6.142   2.008   6.542
 5982SOL    HW118845   6.128   1.910   6.557
 5982SOL    HW218846   6.105   2.059   6.620
 5983SOL     OW18847   2.072   1.695   4.197
 5983SOL    HW118848   2.020   1.736   4.123
 5983SOL    HW218849   2.014   1.688   4.279
 5984SOL     OW18850   0.218   6.297   4.514
 5984SOL    HW118851   0.214   6.238   4.434
 5984SOL    HW218852   0.163   6.258   4.588
 5985SOL     OW18853   5.386   2.042   3.547
 5985SOL    HW118854   5.331   2.106   3.493
 5985SOL    HW218855   5.367   1.948   3.517
 5986SOL     OW18856   3.388   3.271   3.760
 5986SOL    HW118857   3.346   3.209   3.694
 5986SOL    HW218858   3.325   3.344   3.782
 5987SOL     OW18859   4.611   0.662   5.123
 5987SOL    HW118860   4.683   0.705   5.178
 5987SOL    HW218861   4.652   0.591   5.066
 5988SOL     OW18862   4.092   6.969   4.825
 5988SOL    HW118863   4.021   6.906   4.854
 5988SOL    HW218864   4.094   6.973   4.725
 5989SOL     OW18865   2.580   6.284   6.562
 5989SOL    HW118866   2.510   6.324   6.502
 5989SOL    HW218867   2.629   6.357   6.610
 5990SOL     OW18868   3.794   4.278   0.705
 5990SOL    HW118869   3.786   4.298   0.607
 5990SOL    HW218870   3.869   4.214   0.720
 5991SOL     OW18871   4.488   4.925   5.006
 5991SOL    HW118872   4.579   4.956   5.036
 5991SOL    HW218873   4.450   4.992   4.942
 5992SOL     OW18874   3.308   1.211   4.313
 5992SOL    HW118875   3.343   1.118   4.310
 5992SOL    HW218876   3.371   1.271   4.263
 5993SOL     OW18877   3.693   6.544   5.303
 5993SOL    HW118878   3.681   6.480   5.379
 5993SOL    HW218879   3.665   6.500   5.218
 5994SOL     OW18880   6.199   2.454   1.908
 5994SOL    HW118881   6.264   2.400   1.961
 5994SOL    HW218882   6.110   2.409   1.909
 5995SOL     OW18883   0.401   5.011   1.114
 5995SOL    HW118884   0.353   5.065   1.045
 5995SOL    HW218885   0.391   5.054   1.203
 5996SOL     OW18886   0.839   5.797   6.543
 5996SOL    HW118887   0.743   5.805   6.570
 5996SOL    HW218888   0.846   5.797   6.443
 5997SOL     OW18889   0.379   0.078   1.955
 5997SOL    HW118890   0.318   0.118   1.886
 5997SOL    HW218891   0.474   0.089   1.926
 5998SOL     OW18892   5.654   2.376   2.564
 5998SOL    HW118893   5.590   2.452   2.556
 5998SOL    HW218894   5.671   2.357   2.661
 5999SOL     OW18895   0.876   1.884   3.363
 5999SOL    HW118896   0.914   1.792   3.368
 5999SOL    HW218897   0.841   1.902   3.271
 6000SOL     OW18898   3.980   5.347   2.216
 6000SOL    HW118899   4.077   5.325   2.229
 6000SOL    HW218900   3.940   5.375   2.303
 6001SOL     OW18901   0.009   3.233   6.857
 6001SOL    HW118902   0.020   3.242   6.758
 6001SOL    HW218903   6.945   3.282   6.885
 6002SOL     OW18904   0.301   6.431   1.046
 6002SOL    HW118905   0.288   6.510   1.105
 6002SOL    HW218906   0.374   6.373   1.085
 6003SOL     OW18907   5.299   3.342   4.761
 6003SOL    HW118908   5.392   3.378   4.763
 6003SOL    HW218909   5.263   3.338   4.854
 6004SOL     OW18910   0.350   3.988   3.266
 6004SOL    HW118911   0.431   3.991   3.206
 6004SOL    HW218912   0.372   3.935   3.348
 6005SOL     OW18913   4.246   5.461   4.289
 6005SOL    HW118914   4.192   5.545   4.300
 6005SOL    HW218915   4.339   5.477   4.324
 6006SOL     OW18916   3.202   0.416   6.987
 6006SOL    HW118917   3.244   0.330   6.957
 6006SOL    HW218918   3.260   0.458   0.039
 6007SOL     OW18919   5.125   3.259   3.513
 6007SOL    HW118920   5.178   3.309   3.445
 6007SOL    HW218921   5.118   3.163   3.486
 6008SOL     OW18922   3.284   5.611   5.692
 6008SOL    HW118923   3.192   5.619   5.731
 6008SOL    HW218924   3.284   5.541   5.621
 6009SOL     OW18925   2.560   1.866   4.828
 6009SOL    HW118926   2.484   1.838   4.887
 6009SOL    HW218927   2.592   1.787   4.776
 6010SOL     OW18928   1.888   4.603   2.467
 6010SOL    HW118929   1.822   4.659   2.418
 6010SOL    HW218930   1.841   4.538   2.526
 6011SOL     OW18931   5.216   2.449   1.705
 6011SOL    HW118932   5.163   2.458   1.789
 6011SOL    HW218933   5.205   2.531   1.649
 6012SOL     OW18934   6.525   2.001   6.912
 6012SOL    HW118935   6.490   1.943   6.838
 6012SOL    HW218936   6.598   2.059   6.876
 6013SOL     OW18937   6.225   1.869   2.248
 6013SOL    HW118938   6.170   1.798   2.204
 6013SOL    HW218939   6.167   1.946   2.274
 6014SOL     OW18940   5.535   1.531   0.575
 6014SOL    HW118941   5.628   1.493   0.578
 6014SOL    HW218942   5.526   1.602   0.645
 6015SOL     OW18943   5.883   2.821   5.482
 6015SOL    HW118944   5.892   2.727   5.452
 6015SOL    HW218945   5.946   2.839   5.557
 6016SOL     OW18946   0.793   1.171   6.244
 6016SOL    HW118947   0.772   1.140   6.151
 6016SOL    HW218948   0.811   1.269   6.243
 6017SOL     OW18949   5.829   5.502   3.249
 6017SOL    HW118950   5.745   5.449   3.239
 6017SOL    HW218951   5.901   5.444   3.287
 6018SOL     OW18952   3.435   3.081   0.185
 6018SOL    HW118953   3.367   3.038   0.125
 6018SOL    HW218954   3.391   3.152   0.240
 6019SOL     OW18955   4.525   1.595   3.236
 6019SOL    HW118956   4.430   1.626   3.243
 6019SOL    HW218957   4.558   1.568   3.326
 6020SOL     OW18958   3.140   6.832   2.369
 6020SOL    HW118959   3.235   6.860   2.379
 6020SOL    HW218960   3.099   6.881   2.292
 6021SOL     OW18961   4.612   0.561   2.681
 6021SOL    HW118962   4.556   0.614   2.745
 6021SOL    HW218963   4.649   0.481   2.728
 6022SOL     OW18964   4.910   0.980   3.622
 6022SOL    HW118965   4.970   0.972   3.543
 6022SOL    HW218966   4.962   0.959   3.705
 6023SOL     OW18967   6.084   0.994   3.676
 6023SOL    HW118968   6.090   1.042   3.763
 6023SOL    HW218969   6.167   0.941   3.661
 6024SOL     OW18970   0.594   4.608   2.080
 6024SOL    HW118971   0.643   4.565   2.156
 6024SOL    HW218972   0.646   4.687   2.047
 6025SOL     OW18973   4.490   0.453   1.539
 6025SOL    HW118974   4.493   0.504   1.625
 6025SOL    HW218975   4.527   0.508   1.465
 6026SOL     OW18976   0.599   4.722   4.608
 6026SOL    HW118977   0.536   4.647   4.588
 6026SOL    HW218978   0.693   4.688   4.606
 6027SOL     OW18979   1.956   3.951   6.038
 6027SOL    HW118980   1.860   3.979   6.034
 6027SOL    HW218981   2.011   4.029   6.067
 6028SOL     OW18982   1.461   4.021   0.153
 6028SOL    HW118983   1.441   3.923   0.159
 6028SOL    HW218984   1.381   4.073   0.182
 6029SOL     OW18985   2.304   6.641   0.033
 6029SOL    HW118986   2.236   6.624   0.105
 6029SOL    HW218987   2.332   6.737   0.036
 6030SOL     OW18988   2.246   0.757   3.290
 6030SOL    HW118989   2.220   0.832   3.229
 6030SOL    HW218990   2.163   0.711   3.324
 6031SOL     OW18991   4.878   5.772   5.520
 6031SOL    HW118992   4.784   5.799   5.537
 6031SOL    HW218993   4.939   5.822   5.581
 6032SOL     OW18994   1.841   3.459   2.729
 6032SOL    HW118995   1.917   3.420   2.782
 6032SOL    HW218996   1.788   3.385   2.688
 6033SOL     OW18997   2.345   2.241   3.188
 6033SOL    HW118998   2.296   2.260   3.103
 6033SOL    HW218999   2.424   2.183   3.170
 6034SOL     OW19000   2.695   4.935   4.716
 6034SOL    HW119001   2.649   4.896   4.795
 6034SOL    HW219002   2.785   4.892   4.706
 6035SOL     OW19003   5.279   1.167   4.523
 6035SOL    HW119004   5.338   1.134   4.449
 6035SOL    HW219005   5.191   1.195   4.485
 6036SOL     OW19006   6.995   0.014   5.390
 6036SOL    HW119007   6.934   6.963   5.430
 6036SOL    HW219008   6.950   0.103   5.390
 6037SOL     OW19009   4.794   4.741   6.324
 6037SOL    HW119010   4.777   4.838   6.307
 6037SOL    HW219011   4.828   4.698   6.241
 6038SOL     OW19012   0.523   3.115   6.586
 6038SOL    HW119013   0.577   3.038   6.620
 6038SOL    HW219014   0.575   3.200   6.596
 6039SOL     OW19015   3.248   3.339   2.804
 6039SOL    HW119016   3.334   3.295   2.830
 6039SOL    HW219017   3.237   3.334   2.704
 6040SOL     OW19018   0.480   1.621   6.533
 6040SOL    HW119019   0.402   1.626   6.471
 6040SOL    HW219020   0.476   1.536   6.586
 6041SOL     OW19021   1.180   2.052   6.648
 6041SOL    HW119022   1.275   2.054   6.680
 6041SOL    HW219023   1.174   2.099   6.559
 6042SOL     OW19024   5.548   5.039   2.486
 6042SOL    HW119025   5.518   4.994   2.402
 6042SOL    HW219026   5.476   5.033   2.555
 6043SOL     OW19027   1.364   5.122   5.061
 6043SOL    HW119028   1.411   5.204   5.029
 6043SOL    HW219029   1.373   5.049   4.993
 6044SOL     OW19030   0.271   1.924   1.425
 6044SOL    HW119031   0.264   1.826   1.404
 6044SOL    HW219032   0.251   1.939   1.521
 6045SOL     OW19033   5.319   5.551   0.881
 6045SOL    HW119034   5.401   5.494   0.877
 6045SOL    HW219035   5.257   5.515   0.951
 6046SOL     OW19036   3.106   2.486   0.568
 6046SOL    HW119037   3.067   2.482   0.660
 6046SOL    HW219038   3.106   2.395   0.528
 6047SOL     OW19039   5.871   0.854   4.550
 6047SOL    HW119040   5.877   0.948   4.585
 6047SOL    HW219041   5.886   0.854   4.451
 6048SOL     OW19042   3.427   0.254   3.383
 6048SOL    HW119043   3.352   0.216   3.438
 6048SOL    HW219044   3.513   0.247   3.433
 6049SOL     OW19045   4.317   3.073   6.290
 6049SOL    HW119046   4.402   3.123   6.297
 6049SOL    HW219047   4.304   3.043   6.195
 6050SOL     OW19048   4.148   4.387   5.969
 6050SOL    HW119049   4.130   4.407   5.873
 6050SOL    HW219050   4.144   4.471   6.023
 6051SOL     OW19051   2.146   2.461   2.762
 6051SOL    HW119052   2.131   2.464   2.663
 6051SOL    HW219053   2.107   2.543   2.804
 6052SOL     OW19054   6.546   0.368   0.304
 6052SOL    HW119055   6.616   0.417   0.251
 6052SOL    HW219056   6.459   0.372   0.254
 6053SOL     OW19057   3.171   0.806   0.074
 6053SOL    HW119058   3.233   0.864   0.127
 6053SOL    HW219059   3.176   0.712   0.107
 6054SOL     OW19060   2.395   4.164   1.132
 6054SOL    HW119061   2.435   4.113   1.208
 6054SOL    HW219062   2.448   4.146   1.049
 6055SOL     OW19063   5.692   0.716   5.411
 6055SOL    HW119064   5.785   0.722   5.446
 6055SOL    HW219065   5.638   0.793   5.445
 6056SOL     OW19066   4.131   1.508   5.796
 6056SOL    HW119067   4.219   1.464   5.780
 6056SOL    HW219068   4.078   1.453   5.861
 6057SOL     OW19069   4.667   1.658   4.509
 6057SOL    HW119070   4.571   1.680   4.497
 6057SOL    HW219071   4.713   1.733   4.556
 6058SOL     OW19072   5.754   2.795   3.592
 6058SOL    HW119073   5.780   2.887   3.620
 6058SOL    HW219074   5.825   2.730   3.620
 6059SOL     OW19075   4.783   5.343   6.182
 6059SOL    HW119076   4.739   5.297   6.259
 6059SOL    HW219077   4.723   5.415   6.147
 6060SOL     OW19078   3.864   4.280   6.002
 6060SOL    HW119079   3.825   4.281   6.094
 6060SOL    HW219080   3.954   4.324   6.002
 6061SOL     OW19081   3.399   2.208   6.692
 6061SOL    HW119082   3.369   2.157   6.773
 6061SOL    HW219083   3.419   2.303   6.718
 6062SOL     OW19084   2.274   1.518   4.607
 6062SOL    HW119085   2.268   1.608   4.651
 6062SOL    HW219086   2.323   1.455   4.667
 6063SOL     OW19087   3.968   1.013   6.197
 6063SOL    HW119088   4.019   1.059   6.125
 6063SOL    HW219089   3.876   0.992   6.164
 6064SOL     OW19090   1.761   5.670   2.951
 6064SOL    HW119091   1.720   5.761   2.956
 6064SOL    HW219092   1.849   5.676   2.905
 6065SOL     OW19093   6.508   6.612   1.120
 6065SOL    HW119094   6.596   6.654   1.141
 6065SOL    HW219095   6.522   6.519   1.087
 6066SOL     OW19096   4.898   1.515   1.528
 6066SOL    HW119097   4.897   1.423   1.489
 6066SOL    HW219098   4.814   1.563   1.504
 6067SOL     OW19099   6.037   1.835   6.197
 6067SOL    HW119100   6.108   1.889   6.243
 6067SOL    HW219101   5.947   1.863   6.230
 6068SOL     OW19102   4.988   3.136   5.159
 6068SOL    HW119103   4.985   3.044   5.120
 6068SOL    HW219104   4.903   3.154   5.209
 6069SOL     OW19105   6.829   3.651   6.062
 6069SOL    HW119106   6.842   3.695   6.150
 6069SOL    HW219107   6.871   3.707   5.990
 6070SOL     OW19108   3.828   2.053   6.606
 6070SOL    HW119109   3.885   2.134   6.599
 6070SOL    HW219110   3.877   1.982   6.656
 6071SOL     OW19111   3.871   5.920   6.101
 6071SOL    HW119112   3.876   6.016   6.074
 6071SOL    HW219113   3.782   5.882   6.075
 6072SOL     OW19114   1.076   1.508   2.018
 6072SOL    HW119115   1.104   1.436   2.082
 6072SOL    HW219116   1.016   1.573   2.065
 6073SOL     OW19117   6.116   3.216   0.527
 6073SOL    HW119118   6.194   3.156   0.543
 6073SOL    HW219119   6.149   3.306   0.499
 6074SOL     OW19120   0.804   0.053   4.621
 6074SOL    HW119121   0.829   0.096   4.534
 6074SOL    HW219122   0.813   0.120   4.695
 6075SOL     OW19123   6.450   2.720   7.007
 6075SOL    HW119124   6.543   2.707   0.022
 6075SOL    HW219125   6.389   2.655   0.034
 6076SOL     OW19126   2.470   6.667   4.956
 6076SOL    HW119127   2.453   6.725   5.036
 6076SOL    HW219128   2.556   6.693   4.913
 6077SOL     OW19129   4.824   5.671   2.342
 6077SOL    HW119130   4.786   5.579   2.354
 6077SOL    HW219131   4.912   5.676   2.390
 6078SOL     OW19132   3.255   4.884   3.447
 6078SOL    HW119133   3.299   4.899   3.536
 6078SOL    HW219134   3.320   4.841   3.384
 6079SOL     OW19135   2.371   3.646   0.030
 6079SOL    HW119136   2.356   3.743   0.013
 6079SOL    HW219137   2.283   3.598   0.030
 6080SOL     OW19138   6.669   1.873   0.974
 6080SOL    HW119139   6.604   1.818   1.025
 6080SOL    HW219140   6.620   1.931   0.909
 6081SOL     OW19141   6.194   3.737   4.635
 6081SOL    HW119142   6.127   3.752   4.708
 6081SOL    HW219143   6.271   3.800   4.648
 6082SOL     OW19144   3.541   0.450   2.906
 6082SOL    HW119145   3.631   0.489   2.884
 6082SOL    HW219146   3.503   0.496   2.985
 6083SOL     OW19147   1.291   5.289   6.075
 6083SOL    HW119148   1.385   5.255   6.066
 6083SOL    HW219149   1.231   5.213   6.100
 6084SOL     OW19150   6.876   5.222   4.243
 6084SOL    HW119151   6.846   5.224   4.339
 6084SOL    HW219152   6.805   5.262   4.185
 6085SOL     OW19153   6.916   4.488   0.442
 6085SOL    HW119154   6.900   4.520   0.348
 6085SOL    HW219155   6.910   4.388   0.445
 6086SOL     OW19156   3.862   1.221   4.549
 6086SOL    HW119157   3.892   1.147   4.610
 6086SOL    HW219158   3.939   1.282   4.532
 6087SOL     OW19159   5.450   7.004   0.098
 6087SOL    HW119160   5.418   0.080   0.093
 6087SOL    HW219161   5.526   6.990   0.036
 6088SOL     OW19162   6.949   6.496   4.583
 6088SOL    HW119163   6.933   6.399   4.603
 6088SOL    HW219164   7.006   6.536   4.655
 6089SOL     OW19165   0.395   3.466   1.423
 6089SOL    HW119166   0.397   3.415   1.337
 6089SOL    HW219167   0.341   3.549   1.412
 6090SOL     OW19168   0.647   6.210   5.750
 6090SOL    HW119169   0.737   6.231   5.710
 6090SOL    HW219170   0.601   6.296   5.774
 6091SOL     OW19171   0.610   1.233   1.709
 6091SOL    HW119172   0.709   1.241   1.716
 6091SOL    HW219173   0.576   1.170   1.780
 6092SOL     OW19174   2.266   0.881   2.782
 6092SOL    HW119175   2.234   0.972   2.753
 6092SOL    HW219176   2.289   0.827   2.702
 6093SOL     OW19177   1.893   3.077   1.797
 6093SOL    HW119178   1.809   3.106   1.842
 6093SOL    HW219179   1.906   3.130   1.713
 6094SOL     OW19180   1.881   1.500   1.586
 6094SOL    HW119181   1.981   1.500   1.588
 6094SOL    HW219182   1.850   1.538   1.498
 6095SOL     OW19183   4.853   2.942   0.028
 6095SOL    HW119184   4.791   2.894   6.984
 6095SOL    HW219185   4.870   3.035   7.012
 6096SOL     OW19186   5.592   0.848   4.373
 6096SOL    HW119187   5.611   0.883   4.464
 6096SOL    HW219188   5.541   0.762   4.380
 6097SOL     OW19189   2.231   0.460   2.483
 6097SOL    HW119190   2.225   0.360   2.491
 6097SOL    HW219191   2.161   0.492   2.419
 6098SOL     OW19192   1.732   2.524   5.917
 6098SOL    HW119193   1.690   2.605   5.876
 6098SOL    HW219194   1.760   2.545   6.011
 6099SOL     OW19195   5.815   5.527   5.274
 6099SOL    HW119196   5.907   5.487   5.276
 6099SOL    HW219197   5.789   5.543   5.178
 6100SOL     OW19198   6.564   3.733   6.044
 6100SOL    HW119199   6.654   3.690   6.046
 6100SOL    HW219200   6.531   3.747   6.137
 6101SOL     OW19201   6.639   2.353   5.952
 6101SOL    HW119202   6.605   2.259   5.946
 6101SOL    HW219203   6.573   2.409   6.001
 6102SOL     OW19204   2.637   0.824   4.285
 6102SOL    HW119205   2.559   0.788   4.235
 6102SOL    HW219206   2.679   0.751   4.339
 6103SOL     OW19207   6.960   0.339   3.755
 6103SOL    HW119208   0.014   0.271   3.741
 6103SOL    HW219209   6.993   0.410   3.817
 6104SOL     OW19210   5.762   2.169   6.435
 6104SOL    HW119211   5.747   2.252   6.488
 6104SOL    HW219212   5.724   2.091   6.485
 6105SOL     OW19213   3.621   6.342   5.486
 6105SOL    HW119214   3.668   6.325   5.573
 6105SOL    HW219215   3.531   6.299   5.488
 6106SOL     OW19216   2.970   5.060   6.290
 6106SOL    HW119217   2.882   5.107   6.283
 6106SOL    HW219218   2.967   4.993   6.364
 6107SOL     OW19219   2.199   4.757   4.436
 6107SOL    HW119220   2.298   4.754   4.428
 6107SOL    HW219221   2.159   4.672   4.400
 6108SOL     OW19222   1.009   1.545   3.785
 6108SOL    HW119223   1.048   1.637   3.776
 6108SOL    HW219224   1.003   1.503   3.694
 6109SOL     OW19225   5.317   2.337   0.355
 6109SOL    HW119226   5.385   2.408   0.333
 6109SOL    HW219227   5.302   2.280   0.274
 6110SOL     OW19228   2.703   2.747   6.444
 6110SOL    HW119229   2.769   2.789   6.381
 6110SOL    HW219230   2.730   2.767   6.538
 6111SOL     OW19231   0.725   5.020   2.932
 6111SOL    HW119232   0.741   4.939   2.989
 6111SOL    HW219233   0.808   5.075   2.929
 6112SOL     OW19234   1.763   1.849   3.081
 6112SOL    HW119235   1.793   1.870   3.174
 6112SOL    HW219236   1.842   1.828   3.023
 6113SOL     OW19237   1.051   0.578   6.560
 6113SOL    HW119238   1.123   0.592   6.492
 6113SOL    HW219239   1.064   0.490   6.606
 6114SOL     OW19240   5.584   5.524   6.993
 6114SOL    HW119241   5.572   5.543   0.072
 6114SOL    HW219242   5.527   5.446   6.967
 6115SOL     OW19243   4.850   5.267   3.057
 6115SOL    HW119244   4.823   5.356   3.022
 6115SOL    HW219245   4.806   5.251   3.146
 6116SOL     OW19246   2.926   1.186   1.684
 6116SOL    HW119247   3.014   1.174   1.637
 6116SOL    HW219248   2.854   1.202   1.615
 6117SOL     OW19249   5.953   0.129   4.345
 6117SOL    HW119250   5.897   0.049   4.324
 6117SOL    HW219251   5.933   0.202   4.279
 6118SOL     OW19252   6.594   1.752   2.064
 6118SOL    HW119253   6.588   1.658   2.097
 6118SOL    HW219254   6.528   1.809   2.114
 6119SOL     OW19255   0.427   4.478   4.871
 6119SOL    HW119256   0.349   4.537   4.892
 6119SOL    HW219257   0.412   4.388   4.912
 6120SOL     OW19258   2.556   6.508   3.860
 6120SOL    HW119259   2.524   6.527   3.953
 6120SOL    HW219260   2.634   6.566   3.839
 6121SOL     OW19261   0.215   2.805   3.818
 6121SOL    HW119262   0.193   2.874   3.888
 6121SOL    HW219263   0.314   2.797   3.809
 6122SOL     OW19264   3.906   6.181   2.952
 6122SOL    HW119265   3.835   6.182   2.882
 6122SOL    HW219266   3.928   6.086   2.976
 6123SOL     OW19267   6.871   1.090   1.211
 6123SOL    HW119268   6.852   1.049   1.300
 6123SOL    HW219269   6.966   1.073   1.186
 6124SOL     OW19270   4.123   0.155   5.198
 6124SOL    HW119271   4.064   0.142   5.118
 6124SOL    HW219272   4.096   0.239   5.245
 6125SOL     OW19273   2.731   5.827   1.444
 6125SOL    HW119274   2.778   5.874   1.519
 6125SOL    HW219275   2.733   5.728   1.461
 6126SOL     OW19276   5.038   5.596   4.367
 6126SOL    HW119277   5.017   5.576   4.271
 6126SOL    HW219278   4.964   5.650   4.407
 6127SOL     OW19279   2.996   6.956   1.262
 6127SOL    HW119280   3.084   6.920   1.292
 6127SOL    HW219281   2.936   6.879   1.238
 6128SOL     OW19282   0.140   3.475   0.568
 6128SOL    HW119283   0.111   3.570   0.567
 6128SOL    HW219284   0.139   3.439   0.474
 6129SOL     OW19285   6.260   3.668   2.978
 6129SOL    HW119286   6.270   3.733   2.903
 6129SOL    HW219287   6.252   3.717   3.065
 6130SOL     OW19288   5.829   2.786   4.051
 6130SOL    HW119289   5.743   2.819   4.090
 6130SOL    HW219290   5.811   2.714   3.984
 6131SOL     OW19291   6.643   1.205   5.504
 6131SOL    HW119292   6.604   1.282   5.453
 6131SOL    HW219293   6.743   1.215   5.509
 6132SOL     OW19294   3.993   1.949   0.282
 6132SOL    HW119295   3.926   2.016   0.314
 6132SOL    HW219296   3.946   1.869   0.246
 6133SOL     OW19297   0.485   3.152   1.909
 6133SOL    HW119298   0.401   3.113   1.869
 6133SOL    HW219299   0.471   3.168   2.006
 6134SOL     OW19300   3.527   3.250   6.820
 6134SOL    HW119301   3.511   3.348   6.809
 6134SOL    HW219302   3.604   3.235   6.882
 6135SOL     OW19303   6.930   0.067   1.403
 6135SOL    HW119304   6.971   6.996   1.383
 6135SOL    HW219305   6.949   0.130   1.328
 6136SOL     OW19306   0.946   1.241   2.559
 6136SOL    HW119307   0.919   1.324   2.511
 6136SOL    HW219308   0.865   1.187   2.580
 6137SOL     OW19309   3.617   0.385   5.785
 6137SOL    HW119310   3.547   0.339   5.731
 6137SOL    HW219311   3.597   0.483   5.788
 6138SOL     OW19312   3.808   6.684   2.731
 6138SOL    HW119313   3.745   6.716   2.660
 6138SOL    HW219314   3.896   6.731   2.722
 6139SOL     OW19315   1.818   3.513   4.985
 6139SOL    HW119316   1.805   3.538   5.081
 6139SOL    HW219317   1.860   3.423   4.979
 6140SOL     OW19318   0.808   6.944   1.437
 6140SOL    HW119319   0.711   6.958   1.460
 6140SOL    HW219320   0.864   6.962   1.517
 6141SOL     OW19321   6.772   5.971   4.840
 6141SOL    HW119322   6.680   5.953   4.804
 6141SOL    HW219323   6.768   6.047   4.905
 6142SOL     OW19324   6.601   4.474   0.714
 6142SOL    HW119325   6.675   4.416   0.747
 6142SOL    HW219326   6.528   4.417   0.675
 6143SOL     OW19327   6.427   4.944   5.945
 6143SOL    HW119328   6.478   4.860   5.922
 6143SOL    HW219329   6.331   4.932   5.921
 6144SOL     OW19330   0.170   4.232   2.921
 6144SOL    HW119331   0.112   4.237   2.840
 6144SOL    HW219332   0.160   4.316   2.974
 6145SOL     OW19333   4.783   5.400   3.791
 6145SOL    HW119334   4.795   5.498   3.810
 6145SOL    HW219335   4.693   5.385   3.749
 6146SOL     OW19336   4.665   1.336   3.404
 6146SOL    HW119337   4.631   1.425   3.434
 6146SOL    HW219338   4.661   1.271   3.479
 6147SOL     OW19339   2.221   5.006   2.925
 6147SOL    HW119340   2.221   5.015   3.025
 6147SOL    HW219341   2.266   4.921   2.899
 6148SOL     OW19342   6.818   6.188   4.215
 6148SOL    HW119343   6.863   6.257   4.272
 6148SOL    HW219344   6.720   6.188   4.235
 6149SOL     OW19345   3.786   5.065   3.314
 6149SOL    HW119346   3.877   5.093   3.342
 6149SOL    HW219347   3.748   5.001   3.382
 6150SOL     OW19348   4.640   5.594   6.802
 6150SOL    HW119349   4.655   5.554   6.711
 6150SOL    HW219350   4.726   5.632   6.836
 6151SOL     OW19351   5.697   3.176   5.187
 6151SOL    HW119352   5.681   3.169   5.088
 6151SOL    HW219353   5.627   3.234   5.228
 6152SOL     OW19354   5.379   5.119   6.079
 6152SOL    HW119355   5.435   5.180   6.134
 6152SOL    HW219356   5.355   5.038   6.132
 6153SOL     OW19357   4.641   3.991   1.413
 6153SOL    HW119358   4.569   4.060   1.416
 6153SOL    HW219359   4.681   3.980   1.504
 6154SOL     OW19360   6.007   1.524   2.123
 6154SOL    HW119361   6.037   1.440   2.079
 6154SOL    HW219362   6.068   1.599   2.098
 6155SOL     OW19363   0.996   3.844   4.377
 6155SOL    HW119364   1.075   3.785   4.361
 6155SOL    HW219365   0.942   3.851   4.293
 6156SOL     OW19366   5.055   6.293   2.658
 6156SOL    HW119367   5.013   6.207   2.687
 6156SOL    HW219368   4.984   6.361   2.643
 6157SOL     OW19369   2.070   2.227   3.582
 6157SOL    HW119370   2.012   2.180   3.516
 6157SOL    HW219371   2.014   2.260   3.658
 6158SOL     OW19372   4.610   0.643   6.567
 6158SOL    HW119373   4.643   0.660   6.474
 6158SOL    HW219374   4.626   0.547   6.590
 6159SOL     OW19375   5.142   1.326   0.003
 6159SOL    HW119376   5.074   1.288   0.064
 6159SOL    HW219377   5.214   1.370   0.056
 6160SOL     OW19378   5.757   5.540   0.978
 6160SOL    HW119379   5.833   5.480   1.003
 6160SOL    HW219380   5.792   5.620   0.929
 6161SOL     OW19381   5.667   1.019   5.555
 6161SOL    HW119382   5.694   1.046   5.462
 6161SOL    HW219383   5.748   1.018   5.614
 6162SOL     OW19384   1.386   5.408   4.353
 6162SOL    HW119385   1.401   5.438   4.448
 6162SOL    HW219386   1.470   5.366   4.319
 6163SOL     OW19387   5.378   4.747   1.074
 6163SOL    HW119388   5.444   4.672   1.069
 6163SOL    HW219389   5.416   4.822   1.128
 6164SOL     OW19390   2.002   2.194   1.226
 6164SOL    HW119391   1.942   2.264   1.264
 6164SOL    HW219392   1.999   2.112   1.283
 6165SOL     OW19393   4.129   5.961   0.566
 6165SOL    HW119394   4.186   5.884   0.595
 6165SOL    HW219395   4.033   5.938   0.579
 6166SOL     OW19396   3.314   1.304   5.632
 6166SOL    HW119397   3.258   1.363   5.690
 6166SOL    HW219398   3.352   1.357   5.557
 6167SOL     OW19399   0.592   4.704   2.395
 6167SOL    HW119400   0.593   4.604   2.391
 6167SOL    HW219401   0.498   4.737   2.388
 6168SOL     OW19402   0.201   3.628   1.744
 6168SOL    HW119403   0.283   3.679   1.716
 6168SOL    HW219404   0.221   3.530   1.744
 6169SOL     OW19405   2.038   3.890   1.785
 6169SOL    HW119406   2.008   3.951   1.858
 6169SOL    HW219407   2.057   3.800   1.824
 6170SOL     OW19408   0.447   3.590   5.422
 6170SOL    HW119409   0.466   3.600   5.520
 6170SOL    HW219410   0.440   3.492   5.400
 6171SOL     OW19411   0.817   0.502   0.934
 6171SOL    HW119412   0.778   0.519   0.844
 6171SOL    HW219413   0.813   0.404   0.953
 6172SOL     OW19414   0.734   2.673   3.343
 6172SOL    HW119415   0.640   2.683   3.376
 6172SOL    HW219416   0.793   2.641   3.417
 6173SOL     OW19417   6.780   6.368   2.922
 6173SOL    HW119418   6.715   6.427   2.874
 6173SOL    HW219419   6.752   6.360   3.018
 6174SOL     OW19420   5.199   4.849   3.241
 6174SOL    HW119421   5.199   4.810   3.149
 6174SOL    HW219422   5.111   4.831   3.285
 6175SOL     OW19423   3.800   0.781   4.959
 6175SOL    HW119424   3.804   0.855   5.026
 6175SOL    HW219425   3.865   0.800   4.885
 6176SOL     OW19426   4.050   4.105   5.190
 6176SOL    HW119427   4.110   4.174   5.150
 6176SOL    HW219428   3.996   4.061   5.118
 6177SOL     OW19429   5.880   1.651   1.862
 6177SOL    HW119430   5.917   1.564   1.893
 6177SOL    HW219431   5.804   1.678   1.920
 6178SOL     OW19432   4.912   3.683   2.075
 6178SOL    HW119433   4.952   3.600   2.035
 6178SOL    HW219434   4.957   3.702   2.163
 6179SOL     OW19435   6.735   5.080   1.834
 6179SOL    HW119436   6.684   5.027   1.766
 6179SOL    HW219437   6.723   5.038   1.925
 6180SOL     OW19438   2.609   5.075   0.689
 6180SOL    HW119439   2.564   5.003   0.637
 6180SOL    HW219440   2.641   5.147   0.626
 6181SOL     OW19441   4.557   5.090   6.147
 6181SOL    HW119442   4.492   5.156   6.109
 6181SOL    HW219443   4.513   5.037   6.219
 6182SOL     OW19444   3.553   3.368   0.254
 6182SOL    HW119445   3.524   3.462   0.235
 6182SOL    HW219446   3.489   3.304   0.212
 6183SOL     OW19447   1.499   2.071   0.808
 6183SOL    HW119448   1.462   2.111   0.724
 6183SOL    HW219449   1.596   2.096   0.816
 6184SOL     OW19450   2.671   1.245   6.073
 6184SOL    HW119451   2.681   1.283   5.980
 6184SOL    HW219452   2.758   1.208   6.103
 6185SOL     OW19453   3.415   2.880   4.921
 6185SOL    HW119454   3.319   2.907   4.913
 6185SOL    HW219455   3.433   2.850   5.015
 6186SOL     OW19456   6.470   1.949   2.229
 6186SOL    HW119457   6.374   1.920   2.228
 6186SOL    HW219458   6.494   1.981   2.320
 6187SOL     OW19459   4.702   2.661   5.663
 6187SOL    HW119460   4.800   2.650   5.682
 6187SOL    HW219461   4.670   2.583   5.608
 6188SOL     OW19462   2.109   1.823   5.492
 6188SOL    HW119463   2.074   1.848   5.402
 6188SOL    HW219464   2.184   1.757   5.482
 6189SOL     OW19465   4.186   5.562   2.140
 6189SOL    HW119466   4.236   5.554   2.226
 6189SOL    HW219467   4.092   5.532   2.153
 6190SOL     OW19468   6.232   3.233   6.011
 6190SOL    HW119469   6.197   3.208   6.102
 6190SOL    HW219470   6.267   3.326   6.014
 6191SOL     OW19471   2.566   3.489   6.203
 6191SOL    HW119472   2.521   3.571   6.238
 6191SOL    HW219473   2.662   3.509   6.186
 6192SOL     OW19474   2.374   2.169   7.010
 6192SOL    HW119475   2.286   2.147   0.034
 6192SOL    HW219476   2.364   2.168   6.911
 6193SOL     OW19477   5.254   5.409   6.983
 6193SOL    HW119478   5.229   5.328   0.017
 6193SOL    HW219479   5.219   5.402   6.890
 6194SOL     OW19480   6.663   0.449   6.414
 6194SOL    HW119481   6.675   0.352   6.393
 6194SOL    HW219482   6.573   0.464   6.455
 6195SOL     OW19483   6.166   0.658   5.015
 6195SOL    HW119484   6.230   0.675   5.090
 6195SOL    HW219485   6.189   0.572   4.970
 6196SOL     OW19486   4.907   4.575   3.469
 6196SOL    HW119487   4.882   4.554   3.564
 6196SOL    HW219488   4.999   4.540   3.450
 6197SOL     OW19489   2.161   5.313   1.996
 6197SOL    HW119490   2.154   5.215   1.976
 6197SOL    HW219491   2.132   5.331   2.090
 6198SOL     OW19492   5.913   6.343   6.362
 6198SOL    HW119493   5.851   6.373   6.434
 6198SOL    HW219494   5.863   6.336   6.276
 6199SOL     OW19495   0.532   0.028   0.385
 6199SOL    HW119496   0.447   0.017   0.334
 6199SOL    HW219497   0.530   6.987   0.467
 6200SOL     OW19498   1.501   1.266   2.460
 6200SOL    HW119499   1.508   1.355   2.414
 6200SOL    HW219500   1.514   1.193   2.394
 6201SOL     OW19501   6.764   4.123   3.899
 6201SOL    HW119502   6.792   4.171   3.983
 6201SOL    HW219503   6.725   4.189   3.835
 6202SOL     OW19504   6.545   1.840   3.363
 6202SOL    HW119505   6.615   1.782   3.405
 6202SOL    HW219506   6.506   1.901   3.431
 6203SOL     OW19507   6.582   5.756   1.701
 6203SOL    HW119508   6.522   5.755   1.781
 6203SOL    HW219509   6.597   5.850   1.671
 6204SOL     OW19510   1.295   6.301   5.276
 6204SOL    HW119511   1.386   6.279   5.242
 6204SOL    HW219512   1.298   6.388   5.326
 6205SOL     OW19513   4.817   3.833   2.291
 6205SOL    HW119514   4.763   3.788   2.220
 6205SOL    HW219515   4.767   3.913   2.324
 6206SOL     OW19516   5.096   1.892   3.529
 6206SOL    HW119517   5.132   1.860   3.617
 6206SOL    HW219518   5.077   1.990   3.534
 6207SOL     OW19519   1.368   5.680   4.701
 6207SOL    HW119520   1.404   5.765   4.665
 6207SOL    HW219521   1.327   5.696   4.791
 6208SOL     OW19522   3.631   2.818   5.562
 6208SOL    HW119523   3.633   2.874   5.645
 6208SOL    HW219524   3.725   2.798   5.535
 6209SOL     OW19525   3.474   4.523   1.282
 6209SOL    HW119526   3.423   4.492   1.362
 6209SOL    HW219527   3.560   4.472   1.275
 6210SOL     OW19528   4.901   3.385   3.564
 6210SOL    HW119529   4.980   3.329   3.536
 6210SOL    HW219530   4.859   3.344   3.645
 6211SOL     OW19531   5.176   5.651   4.965
 6211SOL    HW119532   5.091   5.696   4.993
 6211SOL    HW219533   5.209   5.693   4.880
 6212SOL     OW19534   2.932   5.136   5.821
 6212SOL    HW119535   2.858   5.102   5.764
 6212SOL    HW219536   2.903   5.134   5.917
 6213SOL     OW19537   4.741   6.039   0.954
 6213SOL    HW119538   4.724   6.115   1.016
 6213SOL    HW219539   4.662   6.027   0.894
 6214SOL     OW19540   5.593   6.115   5.365
 6214SOL    HW119541   5.546   6.187   5.314
 6214SOL    HW219542   5.690   6.116   5.342
 6215SOL     OW19543   5.106   3.123   6.310
 6215SOL    HW119544   5.097   3.127   6.409
 6215SOL    HW219545   5.097   3.215   6.271
 6216SOL     OW19546   5.127   2.825   3.545
 6216SOL    HW119547   5.216   2.822   3.498
 6216SOL    HW219548   5.057   2.785   3.486
 6217SOL     OW19549   1.065   4.744   2.477
 6217SOL    HW119550   1.120   4.717   2.398
 6217SOL    HW219551   0.990   4.679   2.489
 6218SOL     OW19552   4.752   6.428   0.395
 6218SOL    HW119553   4.706   6.383   0.472
 6218SOL    HW219554   4.750   6.368   0.316
 6219SOL     OW19555   0.885   0.875   5.180
 6219SOL    HW119556   0.886   0.790   5.127
 6219SOL    HW219557   0.966   0.878   5.239
 6220SOL     OW19558   3.450   0.984   0.815
 6220SOL    HW119559   3.415   1.046   0.885
 6220SOL    HW219560   3.548   0.968   0.831
 6221SOL     OW19561   6.922   6.086   6.619
 6221SOL    HW119562   6.853   6.119   6.555
 6221SOL    HW219563   6.877   6.048   6.700
 6222SOL     OW19564   5.984   1.238   2.098
 6222SOL    HW119565   5.959   1.283   2.012
 6222SOL    HW219566   5.903   1.228   2.155
 6223SOL     OW19567   0.317   4.591   3.573
 6223SOL    HW119568   0.312   4.498   3.538
 6223SOL    HW219569   0.237   4.643   3.544
 6224SOL     OW19570   4.367   1.797   6.247
 6224SOL    HW119571   4.267   1.805   6.258
 6224SOL    HW219572   4.411   1.881   6.276
 6225SOL     OW19573   3.855   0.411   0.219
 6225SOL    HW119574   3.867   0.322   0.175
 6225SOL    HW219575   3.864   0.483   0.151
 6226SOL     OW19576   1.381   1.023   4.065
 6226SOL    HW119577   1.427   1.025   3.976
 6226SOL    HW219578   1.319   0.946   4.069
 6227SOL     OW19579   2.804   4.387   5.676
 6227SOL    HW119580   2.808   4.340   5.588
 6227SOL    HW219581   2.897   4.406   5.708
 6228SOL     OW19582   2.136   2.610   3.819
 6228SOL    HW119583   2.205   2.575   3.882
 6228SOL    HW219584   2.072   2.670   3.868
 6229SOL     OW19585   0.234   3.511   4.750
 6229SOL    HW119586   0.157   3.568   4.778
 6229SOL    HW219587   0.268   3.460   4.829
 6230SOL     OW19588   0.098   1.337   2.289
 6230SOL    HW119589   0.172   1.330   2.222
 6230SOL    HW219590   0.049   1.423   2.275
 6231SOL     OW19591   6.164   4.225   0.301
 6231SOL    HW119592   6.209   4.181   0.223
 6231SOL    HW219593   6.065   4.209   0.296
 6232SOL     OW19594   5.596   0.629   0.275
 6232SOL    HW119595   5.560   0.632   0.182
 6232SOL    HW219596   5.570   0.543   0.318
 6233SOL     OW19597   0.309   3.364   2.070
 6233SOL    HW119598   0.256   3.403   2.145
 6233SOL    HW219599   0.266   3.387   1.983
 6234SOL     OW19600   6.597   6.544   4.227
 6234SOL    HW119601   6.545   6.624   4.258
 6234SOL    HW219602   6.646   6.504   4.305
 6235SOL     OW19603   6.684   0.850   2.508
 6235SOL    HW119604   6.703   0.934   2.457
 6235SOL    HW219605   6.688   0.772   2.445
 6236SOL     OW19606   0.566   4.720   0.807
 6236SOL    HW119607   0.492   4.686   0.748
 6236SOL    HW219608   0.654   4.696   0.767
 6237SOL     OW19609   3.807   0.096   0.897
 6237SOL    HW119610   3.816   0.012   0.950
 6237SOL    HW219611   3.881   0.100   0.829
 6238SOL     OW19612   3.026   6.366   4.433
 6238SOL    HW119613   2.968   6.285   4.427
 6238SOL    HW219614   2.973   6.443   4.466
 6239SOL     OW19615   5.024   0.528   2.519
 6239SOL    HW119616   4.988   0.545   2.427
 6239SOL    HW219617   5.116   0.566   2.526
 6240SOL     OW19618   3.163   3.643   4.683
 6240SOL    HW119619   3.097   3.597   4.742
 6240SOL    HW219620   3.182   3.587   4.603
 6241SOL     OW19621   2.237   6.680   3.791
 6241SOL    HW119622   2.214   6.633   3.876
 6241SOL    HW219623   2.161   6.740   3.765
 6242SOL     OW19624   3.092   1.890   2.976
 6242SOL    HW119625   3.118   1.808   3.027
 6242SOL    HW219626   2.996   1.883   2.947
 6243SOL     OW19627   5.862   1.616   6.432
 6243SOL    HW119628   5.844   1.709   6.398
 6243SOL    HW219629   5.852   1.551   6.356
 6244SOL     OW19630   4.231   5.119   2.880
 6244SOL    HW119631   4.218   5.218   2.890
 6244SOL    HW219632   4.296   5.101   2.807
 6245SOL     OW19633   0.775   4.303   2.153
 6245SOL    HW119634   0.791   4.204   2.153
 6245SOL    HW219635   0.714   4.327   2.077
 6246SOL     OW19636   1.140   6.562   4.871
 6246SOL    HW119637   1.151   6.640   4.809
 6246SOL    HW219638   1.060   6.509   4.843
 6247SOL     OW19639   6.905   5.638   3.411
 6247SOL    HW119640   6.946   5.650   3.501
 6247SOL    HW219641   6.897   5.540   3.390
 6248SOL     OW19642   3.751   2.868   6.898
 6248SOL    HW119643   3.812   2.903   6.827
 6248SOL    HW219644   3.660   2.908   6.886
 6249SOL     OW19645   6.903   2.449   0.906
 6249SOL    HW119646   6.934   2.360   0.940
 6249SOL    HW219647   6.911   2.517   0.979
 6250SOL     OW19648   0.073   0.149   0.765
 6250SOL    HW119649   0.041   0.172   0.673
 6250SOL    HW219650   7.014   0.153   0.829
 6251SOL     OW19651   3.045   6.930   4.275
 6251SOL    HW119652   2.953   6.908   4.309
 6251SOL    HW219653   3.110   6.863   4.308
 6252SOL     OW19654   2.451   5.191   6.624
 6252SOL    HW119655   2.393   5.110   6.613
 6252SOL    HW219656   2.499   5.187   6.712
 6253SOL     OW19657   3.085   5.086   4.666
 6253SOL    HW119658   3.067   5.150   4.592
 6253SOL    HW219659   3.115   5.136   4.747
 6254SOL     OW19660   0.498   5.918   0.624
 6254SOL    HW119661   0.486   6.004   0.674
 6254SOL    HW219662   0.481   5.934   0.527
 6255SOL     OW19663   0.631   1.669   0.835
 6255SOL    HW119664   0.681   1.734   0.777
 6255SOL    HW219665   0.640   1.697   0.931
 6256SOL     OW19666   4.719   5.650   3.209
 6256SOL    HW119667   4.720   5.565   3.262
 6256SOL    HW219668   4.813   5.682   3.195
 6257SOL     OW19669   4.155   4.382   1.302
 6257SOL    HW119670   4.151   4.455   1.370
 6257SOL    HW219671   4.127   4.296   1.345
 6258SOL     OW19672   4.446   0.224   5.909
 6258SOL    HW119673   4.438   0.235   5.810
 6258SOL    HW219674   4.535   0.184   5.931
 6259SOL     OW19675   2.484   6.810   5.466
 6259SOL    HW119676   2.430   6.758   5.533
 6259SOL    HW219677   2.446   6.797   5.375
 6260SOL     OW19678   2.045   1.093   0.137
 6260SOL    HW119679   2.072   1.164   0.072
 6260SOL    HW219680   2.086   1.006   0.110
 6261SOL     OW19681   4.121   6.622   1.559
 6261SOL    HW119682   4.024   6.596   1.560
 6261SOL    HW219683   4.149   6.643   1.465
 6262SOL     OW19684   6.250   6.239   1.950
 6262SOL    HW119685   6.323   6.268   2.013
 6262SOL    HW219686   6.231   6.142   1.964
 6263SOL     OW19687   0.134   6.109   4.325
 6263SOL    HW119688   0.062   6.074   4.265
 6263SOL    HW219689   0.098   6.116   4.418
 6264SOL     OW19690   0.833   0.044   1.196
 6264SOL    HW119691   0.742   0.013   1.168
 6264SOL    HW219692   0.839   0.046   1.295
 6265SOL     OW19693   4.422   1.929   0.017
 6265SOL    HW119694   4.485   1.864   6.993
 6265SOL    HW219695   4.412   1.909   0.114
 6266SOL     OW19696   3.414   5.544   3.707
 6266SOL    HW119697   3.367   5.490   3.777
 6266SOL    HW219698   3.369   5.633   3.697
 6267SOL     OW19699   1.273   6.793   5.357
 6267SOL    HW119700   1.196   6.753   5.307
 6267SOL    HW219701   1.293   6.735   5.437
 6268SOL     OW19702   3.343   0.582   2.176
 6268SOL    HW119703   3.321   0.494   2.133
 6268SOL    HW219704   3.426   0.619   2.135
 6269SOL     OW19705   5.321   6.460   1.485
 6269SOL    HW119706   5.296   6.417   1.572
 6269SOL    HW219707   5.333   6.558   1.498
 6270SOL     OW19708   1.722   6.243   0.119
 6270SOL    HW119709   1.787   6.170   0.100
 6270SOL    HW219710   1.665   6.259   0.038
 6271SOL     OW19711   6.155   3.278   6.608
 6271SOL    HW119712   6.134   3.344   6.536
 6271SOL    HW219713   6.098   3.297   6.688
 6272SOL     OW19714   5.432   0.168   6.796
 6272SOL    HW119715   5.513   0.156   6.854
 6272SOL    HW219716   5.365   0.098   6.818
 6273SOL     OW19717   0.046   0.036   1.703
 6273SOL    HW119718   0.046   0.022   1.802
 6273SOL    HW219719   6.970   0.050   1.671
 6274SOL     OW19720   3.290   5.749   5.148
 6274SOL    HW119721   3.338   5.732   5.062
 6274SOL    HW219722   3.231   5.829   5.137
 6275SOL     OW19723   2.099   6.076   0.708
 6275SOL    HW119724   2.100   6.091   0.807
 6275SOL    HW219725   2.061   5.986   0.688
 6276SOL     OW19726   1.784   5.153   3.032
 6276SOL    HW119727   1.805   5.249   3.050
 6276SOL    HW219728   1.724   5.147   2.952
 6277SOL     OW19729   4.977   2.500   1.270
 6277SOL    HW119730   5.023   2.477   1.355
 6277SOL    HW219731   5.043   2.537   1.205
 6278SOL     OW19732   3.040   0.345   5.502
 6278SOL    HW119733   2.992   0.433   5.494
 6278SOL    HW219734   2.986   0.283   5.559
 6279SOL     OW19735   3.526   6.417   1.604
 6279SOL    HW119736   3.462   6.444   1.531
 6279SOL    HW219737   3.602   6.366   1.565
 6280SOL     OW19738   0.014   1.672   6.787
 6280SOL    HW119739   6.985   1.592   6.824
 6280SOL    HW219740   6.967   1.730   6.737
 6281SOL     OW19741   6.276   4.097   4.822
 6281SOL    HW119742   6.298   4.190   4.850
 6281SOL    HW219743   6.210   4.100   4.747
 6282SOL     OW19744   0.663   3.343   6.614
 6282SOL    HW119745   0.762   3.337   6.613
 6282SOL    HW219746   0.632   3.415   6.553
 6283SOL     OW19747   1.421   6.291   5.594
 6283SOL    HW119748   1.365   6.222   5.549
 6283SOL    HW219749   1.460   6.254   5.678
 6284SOL     OW19750   2.375   3.793   6.801
 6284SOL    HW119751   2.458   3.814   6.853
 6284SOL    HW219752   2.352   3.697   6.811
 6285SOL     OW19753   1.541   3.444   2.853
 6285SOL    HW119754   1.582   3.534   2.834
 6285SOL    HW219755   1.607   3.387   2.902
 6286SOL     OW19756   0.901   3.050   5.008
 6286SOL    HW119757   0.915   3.056   4.909
 6286SOL    HW219758   0.923   2.958   5.039
 6287SOL     OW19759   4.228   4.815   5.173
 6287SOL    HW119760   4.154   4.872   5.138
 6287SOL    HW219761   4.312   4.836   5.124
 6288SOL     OW19762   3.545   3.213   6.519
 6288SOL    HW119763   3.577   3.136   6.463
 6288SOL    HW219764   3.609   3.229   6.593
 6289SOL     OW19765   2.611   4.636   6.236
 6289SOL    HW119766   2.541   4.618   6.167
 6289SOL    HW219767   2.655   4.550   6.263
 6290SOL     OW19768   5.576   5.484   5.378
 6290SOL    HW119769   5.659   5.513   5.332
 6290SOL    HW219770   5.600   5.424   5.455
 6291SOL     OW19771   3.355   3.383   3.337
 6291SOL    HW119772   3.446   3.423   3.352
 6291SOL    HW219773   3.360   3.317   3.262
 6292SOL     OW19774   1.876   2.831   4.464
 6292SOL    HW119775   1.950   2.789   4.517
 6292SOL    HW219776   1.895   2.929   4.453
 6293SOL     OW19777   4.848   0.964   6.588
 6293SOL    HW119778   4.931   0.919   6.619
 6293SOL    HW219779   4.770   0.902   6.598
 6294SOL     OW19780   2.355   1.119   3.680
 6294SOL    HW119781   2.430   1.126   3.615
 6294SOL    HW219782   2.384   1.062   3.758
 6295SOL     OW19783   5.530   4.632   5.418
 6295SOL    HW119784   5.508   4.634   5.320
 6295SOL    HW219785   5.583   4.550   5.438
 6296SOL     OW19786   0.253   3.099   6.535
 6296SOL    HW119787   0.214   3.008   6.549
 6296SOL    HW219788   0.348   3.101   6.567
 6297SOL     OW19789   5.820   0.610   4.588
 6297SOL    HW119790   5.856   0.702   4.580
 6297SOL    HW219791   5.890   0.544   4.559
 6298SOL     OW19792   5.892   4.425   0.289
 6298SOL    HW119793   5.847   4.421   0.379
 6298SOL    HW219794   5.912   4.521   0.267
 6299SOL     OW19795   4.515   2.549   2.752
 6299SOL    HW119796   4.521   2.554   2.852
 6299SOL    HW219797   4.575   2.619   2.712
 6300SOL     OW19798   3.882   0.692   6.157
 6300SOL    HW119799   3.954   0.650   6.102
 6300SOL    HW219800   3.919   0.721   6.245
 6301SOL     OW19801   3.411   6.797   0.450
 6301SOL    HW119802   3.446   6.866   0.388
 6301SOL    HW219803   3.449   6.708   0.426
 6302SOL     OW19804   3.097   1.158   5.260
 6302SOL    HW119805   3.102   1.258   5.254
 6302SOL    HW219806   3.168   1.125   5.323
 6303SOL     OW19807   0.912   6.135   5.888
 6303SOL    HW119808   0.915   6.044   5.929
 6303SOL    HW219809   0.996   6.152   5.837
 6304SOL     OW19810   3.998   1.328   2.540
 6304SOL    HW119811   3.970   1.276   2.621
 6304SOL    HW219812   3.936   1.306   2.464
 6305SOL     OW19813   0.160   5.452   4.911
 6305SOL    HW119814   0.141   5.447   4.813
 6305SOL    HW219815   0.101   5.520   4.954
 6306SOL     OW19816   6.508   4.675   3.819
 6306SOL    HW119817   6.596   4.708   3.783
 6306SOL    HW219818   6.523   4.590   3.869
 6307SOL     OW19819   4.116   3.676   3.208
 6307SOL    HW119820   4.089   3.606   3.274
 6307SOL    HW219821   4.183   3.738   3.249
 6308SOL     OW19822   0.448   2.725   6.648
 6308SOL    HW119823   0.369   2.783   6.631
 6308SOL    HW219824   0.431   2.669   6.729
 6309SOL     OW19825   1.190   6.704   5.113
 6309SOL    HW119826   1.185   6.799   5.081
 6309SOL    HW219827   1.179   6.642   5.036
 6310SOL     OW19828   1.939   0.064   3.029
 6310SOL    HW119829   1.994   0.138   2.991
 6310SOL    HW219830   1.853   0.057   2.979
 6311SOL     OW19831   5.424   1.134   5.467
 6311SOL    HW119832   5.373   1.159   5.550
 6311SOL    HW219833   5.514   1.098   5.493
 6312SOL     OW19834   2.976   6.798   6.597
 6312SOL    HW119835   2.879   6.782   6.613
 6312SOL    HW219836   3.002   6.886   6.635
 6313SOL     OW19837   5.420   6.208   3.657
 6313SOL    HW119838   5.320   6.198   3.652
 6313SOL    HW219839   5.456   6.229   3.566
 6314SOL     OW19840   2.495   0.165   1.581
 6314SOL    HW119841   2.433   0.191   1.654
 6314SOL    HW219842   2.485   0.067   1.562
 6315SOL     OW19843   2.348   2.787   4.159
 6315SOL    HW119844   2.313   2.765   4.250
 6315SOL    HW219845   2.368   2.702   4.110
 6316SOL     OW19846   5.619   2.302   4.733
 6316SOL    HW119847   5.681   2.258   4.798
 6316SOL    HW219848   5.610   2.245   4.652
 6317SOL     OW19849   4.801   4.587   2.136
 6317SOL    HW119850   4.755   4.662   2.088
 6317SOL    HW219851   4.789   4.597   2.234
 6318SOL     OW19852   6.500   0.888   6.163
 6318SOL    HW119853   6.462   0.955   6.228
 6318SOL    HW219854   6.465   0.907   6.072
 6319SOL     OW19855   5.423   2.521   4.438
 6319SOL    HW119856   5.366   2.538   4.519
 6319SOL    HW219857   5.367   2.527   4.356
 6320SOL     OW19858   0.010   1.091   4.123
 6320SOL    HW119859   6.995   1.184   4.110
 6320SOL    HW219860   6.952   1.027   4.118
 6321SOL     OW19861   5.454   2.124   0.810
 6321SOL    HW119862   5.461   2.125   0.710
 6321SOL    HW219863   5.364   2.160   0.837
 6322SOL     OW19864   2.117   0.841   1.094
 6322SOL    HW119865   2.152   0.848   1.001
 6322SOL    HW219866   2.026   0.800   1.093
 6323SOL     OW19867   2.862   3.206   1.148
 6323SOL    HW119868   2.827   3.255   1.228
 6323SOL    HW219869   2.873   3.109   1.170
 6324SOL     OW19870   4.689   1.286   0.914
 6324SOL    HW119871   4.674   1.333   0.827
 6324SOL    HW219872   4.785   1.259   0.920
 6325SOL     OW19873   1.132   2.260   2.838
 6325SOL    HW119874   1.169   2.200   2.909
 6325SOL    HW219875   1.096   2.343   2.879
 6326SOL     OW19876   5.506   5.279   5.907
 6326SOL    HW119877   5.447   5.212   5.953
 6326SOL    HW219878   5.453   5.328   5.839
 6327SOL     OW19879   6.900   1.637   3.515
 6327SOL    HW119880   6.859   1.546   3.506
 6327SOL    HW219881   6.840   1.695   3.569
 6328SOL     OW19882   4.515   3.567   6.108
 6328SOL    HW119883   4.541   3.514   6.028
 6328SOL    HW219884   4.597   3.600   6.155
 6329SOL     OW19885   1.778   2.532   5.445
 6329SOL    HW119886   1.702   2.559   5.386
 6329SOL    HW219887   1.764   2.438   5.476
 6330SOL     OW19888   5.917   0.383   3.616
 6330SOL    HW119889   5.996   0.335   3.577
 6330SOL    HW219890   5.885   0.452   3.551
 6331SOL     OW19891   6.917   3.350   4.252
 6331SOL    HW119892   6.962   3.290   4.317
 6331SOL    HW219893   6.818   3.346   4.265
 6332SOL     OW19894   1.839   1.844   0.895
 6332SOL    HW119895   1.793   1.831   0.807
 6332SOL    HW219896   1.780   1.809   0.968
 6333SOL     OW19897   4.719   0.377   0.733
 6333SOL    HW119898   4.774   0.340   0.658
 6333SOL    HW219899   4.624   0.387   0.704
 6334SOL     OW19900   2.946   1.481   2.272
 6334SOL    HW119901   3.033   1.480   2.222
 6334SOL    HW219902   2.895   1.397   2.252
 6335SOL     OW19903   5.310   0.858   0.548
 6335SOL    HW119904   5.236   0.896   0.603
 6335SOL    HW219905   5.390   0.918   0.553
 6336SOL     OW19906   0.356   3.688   6.206
 6336SOL    HW119907   0.436   3.694   6.265
 6336SOL    HW219908   0.385   3.691   6.110
 6337SOL     OW19909   4.683   5.495   5.341
 6337SOL    HW119910   4.762   5.466   5.394
 6337SOL    HW219911   4.671   5.434   5.263
 6338SOL     OW19912   3.115   1.641   3.625
 6338SOL    HW119913   3.116   1.628   3.724
 6338SOL    HW219914   3.201   1.680   3.595
 6339SOL     OW19915   1.267   4.203   3.207
 6339SOL    HW119916   1.341   4.220   3.272
 6339SOL    HW219917   1.280   4.114   3.164
 6340SOL     OW19918   2.301   3.850   1.406
 6340SOL    HW119919   2.330   3.755   1.420
 6340SOL    HW219920   2.376   3.911   1.430
 6341SOL     OW19921   0.855   4.651   4.120
 6341SOL    HW119922   0.943   4.698   4.118
 6341SOL    HW219923   0.870   4.553   4.137
 6342SOL     OW19924   2.245   1.214   1.905
 6342SOL    HW119925   2.220   1.309   1.922
 6342SOL    HW219926   2.164   1.156   1.917
 6343SOL     OW19927   2.765   5.913   0.221
 6343SOL    HW119928   2.856   5.929   0.258
 6343SOL    HW219929   2.773   5.892   0.123
 6344SOL     OW19930   6.458   2.118   3.844
 6344SOL    HW119931   6.519   2.197   3.842
 6344SOL    HW219932   6.366   2.145   3.816
 6345SOL     OW19933   5.904   3.276   1.748
 6345SOL    HW119934   5.986   3.253   1.696
 6345SOL    HW219935   5.827   3.289   1.685
 6346SOL     OW19936   0.139   4.565   5.474
 6346SOL    HW119937   0.090   4.478   5.471
 6346SOL    HW219938   0.194   4.574   5.391
 6347SOL     OW19939   2.896   2.194   2.572
 6347SOL    HW119940   2.983   2.178   2.617
 6347SOL    HW219941   2.911   2.211   2.475
 6348SOL     OW19942   0.459   2.045   5.693
 6348SOL    HW119943   0.435   2.081   5.603
 6348SOL    HW219944   0.410   1.959   5.709
 6349SOL     OW19945   0.148   0.353   0.224
 6349SOL    HW119946   0.156   0.372   0.322
 6349SOL    HW219947   0.196   0.268   0.203
 6350SOL     OW19948   0.886   4.030   1.692
 6350SOL    HW119949   0.885   4.129   1.705
 6350SOL    HW219950   0.901   4.010   1.595
 6351SOL     OW19951   5.834   3.581   3.076
 6351SOL    HW119952   5.838   3.481   3.077
 6351SOL    HW219953   5.890   3.617   3.151
 6352SOL     OW19954   2.187   0.291   4.229
 6352SOL    HW119955   2.272   0.334   4.260
 6352SOL    HW219956   2.178   0.201   4.272
 6353SOL     OW19957   2.424   5.688   6.492
 6353SOL    HW119958   2.393   5.596   6.515
 6353SOL    HW219959   2.377   5.720   6.409
 6354SOL     OW19960   4.802   4.129   2.682
 6354SOL    HW119961   4.787   4.210   2.739
 6354SOL    HW219962   4.840   4.055   2.738
 6355SOL     OW19963   2.636   4.856   0.412
 6355SOL    HW119964   2.702   4.783   0.393
 6355SOL    HW219965   2.574   4.827   0.485
 6356SOL     OW19966   5.159   4.783   6.692
 6356SOL    HW119967   5.078   4.741   6.652
 6356SOL    HW219968   5.137   4.819   6.783
 6357SOL     OW19969   5.964   2.052   1.918
 6357SOL    HW119970   5.978   1.966   1.870
 6357SOL    HW219971   6.052   2.099   1.928
 6358SOL     OW19972   1.769   2.404   6.891
 6358SOL    HW119973   1.684   2.456   6.900
 6358SOL    HW219974   1.786   2.352   6.976
 6359SOL     OW19975   5.468   6.462   0.503
 6359SOL    HW119976   5.565   6.463   0.523
 6359SOL    HW219977   5.416   6.455   0.588
 6360SOL     OW19978   0.489   2.389   3.143
 6360SOL    HW119979   0.434   2.307   3.129
 6360SOL    HW219980   0.463   2.458   3.075
 6361SOL     OW19981   0.471   0.437   6.752
 6361SOL    HW119982   0.562   0.447   6.791
 6361SOL    HW219983   0.403   0.472   6.816
 6362SOL     OW19984   0.965   5.537   6.652
 6362SOL    HW119985   0.949   5.592   6.570
 6362SOL    HW219986   0.927   5.583   6.732
 6363SOL     OW19987   2.827   5.055   3.744
 6363SOL    HW119988   2.786   5.028   3.831
 6363SOL    HW219989   2.821   4.978   3.680
 6364SOL     OW19990   2.415   2.084   4.870
 6364SOL    HW119991   2.482   2.145   4.828
 6364SOL    HW219992   2.439   1.989   4.849
 6365SOL     OW19993   5.691   5.752   3.809
 6365SOL    HW119994   5.615   5.688   3.813
 6365SOL    HW219995   5.665   5.831   3.753
 6366SOL     OW19996   6.232   6.545   4.922
 6366SOL    HW119997   6.319   6.542   4.970
 6366SOL    HW219998   6.234   6.484   4.843
 6367SOL     OW19999   3.120   2.149   2.687
 6367SOL    HW120000   3.215   2.175   2.705
 6367SOL    HW220001   3.118   2.057   2.648
 6368SOL     OW20002   4.910   3.408   4.911
 6368SOL    HW120003   4.858   3.480   4.958
 6368SOL    HW220004   4.960   3.355   4.979
 6369SOL     OW20005   3.199   6.463   5.945
 6369SOL    HW120006   3.206   6.472   6.045
 6369SOL    HW220007   3.161   6.373   5.923
 6370SOL     OW20008   5.397   3.882   3.883
 6370SOL    HW120009   5.418   3.861   3.979
 6370SOL    HW220010   5.482   3.881   3.830
 6371SOL     OW20011   5.176   4.153   1.772
 6371SOL    HW120012   5.102   4.163   1.705
 6371SOL    HW220013   5.181   4.058   1.802
 6372SOL     OW20014   6.907   0.919   3.102
 6372SOL    HW120015   6.888   0.839   3.159
 6372SOL    HW220016   6.982   0.972   3.142
 6373SOL     OW20017   5.247   3.924   1.348
 6373SOL    HW120018   5.279   3.849   1.289
 6373SOL    HW220019   5.231   4.005   1.292
 6374SOL     OW20020   4.612   3.049   0.595
 6374SOL    HW120021   4.606   2.982   0.669
 6374SOL    HW220022   4.562   3.132   0.620
 6375SOL     OW20023   7.003   2.668   2.490
 6375SOL    HW120024   0.050   2.741   2.512
 6375SOL    HW220025   7.000   2.655   2.391
 6376SOL     OW20026   3.613   0.927   5.578
 6376SOL    HW120027   3.543   0.962   5.640
 6376SOL    HW220028   3.609   0.827   5.577
 6377SOL     OW20029   6.919   0.267   6.831
 6377SOL    HW120030   6.835   0.221   6.804
 6377SOL    HW220031   6.943   0.242   6.925
 6378SOL     OW20032   5.435   5.676   3.246
 6378SOL    HW120033   5.408   5.743   3.315
 6378SOL    HW220034   5.465   5.723   3.163
 6379SOL     OW20035   2.900   5.507   6.089
 6379SOL    HW120036   2.995   5.538   6.087
 6379SOL    HW220037   2.885   5.450   6.170
 6380SOL     OW20038   1.536   3.452   5.102
 6380SOL    HW120039   1.619   3.397   5.112
 6380SOL    HW220040   1.458   3.392   5.084
 6381SOL     OW20041   4.732   3.461   0.421
 6381SOL    HW120042   4.633   3.461   0.416
 6381SOL    HW220043   4.765   3.367   0.428
 6382SOL     OW20044   2.801   1.620   1.383
 6382SOL    HW120045   2.706   1.628   1.413
 6382SOL    HW220046   2.815   1.674   1.300
 6383SOL     OW20047   1.873   1.964   2.592
 6383SOL    HW120048   1.790   2.009   2.558
 6383SOL    HW220049   1.951   2.024   2.580
 6384SOL     OW20050   6.767   2.630   2.099
 6384SOL    HW120051   6.832   2.689   2.051
 6384SOL    HW220052   6.689   2.684   2.130
 6385SOL     OW20053   0.288   3.316   1.206
 6385SOL    HW120054   0.335   3.268   1.132
 6385SOL    HW220055   0.220   3.378   1.167
 6386SOL     OW20056   2.104   3.178   0.612
 6386SOL    HW120057   2.104   3.095   0.557
 6386SOL    HW220058   2.142   3.254   0.559
 6387SOL     OW20059   6.179   0.532   0.310
 6387SOL    HW120060   6.236   0.587   0.250
 6387SOL    HW220061   6.083   0.542   0.284
 6388SOL     OW20062   6.145   5.335   2.933
 6388SOL    HW120063   6.123   5.314   2.838
 6388SOL    HW220064   6.241   5.362   2.940
 6389SOL     OW20065   1.801   0.549   0.175
 6389SOL    HW120066   1.745   0.581   0.099
 6389SOL    HW220067   1.898   0.555   0.151
 6390SOL     OW20068   6.364   1.159   6.742
 6390SOL    HW120069   6.434   1.117   6.684
 6390SOL    HW220070   6.404   1.234   6.794
 6391SOL     OW20071   1.324   1.332   5.196
 6391SOL    HW120072   1.421   1.358   5.196
 6391SOL    HW220073   1.280   1.374   5.276
 6392SOL     OW20074   3.214   5.725   3.655
 6392SOL    HW120075   3.145   5.789   3.624
 6392SOL    HW220076   3.173   5.634   3.667
 6393SOL     OW20077   6.190   6.378   1.217
 6393SOL    HW120078   6.250   6.457   1.204
 6393SOL    HW220079   6.106   6.408   1.261
 6394SOL     OW20080   0.889   5.211   1.058
 6394SOL    HW120081   0.951   5.153   1.003
 6394SOL    HW220082   0.920   5.306   1.053
 6395SOL     OW20083   1.669   4.163   3.129
 6395SOL    HW120084   1.616   4.124   3.054
 6395SOL    HW220085   1.620   4.149   3.215
 6396SOL     OW20086   6.763   3.862   0.457
 6396SOL    HW120087   6.835   3.793   0.466
 6396SOL    HW220088   6.791   3.930   0.389
 6397SOL     OW20089   5.736   2.275   3.483
 6397SOL    HW120090   5.702   2.235   3.568
 6397SOL    HW220091   5.824   2.235   3.459
 6398SOL     OW20092   1.055   6.663   1.100
 6398SOL    HW120093   0.980   6.658   1.166
 6398SOL    HW220094   1.122   6.731   1.129
 6399SOL     OW20095   2.371   0.244   6.133
 6399SOL    HW120096   2.328   0.157   6.159
 6399SOL    HW220097   2.470   0.237   6.146
 6400SOL     OW20098   1.280   5.432   2.814
 6400SOL    HW120099   1.202   5.488   2.787
 6400SOL    HW220100   1.349   5.489   2.859
 6401SOL     OW20101   3.803   5.379   3.447
 6401SOL    HW120102   3.811   5.398   3.349
 6401SOL    HW220103   3.869   5.435   3.497
 6402SOL     OW20104   2.150   4.806   4.712
 6402SOL    HW120105   2.213   4.748   4.764
 6402SOL    HW220106   2.166   4.795   4.614
 6403SOL     OW20107   5.059   6.376   5.091
 6403SOL    HW120108   5.128   6.339   5.153
 6403SOL    HW220109   5.091   6.464   5.055
 6404SOL     OW20110   3.637   0.454   2.476
 6404SOL    HW120111   3.665   0.369   2.520
 6404SOL    HW220112   3.582   0.432   2.395
 6405SOL     OW20113   5.511   1.420   2.965
 6405SOL    HW120114   5.480   1.515   2.972
 6405SOL    HW220115   5.608   1.416   2.990
 6406SOL     OW20116   1.010   3.010   2.557
 6406SOL    HW120117   0.986   3.045   2.647
 6406SOL    HW220118   1.022   2.911   2.561
 6407SOL     OW20119   2.301   6.194   3.096
 6407SOL    HW120120   2.260   6.200   3.005
 6407SOL    HW220121   2.228   6.187   3.165
 6408SOL     OW20122   6.747   0.219   0.570
 6408SOL    HW120123   6.680   0.156   0.609
 6408SOL    HW220124   6.837   0.175   0.570
 6409SOL     OW20125   6.278   4.915   3.693
 6409SOL    HW120126   6.219   4.989   3.662
 6409SOL    HW220127   6.356   4.906   3.631
 6410SOL     OW20128   3.271   1.753   5.415
 6410SOL    HW120129   3.207   1.705   5.356
 6410SOL    HW220130   3.258   1.852   5.405
 6411SOL     OW20131   0.143   2.161   2.863
 6411SOL    HW120132   0.098   2.138   2.949
 6411SOL    HW220133   0.097   2.239   2.821
 6412SOL     OW20134   3.279   0.801   6.838
 6412SOL    HW120135   3.265   0.807   6.937
 6412SOL    HW220136   3.190   0.792   6.792
 6413SOL     OW20137   4.304   5.147   3.915
 6413SOL    HW120138   4.336   5.099   3.833
 6413SOL    HW220139   4.359   5.118   3.993
 6414SOL     OW20140   1.043   0.038   6.652
 6414SOL    HW120141   1.098   6.990   6.704
 6414SOL    HW220142   1.029   0.003   6.559
 6415SOL     OW20143   1.067   2.666   3.384
 6415SOL    HW120144   1.107   2.728   3.452
 6415SOL    HW220145   1.058   2.713   3.297
 6416SOL     OW20146   2.839   0.374   6.564
 6416SOL    HW120147   2.911   0.392   6.631
 6416SOL    HW220148   2.848   0.439   6.488
 6417SOL     OW20149   4.859   1.724   1.207
 6417SOL    HW120150   4.788   1.753   1.143
 6417SOL    HW220151   4.818   1.672   1.282
 6418SOL     OW20152   4.394   4.825   1.200
 6418SOL    HW120153   4.448   4.750   1.162
 6418SOL    HW220154   4.297   4.804   1.191
 6419SOL     OW20155   0.676   6.629   6.543
 6419SOL    HW120156   0.618   6.593   6.471
 6419SOL    HW220157   0.772   6.629   6.514
 6420SOL     OW20158   1.264   3.119   3.966
 6420SOL    HW120159   1.229   3.190   3.904
 6420SOL    HW220160   1.195   3.048   3.976
 6421SOL     OW20161   4.899   0.001   1.635
 6421SOL    HW120162   4.863   6.984   1.722
 6421SOL    HW220163   4.995   6.991   1.626
 6422SOL     OW20164   6.702   2.716   4.508
 6422SOL    HW120165   6.608   2.702   4.478
 6422SOL    HW220166   6.764   2.658   4.455
 6423SOL     OW20167   2.423   4.465   4.261
 6423SOL    HW120168   2.389   4.456   4.355
 6423SOL    HW220169   2.397   4.383   4.209
 6424SOL     OW20170   0.781   3.835   4.880
 6424SOL    HW120171   0.766   3.814   4.783
 6424SOL    HW220172   0.870   3.879   4.891
 6425SOL     OW20173   0.395   6.168   2.483
 6425SOL    HW120174   0.336   6.247   2.495
 6425SOL    HW220175   0.419   6.130   2.572
 6426SOL     OW20176   4.552   4.485   4.764
 6426SOL    HW120177   4.526   4.488   4.667
 6426SOL    HW220178   4.525   4.570   4.808
 6427SOL     OW20179   2.895   3.370   3.800
 6427SOL    HW120180   2.886   3.276   3.768
 6427SOL    HW220181   2.919   3.430   3.723
 6428SOL     OW20182   4.599   2.711   0.184
 6428SOL    HW120183   4.573   2.788   0.242
 6428SOL    HW220184   4.692   2.725   0.149
 6429SOL     OW20185   2.341   0.420   5.171
 6429SOL    HW120186   2.276   0.496   5.163
 6429SOL    HW220187   2.403   0.438   5.247
 6430SOL     OW20188   6.726   0.449   5.172
 6430SOL    HW120189   6.760   0.507   5.246
 6430SOL    HW220190   6.803   0.415   5.118
 6431SOL     OW20191   4.092   5.184   2.519
 6431SOL    HW120192   4.164   5.212   2.455
 6431SOL    HW220193   4.041   5.108   2.479
 6432SOL     OW20194   3.936   4.292   6.603
 6432SOL    HW120195   3.905   4.371   6.656
 6432SOL    HW220196   4.033   4.276   6.619
 6433SOL     OW20197   2.379   5.560   6.857
 6433SOL    HW120198   2.290   5.583   6.898
 6433SOL    HW220199   2.368   5.545   6.759
 6434SOL     OW20200   3.133   6.057   5.658
 6434SOL    HW120201   3.192   5.992   5.609
 6434SOL    HW220202   3.058   6.007   5.702
 6435SOL     OW20203   5.071   0.733   0.850
 6435SOL    HW120204   5.072   0.682   0.764
 6435SOL    HW220205   5.026   0.679   0.921
 6436SOL     OW20206   0.205   4.023   3.913
 6436SOL    HW120207   0.200   3.953   3.984
 6436SOL    HW220208   0.265   4.097   3.943
 6437SOL     OW20209   0.494   1.043   5.708
 6437SOL    HW120210   0.554   0.978   5.661
 6437SOL    HW220211   0.400   1.028   5.679
 6438SOL     OW20212   0.592   5.655   6.938
 6438SOL    HW120213   0.503   5.696   6.961
 6438SOL    HW220214   0.591   5.558   6.963
 6439SOL     OW20215   5.855   0.800   3.601
 6439SOL    HW120216   5.828   0.832   3.511
 6439SOL    HW220217   5.951   0.773   3.600
 6440SOL     OW20218   2.507   0.786   5.780
 6440SOL    HW120219   2.593   0.736   5.779
 6440SOL    HW220220   2.466   0.782   5.871
 6441SOL     OW20221   0.343   1.020   3.002
 6441SOL    HW120222   0.440   1.003   2.991
 6441SOL    HW220223   0.301   1.037   2.913
 6442SOL     OW20224   2.841   2.386   5.600
 6442SOL    HW120225   2.755   2.356   5.558
 6442SOL    HW220226   2.915   2.379   5.534
 6443SOL     OW20227   4.258   2.475   0.928
 6443SOL    HW120228   4.286   2.525   0.846
 6443SOL    HW220229   4.161   2.450   0.920
 6444SOL     OW20230   0.218   3.000   5.246
 6444SOL    HW120231   0.180   2.954   5.165
 6444SOL    HW220232   0.249   2.931   5.311
 6445SOL     OW20233   2.862   3.594   3.062
 6445SOL    HW120234   2.766   3.597   3.036
 6445SOL    HW220235   2.918   3.577   2.981
 6446SOL     OW20236   2.147   1.867   6.761
 6446SOL    HW120237   2.142   1.865   6.861
 6446SOL    HW220238   2.241   1.849   6.732
 6447SOL     OW20239   5.869   4.541   1.354
 6447SOL    HW120240   5.955   4.590   1.368
 6447SOL    HW220241   5.828   4.520   1.443
 6448SOL     OW20242   4.811   5.515   1.905
 6448SOL    HW120243   4.764   5.465   1.978
 6448SOL    HW220244   4.822   5.455   1.826
 6449SOL     OW20245   2.196   5.384   1.718
 6449SOL    HW120246   2.169   5.342   1.804
 6449SOL    HW220247   2.120   5.437   1.681
 6450SOL     OW20248   0.383   3.688   1.110
 6450SOL    HW120249   0.456   3.645   1.163
 6450SOL    HW220250   0.385   3.787   1.124
 6451SOL     OW20251   3.337   2.327   1.278
 6451SOL    HW120252   3.306   2.287   1.364
 6451SOL    HW220253   3.259   2.348   1.220
 6452SOL     OW20254   5.381   3.228   3.078
 6452SOL    HW120255   5.312   3.212   3.008
 6452SOL    HW220256   5.396   3.144   3.130
 6453SOL     OW20257   3.296   6.693   1.055
 6453SOL    HW120258   3.306   6.775   0.998
 6453SOL    HW220259   3.379   6.681   1.110
 6454SOL     OW20260   6.013   2.903   2.772
 6454SOL    HW120261   6.004   2.979   2.708
 6454SOL    HW220262   5.941   2.835   2.752
 6455SOL     OW20263   6.450   4.077   3.660
 6455SOL    HW120264   6.439   4.096   3.758
 6455SOL    HW220265   6.363   4.043   3.623
 6456SOL     OW20266   6.736   1.290   3.088
 6456SOL    HW120267   6.680   1.270   3.168
 6456SOL    HW220268   6.748   1.207   3.034
 6457SOL     OW20269   4.652   6.999   1.521
 6457SOL    HW120270   4.630   0.074   1.492
 6457SOL    HW220271   4.746   6.995   1.553
 6458SOL     OW20272   1.126   4.791   3.543
 6458SOL    HW120273   1.105   4.729   3.468
 6458SOL    HW220274   1.056   4.781   3.614
 6459SOL     OW20275   6.612   2.944   2.918
 6459SOL    HW120276   6.591   2.848   2.898
 6459SOL    HW220277   6.578   2.967   3.009
 6460SOL     OW20278   0.081   6.080   5.797
 6460SOL    HW120279   0.038   6.043   5.880
 6460SOL    HW220280   0.109   6.005   5.738
 6461SOL     OW20281   3.011   4.692   1.065
 6461SOL    HW120282   2.916   4.710   1.090
 6461SOL    HW220283   3.017   4.676   0.967
 6462SOL     OW20284   1.795   4.297   5.012
 6462SOL    HW120285   1.808   4.198   5.021
 6462SOL    HW220286   1.703   4.315   4.977
 6463SOL     OW20287   4.273   1.015   1.553
 6463SOL    HW120288   4.322   0.962   1.622
 6463SOL    HW220289   4.280   1.113   1.575
 6464SOL     OW20290   1.052   6.090   4.479
 6464SOL    HW120291   1.135   6.144   4.466
 6464SOL    HW220292   0.973   6.151   4.482
 6465SOL     OW20293   4.927   2.425   3.145
 6465SOL    HW120294   4.930   2.507   3.088
 6465SOL    HW220295   4.833   2.390   3.149
 6466SOL     OW20296   0.291   3.706   0.380
 6466SOL    HW120297   0.269   3.629   0.320
 6466SOL    HW220298   0.332   3.780   0.326
 6467SOL     OW20299   3.275   1.360   0.889
 6467SOL    HW120300   3.226   1.436   0.932
 6467SOL    HW220301   3.221   1.325   0.812
 6468SOL     OW20302   3.138   0.097   0.481
 6468SOL    HW120303   3.221   0.108   0.426
 6468SOL    HW220304   3.163   0.093   0.578
 6469SOL     OW20305   3.542   1.760   3.641
 6469SOL    HW120306   3.610   1.833   3.639
 6469SOL    HW220307   3.584   1.677   3.679
 6470SOL     OW20308   6.309   2.527   6.442
 6470SOL    HW120309   6.301   2.491   6.535
 6470SOL    HW220310   6.385   2.482   6.395
 6471SOL     OW20311   0.299   6.043   4.857
 6471SOL    HW120312   0.263   5.961   4.901
 6471SOL    HW220313   0.369   6.018   4.790
 6472SOL     OW20314   6.847   5.882   2.372
 6472SOL    HW120315   6.941   5.897   2.404
 6472SOL    HW220316   6.814   5.793   2.404
 6473SOL     OW20317   1.899   1.319   3.719
 6473SOL    HW120318   1.931   1.334   3.626
 6473SOL    HW220319   1.815   1.265   3.717
 6474SOL     OW20320   4.327   6.246   4.572
 6474SOL    HW120321   4.324   6.241   4.672
 6474SOL    HW220322   4.272   6.172   4.533
 6475SOL     OW20323   5.685   5.355   2.928
 6475SOL    HW120324   5.719   5.408   2.851
 6475SOL    HW220325   5.603   5.400   2.966
 6476SOL     OW20326   4.236   1.587   6.520
 6476SOL    HW120327   4.247   1.683   6.546
 6476SOL    HW220328   4.144   1.556   6.545
 6477SOL     OW20329   6.931   6.205   1.251
 6477SOL    HW120330   7.014   6.213   1.307
 6477SOL    HW220331   6.920   6.110   1.221
 6478SOL     OW20332   3.259   5.652   1.816
 6478SOL    HW120333   3.315   5.721   1.863
 6478SOL    HW220334   3.192   5.698   1.758
 6479SOL     OW20335   3.525   6.254   4.052
 6479SOL    HW120336   3.510   6.167   4.004
 6479SOL    HW220337   3.510   6.241   4.150
 6480SOL     OW20338   2.795   1.246   6.628
 6480SOL    HW120339   2.874   1.307   6.626
 6480SOL    HW220340   2.789   1.203   6.718
 6481SOL     OW20341   3.376   2.444   1.701
 6481SOL    HW120342   3.414   2.528   1.662
 6481SOL    HW220343   3.276   2.451   1.705
 6482SOL     OW20344   6.833   3.187   5.208
 6482SOL    HW120345   6.794   3.114   5.152
 6482SOL    HW220346   6.908   3.150   5.264
 6483SOL     OW20347   1.612   5.953   4.998
 6483SOL    HW120348   1.588   5.856   4.994
 6483SOL    HW220349   1.596   5.988   5.090
 6484SOL     OW20350   2.486   0.923   3.841
 6484SOL    HW120351   2.407   0.873   3.876
 6484SOL    HW220352   2.529   0.872   3.767
 6485SOL     OW20353   1.858   6.668   4.445
 6485SOL    HW120354   1.887   6.619   4.527
 6485SOL    HW220355   1.792   6.739   4.470
 6486SOL     OW20356   1.558   5.178   3.191
 6486SOL    HW120357   1.642   5.136   3.156
 6486SOL    HW220358   1.545   5.151   3.287
 6487SOL     OW20359   6.924   4.568   4.116
 6487SOL    HW120360   6.948   4.532   4.206
 6487SOL    HW220361   6.947   4.666   4.112
 6488SOL     OW20362   5.002   5.561   4.753
 6488SOL    HW120363   5.089   5.600   4.724
 6488SOL    HW220364   4.963   5.615   4.827
 6489SOL     OW20365   4.126   3.202   6.077
 6489SOL    HW120366   4.045   3.201   6.018
 6489SOL    HW220367   4.099   3.180   6.171
 6490SOL     OW20368   1.908   1.824   6.606
 6490SOL    HW120369   1.861   1.736   6.620
 6490SOL    HW220370   2.003   1.815   6.636
 6491SOL     OW20371   1.305   6.988   0.693
 6491SOL    HW120372   1.284   0.050   0.748
 6491SOL    HW220373   1.400   6.962   0.707
 6492SOL     OW20374   3.197   4.056   4.620
 6492SOL    HW120375   3.194   4.059   4.520
 6492SOL    HW220376   3.120   4.001   4.653
 6493SOL     OW20377   0.914   4.371   6.589
 6493SOL    HW120378   0.912   4.419   6.501
 6493SOL    HW220379   0.893   4.275   6.576
 6494SOL     OW20380   6.307   6.376   1.693
 6494SOL    HW120381   6.391   6.429   1.697
 6494SOL    HW220382   6.263   6.375   1.783
 6495SOL     OW20383   0.203   0.337   3.536
 6495SOL    HW120384   0.236   0.404   3.602
 6495SOL    HW220385   0.164   0.258   3.584
 6496SOL     OW20386   4.687   0.431   2.144
 6496SOL    HW120387   4.677   0.444   2.242
 6496SOL    HW220388   4.778   0.393   2.125
 6497SOL     OW20389   0.244   1.534   0.829
 6497SOL    HW120390   0.168   1.572   0.775
 6497SOL    HW220391   0.251   1.584   0.915
 6498SOL     OW20392   0.957   4.410   3.853
 6498SOL    HW120393   0.956   4.433   3.755
 6498SOL    HW220394   1.012   4.478   3.902
 6499SOL     OW20395   6.070   4.072   4.645
 6499SOL    HW120396   6.089   4.158   4.598
 6499SOL    HW220397   5.980   4.038   4.618
 6500SOL     OW20398   1.617   3.703   2.373
 6500SOL    HW120399   1.680   3.649   2.430
 6500SOL    HW220400   1.561   3.641   2.318
 6501SOL     OW20401   6.344   1.939   1.050
 6501SOL    HW120402   6.266   1.928   0.989
 6501SOL    HW220403   6.385   1.850   1.069
 6502SOL     OW20404   5.942   3.817   2.076
 6502SOL    HW120405   5.973   3.735   2.125
 6502SOL    HW220406   5.843   3.828   2.090
 6503SOL     OW20407   6.565   3.037   5.429
 6503SOL    HW120408   6.555   3.136   5.422
 6503SOL    HW220409   6.622   3.015   5.508
 6504SOL     OW20410   4.719   6.563   6.455
 6504SOL    HW120411   4.652   6.568   6.529
 6504SOL    HW220412   4.712   6.474   6.409
 6505SOL     OW20413   5.839   6.203   0.081
 6505SOL    HW120414   5.775   6.128   0.063
 6505SOL    HW220415   5.866   6.245   7.012
 6506SOL     OW20416   0.383   2.832   2.989
 6506SOL    HW120417   0.454   2.875   3.044
 6506SOL    HW220418   0.294   2.871   3.013
 6507SOL     OW20419   3.547   4.734   6.371
 6507SOL    HW120420   3.641   4.730   6.405
 6507SOL    HW220421   3.539   4.677   6.290
 6508SOL     OW20422   1.582   6.742   1.558
 6508SOL    HW120423   1.679   6.725   1.540
 6508SOL    HW220424   1.527   6.709   1.481
 6509SOL     OW20425   3.586   1.759   5.811
 6509SOL    HW120426   3.604   1.756   5.910
 6509SOL    HW220427   3.520   1.831   5.792
 6510SOL     OW20428   4.392   5.964   5.602
 6510SOL    HW120429   4.324   5.894   5.579
 6510SOL    HW220430   4.385   5.986   5.700
 6511SOL     OW20431   4.019   1.425   6.564
 6511SOL    HW120432   3.996   1.342   6.512
 6511SOL    HW220433   3.941   1.449   6.622
 6512SOL     OW20434   3.240   0.889   0.976
 6512SOL    HW120435   3.309   0.949   0.936
 6512SOL    HW220436   3.163   0.943   1.010
 6513SOL     OW20437   2.879   5.460   4.724
 6513SOL    HW120438   2.837   5.406   4.796
 6513SOL    HW220439   2.879   5.557   4.750
 6514SOL     OW20440   5.737   0.489   5.197
 6514SOL    HW120441   5.703   0.407   5.152
 6514SOL    HW220442   5.661   0.543   5.233
 6515SOL     OW20443   1.907   4.905   1.811
 6515SOL    HW120444   1.871   4.996   1.830
 6515SOL    HW220445   1.865   4.838   1.873
 6516SOL     OW20446   0.428   2.972   1.191
 6516SOL    HW120447   0.335   3.006   1.177
 6516SOL    HW220448   0.480   3.039   1.245
 6517SOL     OW20449   0.144   2.867   6.617
 6517SOL    HW120450   0.066   2.814   6.583
 6517SOL    HW220451   0.125   2.902   6.708
 6518SOL     OW20452   0.672   1.172   2.889
 6518SOL    HW120453   0.647   1.234   2.964
 6518SOL    HW220454   0.650   1.078   2.915
 6519SOL     OW20455   0.911   1.443   2.972
 6519SOL    HW120456   0.880   1.502   3.047
 6519SOL    HW220457   1.004   1.468   2.945
 6520SOL     OW20458   0.008   5.504   6.450
 6520SOL    HW120459   7.001   5.477   6.543
 6520SOL    HW220460   0.002   5.604   6.441
 6521SOL     OW20461   1.259   2.908   4.440
 6521SOL    HW120462   1.356   2.890   4.422
 6521SOL    HW220463   1.235   2.998   4.404
 6522SOL     OW20464   2.487   3.961   5.585
 6522SOL    HW120465   2.436   4.023   5.525
 6522SOL    HW220466   2.555   3.912   5.532
 6523SOL     OW20467   5.896   0.342   0.051
 6523SOL    HW120468   5.964   0.282   0.092
 6523SOL    HW220469   5.806   0.322   0.091
 6524SOL     OW20470   2.232   2.173   1.596
 6524SOL    HW120471   2.210   2.270   1.584
 6524SOL    HW220472   2.174   2.134   1.667
 6525SOL     OW20473   1.329   4.974   3.612
 6525SOL    HW120474   1.268   5.039   3.659
 6525SOL    HW220475   1.274   4.900   3.573
 6526SOL     OW20476   0.384   0.026   0.667
 6526SOL    HW120477   0.389   0.124   0.683
 6526SOL    HW220478   0.302   0.005   0.614
 6527SOL     OW20479   0.674   2.341   0.661
 6527SOL    HW120480   0.655   2.387   0.575
 6527SOL    HW220481   0.738   2.396   0.716
 6528SOL     OW20482   6.110   1.323   5.450
 6528SOL    HW120483   6.127   1.276   5.364
 6528SOL    HW220484   6.161   1.278   5.523
 6529SOL     OW20485   6.716   1.487   2.082
 6529SOL    HW120486   6.807   1.515   2.108
 6529SOL    HW220487   6.699   1.393   2.113
 6530SOL     OW20488   0.432   2.419   2.206
 6530SOL    HW120489   0.520   2.443   2.247
 6530SOL    HW220490   0.358   2.444   2.269
 6531SOL     OW20491   4.297   3.421   6.204
 6531SOL    HW120492   4.380   3.467   6.175
 6531SOL    HW220493   4.306   3.322   6.188
 6532SOL     OW20494   1.166   0.727   0.897
 6532SOL    HW120495   1.188   0.778   0.814
 6532SOL    HW220496   1.236   0.745   0.966
 6533SOL     OW20497   4.599   3.983   6.695
 6533SOL    HW120498   4.669   3.991   6.767
 6533SOL    HW220499   4.616   4.052   6.625
 6534SOL     OW20500   5.763   4.711   1.988
 6534SOL    HW120501   5.676   4.735   2.031
 6534SOL    HW220502   5.754   4.719   1.889
 6535SOL     OW20503   6.136   3.205   4.424
 6535SOL    HW120504   6.038   3.199   4.406
 6535SOL    HW220505   6.171   3.116   4.453
 6536SOL     OW20506   0.640   2.719   5.486
 6536SOL    HW120507   0.576   2.731   5.561
 6536SOL    HW220508   0.656   2.621   5.471
 6537SOL     OW20509   6.202   4.587   4.974
 6537SOL    HW120510   6.140   4.655   4.936
 6537SOL    HW220511   6.260   4.629   5.043
 6538SOL     OW20512   2.088   3.818   5.017
 6538SOL    HW120513   2.006   3.874   5.002
 6538SOL    HW220514   2.168   3.866   4.980
 6539SOL     OW20515   6.440   0.773   6.523
 6539SOL    HW120516   6.500   0.793   6.445
 6539SOL    HW220517   6.345   0.782   6.495
 6540SOL     OW20518   4.082   2.748   6.034
 6540SOL    HW120519   3.988   2.747   6.067
 6540SOL    HW220520   4.092   2.818   5.963
 6541SOL     OW20521   6.384   1.496   5.102
 6541SOL    HW120522   6.439   1.516   5.022
 6541SOL    HW220523   6.300   1.550   5.100
 6542SOL     OW20524   1.613   3.090   4.839
 6542SOL    HW120525   1.663   3.165   4.797
 6542SOL    HW220526   1.585   3.116   4.932
 6543SOL     OW20527   3.802   1.977   4.921
 6543SOL    HW120528   3.710   2.015   4.932
 6543SOL    HW220529   3.835   1.996   4.829
 6544SOL     OW20530   1.012   0.344   1.322
 6544SOL    HW120531   1.005   0.412   1.249
 6544SOL    HW220532   1.033   0.255   1.283
 6545SOL     OW20533   4.457   6.945   1.301
 6545SOL    HW120534   4.438   6.846   1.296
 6545SOL    HW220535   4.397   6.986   1.370
 6546SOL     OW20536   5.349   4.537   6.267
 6546SOL    HW120537   5.429   4.586   6.302
 6546SOL    HW220538   5.287   4.516   6.343
 6547SOL     OW20539   5.369   5.914   0.056
 6547SOL    HW120540   5.362   6.012   0.079
 6547SOL    HW220541   5.413   5.866   0.132
 6548SOL     OW20542   0.792   2.829   6.058
 6548SOL    HW120543   0.880   2.876   6.054
 6548SOL    HW220544   0.771   2.789   5.969
 6549SOL     OW20545   4.999   6.787   1.883
 6549SOL    HW120546   4.917   6.843   1.876
 6549SOL    HW220547   5.000   6.742   1.973
 6550SOL     OW20548   6.443   0.087   3.042
 6550SOL    HW120549   6.345   0.079   3.021
 6550SOL    HW220550   6.455   0.090   3.142
 6551SOL     OW20551   3.040   3.420   1.285
 6551SOL    HW120552   2.947   3.444   1.312
 6551SOL    HW220553   3.042   3.328   1.247
 6552SOL     OW20554   2.411   6.766   0.558
 6552SOL    HW120555   2.341   6.816   0.611
 6552SOL    HW220556   2.488   6.827   0.539
 6553SOL     OW20557   0.091   0.997   2.610
 6553SOL    HW120558   0.054   0.946   2.688
 6553SOL    HW220559   0.016   1.043   2.562
 6554SOL     OW20560   2.976   1.026   4.211
 6554SOL    HW120561   3.056   0.971   4.231
 6554SOL    HW220562   2.893   0.977   4.239
 6555SOL     OW20563   6.122   2.091   4.944
 6555SOL    HW120564   6.103   2.189   4.945
 6555SOL    HW220565   6.102   2.051   5.034
 6556SOL     OW20566   6.071   3.366   3.257
 6556SOL    HW120567   6.164   3.394   3.232
 6556SOL    HW220568   6.070   3.269   3.281
 6557SOL     OW20569   1.356   6.584   2.318
 6557SOL    HW120570   1.402   6.586   2.229
 6557SOL    HW220571   1.299   6.666   2.327
 6558SOL     OW20572   5.864   5.199   0.269
 6558SOL    HW120573   5.904   5.255   0.342
 6558SOL    HW220574   5.860   5.104   0.298
 6559SOL     OW20575   6.720   3.378   6.403
 6559SOL    HW120576   6.738   3.283   6.376
 6559SOL    HW220577   6.806   3.429   6.403
 6560SOL     OW20578   4.738   4.837   0.465
 6560SOL    HW120579   4.730   4.869   0.370
 6560SOL    HW220580   4.760   4.914   0.525
 6561SOL     OW20581   4.020   5.143   0.300
 6561SOL    HW120582   4.073   5.086   0.363
 6561SOL    HW220583   4.073   5.225   0.277
 6562SOL     OW20584   5.769   2.444   0.854
 6562SOL    HW120585   5.713   2.422   0.775
 6562SOL    HW220586   5.794   2.541   0.852
 6563SOL     OW20587   5.115   6.866   5.423
 6563SOL    HW120588   5.195   6.922   5.399
 6563SOL    HW220589   5.106   6.791   5.358
 6564SOL     OW20590   6.905   3.872   2.532
 6564SOL    HW120591   6.866   3.852   2.622
 6564SOL    HW220592   6.984   3.813   2.516
 6565SOL     OW20593   6.263   6.593   2.264
 6565SOL    HW120594   6.228   6.509   2.305
 6565SOL    HW220595   6.215   6.610   2.178
 6566SOL     OW20596   3.513   5.685   2.425
 6566SOL    HW120597   3.565   5.648   2.502
 6566SOL    HW220598   3.416   5.670   2.440
 6567SOL     OW20599   4.516   0.672   1.739
 6567SOL    HW120600   4.512   0.600   1.808
 6567SOL    HW220601   4.547   0.757   1.781
 6568SOL     OW20602   3.962   1.461   1.932
 6568SOL    HW120603   4.047   1.456   1.879
 6568SOL    HW220604   3.918   1.549   1.915
 6569SOL     OW20605   1.011   3.074   5.690
 6569SOL    HW120606   0.915   3.058   5.671
 6569SOL    HW220607   1.030   3.173   5.690
 6570SOL     OW20608   3.890   0.113   1.816
 6570SOL    HW120609   3.860   0.141   1.907
 6570SOL    HW220610   3.990   0.121   1.810
 6571SOL     OW20611   2.650   4.603   3.502
 6571SOL    HW120612   2.617   4.579   3.594
 6571SOL    HW220613   2.691   4.694   3.504
 6572SOL     OW20614   0.245   4.766   3.814
 6572SOL    HW120615   0.311   4.808   3.877
 6572SOL    HW220616   0.199   4.690   3.860
 6573SOL     OW20617   1.727   1.015   3.025
 6573SOL    HW120618   1.780   0.935   3.054
 6573SOL    HW220619   1.631   0.991   3.016
 6574SOL     OW20620   2.049   6.103   2.705
 6574SOL    HW120621   1.984   6.163   2.751
 6574SOL    HW220622   2.142   6.132   2.726
 6575SOL     OW20623   0.147   0.334   2.680
 6575SOL    HW120624   0.172   0.244   2.644
 6575SOL    HW220625   0.072   0.372   2.625
 6576SOL     OW20626   3.565   5.079   0.216
 6576SOL    HW120627   3.536   4.988   0.244
 6576SOL    HW220628   3.649   5.104   0.263
 6577SOL     OW20629   1.797   2.494   4.113
 6577SOL    HW120630   1.743   2.530   4.037
 6577SOL    HW220631   1.819   2.569   4.176
 6578SOL     OW20632   1.516   5.165   1.003
 6578SOL    HW120633   1.596   5.127   0.956
 6578SOL    HW220634   1.447   5.191   0.936
 6579SOL     OW20635   6.912   1.129   3.666
 6579SOL    HW120636   6.852   1.204   3.693
 6579SOL    HW220637   6.928   1.070   3.745
 6580SOL     OW20638   1.119   0.336   6.952
 6580SOL    HW120639   1.188   0.329   0.006
 6580SOL    HW220640   1.036   0.377   6.989
 6581SOL     OW20641   1.465   1.756   0.107
 6581SOL    HW120642   1.481   1.800   0.019
 6581SOL    HW220643   1.367   1.748   0.124
 6582SOL     OW20644   6.532   0.328   2.787
 6582SOL    HW120645   6.554   0.248   2.842
 6582SOL    HW220646   6.616   0.378   2.765
 6583SOL     OW20647   4.405   0.044   6.112
 6583SOL    HW120648   4.471   0.063   6.185
 6583SOL    HW220649   4.402   0.122   6.049
 6584SOL     OW20650   3.582   2.729   1.081
 6584SOL    HW120651   3.585   2.630   1.099
 6584SOL    HW220652   3.675   2.764   1.079
 6585SOL     OW20653   6.097   0.053   0.596
 6585SOL    HW120654   6.113   0.144   0.635
 6585SOL    HW220655   5.998   0.039   0.584
 6586SOL     OW20656   5.920   2.135   6.080
 6586SOL    HW120657   5.869   2.213   6.115
 6586SOL    HW220658   6.018   2.149   6.097
 6587SOL     OW20659   1.469   4.485   5.646
 6587SOL    HW120660   1.431   4.528   5.564
 6587SOL    HW220661   1.569   4.477   5.636
 6588SOL     OW20662   0.374   3.317   0.670
 6588SOL    HW120663   0.287   3.341   0.626
 6588SOL    HW220664   0.416   3.240   0.623
 6589SOL     OW20665   6.366   1.055   1.359
 6589SOL    HW120666   6.400   1.106   1.438
 6589SOL    HW220667   6.304   0.983   1.390
 6590SOL     OW20668   0.753   0.808   5.540
 6590SOL    HW120669   0.667   0.792   5.490
 6590SOL    HW220670   0.820   0.739   5.512
 6591SOL     OW20671   5.162   5.324   4.609
 6591SOL    HW120672   5.171   5.308   4.511
 6591SOL    HW220673   5.115   5.411   4.625
 6592SOL     OW20674   5.040   0.479   3.133
 6592SOL    HW120675   4.977   0.497   3.209
 6592SOL    HW220676   5.106   0.408   3.160
 6593SOL     OW20677   2.934   2.156   2.313
 6593SOL    HW120678   2.903   2.062   2.298
 6593SOL    HW220679   2.910   2.212   2.234
 6594SOL     OW20680   3.822   1.480   5.805
 6594SOL    HW120681   3.875   1.430   5.873
 6594SOL    HW220682   3.849   1.577   5.805
 6595SOL     OW20683   2.258   2.229   4.703
 6595SOL    HW120684   2.160   2.215   4.692
 6595SOL    HW220685   2.292   2.171   4.777
 6596SOL     OW20686   5.078   5.695   2.484
 6596SOL    HW120687   5.121   5.747   2.558
 6596SOL    HW220688   5.026   5.619   2.523
 6597SOL     OW20689   0.876   5.618   1.799
 6597SOL    HW120690   0.946   5.607   1.728
 6597SOL    HW220691   0.794   5.567   1.772
 6598SOL     OW20692   1.733   4.375   3.951
 6598SOL    HW120693   1.669   4.433   4.002
 6598SOL    HW220694   1.825   4.384   3.990
 6599SOL     OW20695   5.791   5.704   6.727
 6599SOL    HW120696   5.718   5.768   6.752
 6599SOL    HW220697   5.874   5.726   6.779
 6600SOL     OW20698   4.831   0.621   5.553
 6600SOL    HW120699   4.854   0.646   5.647
 6600SOL    HW220700   4.801   0.526   5.550
 6601SOL     OW20701   0.947   3.065   2.834
 6601SOL    HW120702   0.944   3.149   2.888
 6601SOL    HW220703   0.861   3.015   2.846
 6602SOL     OW20704   2.273   0.207   1.394
 6602SOL    HW120705   2.325   0.232   1.476
 6602SOL    HW220706   2.335   0.166   1.327
 6603SOL     OW20707   0.635   3.214   4.062
 6603SOL    HW120708   0.714   3.154   4.071
 6603SOL    HW220709   0.661   3.308   4.088
 6604SOL     OW20710   2.721   0.147   1.947
 6604SOL    HW120711   2.681   0.057   1.929
 6604SOL    HW220712   2.671   0.191   2.021
 6605SOL     OW20713   6.037   5.468   1.704
 6605SOL    HW120714   5.977   5.505   1.775
 6605SOL    HW220715   5.987   5.402   1.648
 6606SOL     OW20716   1.243   3.728   3.426
 6606SOL    HW120717   1.291   3.658   3.478
 6606SOL    HW220718   1.288   3.741   3.337
 6607SOL     OW20719   5.673   4.532   4.386
 6607SOL    HW120720   5.645   4.626   4.405
 6607SOL    HW220721   5.734   4.500   4.459
 6608SOL     OW20722   6.887   6.921   6.856
 6608SOL    HW120723   6.976   6.955   6.888
 6608SOL    HW220724   6.861   6.971   6.773
 6609SOL     OW20725   5.011   1.973   5.972
 6609SOL    HW120726   5.049   1.993   6.062
 6609SOL    HW220727   5.051   1.888   5.937
 6610SOL     OW20728   2.453   5.789   0.679
 6610SOL    HW120729   2.538   5.736   0.686
 6610SOL    HW220730   2.386   5.752   0.743
 6611SOL     OW20731   5.013   2.158   3.662
 6611SOL    HW120732   4.975   2.185   3.573
 6611SOL    HW220733   5.059   2.237   3.703
 6612SOL     OW20734   5.795   2.359   6.191
 6612SOL    HW120735   5.697   2.380   6.195
 6612SOL    HW220736   5.840   2.391   6.274
 6613SOL     OW20737   5.287   0.823   6.352
 6613SOL    HW120738   5.243   0.908   6.321
 6613SOL    HW220739   5.226   0.776   6.416
 6614SOL     OW20740   4.596   5.768   1.864
 6614SOL    HW120741   4.673   5.705   1.861
 6614SOL    HW220742   4.603   5.824   1.947
 6615SOL     OW20743   2.978   5.683   0.193
 6615SOL    HW120744   2.983   5.588   0.161
 6615SOL    HW220745   2.883   5.715   0.187
 6616SOL     OW20746   4.246   0.295   6.418
 6616SOL    HW120747   4.314   0.298   6.345
 6616SOL    HW220748   4.289   0.323   6.504
 6617SOL     OW20749   3.987   0.630   3.434
 6617SOL    HW120750   4.057   0.628   3.506
 6617SOL    HW220751   3.931   0.712   3.445
 6618SOL     OW20752   0.719   1.586   3.151
 6618SOL    HW120753   0.701   1.684   3.141
 6618SOL    HW220754   0.647   1.535   3.105
 6619SOL     OW20755   4.669   0.101   4.240
 6619SOL    HW120756   4.679   0.125   4.336
 6619SOL    HW220757   4.614   0.018   4.233
 6620SOL     OW20758   0.774   3.894   3.402
 6620SOL    HW120759   0.701   3.833   3.371
 6620SOL    HW220760   0.862   3.850   3.385
 6621SOL     OW20761   3.923   3.007   4.704
 6621SOL    HW120762   3.901   2.921   4.750
 6621SOL    HW220763   3.922   2.993   4.605
 6622SOL     OW20764   6.306   5.872   0.881
 6622SOL    HW120765   6.343   5.939   0.945
 6622SOL    HW220766   6.269   5.919   0.801
 6623SOL     OW20767   3.437   4.020   5.589
 6623SOL    HW120768   3.383   3.968   5.523
 6623SOL    HW220769   3.497   4.083   5.539
 6624SOL     OW20770   0.911   2.467   4.941
 6624SOL    HW120771   0.893   2.431   4.849
 6624SOL    HW220772   0.906   2.393   5.008
 6625SOL     OW20773   6.186   3.075   5.606
 6625SOL    HW120774   6.109   3.114   5.556
 6625SOL    HW220775   6.154   3.037   5.693
 6626SOL     OW20776   2.838   6.924   4.649
 6626SOL    HW120777   2.920   6.872   4.622
 6626SOL    HW220778   2.818   6.993   4.580
 6627SOL     OW20779   1.398   5.950   4.600
 6627SOL    HW120780   1.307   5.986   4.585
 6627SOL    HW220781   1.445   5.938   4.513
 6628SOL     OW20782   5.000   5.637   4.072
 6628SOL    HW120783   4.985   5.622   3.974
 6628SOL    HW220784   5.017   5.734   4.089
 6629SOL     OW20785   4.891   5.755   6.759
 6629SOL    HW120786   4.970   5.798   6.715
 6629SOL    HW220787   4.826   5.727   6.688
 6630SOL     OW20788   2.827   1.247   2.191
 6630SOL    HW120789   2.830   1.241   2.092
 6630SOL    HW220790   2.732   1.239   2.222
 6631SOL     OW20791   1.368   4.917   5.878
 6631SOL    HW120792   1.455   4.873   5.856
 6631SOL    HW220793   1.381   4.980   5.954
 6632SOL     OW20794   1.299   0.482   0.929
 6632SOL    HW120795   1.242   0.563   0.915
 6632SOL    HW220796   1.391   0.511   0.955
 6633SOL     OW20797   3.084   5.555   6.360
 6633SOL    HW120798   3.096   5.456   6.369
 6633SOL    HW220799   3.143   5.589   6.287
 6634SOL     OW20800   5.283   2.084   5.755
 6634SOL    HW120801   5.349   2.122   5.691
 6634SOL    HW220802   5.306   2.113   5.848
 6635SOL     OW20803   4.762   4.707   2.610
 6635SOL    HW120804   4.666   4.709   2.636
 6635SOL    HW220805   4.814   4.769   2.670
 6636SOL     OW20806   3.064   0.015   2.561
 6636SOL    HW120807   3.077   0.095   2.502
 6636SOL    HW220808   3.089   6.950   2.511
 6637SOL     OW20809   1.809   0.539   0.826
 6637SOL    HW120810   1.830   0.597   0.748
 6637SOL    HW220811   1.799   0.594   0.908
 6638SOL     OW20812   3.084   3.842   3.705
 6638SOL    HW120813   3.043   3.870   3.791
 6638SOL    HW220814   3.184   3.848   3.712
 6639SOL     OW20815   4.399   2.794   0.719
 6639SOL    HW120816   4.494   2.774   0.742
 6639SOL    HW220817   4.364   2.724   0.656
 6640SOL     OW20818   0.654   2.956   5.350
 6640SOL    HW120819   0.611   2.931   5.263
 6640SOL    HW220820   0.660   2.876   5.409
 6641SOL     OW20821   4.298   1.669   0.938
 6641SOL    HW120822   4.235   1.647   0.864
 6641SOL    HW220823   4.259   1.742   0.994
 6642SOL     OW20824   1.817   5.400   0.725
 6642SOL    HW120825   1.866   5.345   0.792
 6642SOL    HW220826   1.821   5.355   0.636
 6643SOL     OW20827   5.406   6.130   0.564
 6643SOL    HW120828   5.345   6.063   0.522
 6643SOL    HW220829   5.498   6.122   0.524
 6644SOL     OW20830   2.062   6.569   2.413
 6644SOL    HW120831   2.063   6.536   2.508
 6644SOL    HW220832   1.987   6.526   2.364
 6645SOL     OW20833   6.126   2.846   0.559
 6645SOL    HW120834   6.079   2.854   0.647
 6645SOL    HW220835   6.221   2.875   0.570
 6646SOL     OW20836   4.006   0.679   0.337
 6646SOL    HW120837   4.021   0.588   0.376
 6646SOL    HW220838   3.992   0.671   0.238
 6647SOL     OW20839   4.885   5.189   1.193
 6647SOL    HW120840   4.949   5.208   1.119
 6647SOL    HW220841   4.846   5.097   1.181
 6648SOL     OW20842   3.291   6.284   4.484
 6648SOL    HW120843   3.256   6.214   4.547
 6648SOL    HW220844   3.216   6.346   4.458
 6649SOL     OW20845   5.658   2.737   6.648
 6649SOL    HW120846   5.705   2.683   6.718
 6649SOL    HW220847   5.698   2.720   6.559
 6650SOL     OW20848   4.038   0.851   5.284
 6650SOL    HW120849   4.004   0.768   5.328
 6650SOL    HW220850   4.059   0.920   5.354
 6651SOL     OW20851   1.074   1.623   0.136
 6651SOL    HW120852   1.028   1.550   0.086
 6651SOL    HW220853   1.010   1.668   0.198
 6652SOL     OW20854   0.657   4.353   0.065
 6652SOL    HW120855   0.601   4.329   0.145
 6652SOL    HW220856   0.744   4.304   0.069
 6653SOL     OW20857   4.916   3.041   0.302
 6653SOL    HW120858   4.880   2.997   0.220
 6653SOL    HW220859   4.990   3.103   0.276
 6654SOL     OW20860   0.501   4.683   2.945
 6654SOL    HW120861   0.529   4.754   2.880
 6654SOL    HW220862   0.404   4.663   2.933
 6655SOL     OW20863   6.658   5.525   1.604
 6655SOL    HW120864   6.600   5.448   1.631
 6655SOL    HW220865   6.621   5.610   1.642
 6656SOL     OW20866   4.394   1.633   2.669
 6656SOL    HW120867   4.438   1.572   2.735
 6656SOL    HW220868   4.353   1.580   2.595
 6657SOL     OW20869   5.305   2.548   4.670
 6657SOL    HW120870   5.248   2.476   4.709
 6657SOL    HW220871   5.393   2.551   4.718
 6658SOL     OW20872   6.333   0.288   5.234
 6658SOL    HW120873   6.253   0.230   5.214
 6658SOL    HW220874   6.303   0.383   5.242
 6659SOL     OW20875   1.196   5.098   1.690
 6659SOL    HW120876   1.198   5.194   1.662
 6659SOL    HW220877   1.289   5.064   1.699
 6660SOL     OW20878   1.074   5.601   2.706
 6660SOL    HW120879   1.010   5.678   2.695
 6660SOL    HW220880   1.133   5.595   2.625
 6661SOL     OW20881   3.156   6.531   4.205
 6661SOL    HW120882   3.165   6.465   4.130
 6661SOL    HW220883   3.125   6.483   4.287
 6662SOL     OW20884   2.430   0.451   1.911
 6662SOL    HW120885   2.342   0.476   1.952
 6662SOL    HW220886   2.425   0.358   1.873
 6663SOL     OW20887   1.456   5.520   6.064
 6663SOL    HW120888   1.391   5.546   5.993
 6663SOL    HW220889   1.406   5.480   6.141
 6664SOL     OW20890   2.128   0.757   1.887
 6664SOL    HW120891   2.191   0.813   1.834
 6664SOL    HW220892   2.159   0.754   1.982
 6665SOL     OW20893   2.979   6.908   6.142
 6665SOL    HW120894   2.899   6.968   6.149
 6665SOL    HW220895   3.062   6.962   6.145
 6666SOL     OW20896   6.176   5.655   4.942
 6666SOL    HW120897   6.263   5.616   4.912
 6666SOL    HW220898   6.121   5.584   4.986
 6667SOL     OW20899   6.989   6.525   5.545
 6667SOL    HW120900   6.967   6.430   5.568
 6667SOL    HW220901   6.908   6.569   5.506
 6668SOL     OW20902   6.834   6.226   1.537
 6668SOL    HW120903   6.855   6.226   1.439
 6668SOL    HW220904   6.816   6.320   1.567
 6669SOL     OW20905   2.886   1.501   1.904
 6669SOL    HW120906   2.817   1.432   1.925
 6669SOL    HW220907   2.894   1.565   1.980
 6670SOL     OW20908   2.954   1.963   6.842
 6670SOL    HW120909   2.911   1.944   6.754
 6670SOL    HW220910   2.987   2.058   6.843
 6671SOL     OW20911   4.873   6.345   0.702
 6671SOL    HW120912   4.827   6.433   0.715
 6671SOL    HW220913   4.918   6.318   0.787
 6672SOL     OW20914   1.575   2.545   0.264
 6672SOL    HW120915   1.560   2.635   0.223
 6672SOL    HW220916   1.563   2.551   0.363
 6673SOL     OW20917   5.338   3.289   4.072
 6673SOL    HW120918   5.399   3.249   4.003
 6673SOL    HW220919   5.243   3.279   4.042
 6674SOL     OW20920   0.625   2.985   6.339
 6674SOL    HW120921   0.574   3.027   6.414
 6674SOL    HW220922   0.659   3.056   6.278
 6675SOL     OW20923   4.365   2.387   6.999
 6675SOL    HW120924   4.367   2.385   6.899
 6675SOL    HW220925   4.276   2.356   0.013
 6676SOL     OW20926   1.239   3.937   3.158
 6676SOL    HW120927   1.227   3.883   3.075
 6676SOL    HW220928   1.155   3.934   3.212
 6677SOL     OW20929   0.610   0.820   0.205
 6677SOL    HW120930   0.628   0.786   0.113
 6677SOL    HW220931   0.536   0.888   0.201
 6678SOL     OW20932   1.785   4.040   0.440
 6678SOL    HW120933   1.826   3.957   0.479
 6678SOL    HW220934   1.779   4.031   0.341
 6679SOL     OW20935   2.613   0.780   3.623
 6679SOL    HW120936   2.648   0.695   3.661
 6679SOL    HW220937   2.672   0.810   3.549
 6680SOL     OW20938   4.554   6.809   0.365
 6680SOL    HW120939   4.482   6.875   0.384
 6680SOL    HW220940   4.596   6.779   0.451
 6681SOL     OW20941   4.668   5.102   1.380
 6681SOL    HW120942   4.725   5.183   1.364
 6681SOL    HW220943   4.725   5.029   1.418
 6682SOL     OW20944   2.641   5.381   6.943
 6682SOL    HW120945   2.690   5.406   0.009
 6682SOL    HW220946   2.602   5.463   6.902
 6683SOL     OW20947   5.997   3.466   6.496
 6683SOL    HW120948   5.925   3.397   6.503
 6683SOL    HW220949   5.956   3.556   6.488
 6684SOL     OW20950   3.433   0.468   1.907
 6684SOL    HW120951   3.419   0.537   1.835
 6684SOL    HW220952   3.507   0.407   1.881
 6685SOL     OW20953   3.821   3.526   6.566
 6685SOL    HW120954   3.860   3.532   6.474
 6685SOL    HW220955   3.820   3.431   6.595
 6686SOL     OW20956   6.199   5.479   3.406
 6686SOL    HW120957   6.230   5.564   3.364
 6686SOL    HW220958   6.146   5.426   3.340
 6687SOL     OW20959   6.708   2.183   1.419
 6687SOL    HW120960   6.790   2.236   1.400
 6687SOL    HW220961   6.705   2.157   1.515
 6688SOL     OW20962   4.307   4.348   0.979
 6688SOL    HW120963   4.345   4.421   0.921
 6688SOL    HW220964   4.214   4.373   1.006
 6689SOL     OW20965   3.662   4.393   5.845
 6689SOL    HW120966   3.671   4.307   5.795
 6689SOL    HW220967   3.729   4.396   5.920
 6690SOL     OW20968   1.263   0.617   6.393
 6690SOL    HW120969   1.283   0.560   6.314
 6690SOL    HW220970   1.343   0.672   6.416
 6691SOL     OW20971   1.752   1.190   2.530
 6691SOL    HW120972   1.656   1.209   2.510
 6691SOL    HW220973   1.763   1.179   2.629
 6692SOL     OW20974   4.225   4.584   1.827
 6692SOL    HW120975   4.129   4.612   1.826
 6692SOL    HW220976   4.232   4.491   1.791
 6693SOL     OW20977   4.732   1.884   4.882
 6693SOL    HW120978   4.765   1.912   4.972
 6693SOL    HW220979   4.635   1.907   4.873
 6694SOL     OW20980   3.474   5.399   1.585
 6694SOL    HW120981   3.416   5.468   1.541
 6694SOL    HW220982   3.556   5.443   1.622
 6695SOL     OW20983   3.123   2.209   0.480
 6695SOL    HW120984   3.028   2.190   0.456
 6695SOL    HW220985   3.148   2.156   0.561
 6696SOL     OW20986   3.903   4.010   3.805
 6696SOL    HW120987   3.852   4.052   3.881
 6696SOL    HW220988   3.954   4.081   3.757
 6697SOL     OW20989   5.370   2.198   2.570
 6697SOL    HW120990   5.313   2.126   2.529
 6697SOL    HW220991   5.464   2.166   2.578
 6698SOL     OW20992   3.359   3.869   1.519
 6698SOL    HW120993   3.308   3.793   1.479
 6698SOL    HW220994   3.396   3.927   1.446
 6699SOL     OW20995   1.932   5.732   6.012
 6699SOL    HW120996   1.875   5.812   6.030
 6699SOL    HW220997   1.887   5.673   5.945
 6700SOL     OW20998   5.602   0.517   0.746
 6700SOL    HW120999   5.689   0.532   0.698
 6700SOL    HW221000   5.620   0.466   0.830
 6701SOL     OW21001   6.238   0.075   1.478
 6701SOL    HW121002   6.186   0.097   1.560
 6701SOL    HW221003   6.227   6.996   1.456
 6702SOL     OW21004   2.071   2.135   0.932
 6702SOL    HW121005   2.093   2.038   0.918
 6702SOL    HW221006   2.074   2.156   1.029
 6703SOL     OW21007   1.469   1.511   6.322
 6703SOL    HW121008   1.551   1.561   6.351
 6703SOL    HW221009   1.486   1.468   6.233
 6704SOL     OW21010   3.301   1.518   4.212
 6704SOL    HW121011   3.216   1.484   4.172
 6704SOL    HW221012   3.296   1.616   4.225
 6705SOL     OW21013   6.047   3.065   1.182
 6705SOL    HW121014   6.112   3.045   1.109
 6705SOL    HW221015   6.081   3.026   1.268
 6706SOL     OW21016   1.242   5.860   0.815
 6706SOL    HW121017   1.342   5.865   0.820
 6706SOL    HW221018   1.203   5.890   0.902
 6707SOL     OW21019   5.736   0.259   2.441
 6707SOL    HW121020   5.833   0.271   2.421
 6707SOL    HW221021   5.687   0.235   2.357
 6708SOL     OW21022   6.164   4.372   1.521
 6708SOL    HW121023   6.202   4.312   1.450
 6708SOL    HW221024   6.069   4.345   1.539
 6709SOL     OW21025   1.128   4.322   1.901
 6709SOL    HW121026   1.035   4.322   1.864
 6709SOL    HW221027   1.131   4.266   1.984
 6710SOL     OW21028   4.624   1.230   1.653
 6710SOL    HW121029   4.585   1.258   1.565
 6710SOL    HW221030   4.633   1.311   1.712
 6711SOL     OW21031   4.632   6.325   6.383
 6711SOL    HW121032   4.600   6.358   6.294
 6711SOL    HW221033   4.558   6.276   6.429
 6712SOL     OW21034   6.285   3.583   0.498
 6712SOL    HW121035   6.223   3.578   0.576
 6712SOL    HW221036   6.286   3.676   0.462
 6713SOL     OW21037   1.313   0.886   3.823
 6713SOL    HW121038   1.247   0.961   3.813
 6713SOL    HW221039   1.279   0.822   3.891
 6714SOL     OW21040   5.984   1.226   1.093
 6714SOL    HW121041   6.043   1.240   1.172
 6714SOL    HW221042   6.013   1.286   1.019
 6715SOL     OW21043   1.619   1.119   1.147
 6715SOL    HW121044   1.645   1.188   1.215
 6715SOL    HW221045   1.581   1.164   1.067
 6716SOL     OW21046   6.688   5.675   2.071
 6716SOL    HW121047   6.717   5.587   2.108
 6716SOL    HW221048   6.756   5.744   2.092
 6717SOL     OW21049   3.440   2.475   6.786
 6717SOL    HW121050   3.436   2.573   6.765
 6717SOL    HW221051   3.411   2.460   6.880
 6718SOL     OW21052   4.306   1.721   1.582
 6718SOL    HW121053   4.258   1.725   1.670
 6718SOL    HW221054   4.262   1.784   1.517
 6719SOL     OW21055   1.904   0.020   6.915
 6719SOL    HW121056   1.934   0.088   6.983
 6719SOL    HW221057   1.957   6.954   6.927
 6720SOL     OW21058   2.818   0.836   5.521
 6720SOL    HW121059   2.896   0.880   5.478
 6720SOL    HW221060   2.753   0.906   5.551
 6721SOL     OW21061   0.163   0.418   0.492
 6721SOL    HW121062   0.082   0.457   0.536
 6721SOL    HW221063   0.246   0.459   0.531
 6722SOL     OW21064   0.133   3.122   0.399
 6722SOL    HW121065   0.230   3.111   0.375
 6722SOL    HW221066   0.116   3.081   0.488
 6723SOL     OW21067   2.140   1.577   6.539
 6723SOL    HW121068   2.093   1.547   6.622
 6723SOL    HW221069   2.221   1.630   6.563
 6724SOL     OW21070   2.343   3.095   6.404
 6724SOL    HW121071   2.402   3.017   6.425
 6724SOL    HW221072   2.332   3.103   6.305
 6725SOL     OW21073   5.819   3.047   3.009
 6725SOL    HW121074   5.757   3.086   2.941
 6725SOL    HW221075   5.907   3.029   2.967
 6726SOL     OW21076   0.569   1.637   5.088
 6726SOL    HW121077   0.523   1.556   5.124
 6726SOL    HW221078   0.594   1.697   5.164
 6727SOL     OW21079   0.886   4.995   5.541
 6727SOL    HW121080   0.901   4.959   5.449
 6727SOL    HW221081   0.804   5.051   5.543
 6728SOL     OW21082   4.033   2.209   3.709
 6728SOL    HW121083   3.943   2.174   3.734
 6728SOL    HW221084   4.043   2.210   3.610
 6729SOL     OW21085   5.901   2.181   0.829
 6729SOL    HW121086   5.854   2.130   0.901
 6729SOL    HW221087   5.854   2.267   0.812
 6730SOL     OW21088   1.580   0.886   1.276
 6730SOL    HW121089   1.573   0.977   1.234
 6730SOL    HW221090   1.530   0.820   1.221
 6731SOL     OW21091   2.046   6.501   1.365
 6731SOL    HW121092   2.079   6.418   1.320
 6731SOL    HW221093   2.104   6.579   1.339
 6732SOL     OW21094   5.192   4.243   4.473
 6732SOL    HW121095   5.283   4.272   4.504
 6732SOL    HW221096   5.140   4.210   4.551
 6733SOL     OW21097   3.760   5.544   6.865
 6733SOL    HW121098   3.816   5.618   6.829
 6733SOL    HW221099   3.665   5.558   6.841
 6734SOL     OW21100   5.092   2.314   5.252
 6734SOL    HW121101   5.096   2.402   5.299
 6734SOL    HW221102   5.079   2.241   5.319
 6735SOL     OW21103   5.841   3.896   4.497
 6735SOL    HW121104   5.825   3.866   4.402
 6735SOL    HW221105   5.837   3.817   4.558
 6736SOL     OW21106   2.991   4.686   0.809
 6736SOL    HW121107   2.895   4.711   0.794
 6736SOL    HW221108   3.036   4.671   0.721
 6737SOL     OW21109   0.783   2.624   1.094
 6737SOL    HW121110   0.816   2.623   1.189
 6737SOL    HW221111   0.689   2.657   1.092
 6738SOL     OW21112   1.058   5.754   3.496
 6738SOL    HW121113   1.127   5.783   3.429
 6738SOL    HW221114   1.025   5.663   3.473
 6739SOL     OW21115   6.885   6.635   2.960
 6739SOL    HW121116   6.798   6.682   2.975
 6739SOL    HW221117   6.867   6.544   2.923
 6740SOL     OW21118   6.366   6.914   4.113
 6740SOL    HW121119   6.374   6.873   4.023
 6740SOL    HW221120   6.433   6.988   4.123
 6741SOL     OW21121   4.792   2.280   6.195
 6741SOL    HW121122   4.718   2.213   6.189
 6741SOL    HW221123   4.822   2.306   6.103
 6742SOL     OW21124   5.791   5.441   3.887
 6742SOL    HW121125   5.738   5.461   3.804
 6742SOL    HW221126   5.878   5.490   3.882
 6743SOL     OW21127   3.769   4.109   6.480
 6743SOL    HW121128   3.675   4.139   6.494
 6743SOL    HW221129   3.828   4.144   6.553
 6744SOL     OW21130   6.925   5.879   6.007
 6744SOL    HW121131   6.849   5.819   6.034
 6744SOL    HW221132   7.000   5.870   6.072
 6745SOL     OW21133   0.254   6.013   3.743
 6745SOL    HW121134   0.307   6.098   3.740
 6745SOL    HW221135   0.185   6.014   3.670
 6746SOL     OW21136   1.803   1.388   2.332
 6746SOL    HW121137   1.710   1.402   2.299
 6746SOL    HW221138   1.804   1.314   2.400
 6747SOL     OW21139   6.496   6.703   6.383
 6747SOL    HW121140   6.437   6.768   6.431
 6747SOL    HW221141   6.567   6.670   6.445
 6748SOL     OW21142   2.661   1.694   3.860
 6748SOL    HW121143   2.700   1.645   3.938
 6748SOL    HW221144   2.718   1.679   3.780
 6749SOL     OW21145   3.576   4.062   1.106
 6749SOL    HW121146   3.516   4.074   1.027
 6749SOL    HW221147   3.658   4.011   1.078
 6750SOL     OW21148   2.717   1.612   4.330
 6750SOL    HW121149   2.787   1.667   4.285
 6750SOL    HW221150   2.640   1.598   4.267
 6751SOL     OW21151   4.489   0.561   3.622
 6751SOL    HW121152   4.576   0.594   3.585
 6751SOL    HW221153   4.414   0.610   3.578
 6752SOL     OW21154   1.576   6.706   3.286
 6752SOL    HW121155   1.506   6.656   3.337
 6752SOL    HW221156   1.538   6.792   3.253
 6753SOL     OW21157   3.702   2.189   5.697
 6753SOL    HW121158   3.611   2.183   5.654
 6753SOL    HW221159   3.709   2.276   5.747
 6754SOL     OW21160   6.077   0.760   1.045
 6754SOL    HW121161   6.031   0.684   0.998
 6754SOL    HW221162   6.009   0.819   1.089
 6755SOL     OW21163   3.190   4.875   1.187
 6755SOL    HW121164   3.158   4.968   1.174
 6755SOL    HW221165   3.123   4.810   1.151
 6756SOL     OW21166   3.355   0.810   5.666
 6756SOL    HW121167   3.389   0.740   5.728
 6756SOL    HW221168   3.344   0.897   5.714
 6757SOL     OW21169   3.967   1.633   1.542
 6757SOL    HW121170   3.895   1.596   1.600
 6757SOL    HW221171   3.963   1.590   1.451
 6758SOL     OW21172   5.574   3.087   1.585
 6758SOL    HW121173   5.653   3.054   1.533
 6758SOL    HW221174   5.490   3.061   1.537
 6759SOL     OW21175   6.865   2.894   3.192
 6759SOL    HW121176   6.783   2.898   3.250
 6759SOL    HW221177   6.883   2.984   3.154
 6760SOL     OW21178   6.141   3.709   2.645
 6760SOL    HW121179   6.070   3.682   2.711
 6760SOL    HW221180   6.227   3.664   2.668
 6761SOL     OW21181   5.029   2.728   4.832
 6761SOL    HW121182   4.945   2.774   4.802
 6761SOL    HW221183   5.091   2.718   4.754
 6762SOL     OW21184   0.448   4.327   4.392
 6762SOL    HW121185   0.381   4.256   4.373
 6762SOL    HW221186   0.425   4.372   4.479
 6763SOL     OW21187   5.297   5.408   5.392
 6763SOL    HW121188   5.218   5.366   5.348
 6763SOL    HW221189   5.376   5.405   5.330
 6764SOL     OW21190   1.713   5.965   2.402
 6764SOL    HW121191   1.651   5.979   2.325
 6764SOL    HW221192   1.784   6.036   2.401
 6765SOL     OW21193   6.231   4.361   3.806
 6765SOL    HW121194   6.239   4.333   3.901
 6765SOL    HW221195   6.226   4.461   3.800
 6766SOL     OW21196   4.729   5.664   6.470
 6766SOL    HW121197   4.668   5.741   6.450
 6766SOL    HW221198   4.823   5.692   6.454
 6767SOL     OW21199   3.168   0.620   0.759
 6767SOL    HW121200   3.171   0.579   0.851
 6767SOL    HW221201   3.182   0.548   0.691
 6768SOL     OW21202   2.340   0.936   5.622
 6768SOL    HW121203   2.359   0.925   5.524
 6768SOL    HW221204   2.402   0.878   5.675
 6769SOL     OW21205   3.276   2.336   0.936
 6769SOL    HW121206   3.191   2.349   0.887
 6769SOL    HW221207   3.282   2.241   0.967
 6770SOL     OW21208   6.984   0.738   1.765
 6770SOL    HW121209   0.046   0.742   1.706
 6770SOL    HW221210   6.996   0.667   1.834
 6771SOL     OW21211   4.437   2.428   3.384
 6771SOL    HW121212   4.430   2.332   3.412
 6771SOL    HW221213   4.380   2.443   3.302
 6772SOL     OW21214   3.200   1.100   3.170
 6772SOL    HW121215   3.238   1.016   3.133
 6772SOL    HW221216   3.274   1.160   3.201
 6773SOL     OW21217   6.709   4.904   1.399
 6773SOL    HW121218   6.712   4.976   1.330
 6773SOL    HW221219   6.712   4.814   1.355
 6774SOL     OW21220   0.725   2.789   5.774
 6774SOL    HW121221   0.635   2.750   5.756
 6774SOL    HW221222   0.727   2.884   5.745
 6775SOL     OW21223   2.437   3.245   1.682
 6775SOL    HW121224   2.536   3.243   1.694
 6775SOL    HW221225   2.398   3.324   1.730
 6776SOL     OW21226   4.561   4.556   0.099
 6776SOL    HW121227   4.577   4.542   0.197
 6776SOL    HW221228   4.535   4.469   0.057
 6777SOL     OW21229   3.954   4.165   0.059
 6777SOL    HW121230   3.888   4.118   0.001
 6777SOL    HW221231   4.046   4.134   0.037
 6778SOL     OW21232   6.560   4.285   1.881
 6778SOL    HW121233   6.513   4.350   1.941
 6778SOL    HW221234   6.643   4.327   1.845
 6779SOL     OW21235   6.537   4.379   6.091
 6779SOL    HW121236   6.589   4.311   6.038
 6779SOL    HW221237   6.481   4.332   6.159
 6780SOL     OW21238   0.894   1.931   3.001
 6780SOL    HW121239   0.978   1.923   2.948
 6780SOL    HW221240   0.833   1.996   2.956
 6781SOL     OW21241   5.428   0.254   4.799
 6781SOL    HW121242   5.394   0.160   4.808
 6781SOL    HW221243   5.426   0.299   4.888
 6782SOL     OW21244   0.119   0.511   2.890
 6782SOL    HW121245   0.134   0.444   2.817
 6782SOL    HW221246   0.049   0.477   2.952
 6783SOL     OW21247   6.873   0.643   6.359
 6783SOL    HW121248   6.907   0.652   6.453
 6783SOL    HW221249   6.803   0.571   6.356
 6784SOL     OW21250   3.141   3.917   0.575
 6784SOL    HW121251   3.082   3.996   0.561
 6784SOL    HW221252   3.115   3.845   0.510
 6785SOL     OW21253   5.179   4.585   2.784
 6785SOL    HW121254   5.254   4.546   2.730
 6785SOL    HW221255   5.143   4.515   2.846
 6786SOL     OW21256   1.250   1.580   6.884
 6786SOL    HW121257   1.159   1.560   6.848
 6786SOL    HW221258   1.279   1.671   6.853
 6787SOL     OW21259   1.439   2.588   0.533
 6787SOL    HW121260   1.515   2.638   0.573
 6787SOL    HW221261   1.435   2.496   0.573
 6788SOL     OW21262   2.393   3.642   1.663
 6788SOL    HW121263   2.416   3.732   1.702
 6788SOL    HW221264   2.395   3.573   1.736
 6789SOL     OW21265   0.036   6.791   2.794
 6789SOL    HW121266   6.978   6.745   2.840
 6789SOL    HW221267   0.121   6.768   2.841
 6790SOL     OW21268   0.887   4.125   0.678
 6790SOL    HW121269   0.894   4.150   0.582
 6790SOL    HW221270   0.853   4.203   0.731
 6791SOL     OW21271   4.019   2.600   1.244
 6791SOL    HW121272   4.060   2.661   1.312
 6791SOL    HW221273   3.938   2.556   1.283
 6792SOL     OW21274   6.758   6.137   6.005
 6792SOL    HW121275   6.802   6.131   6.094
 6792SOL    HW221276   6.775   6.052   5.954
 6793SOL     OW21277   0.845   2.067   0.326
 6793SOL    HW121278   0.762   2.051   0.272
 6793SOL    HW221279   0.896   2.143   0.286
 6794SOL     OW21280   5.329   1.684   4.999
 6794SOL    HW121281   5.340   1.772   5.045
 6794SOL    HW221282   5.334   1.611   5.067
 6795SOL     OW21283   2.376   6.036   0.749
 6795SOL    HW121284   2.427   5.951   0.735
 6795SOL    HW221285   2.284   6.026   0.710
 6796SOL     OW21286   6.139   0.888   2.527
 6796SOL    HW121287   6.161   0.833   2.607
 6796SOL    HW221288   6.070   0.957   2.552
 6797SOL     OW21289   5.300   3.317   1.186
 6797SOL    HW121290   5.395   3.287   1.193
 6797SOL    HW221291   5.289   3.403   1.236
 6798SOL     OW21292   5.601   6.024   2.859
 6798SOL    HW121293   5.698   6.009   2.841
 6798SOL    HW221294   5.579   5.996   2.953
 6799SOL     OW21295   6.607   5.816   6.842
 6799SOL    HW121296   6.610   5.772   6.752
 6799SOL    HW221297   6.670   5.893   6.844
 6800SOL     OW21298   2.305   4.375   0.929
 6800SOL    HW121299   2.267   4.339   0.844
 6800SOL    HW221300   2.331   4.300   0.989
 6801SOL     OW21301   1.366   1.327   2.710
 6801SOL    HW121302   1.404   1.318   2.618
 6801SOL    HW221303   1.440   1.338   2.776
 6802SOL     OW21304   3.010   6.044   0.286
 6802SOL    HW121305   2.981   6.100   0.209
 6802SOL    HW221306   3.108   6.023   0.277
 6803SOL     OW21307   4.447   2.610   6.673
 6803SOL    HW121308   4.541   2.610   6.706
 6803SOL    HW221309   4.446   2.622   6.574
 6804SOL     OW21310   2.725   5.414   3.647
 6804SOL    HW121311   2.806   5.356   3.653
 6804SOL    HW221312   2.669   5.385   3.569
 6805SOL     OW21313   5.822   5.464   4.909
 6805SOL    HW121314   5.736   5.430   4.872
 6805SOL    HW221315   5.810   5.558   4.941
 6806SOL     OW21316   5.542   1.018   3.682
 6806SOL    HW121317   5.487   1.026   3.765
 6806SOL    HW221318   5.497   0.955   3.618
 6807SOL     OW21319   2.897   2.835   0.962
 6807SOL    HW121320   2.967   2.906   0.956
 6807SOL    HW221321   2.932   2.759   1.017
 6808SOL     OW21322   0.321   2.548   5.358
 6808SOL    HW121323   0.401   2.500   5.323
 6808SOL    HW221324   0.239   2.520   5.307
 6809SOL     OW21325   1.619   3.497   1.116
 6809SOL    HW121326   1.558   3.437   1.168
 6809SOL    HW221327   1.628   3.462   1.023
 6810SOL     OW21328   1.761   0.130   1.832
 6810SOL    HW121329   1.782   0.078   1.749
 6810SOL    HW221330   1.662   0.136   1.844
 6811SOL     OW21331   4.843   3.827   0.215
 6811SOL    HW121332   4.889   3.913   0.196
 6811SOL    HW221333   4.745   3.843   0.229
 6812SOL     OW21334   3.365   3.736   3.175
 6812SOL    HW121335   3.446   3.677   3.173
 6812SOL    HW221336   3.287   3.685   3.138
 6813SOL     OW21337   5.238   1.977   2.464
 6813SOL    HW121338   5.146   2.013   2.479
 6813SOL    HW221339   5.245   1.886   2.504
 6814SOL     OW21340   3.086   3.046   0.433
 6814SOL    HW121341   2.990   3.031   0.410
 6814SOL    HW221342   3.097   3.044   0.532
 6815SOL     OW21343   3.372   0.610   1.394
 6815SOL    HW121344   3.377   0.511   1.384
 6815SOL    HW221345   3.364   0.652   1.303
 6816SOL     OW21346   0.295   6.288   6.405
 6816SOL    HW121347   0.311   6.200   6.452
 6816SOL    HW221348   0.293   6.273   6.306
 6817SOL     OW21349   6.978   1.883   5.177
 6817SOL    HW121350   6.927   1.928   5.104
 6817SOL    HW221351   0.041   1.838   5.139
 6818SOL     OW21352   2.598   5.442   1.805
 6818SOL    HW121353   2.617   5.351   1.841
 6818SOL    HW221354   2.633   5.511   1.868
 6819SOL     OW21355   4.389   1.448   4.388
 6819SOL    HW121356   4.313   1.448   4.323
 6819SOL    HW221357   4.475   1.455   4.338
 6820SOL     OW21358   1.246   5.486   3.167
 6820SOL    HW121359   1.250   5.485   3.067
 6820SOL    HW221360   1.161   5.443   3.198
 6821SOL     OW21361   3.077   1.483   5.136
 6821SOL    HW121362   3.007   1.494   5.065
 6821SOL    HW221363   3.163   1.523   5.104
 6822SOL     OW21364   5.856   2.503   5.746
 6822SOL    HW121365   5.904   2.417   5.760
 6822SOL    HW221366   5.767   2.485   5.704
 6823SOL     OW21367   3.781   3.334   3.827
 6823SOL    HW121368   3.705   3.369   3.881
 6823SOL    HW221369   3.866   3.339   3.881
 6824SOL     OW21370   1.073   3.148   6.341
 6824SOL    HW121371   0.996   3.193   6.294
 6824SOL    HW221372   1.038   3.072   6.396
 6825SOL     OW21373   5.284   6.316   2.439
 6825SOL    HW121374   5.204   6.256   2.428
 6825SOL    HW221375   5.332   6.291   2.523
 6826SOL     OW21376   2.268   4.081   2.982
 6826SOL    HW121377   2.226   4.044   2.899
 6826SOL    HW221378   2.367   4.070   2.978
 6827SOL     OW21379   4.837   6.182   0.183
 6827SOL    HW121380   4.751   6.153   0.139
 6827SOL    HW221381   4.879   6.103   0.227
 6828SOL     OW21382   2.431   1.750   1.774
 6828SOL    HW121383   2.462   1.842   1.751
 6828SOL    HW221384   2.353   1.726   1.715
 6829SOL     OW21385   4.655   0.153   4.499
 6829SOL    HW121386   4.717   0.086   4.540
 6829SOL    HW221387   4.561   0.134   4.527
 6830SOL     OW21388   5.809   1.408   3.835
 6830SOL    HW121389   5.835   1.417   3.739
 6830SOL    HW221390   5.709   1.408   3.842
 6831SOL     OW21391   1.301   6.985   6.263
 6831SOL    HW121392   1.265   0.059   6.273
 6831SOL    HW221393   1.401   6.988   6.261
 6832SOL     OW21394   2.877   4.092   1.428
 6832SOL    HW121395   2.827   4.032   1.367
 6832SOL    HW221396   2.927   4.037   1.496
 6833SOL     OW21397   4.417   4.803   0.150
 6833SOL    HW121398   4.482   4.743   0.197
 6833SOL    HW221399   4.325   4.765   0.160
 6834SOL     OW21400   5.229   6.712   1.432
 6834SOL    HW121401   5.282   6.781   1.482
 6834SOL    HW221402   5.149   6.687   1.486
 6835SOL     OW21403   4.351   0.030   5.366
 6835SOL    HW121404   4.297   6.964   5.367
 6835SOL    HW221405   4.294   0.104   5.330
 6836SOL     OW21406   3.200   5.613   0.366
 6836SOL    HW121407   3.117   5.601   0.311
 6836SOL    HW221408   3.175   5.626   0.462
 6837SOL     OW21409   1.150   2.022   2.278
 6837SOL    HW121410   1.220   2.086   2.309
 6837SOL    HW221411   1.172   1.990   2.186
 6838SOL     OW21412   2.085   6.219   0.962
 6838SOL    HW121413   1.991   6.248   0.980
 6838SOL    HW221414   2.126   6.188   1.048
 6839SOL     OW21415   4.874   0.822   6.980
 6839SOL    HW121416   4.828   0.851   0.045
 6839SOL    HW221417   4.935   0.895   6.948
 6840SOL     OW21418   2.330   1.763   5.027
 6840SOL    HW121419   2.309   1.665   5.029
 6840SOL    HW221420   2.419   1.778   5.070
 6841SOL     OW21421   5.134   3.811   6.465
 6841SOL    HW121422   5.203   3.749   6.502
 6841SOL    HW221423   5.163   3.842   6.374
 6842SOL     OW21424   2.780   4.751   1.247
 6842SOL    HW121425   2.759   4.655   1.225
 6842SOL    HW221426   2.751   4.810   1.172
 6843SOL     OW21427   5.678   6.826   6.926
 6843SOL    HW121428   5.662   6.876   6.841
 6843SOL    HW221429   5.614   6.749   6.933
 6844SOL     OW21430   5.306   0.911   4.644
 6844SOL    HW121431   5.273   0.991   4.594
 6844SOL    HW221432   5.404   0.902   4.631
 6845SOL     OW21433   6.092   3.391   2.875
 6845SOL    HW121434   6.047   3.480   2.875
 6845SOL    HW221435   6.145   3.380   2.790
 6846SOL     OW21436   2.987   4.545   6.791
 6846SOL    HW121437   3.060   4.607   6.762
 6846SOL    HW221438   3.012   4.451   6.769
 6847SOL     OW21439   0.203   3.838   4.928
 6847SOL    HW121440   0.196   3.756   4.984
 6847SOL    HW221441   0.291   3.840   4.881
 6848SOL     OW21442   5.005   4.261   3.859
 6848SOL    HW121443   4.915   4.260   3.816
 6848SOL    HW221444   4.996   4.273   3.957
 6849SOL     OW21445   3.609   4.110   6.057
 6849SOL    HW121446   3.517   4.076   6.041
 6849SOL    HW221447   3.648   4.145   5.972
 6850SOL     OW21448   4.519   2.508   3.012
 6850SOL    HW121449   4.437   2.480   3.062
 6850SOL    HW221450   4.594   2.445   3.034
 6851SOL     OW21451   1.057   2.745   2.518
 6851SOL    HW121452   1.109   2.728   2.434
 6851SOL    HW221453   0.990   2.672   2.531
 6852SOL     OW21454   2.915   5.632   1.190
 6852SOL    HW121455   2.817   5.653   1.185
 6852SOL    HW221456   2.967   5.702   1.143
 6853SOL     OW21457   5.233   3.906   6.238
 6853SOL    HW121458   5.327   3.888   6.268
 6853SOL    HW221459   5.235   3.961   6.154
 6854SOL     OW21460   5.808   0.014   5.525
 6854SOL    HW121461   5.874   0.087   5.541
 6854SOL    HW221462   5.837   6.949   5.572
 6855SOL     OW21463   4.574   5.947   3.756
 6855SOL    HW121464   4.601   6.037   3.791
 6855SOL    HW221465   4.566   5.951   3.656
 6856SOL     OW21466   0.364   2.300   5.766
 6856SOL    HW121467   0.417   2.219   5.740
 6856SOL    HW221468   0.427   2.372   5.794
 6857SOL     OW21469   0.851   3.105   6.990
 6857SOL    HW121470   0.891   3.194   6.970
 6857SOL    HW221471   0.896   3.035   6.934
 6858SOL     OW21472   3.453   4.424   1.707
 6858SOL    HW121473   3.357   4.445   1.690
 6858SOL    HW221474   3.497   4.504   1.749
 6859SOL     OW21475   0.889   0.983   1.803
 6859SOL    HW121476   0.894   1.082   1.796
 6859SOL    HW221477   0.957   0.942   1.742
 6860SOL     OW21478   6.732   4.665   1.728
 6860SOL    HW121479   6.695   4.756   1.744
 6860SOL    HW221480   6.826   4.673   1.693
 6861SOL     OW21481   4.799   3.581   6.037
 6861SOL    HW121482   4.738   3.548   5.966
 6861SOL    HW221483   4.845   3.665   6.006
 6862SOL     OW21484   0.575   5.109   5.929
 6862SOL    HW121485   0.500   5.060   5.884
 6862SOL    HW221486   0.650   5.046   5.947
 6863SOL     OW21487   6.822   5.964   5.339
 6863SOL    HW121488   6.922   5.963   5.334
 6863SOL    HW221489   6.788   5.870   5.348
 6864SOL     OW21490   2.155   4.280   5.626
 6864SOL    HW121491   2.216   4.201   5.637
 6864SOL    HW221492   2.209   4.364   5.634
 6865SOL     OW21493   1.408   0.457   5.513
 6865SOL    HW121494   1.441   0.508   5.433
 6865SOL    HW221495   1.310   0.474   5.526
 6866SOL     OW21496   6.222   4.960   2.509
 6866SOL    HW121497   6.306   4.930   2.555
 6866SOL    HW221498   6.205   5.056   2.530
 6867SOL     OW21499   2.069   3.929   1.072
 6867SOL    HW121500   2.039   3.839   1.104
 6867SOL    HW221501   2.140   3.965   1.132
 6868SOL     OW21502   2.440   6.024   5.250
 6868SOL    HW121503   2.370   6.000   5.318
 6868SOL    HW221504   2.530   5.996   5.283
 6869SOL     OW21505   4.451   0.538   5.849
 6869SOL    HW121506   4.398   0.532   5.765
 6869SOL    HW221507   4.402   0.593   5.917
 6870SOL     OW21508   0.545   3.648   0.472
 6870SOL    HW121509   0.449   3.658   0.447
 6870SOL    HW221510   0.553   3.594   0.556
 6871SOL     OW21511   0.165   3.882   2.681
 6871SOL    HW121512   0.232   3.943   2.724
 6871SOL    HW221513   0.210   3.797   2.654
 6872SOL     OW21514   0.992   2.364   2.278
 6872SOL    HW121515   1.007   2.460   2.254
 6872SOL    HW221516   1.069   2.331   2.333
 6873SOL     OW21517   1.125   4.214   3.650
 6873SOL    HW121518   1.200   4.260   3.698
 6873SOL    HW221519   1.153   4.122   3.624
 6874SOL     OW21520   6.258   5.986   3.445
 6874SOL    HW121521   6.184   6.053   3.450
 6874SOL    HW221522   6.333   6.022   3.391
 6875SOL     OW21523   2.130   2.051   2.263
 6875SOL    HW121524   2.123   1.995   2.180
 6875SOL    HW221525   2.222   2.091   2.267
 6876SOL     OW21526   3.022   0.139   3.737
 6876SOL    HW121527   3.065   0.154   3.648
 6876SOL    HW221528   3.028   0.042   3.762
 6877SOL     OW21529   3.006   3.939   1.632
 6877SOL    HW121530   3.100   3.964   1.655
 6877SOL    HW221531   2.966   3.887   1.708
 6878SOL     OW21532   2.295   1.972   3.633
 6878SOL    HW121533   2.301   2.058   3.582
 6878SOL    HW221534   2.361   1.974   3.708
 6879SOL     OW21535   2.266   2.598   0.175
 6879SOL    HW121536   2.347   2.549   0.144
 6879SOL    HW221537   2.185   2.541   0.159
 6880SOL     OW21538   1.292   6.410   6.224
 6880SOL    HW121539   1.380   6.434   6.183
 6880SOL    HW221540   1.224   6.396   6.152
 6881SOL     OW21541   1.543   3.210   1.572
 6881SOL    HW121542   1.513   3.293   1.620
 6881SOL    HW221543   1.586   3.236   1.486
 6882SOL     OW21544   2.716   1.207   0.303
 6882SOL    HW121545   2.617   1.205   0.288
 6882SOL    HW221546   2.736   1.257   0.387
 6883SOL     OW21547   5.557   1.023   5.930
 6883SOL    HW121548   5.483   1.045   5.866
 6883SOL    HW221549   5.636   1.081   5.913
 6884SOL     OW21550   1.530   4.001   2.967
 6884SOL    HW121551   1.570   3.914   2.941
 6884SOL    HW221552   1.441   4.012   2.922
 6885SOL     OW21553   4.947   5.068   3.867
 6885SOL    HW121554   4.978   5.107   3.953
 6885SOL    HW221555   4.875   5.001   3.885
 6886SOL     OW21556   6.726   1.405   5.223
 6886SOL    HW121557   6.638   1.452   5.235
 6886SOL    HW221558   6.709   1.313   5.188
 6887SOL     OW21559   4.380   5.584   6.904
 6887SOL    HW121560   4.313   5.634   6.850
 6887SOL    HW221561   4.469   5.589   6.858
 6888SOL     OW21562   5.182   4.709   6.098
 6888SOL    HW121563   5.084   4.697   6.086
 6888SOL    HW221564   5.216   4.637   6.159
 6889SOL     OW21565   2.039   2.519   5.814
 6889SOL    HW121566   1.944   2.488   5.826
 6889SOL    HW221567   2.052   2.551   5.720
 6890SOL     OW21568   3.988   5.950   3.174
 6890SOL    HW121569   3.892   5.960   3.201
 6890SOL    HW221570   4.001   5.860   3.132
 6891SOL     OW21571   2.730   2.906   1.410
 6891SOL    HW121572   2.645   2.944   1.375
 6891SOL    HW221573   2.732   2.916   1.510
 6892SOL     OW21574   3.271   1.058   3.669
 6892SOL    HW121575   3.298   1.085   3.761
 6892SOL    HW221576   3.328   1.106   3.602
 6893SOL     OW21577   5.646   3.408   0.445
 6893SOL    HW121578   5.620   3.401   0.541
 6893SOL    HW221579   5.599   3.485   0.403
 6894SOL     OW21580   5.151   4.429   1.491
 6894SOL    HW121581   5.066   4.381   1.514
 6894SOL    HW221582   5.229   4.378   1.528
 6895SOL     OW21583   1.921   5.901   0.973
 6895SOL    HW121584   1.921   5.834   1.046
 6895SOL    HW221585   1.829   5.908   0.934
 6896SOL     OW21586   2.955   1.378   3.674
 6896SOL    HW121587   2.988   1.284   3.682
 6896SOL    HW221588   3.023   1.434   3.626
 6897SOL     OW21589   4.767   4.044   5.138
 6897SOL    HW121590   4.766   4.048   5.038
 6897SOL    HW221591   4.827   3.969   5.168
 6898SOL     OW21592   3.472   1.131   1.872
 6898SOL    HW121593   3.538   1.129   1.796
 6898SOL    HW221594   3.520   1.112   1.958
 6899SOL     OW21595   4.698   6.283   2.959
 6899SOL    HW121596   4.648   6.322   3.036
 6899SOL    HW221597   4.773   6.344   2.934
 6900SOL     OW21598   0.073   4.876   5.843
 6900SOL    HW121599   0.048   4.887   5.939
 6900SOL    HW221600   0.025   4.944   5.788
 6901SOL     OW21601   4.614   5.258   6.425
 6901SOL    HW121602   4.583   5.166   6.400
 6901SOL    HW221603   4.535   5.320   6.428
 6902SOL     OW21604   6.694   6.090   5.556
 6902SOL    HW121605   6.744   6.049   5.480
 6902SOL    HW221606   6.603   6.048   5.563
 6903SOL     OW21607   3.211   5.196   5.288
 6903SOL    HW121608   3.201   5.123   5.221
 6903SOL    HW221609   3.229   5.282   5.240
 6904SOL     OW21610   6.740   6.575   5.415
 6904SOL    HW121611   6.653   6.619   5.392
 6904SOL    HW221612   6.739   6.481   5.381
 6905SOL     OW21613   6.111   5.123   6.800
 6905SOL    HW121614   6.052   5.110   6.880
 6905SOL    HW221615   6.143   5.217   6.798
 6906SOL     OW21616   3.188   1.725   3.184
 6906SOL    HW121617   3.182   1.625   3.184
 6906SOL    HW221618   3.112   1.762   3.238
 6907SOL     OW21619   6.518   2.311   1.753
 6907SOL    HW121620   6.454   2.258   1.698
 6907SOL    HW221621   6.491   2.305   1.849
 6908SOL     OW21622   2.363   4.900   6.883
 6908SOL    HW121623   2.428   4.933   6.951
 6908SOL    HW221624   2.364   4.960   6.803
 6909SOL     OW21625   5.145   5.018   2.189
 6909SOL    HW121626   5.130   4.928   2.230
 6909SOL    HW221627   5.134   5.012   2.090
 6910SOL     OW21628   1.262   2.860   2.984
 6910SOL    HW121629   1.263   2.800   2.904
 6910SOL    HW221630   1.345   2.915   2.985
 6911SOL     OW21631   3.958   0.174   4.982
 6911SOL    HW121632   3.893   0.230   5.034
 6911SOL    HW221633   3.909   0.105   4.929
 6912SOL     OW21634   2.721   3.090   6.331
 6912SOL    HW121635   2.769   3.007   6.303
 6912SOL    HW221636   2.694   3.142   6.249
 6913SOL     OW21637   5.170   6.232   4.835
 6913SOL    HW121638   5.124   6.153   4.793
 6913SOL    HW221639   5.134   6.246   4.927
 6914SOL     OW21640   5.940   4.317   2.388
 6914SOL    HW121641   5.967   4.220   2.390
 6914SOL    HW221642   6.002   4.370   2.446
 6915SOL     OW21643   1.296   2.487   2.062
 6915SOL    HW121644   1.211   2.488   2.115
 6915SOL    HW221645   1.309   2.396   2.023
 6916SOL     OW21646   5.406   1.639   5.456
 6916SOL    HW121647   5.319   1.620   5.410
 6916SOL    HW221648   5.455   1.554   5.472
 6917SOL     OW21649   4.228   5.989   1.881
 6917SOL    HW121650   4.277   6.028   1.959
 6917SOL    HW221651   4.194   5.898   1.905
 6918SOL     OW21652   0.420   2.551   2.931
 6918SOL    HW121653   0.427   2.558   2.832
 6918SOL    HW221654   0.385   2.637   2.968
 6919SOL     OW21655   6.182   6.235   3.100
 6919SOL    HW121656   6.250   6.161   3.102
 6919SOL    HW221657   6.228   6.322   3.082
 6920SOL     OW21658   5.414   6.794   5.862
 6920SOL    HW121659   5.441   6.890   5.854
 6920SOL    HW221660   5.356   6.769   5.784
 6921SOL     OW21661   3.903   0.222   4.133
 6921SOL    HW121662   3.998   0.250   4.117
 6921SOL    HW221663   3.852   0.224   4.048
 6922SOL     OW21664   1.815   6.339   4.852
 6922SOL    HW121665   1.728   6.294   4.875
 6922SOL    HW221666   1.890   6.275   4.866
 6923SOL     OW21667   5.729   6.193   2.147
 6923SOL    HW121668   5.755   6.265   2.211
 6923SOL    HW221669   5.808   6.135   2.128
 6924SOL     OW21670   2.889   5.436   0.693
 6924SOL    HW121671   2.901   5.349   0.645
 6924SOL    HW221672   2.881   5.419   0.791
 6925SOL     OW21673   4.693   5.897   5.812
 6925SOL    HW121674   4.673   5.893   5.714
 6925SOL    HW221675   4.682   5.992   5.844
 6926SOL     OW21676   2.104   1.984   0.346
 6926SOL    HW121677   2.124   1.922   0.422
 6926SOL    HW221678   2.181   2.046   0.333
 6927SOL     OW21679   3.745   1.212   0.075
 6927SOL    HW121680   3.653   1.192   0.109
 6927SOL    HW221681   3.783   1.291   0.123
 6928SOL     OW21682   5.040   5.646   1.242
 6928SOL    HW121683   4.943   5.650   1.221
 6928SOL    HW221684   5.053   5.657   1.341
 6929SOL     OW21685   5.418   6.089   1.659
 6929SOL    HW121686   5.329   6.083   1.613
 6929SOL    HW221687   5.490   6.065   1.594
 6930SOL     OW21688   0.846   0.978   0.377
 6930SOL    HW121689   0.852   0.989   0.476
 6930SOL    HW221690   0.810   0.887   0.356
 6931SOL     OW21691   1.700   1.804   1.144
 6931SOL    HW121692   1.746   1.863   1.210
 6931SOL    HW221693   1.609   1.841   1.124
 6932SOL     OW21694   4.707   5.412   1.233
 6932SOL    HW121695   4.729   5.508   1.216
 6932SOL    HW221696   4.786   5.355   1.210
 6933SOL     OW21697   3.719   6.745   6.138
 6933SOL    HW121698   3.798   6.771   6.193
 6933SOL    HW221699   3.648   6.814   6.148
 6934SOL     OW21700   4.996   3.583   6.251
 6934SOL    HW121701   4.922   3.571   6.184
 6934SOL    HW221702   5.018   3.680   6.258
 6935SOL     OW21703   4.293   5.712   2.835
 6935SOL    HW121704   4.228   5.648   2.876
 6935SOL    HW221705   4.296   5.698   2.736
 6936SOL     OW21706   0.134   2.031   4.017
 6936SOL    HW121707   0.165   2.124   3.997
 6936SOL    HW221708   0.156   1.972   3.939
 6937SOL     OW21709   5.806   6.208   0.961
 6937SOL    HW121710   5.720   6.189   0.913
 6937SOL    HW221711   5.876   6.143   0.931
 6938SOL     OW21712   0.691   1.691   4.521
 6938SOL    HW121713   0.691   1.769   4.584
 6938SOL    HW221714   0.633   1.712   4.443
 6939SOL     OW21715   6.399   5.420   3.013
 6939SOL    HW121716   6.488   5.424   2.969
 6939SOL    HW221717   6.346   5.501   2.989
 6940SOL     OW21718   4.397   6.457   0.478
 6940SOL    HW121719   4.415   6.437   0.382
 6940SOL    HW221720   4.458   6.402   0.535
 6941SOL     OW21721   2.907   3.592   2.278
 6941SOL    HW121722   2.961   3.508   2.271
 6941SOL    HW221723   2.885   3.609   2.374
 6942SOL     OW21724   6.109   6.682   1.758
 6942SOL    HW121725   6.098   6.590   1.720
 6942SOL    HW221726   6.155   6.677   1.846
 6943SOL     OW21727   4.510   4.742   0.584
 6943SOL    HW121728   4.444   4.814   0.561
 6943SOL    HW221729   4.597   4.761   0.539
 6944SOL     OW21730   0.888   4.920   6.266
 6944SOL    HW121731   0.902   4.991   6.197
 6944SOL    HW221732   0.790   4.902   6.276
 6945SOL     OW21733   6.744   2.237   1.080
 6945SOL    HW121734   6.726   2.197   1.170
 6945SOL    HW221735   6.801   2.175   1.026
 6946SOL     OW21736   3.841   6.208   1.834
 6946SOL    HW121737   3.824   6.130   1.894
 6946SOL    HW221738   3.791   6.196   1.748
 6947SOL     OW21739   3.816   5.515   6.202
 6947SOL    HW121740   3.747   5.571   6.155
 6947SOL    HW221741   3.814   5.422   6.165
 6948SOL     OW21742   0.658   6.005   1.435
 6948SOL    HW121743   0.582   5.947   1.405
 6948SOL    HW221744   0.744   5.958   1.420
 6949SOL     OW21745   2.782   2.332   3.147
 6949SOL    HW121746   2.782   2.387   3.063
 6949SOL    HW221747   2.701   2.274   3.149
 6950SOL     OW21748   1.795   0.108   4.822
 6950SOL    HW121749   1.854   0.117   4.742
 6950SOL    HW221750   1.719   0.047   4.800
 6951SOL     OW21751   6.313   5.732   6.690
 6951SOL    HW121752   6.227   5.743   6.640
 6951SOL    HW221753   6.293   5.711   6.786
 6952SOL     OW21754   2.020   4.540   2.861
 6952SOL    HW121755   1.951   4.612   2.850
 6952SOL    HW221756   2.086   4.546   2.787
 6953SOL     OW21757   4.877   6.659   0.292
 6953SOL    HW121758   4.806   6.716   0.250
 6953SOL    HW221759   4.836   6.575   0.326
 6954SOL     OW21760   6.970   3.400   1.503
 6954SOL    HW121761   0.047   3.418   1.526
 6954SOL    HW221762   6.920   3.487   1.499
 6955SOL     OW21763   4.922   0.577   2.278
 6955SOL    HW121764   4.926   0.563   2.179
 6955SOL    HW221765   4.933   0.674   2.298
 6956SOL     OW21766   5.410   5.711   2.726
 6956SOL    HW121767   5.402   5.648   2.649
 6956SOL    HW221768   5.331   5.773   2.727
 6957SOL     OW21769   5.921   6.062   6.795
 6957SOL    HW121770   5.938   5.982   6.854
 6957SOL    HW221771   6.005   6.087   6.748
 6958SOL     OW21772   3.463   3.465   4.248
 6958SOL    HW121773   3.446   3.380   4.197
 6958SOL    HW221774   3.493   3.536   4.184
 6959SOL     OW21775   1.707   3.944   2.697
 6959SOL    HW121776   1.779   3.974   2.760
 6959SOL    HW221777   1.746   3.930   2.606
 6960SOL     OW21778   2.166   3.944   0.772
 6960SOL    HW121779   2.186   4.006   0.848
 6960SOL    HW221780   2.150   3.852   0.806
 6961SOL     OW21781   5.236   1.362   4.753
 6961SOL    HW121782   5.196   1.349   4.844
 6961SOL    HW221783   5.250   1.273   4.710
 6962SOL     OW21784   4.056   6.036   0.913
 6962SOL    HW121785   3.980   6.100   0.916
 6962SOL    HW221786   4.045   5.968   0.986
 6963SOL     OW21787   5.552   5.160   6.941
 6963SOL    HW121788   5.648   5.144   6.916
 6963SOL    HW221789   5.493   5.140   6.863
 6964SOL     OW21790   3.410   0.226   5.599
 6964SOL    HW121791   3.452   0.158   5.539
 6964SOL    HW221792   3.376   0.302   5.543
 6965SOL     OW21793   1.368   1.735   6.540
 6965SOL    HW121794   1.433   1.774   6.474
 6965SOL    HW221795   1.301   1.680   6.492
 6966SOL     OW21796   0.775   1.004   2.378
 6966SOL    HW121797   0.724   0.923   2.347
 6966SOL    HW221798   0.756   1.020   2.475
 6967SOL     OW21799   3.662   1.629   5.568
 6967SOL    HW121800   3.605   1.669   5.640
 6967SOL    HW221801   3.718   1.556   5.607
 6968SOL     OW21802   2.503   0.611   3.008
 6968SOL    HW121803   2.570   0.658   2.951
 6968SOL    HW221804   2.419   0.596   2.955
 6969SOL     OW21805   3.660   1.991   0.957
 6969SOL    HW121806   3.745   1.944   0.934
 6969SOL    HW221807   3.584   1.927   0.954
 6970SOL     OW21808   3.669   4.130   5.733
 6970SOL    HW121809   3.738   4.058   5.735
 6970SOL    HW221810   3.579   4.091   5.712
 6971SOL     OW21811   5.266   5.108   1.232
 6971SOL    HW121812   5.337   5.055   1.185
 6971SOL    HW221813   5.271   5.204   1.204
 6972SOL     OW21814   5.272   3.766   2.305
 6972SOL    HW121815   5.248   3.845   2.248
 6972SOL    HW221816   5.318   3.698   2.248
 6973SOL     OW21817   0.782   2.345   3.399
 6973SOL    HW121818   0.686   2.370   3.385
 6973SOL    HW221819   0.800   2.257   3.357
 6974SOL     OW21820   2.857   3.442   2.709
 6974SOL    HW121821   2.879   3.376   2.637
 6974SOL    HW221822   2.837   3.530   2.667
 6975SOL     OW21823   2.294   6.608   4.680
 6975SOL    HW121824   2.258   6.696   4.712
 6975SOL    HW221825   2.291   6.541   4.754
 6976SOL     OW21826   5.569   4.165   5.756
 6976SOL    HW121827   5.609   4.252   5.726
 6976SOL    HW221828   5.472   4.179   5.778
 6977SOL     OW21829   4.035   4.186   1.437
 6977SOL    HW121830   4.055   4.124   1.361
 6977SOL    HW221831   4.072   4.149   1.522
 6978SOL     OW21832   5.088   3.151   1.119
 6978SOL    HW121833   5.049   3.108   1.200
 6978SOL    HW221834   5.160   3.215   1.145
 6979SOL     OW21835   1.531   2.778   1.274
 6979SOL    HW121836   1.584   2.849   1.321
 6979SOL    HW221837   1.474   2.730   1.340
 6980SOL     OW21838   1.775   1.216   3.425
 6980SOL    HW121839   1.831   1.133   3.423
 6980SOL    HW221840   1.728   1.222   3.513
 6981SOL     OW21841   3.437   3.762   6.162
 6981SOL    HW121842   3.377   3.682   6.175
 6981SOL    HW221843   3.471   3.763   6.068
 6982SOL     OW21844   0.978   0.814   3.376
 6982SOL    HW121845   1.041   0.888   3.350
 6982SOL    HW221846   0.892   0.853   3.408
 6983SOL     OW21847   4.591   1.493   5.288
 6983SOL    HW121848   4.646   1.532   5.214
 6983SOL    HW221849   4.526   1.561   5.321
 6984SOL     OW21850   1.560   1.826   2.469
 6984SOL    HW121851   1.541   1.919   2.503
 6984SOL    HW221852   1.561   1.762   2.545
 6985SOL     OW21853   6.597   5.038   6.825
 6985SOL    HW121854   6.514   5.073   6.780
 6985SOL    HW221855   6.574   4.958   6.879
 6986SOL     OW21856   3.529   6.832   6.596
 6986SOL    HW121857   3.619   6.871   6.577
 6986SOL    HW221858   3.507   6.846   6.693
 6987SOL     OW21859   0.180   1.665   5.529
 6987SOL    HW121860   0.268   1.688   5.570
 6987SOL    HW221861   0.135   1.748   5.496
 6988SOL     OW21862   2.099   6.955   6.005
 6988SOL    HW121863   2.158   0.005   5.962
 6988SOL    HW221864   2.018   7.000   6.044
 6989SOL     OW21865   6.484   4.926   2.565
 6989SOL    HW121866   6.563   4.883   2.521
 6989SOL    HW221867   6.456   4.871   2.644
 6990SOL     OW21868   3.974   2.639   1.579
 6990SOL    HW121869   3.897   2.609   1.636
 6990SOL    HW221870   4.051   2.576   1.592
 6991SOL     OW21871   5.371   4.493   3.124
 6991SOL    HW121872   5.468   4.481   3.105
 6991SOL    HW221873   5.360   4.557   3.201
 6992SOL     OW21874   6.961   6.093   0.158
 6992SOL    HW121875   6.924   6.008   0.195
 6992SOL    HW221876   6.966   6.161   0.231
 6993SOL     OW21877   6.215   0.444   1.232
 6993SOL    HW121878   6.143   0.475   1.294
 6993SOL    HW221879   6.230   0.346   1.244
 6994SOL     OW21880   1.458   0.508   3.987
 6994SOL    HW121881   1.487   0.458   3.906
 6994SOL    HW221882   1.388   0.574   3.963
 6995SOL     OW21883   0.367   3.970   0.331
 6995SOL    HW121884   0.455   4.011   0.353
 6995SOL    HW221885   0.294   4.037   0.343
 6996SOL     OW21886   1.013   0.774   0.517
 6996SOL    HW121887   0.998   0.698   0.581
 6996SOL    HW221888   0.954   0.850   0.541
 6997SOL     OW21889   6.993   5.075   5.309
 6997SOL    HW121890   6.994   4.975   5.306
 6997SOL    HW221891   0.059   5.111   5.268
 6998SOL     OW21892   0.576   1.717   1.336
 6998SOL    HW121893   0.594   1.618   1.341
 6998SOL    HW221894   0.540   1.739   1.245
 6999SOL     OW21895   0.988   2.360   6.251
 6999SOL    HW121896   0.920   2.292   6.227
 6999SOL    HW221897   0.965   2.403   6.338
 7000SOL     OW21898   6.220   0.417   2.091
 7000SOL    HW121899   6.288   0.471   2.042
 7000SOL    HW221900   6.266   0.355   2.154
 7001SOL     OW21901   1.371   1.663   5.327
 7001SOL    HW121902   1.297   1.653   5.261
 7001SOL    HW221903   1.454   1.697   5.282
 7002SOL     OW21904   1.334   5.562   3.880
 7002SOL    HW121905   1.246   5.581   3.837
 7002SOL    HW221906   1.408   5.576   3.814
 7003SOL     OW21907   5.187   5.121   1.492
 7003SOL    HW121908   5.095   5.159   1.497
 7003SOL    HW221909   5.213   5.108   1.396
 7004SOL     OW21910   1.134   5.305   0.543
 7004SOL    HW121911   1.043   5.266   0.556
 7004SOL    HW221912   1.194   5.237   0.503
 7005SOL     OW21913   1.039   0.312   6.696
 7005SOL    HW121914   1.070   0.321   6.790
 7005SOL    HW221915   1.046   0.216   6.667
 7006SOL     OW21916   6.555   6.757   3.273
 7006SOL    HW121917   6.650   6.782   3.291
 7006SOL    HW221918   6.527   6.795   3.184
 7007SOL     OW21919   4.392   0.838   5.025
 7007SOL    HW121920   4.449   0.772   5.074
 7007SOL    HW221921   4.311   0.859   5.079
 7008SOL     OW21922   6.507   4.593   4.228
 7008SOL    HW121923   6.536   4.539   4.149
 7008SOL    HW221924   6.493   4.533   4.306
 7009SOL     OW21925   3.899   6.836   1.919
 7009SOL    HW121926   3.966   6.767   1.946
 7009SOL    HW221927   3.931   6.884   1.837
 7010SOL     OW21928   5.989   4.229   2.772
 7010SOL    HW121929   5.920   4.293   2.738
 7010SOL    HW221930   5.998   4.239   2.871
 7011SOL     OW21931   3.761   6.737   0.687
 7011SOL    HW121932   3.709   6.658   0.655
 7011SOL    HW221933   3.758   6.809   0.617
 7012SOL     OW21934   1.480   2.495   1.162
 7012SOL    HW121935   1.415   2.529   1.230
 7012SOL    HW221936   1.554   2.446   1.208
 7013SOL     OW21937   2.495   0.747   6.764
 7013SOL    HW121938   2.552   0.829   6.761
 7013SOL    HW221939   2.551   0.667   6.747
 7014SOL     OW21940   5.862   3.249   1.195
 7014SOL    HW121941   5.923   3.171   1.178
 7014SOL    HW221942   5.819   3.276   1.109
 7015SOL     OW21943   5.901   4.868   2.493
 7015SOL    HW121944   5.897   4.943   2.427
 7015SOL    HW221945   5.939   4.902   2.580
 7016SOL     OW21946   3.316   5.384   0.934
 7016SOL    HW121947   3.355   5.456   0.877
 7016SOL    HW221948   3.388   5.348   0.994
 7017SOL     OW21949   3.289   4.983   3.069
 7017SOL    HW121950   3.367   4.956   3.126
 7017SOL    HW221951   3.214   5.015   3.128
 7018SOL     OW21952   5.420   3.543   4.167
 7018SOL    HW121953   5.385   3.454   4.138
 7018SOL    HW221954   5.434   3.601   4.087
 7019SOL     OW21955   4.669   5.452   2.405
 7019SOL    HW121956   4.740   5.390   2.371
 7019SOL    HW221957   4.637   5.420   2.494
 7020SOL     OW21958   0.425   3.636   6.916
 7020SOL    HW121959   0.500   3.572   6.900
 7020SOL    HW221960   0.356   3.624   6.844
 7021SOL     OW21961   1.324   2.988   4.768
 7021SOL    HW121962   1.419   2.988   4.801
 7021SOL    HW221963   1.319   2.931   4.685
 7022SOL     OW21964   4.344   1.034   0.491
 7022SOL    HW121965   4.269   1.037   0.557
 7022SOL    HW221966   4.329   0.959   0.426
 7023SOL     OW21967   0.704   2.189   1.828
 7023SOL    HW121968   0.672   2.154   1.916
 7023SOL    HW221969   0.632   2.243   1.785
 7024SOL     OW21970   3.665   3.284   3.317
 7024SOL    HW121971   3.636   3.219   3.387
 7024SOL    HW221972   3.648   3.377   3.349
 7025SOL     OW21973   3.450   0.581   0.491
 7025SOL    HW121974   3.452   0.613   0.586
 7025SOL    HW221975   3.527   0.619   0.441
 7026SOL     OW21976   3.960   2.124   2.195
 7026SOL    HW121977   3.925   2.061   2.264
 7026SOL    HW221978   3.887   2.148   2.131
 7027SOL     OW21979   2.666   6.186   3.614
 7027SOL    HW121980   2.576   6.228   3.625
 7027SOL    HW221981   2.655   6.095   3.573
 7028SOL     OW21982   2.338   6.909   4.022
 7028SOL    HW121983   2.333   6.839   3.950
 7028SOL    HW221984   2.424   6.959   4.013
 7029SOL     OW21985   3.341   3.668   5.425
 7029SOL    HW121986   3.262   3.644   5.369
 7029SOL    HW221987   3.371   3.761   5.403
 7030SOL     OW21988   0.919   2.189   4.911
 7030SOL    HW121989   0.950   2.159   4.821
 7030SOL    HW221990   0.827   2.226   4.905
 7031SOL     OW21991   4.454   6.307   0.808
 7031SOL    HW121992   4.479   6.295   0.904
 7031SOL    HW221993   4.376   6.248   0.787
 7032SOL     OW21994   4.345   0.520   4.347
 7032SOL    HW121995   4.325   0.578   4.426
 7032SOL    HW221996   4.294   0.434   4.357
 7033SOL     OW21997   1.547   2.805   4.199
 7033SOL    HW121998   1.548   2.895   4.155
 7033SOL    HW221999   1.527   2.816   4.296
 7034SOL     OW22000   6.327   2.840   3.393
 7034SOL    HW122001   6.426   2.826   3.389
 7034SOL    HW222002   6.299   2.896   3.316
 7035SOL     OW22003   2.543   6.914   1.511
 7035SOL    HW122004   2.598   6.894   1.592
 7035SOL    HW222005   2.537   6.832   1.454
 7036SOL     OW22006   0.326   2.133   2.607
 7036SOL    HW122007   0.279   2.144   2.694
 7036SOL    HW222008   0.263   2.152   2.532
 7037SOL     OW22009   0.533   1.279   5.818
 7037SOL    HW122010   0.600   1.329   5.763
 7037SOL    HW222011   0.531   1.183   5.788
 7038SOL     OW22012   2.359   4.453   5.591
 7038SOL    HW122013   2.404   4.520   5.532
 7038SOL    HW222014   2.418   4.432   5.669
 7039SOL     OW22015   0.771   5.371   3.664
 7039SOL    HW122016   0.802   5.286   3.706
 7039SOL    HW222017   0.701   5.413   3.722
 7040SOL     OW22018   4.475   2.281   5.219
 7040SOL    HW122019   4.551   2.315   5.164
 7040SOL    HW222020   4.510   2.218   5.289
 7041SOL     OW22021   1.172   1.223   3.615
 7041SOL    HW122022   1.266   1.248   3.592
 7041SOL    HW222023   1.109   1.271   3.555
 7042SOL     OW22024   4.539   5.897   4.642
 7042SOL    HW122025   4.455   5.911   4.695
 7042SOL    HW222026   4.579   5.985   4.618
 7043SOL     OW22027   2.214   4.305   3.857
 7043SOL    HW122028   2.223   4.293   3.758
 7043SOL    HW222029   2.203   4.402   3.878
 7044SOL     OW22030   5.192   0.574   4.811
 7044SOL    HW122031   5.112   0.548   4.756
 7044SOL    HW222032   5.275   0.553   4.760
 7045SOL     OW22033   5.796   5.446   2.698
 7045SOL    HW122034   5.843   5.534   2.698
 7045SOL    HW222035   5.810   5.401   2.610
 7046SOL     OW22036   3.130   2.150   4.059
 7046SOL    HW122037   3.085   2.193   3.981
 7046SOL    HW222038   3.091   2.187   4.144
 7047SOL     OW22039   0.225   0.857   1.084
 7047SOL    HW122040   0.304   0.839   1.026
 7047SOL    HW222041   0.202   0.955   1.080
 7048SOL     OW22042   5.760   6.224   5.155
 7048SOL    HW122043   5.660   6.221   5.161
 7048SOL    HW222044   5.793   6.308   5.198
 7049SOL     OW22045   4.071   1.126   2.211
 7049SOL    HW122046   4.020   1.055   2.161
 7049SOL    HW222047   4.007   1.176   2.270
 7050SOL     OW22048   3.540   4.973   0.745
 7050SOL    HW122049   3.549   4.874   0.755
 7050SOL    HW222050   3.620   5.018   0.784
 7051SOL     OW22051   6.755   6.715   1.153
 7051SOL    HW122052   6.742   6.740   1.058
 7051SOL    HW222053   6.845   6.671   1.164
 7052SOL     OW22054   5.600   6.804   3.203
 7052SOL    HW122055   5.642   6.806   3.113
 7052SOL    HW222056   5.545   6.886   3.216
 7053SOL     OW22057   1.755   3.782   4.152
 7053SOL    HW122058   1.797   3.800   4.241
 7053SOL    HW222059   1.763   3.684   4.131
 7054SOL     OW22060   0.359   6.942   0.968
 7054SOL    HW122061   0.443   6.955   0.914
 7054SOL    HW222062   0.292   7.011   0.942
 7055SOL     OW22063   2.798   0.175   0.139
 7055SOL    HW122064   2.837   0.253   0.090
 7055SOL    HW222065   2.839   0.167   0.229
 7056SOL     OW22066   7.009   5.389   1.169
 7056SOL    HW122067   0.082   5.399   1.131
 7056SOL    HW222068   6.987   5.469   1.225
 7057SOL     OW22069   3.246   5.558   4.302
 7057SOL    HW122070   3.252   5.459   4.316
 7057SOL    HW222071   3.338   5.598   4.307
 7058SOL     OW22072   5.528   2.203   6.312
 7058SOL    HW122073   5.504   2.296   6.338
 7058SOL    HW222074   5.615   2.178   6.353
 7059SOL     OW22075   1.658   1.350   4.873
 7059SOL    HW122076   1.563   1.319   4.877
 7059SOL    HW222077   1.708   1.296   4.806
 7060SOL     OW22078   3.534   6.606   2.093
 7060SOL    HW122079   3.481   6.542   2.038
 7060SOL    HW222080   3.508   6.700   2.071
 7061SOL     OW22081   0.845   2.219   2.127
 7061SOL    HW122082   0.901   2.264   2.197
 7061SOL    HW222083   0.887   2.233   2.037
 7062SOL     OW22084   4.307   1.827   4.364
 7062SOL    HW122085   4.335   1.754   4.302
 7062SOL    HW222086   4.283   1.788   4.453
 7063SOL     OW22087   0.447   6.440   2.212
 7063SOL    HW122088   0.422   6.414   2.306
 7063SOL    HW222089   0.462   6.357   2.158
 7064SOL     OW22090   5.002   1.706   5.816
 7064SOL    HW122091   4.945   1.668   5.889
 7064SOL    HW222092   5.062   1.634   5.780
 7065SOL     OW22093   3.386   4.273   5.234
 7065SOL    HW122094   3.468   4.281   5.291
 7065SOL    HW222095   3.403   4.206   5.161
 7066SOL     OW22096   4.639   0.670   6.908
 7066SOL    HW122097   4.611   0.682   6.813
 7066SOL    HW222098   4.717   0.731   6.927
 7067SOL     OW22099   1.297   3.273   6.925
 7067SOL    HW122100   1.381   3.311   6.886
 7067SOL    HW222101   1.304   3.272   0.006
 7068SOL     OW22102   5.557   4.356   4.219
 7068SOL    HW122103   5.621   4.413   4.270
 7068SOL    HW222104   5.511   4.293   4.283
 7069SOL     OW22105   5.893   1.768   5.655
 7069SOL    HW122106   5.973   1.711   5.639
 7069SOL    HW222107   5.889   1.840   5.586
 7070SOL     OW22108   0.499   6.244   4.566
 7070SOL    HW122109   0.543   6.312   4.506
 7070SOL    HW222110   0.412   6.281   4.599
 7071SOL     OW22111   4.874   6.201   6.515
 7071SOL    HW122112   4.810   6.245   6.451
 7071SOL    HW222113   4.872   6.250   6.602
 7072SOL     OW22114   1.283   4.440   6.510
 7072SOL    HW122115   1.249   4.377   6.441
 7072SOL    HW222116   1.311   4.389   6.591
 7073SOL     OW22117   3.753   0.476   3.326
 7073SOL    HW122118   3.740   0.536   3.247
 7073SOL    HW222119   3.827   0.512   3.383
 7074SOL     OW22120   6.538   3.839   3.905
 7074SOL    HW122121   6.572   3.933   3.912
 7074SOL    HW222122   6.440   3.838   3.924
 7075SOL     OW22123   3.455   4.838   5.174
 7075SOL    HW122124   3.519   4.805   5.244
 7075SOL    HW222125   3.362   4.811   5.199
 7076SOL     OW22126   6.212   2.926   1.932
 7076SOL    HW122127   6.217   3.025   1.919
 7076SOL    HW222128   6.232   2.880   1.846
 7077SOL     OW22129   2.601   4.655   2.857
 7077SOL    HW122130   2.560   4.689   2.772
 7077SOL    HW222131   2.529   4.641   2.926
 7078SOL     OW22132   5.344   6.473   0.750
 7078SOL    HW122133   5.268   6.530   0.780
 7078SOL    HW222134   5.403   6.452   0.829
 7079SOL     OW22135   1.416   6.862   4.215
 7079SOL    HW122136   1.442   6.832   4.123
 7079SOL    HW222137   1.493   6.908   4.259
 7080SOL     OW22138   3.882   1.704   4.575
 7080SOL    HW122139   3.908   1.668   4.485
 7080SOL    HW222140   3.847   1.797   4.565
 7081SOL     OW22141   1.412   0.062   0.172
 7081SOL    HW122142   1.376   0.052   0.265
 7081SOL    HW222143   1.512   0.065   0.175
 7082SOL     OW22144   6.762   3.728   1.630
 7082SOL    HW122145   6.682   3.743   1.689
 7082SOL    HW222146   6.844   3.758   1.678
 7083SOL     OW22147   6.852   2.173   2.324
 7083SOL    HW122148   6.770   2.147   2.274
 7083SOL    HW222149   6.929   2.117   2.294
 7084SOL     OW22150   0.501   5.725   5.412
 7084SOL    HW122151   0.434   5.675   5.358
 7084SOL    HW222152   0.461   5.811   5.445
 7085SOL     OW22153   6.926   2.410   2.600
 7085SOL    HW122154   6.852   2.382   2.539
 7085SOL    HW222155   6.957   2.502   2.574
 7086SOL     OW22156   5.770   0.475   6.603
 7086SOL    HW122157   5.749   0.565   6.641
 7086SOL    HW222158   5.831   0.426   6.665
 7087SOL     OW22159   4.991   3.563   2.589
 7087SOL    HW122160   4.946   3.501   2.526
 7087SOL    HW222161   5.090   3.566   2.570
 7088SOL     OW22162   5.452   1.969   4.786
 7088SOL    HW122163   5.512   1.901   4.745
 7088SOL    HW222164   5.356   1.940   4.774
 7089SOL     OW22165   3.365   5.220   2.623
 7089SOL    HW122166   3.380   5.142   2.683
 7089SOL    HW222167   3.310   5.192   2.544
 7090SOL     OW22168   2.781   1.369   0.820
 7090SOL    HW122169   2.841   1.366   0.900
 7090SOL    HW222170   2.700   1.313   0.837
 7091SOL     OW22171   0.911   0.218   0.752
 7091SOL    HW122172   0.875   0.224   0.845
 7091SOL    HW222173   0.907   0.124   0.720
 7092SOL     OW22174   4.209   2.465   6.745
 7092SOL    HW122175   4.290   2.523   6.738
 7092SOL    HW222176   4.159   2.467   6.658
 7093SOL     OW22177   3.558   4.009   1.369
 7093SOL    HW122178   3.563   4.050   1.278
 7093SOL    HW222179   3.573   4.080   1.438
 7094SOL     OW22180   1.713   6.632   5.722
 7094SOL    HW122181   1.648   6.570   5.766
 7094SOL    HW222182   1.800   6.585   5.710
 7095SOL     OW22183   3.287   4.514   5.392
 7095SOL    HW122184   3.257   4.576   5.319
 7095SOL    HW222185   3.321   4.429   5.352
 7096SOL     OW22186   6.726   0.758   1.226
 7096SOL    HW122187   6.810   0.804   1.195
 7096SOL    HW222188   6.650   0.784   1.167
 7097SOL     OW22189   5.435   0.488   2.166
 7097SOL    HW122190   5.396   0.422   2.230
 7097SOL    HW222191   5.485   0.440   2.094
 7098SOL     OW22192   2.160   6.821   4.814
 7098SOL    HW122193   2.081   6.779   4.858
 7098SOL    HW222194   2.178   6.911   4.855
 7099SOL     OW22195   3.240   1.906   3.935
 7099SOL    HW122196   3.196   1.979   3.986
 7099SOL    HW222197   3.275   1.943   3.848
 7100SOL     OW22198   0.527   3.531   0.724
 7100SOL    HW122199   0.472   3.607   0.757
 7100SOL    HW222200   0.469   3.450   0.712
 7101SOL     OW22201   2.588   6.242   5.055
 7101SOL    HW122202   2.538   6.162   5.088
 7101SOL    HW222203   2.620   6.224   4.961
 7102SOL     OW22204   5.240   0.768   1.050
 7102SOL    HW122205   5.198   0.743   0.963
 7102SOL    HW222206   5.223   0.697   1.118
 7103SOL     OW22207   5.054   5.133   2.422
 7103SOL    HW122208   4.971   5.079   2.436
 7103SOL    HW222209   5.101   5.102   2.340
 7104SOL     OW22210   5.342   2.970   3.212
 7104SOL    HW122211   5.351   2.903   3.285
 7104SOL    HW222212   5.378   2.931   3.127
 7105SOL     OW22213   3.209   4.074   3.957
 7105SOL    HW122214   3.205   4.102   3.861
 7105SOL    HW222215   3.304   4.055   3.982
 7106SOL     OW22216   3.298   2.633   1.146
 7106SOL    HW122217   3.368   2.579   1.099
 7106SOL    HW222218   3.285   2.599   1.239
 7107SOL     OW22219   4.066   0.431   0.395
 7107SOL    HW122220   4.144   0.401   0.341
 7107SOL    HW222221   3.982   0.420   0.342
 7108SOL     OW22222   2.472   6.708   2.836
 7108SOL    HW122223   2.455   6.716   2.738
 7108SOL    HW222224   2.562   6.747   2.857
 7109SOL     OW22225   1.559   0.550   6.858
 7109SOL    HW122226   1.571   0.477   6.790
 7109SOL    HW222227   1.596   0.635   6.822
 7110SOL     OW22228   3.240   6.760   4.352
 7110SOL    HW122229   3.339   6.774   4.358
 7110SOL    HW222230   3.221   6.690   4.282
 7111SOL     OW22231   1.133   1.084   3.832
 7111SOL    HW122232   1.064   1.131   3.888
 7111SOL    HW222233   1.141   1.130   3.743
 7112SOL     OW22234   2.353   4.452   4.541
 7112SOL    HW122235   2.297   4.478   4.619
 7112SOL    HW222236   2.351   4.352   4.531
 7113SOL     OW22237   3.126   5.041   5.086
 7113SOL    HW122238   3.093   4.947   5.087
 7113SOL    HW222239   3.050   5.103   5.070
 7114SOL     OW22240   4.509   5.446   1.653
 7114SOL    HW122241   4.516   5.487   1.562
 7114SOL    HW222242   4.443   5.498   1.708
 7115SOL     OW22243   5.928   4.510   6.866
 7115SOL    HW122244   5.839   4.546   6.836
 7115SOL    HW222245   5.970   4.574   6.931
 7116SOL     OW22246   5.834   4.295   3.610
 7116SOL    HW122247   5.779   4.220   3.648
 7116SOL    HW222248   5.773   4.363   3.568
 7117SOL     OW22249   6.088   6.890   4.182
 7117SOL    HW122250   6.138   6.814   4.224
 7117SOL    HW222251   6.148   6.970   4.175
 7118SOL     OW22252   3.812   4.254   5.338
 7118SOL    HW122253   3.806   4.202   5.253
 7118SOL    HW222254   3.902   4.240   5.380
 7119SOL     OW22255   5.264   0.899   5.166
 7119SOL    HW122256   5.281   0.888   5.068
 7119SOL    HW222257   5.166   0.908   5.182
 7120SOL     OW22258   5.371   1.443   1.276
 7120SOL    HW122259   5.378   1.496   1.191
 7120SOL    HW222260   5.421   1.358   1.266
 7121SOL     OW22261   0.969   6.485   3.596
 7121SOL    HW122262   0.910   6.440   3.529
 7121SOL    HW222263   1.043   6.423   3.623
 7122SOL     OW22264   2.580   6.410   6.130
 7122SOL    HW122265   2.639   6.330   6.141
 7122SOL    HW222266   2.636   6.488   6.099
 7123SOL     OW22267   6.033   4.823   5.158
 7123SOL    HW122268   5.935   4.845   5.156
 7123SOL    HW222269   6.073   4.837   5.068
 7124SOL     OW22270   1.370   2.626   1.835
 7124SOL    HW122271   1.324   2.573   1.906
 7124SOL    HW222272   1.463   2.647   1.864
 7125SOL     OW22273   0.667   0.179   2.153
 7125SOL    HW122274   0.627   0.163   2.063
 7125SOL    HW222275   0.595   0.205   2.218
 7126SOL     OW22276   4.137   6.241   1.409
 7126SOL    HW122277   4.093   6.194   1.485
 7126SOL    HW222278   4.194   6.176   1.358
 7127SOL     OW22279   3.555   6.019   5.425
 7127SOL    HW122280   3.637   5.978   5.466
 7127SOL    HW222281   3.519   6.091   5.485
 7128SOL     OW22282   3.579   4.554   6.873
 7128SOL    HW122283   3.579   4.497   6.955
 7128SOL    HW222284   3.659   4.534   6.817
 7129SOL     OW22285   6.881   1.714   0.461
 7129SOL    HW122286   6.841   1.708   0.552
 7129SOL    HW222287   6.926   1.803   0.450
 7130SOL     OW22288   2.935   0.114   4.482
 7130SOL    HW122289   2.986   0.193   4.514
 7130SOL    HW222290   2.978   0.079   4.398
 7131SOL     OW22291   3.702   1.012   2.388
 7131SOL    HW122292   3.651   0.987   2.306
 7131SOL    HW222293   3.794   0.972   2.384
 7132SOL     OW22294   5.140   4.110   6.793
 7132SOL    HW122295   5.067   4.164   6.833
 7132SOL    HW222296   5.106   4.019   6.770
 7133SOL     OW22297   3.675   5.683   3.693
 7133SOL    HW122298   3.700   5.723   3.781
 7133SOL    HW222299   3.597   5.620   3.706
 7134SOL     OW22300   6.025   6.002   1.484
 7134SOL    HW122301   5.936   5.959   1.471
 7134SOL    HW222302   6.088   5.937   1.528
 7135SOL     OW22303   2.124   3.273   2.161
 7135SOL    HW122304   2.100   3.311   2.250
 7135SOL    HW222305   2.160   3.346   2.102
 7136SOL     OW22306   2.948   1.825   1.598
 7136SOL    HW122307   2.972   1.738   1.554
 7136SOL    HW222308   2.965   1.900   1.534
 7137SOL     OW22309   2.644   1.925   1.474
 7137SOL    HW122310   2.717   1.865   1.506
 7137SOL    HW222311   2.563   1.870   1.453
 7138SOL     OW22312   2.177   1.041   1.315
 7138SOL    HW122313   2.159   0.980   1.238
 7138SOL    HW222314   2.178   1.136   1.282
 7139SOL     OW22315   5.144   5.464   2.228
 7139SOL    HW122316   5.212   5.537   2.242
 7139SOL    HW222317   5.138   5.444   2.130
 7140SOL     OW22318   6.117   3.900   1.151
 7140SOL    HW122319   6.165   3.813   1.159
 7140SOL    HW222320   6.162   3.957   1.082
 7141SOL     OW22321   3.998   6.465   1.292
 7141SOL    HW122322   4.044   6.551   1.312
 7141SOL    HW222323   4.043   6.391   1.342
 7142SOL     OW22324   3.125   0.795   4.252
 7142SOL    HW122325   3.139   0.762   4.158
 7142SOL    HW222326   3.157   0.726   4.317
 7143SOL     OW22327   2.292   4.338   6.504
 7143SOL    HW122328   2.387   4.311   6.521
 7143SOL    HW222329   2.269   4.318   6.409
 7144SOL     OW22330   0.008   1.239   4.514
 7144SOL    HW122331   0.029   1.332   4.542
 7144SOL    HW222332   7.010   1.236   4.416
 7145SOL     OW22333   4.813   1.558   0.121
 7145SOL    HW122334   4.898   1.564   0.172
 7145SOL    HW222335   4.762   1.477   0.149
 7146SOL     OW22336   2.164   1.246   4.833
 7146SOL    HW122337   2.125   1.322   4.885
 7146SOL    HW222338   2.163   1.269   4.736
 7147SOL     OW22339   5.481   5.118   3.213
 7147SOL    HW122340   5.465   5.113   3.115
 7147SOL    HW222341   5.393   5.112   3.261
 7148SOL     OW22342   6.226   6.660   1.200
 7148SOL    HW122343   6.159   6.660   1.126
 7148SOL    HW222344   6.319   6.661   1.162
 7149SOL     OW22345   6.607   4.544   3.343
 7149SOL    HW122346   6.663   4.540   3.426
 7149SOL    HW222347   6.636   4.620   3.286
 7150SOL     OW22348   4.192   3.455   6.959
 7150SOL    HW122349   4.131   3.454   0.020
 7150SOL    HW222350   4.184   3.543   6.912
 7151SOL     OW22351   3.300   0.510   0.985
 7151SOL    HW122352   3.363   0.440   0.951
 7151SOL    HW222353   3.238   0.469   1.052
 7152SOL     OW22354   6.756   0.822   6.722
 7152SOL    HW122355   6.712   0.842   6.634
 7152SOL    HW222356   6.815   0.742   6.712
 7153SOL     OW22357   4.098   6.073   1.650
 7153SOL    HW122358   4.139   6.074   1.741
 7153SOL    HW222359   4.009   6.027   1.654
 7154SOL     OW22360   4.767   1.300   2.346
 7154SOL    HW122361   4.674   1.271   2.367
 7154SOL    HW222362   4.769   1.400   2.334
 7155SOL     OW22363   3.107   1.769   1.987
 7155SOL    HW122364   3.012   1.754   1.961
 7155SOL    HW222365   3.129   1.866   1.980
 7156SOL     OW22366   5.670   3.333   1.611
 7156SOL    HW122367   5.635   3.239   1.601
 7156SOL    HW222368   5.697   3.368   1.522
 7157SOL     OW22369   6.160   4.376   6.816
 7157SOL    HW122370   6.068   4.411   6.834
 7157SOL    HW222371   6.224   4.412   6.884
 7158SOL     OW22372   5.778   6.875   3.858
 7158SOL    HW122373   5.735   6.805   3.800
 7158SOL    HW222374   5.830   6.938   3.801
 7159SOL     OW22375   6.671   4.994   4.066
 7159SOL    HW122376   6.663   4.958   3.973
 7159SOL    HW222377   6.705   5.088   4.063
 7160SOL     OW22378   5.572   6.571   2.767
 7160SOL    HW122379   5.557   6.613   2.678
 7160SOL    HW222380   5.598   6.475   2.756
 7161SOL     OW22381   4.018   3.408   3.085
 7161SOL    HW122382   4.080   3.473   3.130
 7161SOL    HW222383   3.983   3.343   3.153
 7162SOL     OW22384   0.027   4.892   1.864
 7162SOL    HW122385   0.075   4.805   1.855
 7162SOL    HW222386   6.997   4.912   1.779
 7163SOL     OW22387   1.099   1.803   2.812
 7163SOL    HW122388   1.047   1.717   2.808
 7163SOL    HW222389   1.082   1.856   2.730
 7164SOL     OW22390   1.777   0.658   6.284
 7164SOL    HW122391   1.784   0.573   6.232
 7164SOL    HW222392   1.860   0.712   6.271
 7165SOL     OW22393   5.455   6.932   0.356
 7165SOL    HW122394   5.471   6.962   0.262
 7165SOL    HW222395   5.357   6.917   0.370
 7166SOL     OW22396   5.339   0.367   5.796
 7166SOL    HW122397   5.425   0.411   5.772
 7166SOL    HW222398   5.287   0.348   5.713
 7167SOL     OW22399   5.886   1.875   4.947
 7167SOL    HW122400   5.955   1.835   4.887
 7167SOL    HW222401   5.837   1.802   4.995
 7168SOL     OW22402   2.288   0.712   2.583
 7168SOL    HW122403   2.374   0.742   2.542
 7168SOL    HW222404   2.254   0.632   2.535
 7169SOL     OW22405   1.695   4.579   5.092
 7169SOL    HW122406   1.761   4.509   5.119
 7169SOL    HW222407   1.676   4.571   4.994
 7170SOL     OW22408   4.304   0.363   1.908
 7170SOL    HW122409   4.402   0.382   1.902
 7170SOL    HW222410   4.252   0.446   1.887
 7171SOL     OW22411   5.688   5.254   0.705
 7171SOL    HW122412   5.717   5.167   0.744
 7171SOL    HW222413   5.742   5.275   0.624
 7172SOL     OW22414   1.791   1.234   4.668
 7172SOL    HW122415   1.782   1.138   4.644
 7172SOL    HW222416   1.850   1.279   4.601
 7173SOL     OW22417   5.948   5.814   6.935
 7173SOL    HW122418   5.903   5.790   0.003
 7173SOL    HW222419   6.047   5.802   6.944
 7174SOL     OW22420   5.500   4.701   1.599
 7174SOL    HW122421   5.421   4.761   1.612
 7174SOL    HW222422   5.505   4.672   1.503
 7175SOL     OW22423   5.764   3.651   5.119
 7175SOL    HW122424   5.682   3.669   5.173
 7175SOL    HW222425   5.846   3.668   5.174
 7176SOL     OW22426   0.477   1.248   4.308
 7176SOL    HW122427   0.572   1.240   4.339
 7176SOL    HW222428   0.416   1.243   4.387
 7177SOL     OW22429   1.831   5.430   5.433
 7177SOL    HW122430   1.758   5.464   5.492
 7177SOL    HW222431   1.904   5.499   5.426
 7178SOL     OW22432   0.331   0.849   5.604
 7178SOL    HW122433   0.318   0.762   5.557
 7178SOL    HW222434   0.318   0.836   5.703
 7179SOL     OW22435   2.591   5.172   6.100
 7179SOL    HW122436   2.654   5.095   6.090
 7179SOL    HW222437   2.553   5.197   6.011
 7180SOL     OW22438   1.834   4.820   1.386
 7180SOL    HW122439   1.820   4.808   1.288
 7180SOL    HW222440   1.863   4.733   1.426
 7181SOL     OW22441   2.455   1.492   5.373
 7181SOL    HW122442   2.451   1.592   5.372
 7181SOL    HW222443   2.529   1.462   5.433
 7182SOL     OW22444   0.380   3.104   4.104
 7182SOL    HW122445   0.347   3.080   4.195
 7182SOL    HW222446   0.477   3.130   4.109
 7183SOL     OW22447   2.108   6.375   1.660
 7183SOL    HW122448   2.132   6.377   1.758
 7183SOL    HW222449   2.026   6.430   1.645
 7184SOL     OW22450   5.913   1.054   3.458
 7184SOL    HW122451   5.934   0.981   3.393
 7184SOL    HW222452   5.959   1.035   3.546
 7185SOL     OW22453   4.969   1.246   5.238
 7185SOL    HW122454   4.966   1.314   5.311
 7185SOL    HW222455   4.911   1.277   5.162
 7186SOL     OW22456   0.007   0.174   0.484
 7186SOL    HW122457   0.063   0.251   0.453
 7186SOL    HW222458   6.961   0.149   0.411
 7187SOL     OW22459   2.947   3.522   4.809
 7187SOL    HW122460   2.943   3.422   4.807
 7187SOL    HW222461   2.863   3.558   4.850
 7188SOL     OW22462   4.227   4.928   6.897
 7188SOL    HW122463   4.217   5.028   6.897
 7188SOL    HW222464   4.194   4.891   6.984
 7189SOL     OW22465   6.204   2.847   5.427
 7189SOL    HW122466   6.195   2.921   5.494
 7189SOL    HW222467   6.300   2.821   5.420
 7190SOL     OW22468   6.180   5.607   0.997
 7190SOL    HW122469   6.276   5.619   1.025
 7190SOL    HW222470   6.136   5.696   0.991
 7191SOL     OW22471   0.904   4.289   2.878
 7191SOL    HW122472   0.939   4.304   2.971
 7191SOL    HW222473   0.956   4.345   2.814
 7192SOL     OW22474   1.565   4.647   6.405
 7192SOL    HW122475   1.655   4.607   6.421
 7192SOL    HW222476   1.504   4.622   6.480
 7193SOL     OW22477   2.808   1.905   2.295
 7193SOL    HW122478   2.709   1.912   2.309
 7193SOL    HW222479   2.846   1.834   2.354
 7194SOL     OW22480   2.728   2.656   0.289
 7194SOL    HW122481   2.639   2.651   0.335
 7194SOL    HW222482   2.789   2.586   0.326
 7195SOL     OW22483   0.109   3.871   6.957
 7195SOL    HW122484   0.083   3.933   6.882
 7195SOL    HW222485   0.029   3.855   7.015
 7196SOL     OW22486   3.044   3.919   2.515
 7196SOL    HW122487   3.099   3.994   2.478
 7196SOL    HW222488   3.051   3.918   2.615
 7197SOL     OW22489   1.420   3.922   5.291
 7197SOL    HW122490   1.387   3.871   5.371
 7197SOL    HW222491   1.413   3.864   5.210
 7198SOL     OW22492   6.885   0.651   0.351
 7198SOL    HW122493   6.848   0.579   0.411
 7198SOL    HW222494   6.850   0.740   0.379
 7199SOL     OW22495   0.579   0.565   2.456
 7199SOL    HW122496   0.566   0.613   2.542
 7199SOL    HW222497   0.491   0.549   2.412
 7200SOL     OW22498   2.037   2.121   0.628
 7200SOL    HW122499   2.034   2.114   0.727
 7200SOL    HW222500   2.126   2.089   0.595
 7201SOL     OW22501   6.398   5.365   3.989
 7201SOL    HW122502   6.452   5.431   4.041
 7201SOL    HW222503   6.352   5.411   3.914
 7202SOL     OW22504   5.271   6.705   6.314
 7202SOL    HW122505   5.317   6.663   6.392
 7202SOL    HW222506   5.176   6.673   6.310
 7203SOL     OW22507   0.611   1.043   1.910
 7203SOL    HW122508   0.624   1.100   1.992
 7203SOL    HW222509   0.698   1.034   1.862
 7204SOL     OW22510   6.545   1.038   0.792
 7204SOL    HW122511   6.563   1.137   0.801
 7204SOL    HW222512   6.455   1.024   0.751
 7205SOL     OW22513   1.682   2.595   4.804
 7205SOL    HW122514   1.769   2.613   4.851
 7205SOL    HW222515   1.630   2.526   4.855
 7206SOL     OW22516   1.575   1.759   1.443
 7206SOL    HW122517   1.642   1.832   1.440
 7206SOL    HW222518   1.545   1.737   1.350
 7207SOL     OW22519   1.759   2.193   4.281
 7207SOL    HW122520   1.793   2.274   4.330
 7207SOL    HW222521   1.833   2.155   4.226
 7208SOL     OW22522   3.732   0.743   4.379
 7208SOL    HW122523   3.796   0.717   4.307
 7208SOL    HW222524   3.640   0.710   4.355
 7209SOL     OW22525   2.136   2.415   2.476
 7209SOL    HW122526   2.100   2.484   2.412
 7209SOL    HW222527   2.236   2.413   2.470
 7210SOL     OW22528   2.674   1.969   3.297
 7210SOL    HW122529   2.734   1.889   3.305
 7210SOL    HW222530   2.592   1.956   3.353
 7211SOL     OW22531   2.787   6.223   5.285
 7211SOL    HW122532   2.747   6.245   5.196
 7211SOL    HW222533   2.739   6.273   5.357
 7212SOL     OW22534   6.080   5.663   5.973
 7212SOL    HW122535   6.092   5.698   5.880
 7212SOL    HW222536   6.166   5.626   6.007
 7213SOL     OW22537   3.511   0.058   0.619
 7213SOL    HW122538   3.438   0.035   0.683
 7213SOL    HW222539   3.521   0.157   0.614
 7214SOL     OW22540   0.337   1.161   6.293
 7214SOL    HW122541   0.420   1.109   6.314
 7214SOL    HW222542   0.361   1.240   6.237
 7215SOL     OW22543   6.891   2.421   3.382
 7215SOL    HW122544   6.844   2.485   3.443
 7215SOL    HW222545   6.979   2.459   3.355
 7216SOL     OW22546   3.086   6.417   2.228
 7216SOL    HW122547   3.133   6.490   2.177
 7216SOL    HW222548   3.095   6.434   2.326
 7217SOL     OW22549   1.051   4.473   3.573
 7217SOL    HW122550   1.109   4.519   3.640
 7217SOL    HW222551   1.052   4.374   3.590
 7218SOL     OW22552   6.890   2.905   4.436
 7218SOL    HW122553   6.908   2.930   4.531
 7218SOL    HW222554   6.811   2.844   4.432
 7219SOL     OW22555   2.898   6.438   1.590
 7219SOL    HW122556   2.925   6.501   1.516
 7219SOL    HW222557   2.852   6.359   1.551
 7220SOL     OW22558   6.556   4.116   4.755
 7220SOL    HW122559   6.494   4.144   4.829
 7220SOL    HW222560   6.583   4.021   4.768
 7221SOL     OW22561   2.953   6.210   4.716
 7221SOL    HW122562   2.888   6.230   4.789
 7221SOL    HW222563   3.043   6.246   4.741
 7222SOL     OW22564   5.959   6.506   3.326
 7222SOL    HW122565   5.952   6.483   3.228
 7222SOL    HW222566   5.869   6.535   3.359
 7223SOL     OW22567   2.426   2.024   0.791
 7223SOL    HW122568   2.521   1.993   0.790
 7223SOL    HW222569   2.424   2.124   0.787
 7224SOL     OW22570   4.395   2.377   4.031
 7224SOL    HW122571   4.333   2.344   3.960
 7224SOL    HW222572   4.445   2.300   4.070
 7225SOL     OW22573   2.157   6.497   0.229
 7225SOL    HW122574   2.197   6.411   0.262
 7225SOL    HW222575   2.060   6.484   0.212
 7226SOL     OW22576   5.951   0.619   0.699
 7226SOL    HW122577   5.969   0.702   0.646
 7226SOL    HW222578   5.914   0.548   0.639
 7227SOL     OW22579   2.684   1.020   2.520
 7227SOL    HW122580   2.694   1.018   2.620
 7227SOL    HW222581   2.766   1.057   2.479
 7228SOL     OW22582   0.254   1.773   3.129
 7228SOL    HW122583   0.174   1.828   3.106
 7228SOL    HW222584   0.323   1.784   3.058
 7229SOL     OW22585   0.042   6.799   4.598
 7229SOL    HW122586   7.017   6.717   4.561
 7229SOL    HW222587   0.123   6.822   4.543
 7230SOL     OW22588   2.686   5.003   3.977
 7230SOL    HW122589   2.586   5.007   3.976
 7230SOL    HW222590   2.715   4.924   4.031
 7231SOL     OW22591   3.418   0.060   1.220
 7231SOL    HW122592   3.469   0.127   1.167
 7231SOL    HW222593   3.472   6.994   1.228
 7232SOL     OW22594   4.878   6.512   2.636
 7232SOL    HW122595   4.939   6.589   2.620
 7232SOL    HW222596   4.793   6.545   2.678
 7233SOL     OW22597   6.161   2.070   5.689
 7233SOL    HW122598   6.179   1.978   5.653
 7233SOL    HW222599   6.226   2.134   5.649
 7234SOL     OW22600   5.081   4.099   2.925
 7234SOL    HW122601   5.173   4.061   2.928
 7234SOL    HW222602   5.018   4.029   2.891
 7235SOL     OW22603   6.108   5.824   1.676
 7235SOL    HW122604   6.188   5.780   1.634
 7235SOL    HW222605   6.092   5.784   1.766
 7236SOL     OW22606   1.374   2.473   2.948
 7236SOL    HW122607   1.322   2.505   2.869
 7236SOL    HW222608   1.375   2.373   2.950
 7237SOL     OW22609   4.929   6.854   7.011
 7237SOL    HW122610   5.016   6.805   7.012
 7237SOL    HW222611   4.855   6.790   6.992
 7238SOL     OW22612   4.618   2.611   6.900
 7238SOL    HW122613   4.565   2.557   6.966
 7238SOL    HW222614   4.704   2.564   6.880
 7239SOL     OW22615   0.742   3.479   2.420
 7239SOL    HW122616   0.776   3.415   2.351
 7239SOL    HW222617   0.782   3.458   2.509
 7240SOL     OW22618   6.563   2.080   6.510
 7240SOL    HW122619   6.518   2.000   6.549
 7240SOL    HW222620   6.662   2.070   6.517
 7241SOL     OW22621   1.898   0.126   0.422
 7241SOL    HW122622   1.935   0.195   0.484
 7241SOL    HW222623   1.944   0.039   0.437
 7242SOL     OW22624   0.026   5.919   5.113
 7242SOL    HW122625   0.029   6.018   5.098
 7242SOL    HW222626   6.955   5.883   5.087
 7243SOL     OW22627   6.885   3.695   6.673
 7243SOL    HW122628   6.867   3.783   6.716
 7243SOL    HW222629   6.821   3.627   6.709
 7244SOL     OW22630   0.577   6.865   0.598
 7244SOL    HW122631   0.675   6.855   0.612
 7244SOL    HW222632   0.546   6.953   0.634
 7245SOL     OW22633   1.416   2.566   5.847
 7245SOL    HW122634   1.376   2.482   5.811
 7245SOL    HW222635   1.345   2.622   5.890
 7246SOL     OW22636   2.409   0.451   4.472
 7246SOL    HW122637   2.499   0.491   4.453
 7246SOL    HW222638   2.375   0.487   4.559
 7247SOL     OW22639   3.201   2.479   5.689
 7247SOL    HW122640   3.276   2.528   5.645
 7247SOL    HW222641   3.128   2.463   5.622
 7248SOL     OW22642   2.745   0.431   4.146
 7248SOL    HW122643   2.656   0.393   4.121
 7248SOL    HW222644   2.794   0.458   4.064
 7249SOL     OW22645   4.207   4.942   2.098
 7249SOL    HW122646   4.246   4.852   2.118
 7249SOL    HW222647   4.144   4.934   2.021
 7250SOL     OW22648   5.681   4.770   5.942
 7250SOL    HW122649   5.647   4.677   5.955
 7250SOL    HW222650   5.647   4.829   6.015
 7251SOL     OW22651   0.705   0.121   6.042
 7251SOL    HW122652   0.625   0.060   6.040
 7251SOL    HW222653   0.740   0.132   5.949
 7252SOL     OW22654   2.966   3.829   2.150
 7252SOL    HW122655   2.894   3.877   2.200
 7252SOL    HW222656   2.964   3.732   2.174
 7253SOL     OW22657   1.828   6.594   6.084
 7253SOL    HW122658   1.921   6.622   6.061
 7253SOL    HW222659   1.789   6.541   6.009
 7254SOL     OW22660   5.707   5.417   4.143
 7254SOL    HW122661   5.732   5.441   4.050
 7254SOL    HW222662   5.723   5.319   4.158
 7255SOL     OW22663   4.786   3.542   0.131
 7255SOL    HW122664   4.784   3.629   0.081
 7255SOL    HW222665   4.794   3.560   0.229
 7256SOL     OW22666   4.367   6.401   5.867
 7256SOL    HW122667   4.465   6.391   5.851
 7256SOL    HW222668   4.348   6.391   5.965
 7257SOL     OW22669   0.235   1.918   5.106
 7257SOL    HW122670   0.242   1.891   5.010
 7257SOL    HW222671   0.250   2.016   5.114
 7258SOL     OW22672   5.909   2.187   2.156
 7258SOL    HW122673   5.934   2.124   2.229
 7258SOL    HW222674   5.924   2.142   2.068
 7259SOL     OW22675   1.254   3.612   2.346
 7259SOL    HW122676   1.171   3.631   2.397
 7259SOL    HW222677   1.288   3.521   2.372
 7260SOL     OW22678   4.806   2.350   1.078
 7260SOL    HW122679   4.856   2.359   0.993
 7260SOL    HW222680   4.869   2.356   1.155
 7261SOL     OW22681   0.431   3.974   1.221
 7261SOL    HW122682   0.527   3.992   1.243
 7261SOL    HW222683   0.383   3.943   1.303
 7262SOL     OW22684   5.438   1.116   6.451
 7262SOL    HW122685   5.358   1.098   6.508
 7262SOL    HW222686   5.413   1.105   6.355
 7263SOL     OW22687   0.153   6.388   0.350
 7263SOL    HW122688   0.240   6.344   0.328
 7263SOL    HW222689   0.080   6.319   0.348
 7264SOL     OW22690   5.261   1.034   1.136
 7264SOL    HW122691   5.230   0.947   1.098
 7264SOL    HW222692   5.346   1.020   1.187
 7265SOL     OW22693   6.034   5.132   5.008
 7265SOL    HW122694   5.952   5.149   4.953
 7265SOL    HW222695   6.087   5.058   4.968
 7266SOL     OW22696   6.643   0.686   3.958
 7266SOL    HW122697   6.582   0.763   3.943
 7266SOL    HW222698   6.621   0.613   3.893
 7267SOL     OW22699   6.676   6.717   5.086
 7267SOL    HW122700   6.675   6.805   5.040
 7267SOL    HW222701   6.770   6.681   5.088
 7268SOL     OW22702   0.039   5.700   4.320
 7268SOL    HW122703   6.988   5.642   4.278
 7268SOL    HW222704   0.038   5.790   4.277
 7269SOL     OW22705   1.842   5.985   5.905
 7269SOL    HW122706   1.820   6.037   5.822
 7269SOL    HW222707   1.822   6.041   5.986
 7270SOL     OW22708   0.259   1.627   4.083
 7270SOL    HW122709   0.231   1.669   3.996
 7270SOL    HW222710   0.306   1.541   4.065
 7271SOL     OW22711   1.441   5.337   4.018
 7271SOL    HW122712   1.385   5.385   3.950
 7271SOL    HW222713   1.538   5.353   3.999
 7272SOL     OW22714   6.449   5.705   1.923
 7272SOL    HW122715   6.380   5.639   1.953
 7272SOL    HW222716   6.531   5.695   1.979
 7273SOL     OW22717   5.116   3.706   0.081
 7273SOL    HW122718   5.071   3.755   0.155
 7273SOL    HW222719   5.048   3.657   0.027
 7274SOL     OW22720   0.303   4.486   6.923
 7274SOL    HW122721   0.292   4.549   6.846
 7274SOL    HW222722   0.231   4.417   6.920
 7275SOL     OW22723   0.375   6.036   2.917
 7275SOL    HW122724   0.324   6.015   3.001
 7275SOL    HW222725   0.379   6.135   2.905
 7276SOL     OW22726   5.676   0.431   3.759
 7276SOL    HW122727   5.631   0.342   3.764
 7276SOL    HW222728   5.769   0.420   3.726
 7277SOL     OW22729   4.772   0.774   5.319
 7277SOL    HW122730   4.726   0.860   5.341
 7277SOL    HW222731   4.790   0.724   5.404
 7278SOL     OW22732   3.226   3.955   1.205
 7278SOL    HW122733   3.295   3.893   1.167
 7278SOL    HW222734   3.270   4.041   1.232
 7279SOL     OW22735   4.377   5.929   7.010
 7279SOL    HW122736   4.365   5.959   0.087
 7279SOL    HW222737   4.457   5.869   7.004
 7280SOL     OW22738   6.762   0.267   3.958
 7280SOL    HW122739   6.726   0.342   4.012
 7280SOL    HW222740   6.815   0.303   3.881
 7281SOL     OW22741   3.034   2.218   6.910
 7281SOL    HW122742   3.043   2.299   6.852
 7281SOL    HW222743   3.036   2.245   7.006
 7282SOL     OW22744   6.168   5.313   2.541
 7282SOL    HW122745   6.091   5.363   2.502
 7282SOL    HW222746   6.135   5.249   2.610
 7283SOL     OW22747   2.783   1.595   3.348
 7283SOL    HW122748   2.759   1.599   3.251
 7283SOL    HW222749   2.873   1.553   3.359
 7284SOL     OW22750   0.735   3.367   5.823
 7284SOL    HW122751   0.676   3.328   5.894
 7284SOL    HW222752   0.683   3.376   5.738
 7285SOL     OW22753   5.332   3.593   2.067
 7285SOL    HW122754   5.411   3.589   2.128
 7285SOL    HW222755   5.350   3.539   1.985
 7286SOL     OW22756   2.961   1.753   0.908
 7286SOL    HW122757   2.918   1.692   0.841
 7286SOL    HW222758   3.043   1.709   0.944
 7287SOL     OW22759   6.854   2.102   6.569
 7287SOL    HW122760   6.853   2.004   6.588
 7287SOL    HW222761   6.867   2.153   6.654
 7288SOL     OW22762   3.287   1.142   6.984
 7288SOL    HW122763   3.264   1.182   0.054
 7288SOL    HW222764   3.315   1.215   6.921
 7289SOL     OW22765   6.345   1.750   3.622
 7289SOL    HW122766   6.262   1.771   3.673
 7289SOL    HW222767   6.321   1.706   3.536
 7290SOL     OW22768   3.503   0.035   5.397
 7290SOL    HW122769   3.419   7.002   5.383
 7290SOL    HW222770   3.579   7.007   5.352
 7291SOL     OW22771   1.724   6.586   1.000
 7291SOL    HW122772   1.629   6.570   0.971
 7291SOL    HW222773   1.778   6.612   0.920
 7292SOL     OW22774   2.589   1.023   4.089
 7292SOL    HW122775   2.622   0.939   4.133
 7292SOL    HW222776   2.587   1.010   3.990
 7293SOL     OW22777   1.748   1.916   5.562
 7293SOL    HW122778   1.684   1.955   5.628
 7293SOL    HW222779   1.740   1.817   5.561
 7294SOL     OW22780   2.306   5.091   0.465
 7294SOL    HW122781   2.212   5.063   0.444
 7294SOL    HW222782   2.344   5.141   0.387
 7295SOL     OW22783   0.997   2.335   0.800
 7295SOL    HW122784   1.070   2.403   0.809
 7295SOL    HW222785   1.037   2.243   0.800
 7296SOL     OW22786   2.781   5.446   1.360
 7296SOL    HW122787   2.844   5.496   1.300
 7296SOL    HW222788   2.823   5.361   1.390
 7297SOL     OW22789   3.664   5.698   1.144
 7297SOL    HW122790   3.678   5.606   1.108
 7297SOL    HW222791   3.663   5.695   1.244
 7298SOL     OW22792   4.573   4.544   5.558
 7298SOL    HW122793   4.649   4.498   5.513
 7298SOL    HW222794   4.608   4.621   5.611
 7299SOL     OW22795   0.263   1.616   0.466
 7299SOL    HW122796   0.196   1.562   0.516
 7299SOL    HW222797   0.340   1.637   0.527
 7300SOL     OW22798   6.197   5.787   2.537
 7300SOL    HW122799   6.197   5.806   2.439
 7300SOL    HW222800   6.250   5.858   2.584
 7301SOL     OW22801   6.688   0.897   4.602
 7301SOL    HW122802   6.772   0.940   4.634
 7301SOL    HW222803   6.618   0.967   4.586
 7302SOL     OW22804   0.774   1.455   5.977
 7302SOL    HW122805   0.858   1.409   6.007
 7302SOL    HW222806   0.736   1.508   6.053
 7303SOL     OW22807   4.485   0.339   6.243
 7303SOL    HW122808   4.515   0.308   6.153
 7303SOL    HW222809   4.504   0.436   6.253
 7304SOL     OW22810   3.808   4.523   0.518
 7304SOL    HW122811   3.722   4.488   0.479
 7304SOL    HW222812   3.884   4.490   0.462
 7305SOL     OW22813   4.645   1.399   0.677
 7305SOL    HW122814   4.697   1.455   0.612
 7305SOL    HW222815   4.590   1.332   0.626
 7306SOL     OW22816   5.165   2.602   1.486
 7306SOL    HW122817   5.220   2.533   1.440
 7306SOL    HW222818   5.216   2.688   1.492
 7307SOL     OW22819   2.879   0.376   2.303
 7307SOL    HW122820   2.808   0.407   2.367
 7307SOL    HW222821   2.840   0.370   2.211
 7308SOL     OW22822   0.070   4.118   5.314
 7308SOL    HW122823   0.169   4.130   5.313
 7308SOL    HW222824   0.047   4.025   5.283
 7309SOL     OW22825   5.302   5.899   0.421
 7309SOL    HW122826   5.298   5.832   0.495
 7309SOL    HW222827   5.383   5.882   0.365
 7310SOL     OW22828   2.095   3.986   1.546
 7310SOL    HW122829   2.169   3.940   1.497
 7310SOL    HW222830   2.084   3.944   1.636
 7311SOL     OW22831   3.593   1.980   2.101
 7311SOL    HW122832   3.623   2.071   2.073
 7311SOL    HW222833   3.629   1.913   2.036
 7312SOL     OW22834   0.146   3.504   6.224
 7312SOL    HW122835   0.198   3.590   6.227
 7312SOL    HW222836   0.157   3.462   6.134
 7313SOL     OW22837   3.818   1.864   6.355
 7313SOL    HW122838   3.772   1.952   6.341
 7313SOL    HW222839   3.916   1.875   6.341
 7314SOL     OW22840   6.485   3.552   5.134
 7314SOL    HW122841   6.525   3.590   5.051
 7314SOL    HW222842   6.541   3.476   5.166
 7315SOL     OW22843   6.751   0.506   2.729
 7315SOL    HW122844   6.793   0.571   2.792
 7315SOL    HW222845   6.822   0.462   2.675
 7316SOL     OW22846   2.856   3.828   6.007
 7316SOL    HW122847   2.949   3.853   5.979
 7316SOL    HW222848   2.859   3.761   6.081
 7317SOL     OW22849   4.646   0.994   2.544
 7317SOL    HW122850   4.631   1.084   2.586
 7317SOL    HW222851   4.675   1.007   2.449
 7318SOL     OW22852   1.074   1.552   0.954
 7318SOL    HW122853   1.091   1.590   1.045
 7318SOL    HW222854   1.151   1.495   0.926
 7319SOL     OW22855   6.119   3.958   6.162
 7319SOL    HW122856   6.179   3.985   6.087
 7319SOL    HW222857   6.041   3.907   6.126
 7320SOL     OW22858   6.309   3.479   1.832
 7320SOL    HW122859   6.390   3.535   1.849
 7320SOL    HW222860   6.248   3.528   1.770
 7321SOL     OW22861   3.014   6.080   5.248
 7321SOL    HW122862   3.068   6.142   5.305
 7321SOL    HW222863   2.917   6.105   5.255
 7322SOL     OW22864   0.126   2.510   3.009
 7322SOL    HW122865   0.063   2.462   2.947
 7322SOL    HW222866   0.220   2.485   2.986
 7323SOL     OW22867   1.955   1.949   1.651
 7323SOL    HW122868   1.864   1.985   1.669
 7323SOL    HW222869   1.974   1.873   1.714
 7324SOL     OW22870   4.844   6.064   2.495
 7324SOL    HW122871   4.761   6.118   2.511
 7324SOL    HW222872   4.901   6.110   2.427
 7325SOL     OW22873   3.665   6.508   0.003
 7325SOL    HW122874   3.648   6.416   0.038
 7325SOL    HW222875   3.754   6.511   6.976
 7326SOL     OW22876   3.007   6.460   5.244
 7326SOL    HW122877   3.041   6.552   5.268
 7326SOL    HW222878   3.045   6.393   5.308
 7327SOL     OW22879   6.611   2.679   5.233
 7327SOL    HW122880   6.642   2.585   5.224
 7327SOL    HW222881   6.583   2.714   5.144
 7328SOL     OW22882   3.447   1.104   5.788
 7328SOL    HW122883   3.539   1.139   5.772
 7328SOL    HW222884   3.380   1.161   5.740
 7329SOL     OW22885   4.719   3.994   1.671
 7329SOL    HW122886   4.621   4.000   1.690
 7329SOL    HW222887   4.766   3.959   1.752
 7330SOL     OW22888   3.044   2.239   0.181
 7330SOL    HW122889   3.133   2.203   0.210
 7330SOL    HW222890   2.973   2.171   0.200
 7331SOL     OW22891   5.766   0.008   2.001
 7331SOL    HW122892   5.809   0.036   1.916
 7331SOL    HW222893   5.835   6.988   2.063
 7332SOL     OW22894   1.864   5.907   0.676
 7332SOL    HW122895   1.782   5.850   0.677
 7332SOL    HW222896   1.886   5.932   0.582
 7333SOL     OW22897   0.004   3.575   3.787
 7333SOL    HW122898   6.999   3.567   3.690
 7333SOL    HW222899   0.098   3.543   3.802
 7334SOL     OW22900   3.706   6.321   6.642
 7334SOL    HW122901   3.621   6.335   6.692
 7334SOL    HW222902   3.721   6.223   6.628
 7335SOL     OW22903   1.970   2.675   2.726
 7335SOL    HW122904   2.039   2.721   2.671
 7335SOL    HW222905   1.916   2.743   2.775
 7336SOL     OW22906   1.710   6.673   3.060
 7336SOL    HW122907   1.691   6.649   3.155
 7336SOL    HW222908   1.801   6.641   3.035
 7337SOL     OW22909   0.698   2.996   1.902
 7337SOL    HW122910   0.747   3.018   1.817
 7337SOL    HW222911   0.611   3.047   1.904
 7338SOL     OW22912   6.362   3.030   1.021
 7338SOL    HW122913   6.337   2.937   1.049
 7338SOL    HW222914   6.452   3.029   0.978
 7339SOL     OW22915   5.071   6.452   3.683
 7339SOL    HW122916   5.105   6.362   3.711
 7339SOL    HW222917   5.112   6.523   3.740
 7340SOL     OW22918   1.649   0.934   0.898
 7340SOL    HW122919   1.675   1.006   0.833
 7340SOL    HW222920   1.583   0.970   0.964
 7341SOL     OW22921   6.753   2.662   6.991
 7341SOL    HW122922   6.815   2.611   0.032
 7341SOL    HW222923   6.748   2.757   0.004
 7342SOL     OW22924   6.507   1.620   1.564
 7342SOL    HW122925   6.504   1.558   1.643
 7342SOL    HW222926   6.421   1.614   1.515
 7343SOL     OW22927   4.584   3.164   0.120
 7343SOL    HW122928   4.618   3.243   0.069
 7343SOL    HW222929   4.530   3.106   0.059
 7344SOL     OW22930   0.677   6.812   6.258
 7344SOL    HW122931   0.681   6.712   6.258
 7344SOL    HW222932   0.618   6.842   6.334
 7345SOL     OW22933   4.156   3.478   5.121
 7345SOL    HW122934   4.152   3.395   5.066
 7345SOL    HW222935   4.090   3.470   5.196
 7346SOL     OW22936   3.664   5.594   2.658
 7346SOL    HW122937   3.737   5.544   2.612
 7346SOL    HW222938   3.694   5.621   2.750
 7347SOL     OW22939   0.428   1.736   0.653
 7347SOL    HW122940   0.409   1.833   0.669
 7347SOL    HW222941   0.486   1.700   0.726
 7348SOL     OW22942   1.539   3.679   3.898
 7348SOL    HW122943   1.443   3.661   3.876
 7348SOL    HW222944   1.554   3.777   3.905
 7349SOL     OW22945   4.482   0.333   2.433
 7349SOL    HW122946   4.420   0.356   2.508
 7349SOL    HW222947   4.574   0.363   2.457
 7350SOL     OW22948   2.683   2.095   5.726
 7350SOL    HW122949   2.745   2.113   5.650
 7350SOL    HW222950   2.677   2.177   5.784
 7351SOL     OW22951   5.661   5.948   3.386
 7351SOL    HW122952   5.728   5.874   3.378
 7351SOL    HW222953   5.579   5.914   3.431
 7352SOL     OW22954   0.393   1.526   2.825
 7352SOL    HW122955   0.420   1.621   2.835
 7352SOL    HW222956   0.364   1.509   2.731
 7353SOL     OW22957   0.331   0.226   6.675
 7353SOL    HW122958   0.377   0.306   6.714
 7353SOL    HW222959   0.367   0.209   6.583
 7354SOL     OW22960   1.916   1.228   5.180
 7354SOL    HW122961   1.999   1.282   5.191
 7354SOL    HW222962   1.899   1.175   5.263
 7355SOL     OW22963   0.527   1.638   6.923
 7355SOL    HW122964   0.516   1.616   0.002
 7355SOL    HW222965   0.438   1.633   6.878
 7356SOL     OW22966   3.661   3.488   6.154
 7356SOL    HW122967   3.713   3.519   6.233
 7356SOL    HW222968   3.707   3.515   6.070
 7357SOL     OW22969   2.800   5.784   2.486
 7357SOL    HW122970   2.897   5.806   2.484
 7357SOL    HW222971   2.778   5.721   2.412
 7358SOL     OW22972   6.830   3.735   2.777
 7358SOL    HW122973   6.737   3.702   2.762
 7358SOL    HW222974   6.841   3.765   2.872
 7359SOL     OW22975   4.397   2.168   5.918
 7359SOL    HW122976   4.350   2.245   5.961
 7359SOL    HW222977   4.332   2.093   5.905
 7360SOL     OW22978   2.754   3.301   5.485
 7360SOL    HW122979   2.665   3.296   5.530
 7360SOL    HW222980   2.752   3.245   5.402
 7361SOL     OW22981   5.410   0.958   2.672
 7361SOL    HW122982   5.451   0.867   2.670
 7361SOL    HW222983   5.462   1.020   2.614
 7362SOL     OW22984   2.847   5.810   6.333
 7362SOL    HW122985   2.784   5.815   6.410
 7362SOL    HW222986   2.832   5.724   6.283
 7363SOL     OW22987   4.617   0.864   1.420
 7363SOL    HW122988   4.630   0.901   1.512
 7363SOL    HW222989   4.634   0.935   1.352
 7364SOL     OW22990   4.317   0.317   2.227
 7364SOL    HW122991   4.375   0.328   2.308
 7364SOL    HW222992   4.372   0.331   2.145
 7365SOL     OW22993   0.608   5.990   2.134
 7365SOL    HW122994   0.630   5.896   2.107
 7365SOL    HW222995   0.620   6.000   2.232
 7366SOL     OW22996   2.411   6.250   5.589
 7366SOL    HW122997   2.456   6.163   5.612
 7366SOL    HW222998   2.321   6.232   5.550
 7367SOL     OW22999   3.698   2.635   0.398
 7367SOL    HW123000   3.755   2.663   0.321
 7367SOL    HW223001   3.705   2.536   0.410
 7368SOL     OW23002   3.830   2.991   2.559
 7368SOL    HW123003   3.834   3.090   2.573
 7368SOL    HW223004   3.759   2.953   2.618
 7369SOL     OW23005   3.609   3.052   1.241
 7369SOL    HW123006   3.628   3.135   1.294
 7369SOL    HW223007   3.528   3.066   1.184
 7370SOL     OW23008   2.715   2.269   6.033
 7370SOL    HW123009   2.643   2.330   6.067
 7370SOL    HW223010   2.767   2.316   5.961
 7371SOL     OW23011   3.297   6.616   3.682
 7371SOL    HW123012   3.276   6.675   3.760
 7371SOL    HW223013   3.396   6.596   3.682
 7372SOL     OW23014   4.315   6.931   4.956
 7372SOL    HW123015   4.302   6.898   5.050
 7372SOL    HW223016   4.236   6.986   4.929
 7373SOL     OW23017   5.738   2.073   4.835
 7373SOL    HW123018   5.649   2.028   4.823
 7373SOL    HW223019   5.806   2.005   4.863
 7374SOL     OW23020   1.819   1.820   4.601
 7374SOL    HW123021   1.786   1.887   4.667
 7374SOL    HW223022   1.787   1.729   4.626
 7375SOL     OW23023   2.096   2.619   1.980
 7375SOL    HW123024   2.112   2.540   1.922
 7375SOL    HW223025   2.180   2.641   2.030
 7376SOL     OW23026   1.180   2.986   1.415
 7376SOL    HW123027   1.155   2.930   1.494
 7376SOL    HW223028   1.225   3.070   1.447
 7377SOL     OW23029   4.018   4.923   0.937
 7377SOL    HW123030   3.944   4.903   0.872
 7377SOL    HW223031   4.073   4.841   0.951
 7378SOL     OW23032   1.342   6.882   4.986
 7378SOL    HW123033   1.401   6.946   4.937
 7378SOL    HW223034   1.397   6.805   5.019
 7379SOL     OW23035   2.966   0.854   2.064
 7379SOL    HW123036   2.939   0.894   1.976
 7379SOL    HW223037   3.012   0.923   2.120
 7380SOL     OW23038   6.479   4.319   3.535
 7380SOL    HW123039   6.418   4.294   3.460
 7380SOL    HW223040   6.475   4.249   3.607
 7381SOL     OW23041   3.826   3.019   0.671
 7381SOL    HW123042   3.836   3.055   0.763
 7381SOL    HW223043   3.897   3.057   0.612
 7382SOL     OW23044   6.802   2.300   5.755
 7382SOL    HW123045   6.747   2.311   5.838
 7382SOL    HW223046   6.824   2.204   5.742
 7383SOL     OW23047   2.343   5.549   1.957
 7383SOL    HW123048   2.435   5.533   1.994
 7383SOL    HW223049   2.295   5.462   1.951
 7384SOL     OW23050   6.754   0.085   1.614
 7384SOL    HW123051   6.657   0.089   1.592
 7384SOL    HW223052   6.807   0.077   1.529
 7385SOL     OW23053   2.847   4.955   2.758
 7385SOL    HW123054   2.749   4.964   2.742
 7385SOL    HW223055   2.879   5.029   2.817
 7386SOL     OW23056   6.325   2.741   6.770
 7386SOL    HW123057   6.382   2.746   6.852
 7386SOL    HW223058   6.286   2.649   6.762
 7387SOL     OW23059   7.001   5.329   5.655
 7387SOL    HW123060   6.939   5.366   5.587
 7387SOL    HW223061   6.986   5.376   5.743
 7388SOL     OW23062   1.482   4.920   2.025
 7388SOL    HW123063   1.399   4.887   2.070
 7388SOL    HW223064   1.540   4.842   2.000
 7389SOL     OW23065   6.756   3.528   0.624
 7389SOL    HW123066   6.824   3.565   0.561
 7389SOL    HW223067   6.793   3.448   0.670
 7390SOL     OW23068   2.861   1.689   2.121
 7390SOL    HW123069   2.897   1.632   2.195
 7390SOL    HW223070   2.855   1.783   2.152
 7391SOL     OW23071   4.129   3.528   2.507
 7391SOL    HW123072   4.212   3.581   2.526
 7391SOL    HW223073   4.090   3.495   2.594
 7392SOL     OW23074   3.369   5.867   6.862
 7392SOL    HW123075   3.405   5.934   6.797
 7392SOL    HW223076   3.291   5.905   6.910
 7393SOL     OW23077   6.101   4.466   3.267
 7393SOL    HW123078   6.189   4.431   3.235
 7393SOL    HW223079   6.115   4.527   3.345
 7394SOL     OW23080   1.763   2.973   6.087
 7394SOL    HW123081   1.800   3.061   6.058
 7394SOL    HW223082   1.831   2.901   6.074
 7395SOL     OW23083   2.141   3.096   1.432
 7395SOL    HW123084   2.157   3.058   1.523
 7395SOL    HW223085   2.048   3.132   1.427
 7396SOL     OW23086   2.326   6.510   1.546
 7396SOL    HW123087   2.244   6.459   1.569
 7396SOL    HW223088   2.319   6.603   1.581
 7397SOL     OW23089   4.958   3.423   4.618
 7397SOL    HW123090   4.894   3.361   4.573
 7397SOL    HW223091   4.956   3.409   4.717
 7398SOL     OW23092   1.018   5.312   3.343
 7398SOL    HW123093   1.034   5.238   3.408
 7398SOL    HW223094   1.058   5.287   3.254
 7399SOL     OW23095   6.542   3.287   4.947
 7399SOL    HW123096   6.491   3.286   4.861
 7399SOL    HW223097   6.478   3.288   5.024
 7400SOL     OW23098   5.253   2.364   5.529
 7400SOL    HW123099   5.165   2.317   5.518
 7400SOL    HW223100   5.327   2.297   5.524
 7401SOL     OW23101   1.935   2.581   3.618
 7401SOL    HW123102   1.851   2.544   3.659
 7401SOL    HW223103   2.011   2.569   3.683
 7402SOL     OW23104   3.026   4.314   6.023
 7402SOL    HW123105   3.032   4.328   5.925
 7402SOL    HW223106   3.019   4.402   6.070
 7403SOL     OW23107   1.642   2.919   2.793
 7403SOL    HW123108   1.677   3.011   2.775
 7403SOL    HW223109   1.646   2.900   2.891
 7404SOL     OW23110   3.009   3.704   1.498
 7404SOL    HW123111   2.992   3.785   1.555
 7404SOL    HW223112   3.095   3.662   1.526
 7405SOL     OW23113   2.884   5.154   5.049
 7405SOL    HW123114   2.850   5.155   4.955
 7405SOL    HW223115   2.868   5.244   5.091
 7406SOL     OW23116   0.878   1.568   5.186
 7406SOL    HW123117   0.977   1.575   5.178
 7406SOL    HW223118   0.855   1.480   5.227
 7407SOL     OW23119   1.284   6.420   6.515
 7407SOL    HW123120   1.242   6.330   6.527
 7407SOL    HW223121   1.298   6.437   6.417
 7408SOL     OW23122   3.303   3.976   5.361
 7408SOL    HW123123   3.203   3.974   5.359
 7408SOL    HW223124   3.337   4.024   5.280
 7409SOL     OW23125   5.261   4.387   0.109
 7409SOL    HW123126   5.168   4.412   0.137
 7409SOL    HW223127   5.257   4.332   0.026
 7410SOL     OW23128   0.609   0.285   0.494
 7410SOL    HW123129   0.559   0.284   0.581
 7410SOL    HW223130   0.592   0.199   0.445
 7411SOL     OW23131   1.817   0.838   6.539
 7411SOL    HW123132   1.888   0.768   6.549
 7411SOL    HW223133   1.859   0.928   6.532
 7412SOL     OW23134   3.880   6.344   0.821
 7412SOL    HW123135   3.839   6.424   0.778
 7412SOL    HW223136   3.842   6.261   0.779
 7413SOL     OW23137   4.611   4.291   3.382
 7413SOL    HW123138   4.705   4.270   3.357
 7413SOL    HW223139   4.572   4.355   3.315
 7414SOL     OW23140   1.813   1.639   4.402
 7414SOL    HW123141   1.822   1.731   4.440
 7414SOL    HW223142   1.725   1.600   4.428
 7415SOL     OW23143   3.187   5.788   5.906
 7415SOL    HW123144   3.146   5.872   5.942
 7415SOL    HW223145   3.266   5.810   5.849
 7416SOL     OW23146   1.985   1.339   2.619
 7416SOL    HW123147   1.892   1.301   2.612
 7416SOL    HW223148   1.984   1.421   2.676
 7417SOL     OW23149   1.768   2.059   2.359
 7417SOL    HW123150   1.733   1.982   2.306
 7417SOL    HW223151   1.867   2.066   2.345
 7418SOL     OW23152   2.007   4.555   6.890
 7418SOL    HW123153   2.105   4.572   6.900
 7418SOL    HW223154   1.959   4.590   6.971
 7419SOL     OW23155   6.260   3.824   3.975
 7419SOL    HW123156   6.269   3.904   4.035
 7419SOL    HW223157   6.255   3.741   4.030
 7420SOL     OW23158   6.984   5.647   1.336
 7420SOL    HW123159   6.890   5.612   1.327
 7420SOL    HW223160   6.982   5.740   1.371
 7421SOL     OW23161   4.063   3.794   1.395
 7421SOL    HW123162   4.084   3.879   1.348
 7421SOL    HW223163   4.039   3.813   1.490
 7422SOL     OW23164   6.268   4.246   2.143
 7422SOL    HW123165   6.200   4.173   2.148
 7422SOL    HW223166   6.235   4.319   2.083
 7423SOL     OW23167   5.590   2.863   5.123
 7423SOL    HW123168   5.514   2.914   5.082
 7423SOL    HW223169   5.613   2.903   5.211
 7424SOL     OW23170   6.886   1.802   5.434
 7424SOL    HW123171   6.867   1.889   5.479
 7424SOL    HW223172   6.888   1.815   5.335
 7425SOL     OW23173   5.465   0.233   0.346
 7425SOL    HW123174   5.458   0.143   0.388
 7425SOL    HW223175   5.451   0.303   0.416
 7426SOL     OW23176   3.394   2.152   5.635
 7426SOL    HW123177   3.346   2.204   5.706
 7426SOL    HW223178   3.387   2.200   5.548
 7427SOL     OW23179   3.358   1.140   3.904
 7427SOL    HW123180   3.420   1.210   3.941
 7427SOL    HW223181   3.354   1.063   3.967
 7428SOL     OW23182   4.491   0.474   5.271
 7428SOL    HW123183   4.534   0.556   5.233
 7428SOL    HW223184   4.392   0.487   5.276
 7429SOL     OW23185   0.995   6.369   2.983
 7429SOL    HW123186   1.000   6.428   3.064
 7429SOL    HW223187   1.047   6.286   3.000
 7430SOL     OW23188   6.802   4.078   1.874
 7430SOL    HW123189   6.729   4.104   1.811
 7430SOL    HW223190   6.890   4.115   1.842
 7431SOL     OW23191   1.782   2.336   3.739
 7431SOL    HW123192   1.733   2.271   3.798
 7431SOL    HW223193   1.756   2.320   3.644
 7432SOL     OW23194   1.731   0.328   3.374
 7432SOL    HW123195   1.702   0.241   3.414
 7432SOL    HW223196   1.827   0.322   3.346
 7433SOL     OW23197   3.432   6.359   6.711
 7433SOL    HW123198   3.445   6.432   6.778
 7433SOL    HW223199   3.403   6.276   6.759
 7434SOL     OW23200   4.933   6.273   5.832
 7434SOL    HW123201   5.031   6.252   5.832
 7434SOL    HW223202   4.900   6.279   5.926
 7435SOL     OW23203   4.522   6.068   1.832
 7435SOL    HW123204   4.580   5.989   1.855
 7435SOL    HW223205   4.426   6.038   1.829
 7436SOL     OW23206   4.628   4.536   6.270
 7436SOL    HW123207   4.671   4.620   6.305
 7436SOL    HW223208   4.531   4.554   6.250
 7437SOL     OW23209   3.131   6.254   1.656
 7437SOL    HW123210   3.062   6.263   1.584
 7437SOL    HW223211   3.123   6.332   1.719
 7438SOL     OW23212   1.712   0.486   0.417
 7438SOL    HW123213   1.617   0.462   0.400
 7438SOL    HW223214   1.754   0.518   0.332
 7439SOL     OW23215   1.498   5.451   5.297
 7439SOL    HW123216   1.593   5.481   5.289
 7439SOL    HW223217   1.482   5.417   5.390
 7440SOL     OW23218   6.041   3.429   3.951
 7440SOL    HW123219   6.055   3.445   3.853
 7440SOL    HW223220   6.106   3.484   4.003
 7441SOL     OW23221   6.046   6.621   3.722
 7441SOL    HW123222   6.069   6.641   3.817
 7441SOL    HW223223   5.959   6.572   3.719
 7442SOL     OW23224   5.840   1.186   6.450
 7442SOL    HW123225   5.870   1.190   6.354
 7442SOL    HW223226   5.914   1.217   6.509
 7443SOL     OW23227   0.061   5.442   1.703
 7443SOL    HW123228   0.014   5.496   1.773
 7443SOL    HW223229   0.032   5.346   1.711
 7444SOL     OW23230   6.590   1.345   6.155
 7444SOL    HW123231   6.523   1.364   6.226
 7444SOL    HW223232   6.637   1.430   6.129
 7445SOL     OW23233   3.756   0.002   1.288
 7445SOL    HW123234   3.802   6.998   1.202
 7445SOL    HW223235   3.797   0.084   1.328
 7446SOL     OW23236   4.947   2.577   0.505
 7446SOL    HW123237   4.962   2.523   0.423
 7446SOL    HW223238   4.859   2.551   0.546
 7447SOL     OW23239   6.891   4.331   6.393
 7447SOL    HW123240   6.828   4.400   6.430
 7447SOL    HW223241   6.880   4.246   6.444
 7448SOL     OW23242   5.270   6.347   5.488
 7448SOL    HW123243   5.335   6.383   5.421
 7448SOL    HW223244   5.178   6.378   5.465
 7449SOL     OW23245   0.341   5.404   0.426
 7449SOL    HW123246   0.438   5.386   0.441
 7449SOL    HW223247   0.329   5.457   0.343
 7450SOL     OW23248   5.141   2.630   5.489
 7450SOL    HW123249   5.136   2.713   5.543
 7450SOL    HW223250   5.184   2.557   5.542
 7451SOL     OW23251   5.343   5.287   2.726
 7451SOL    HW123252   5.402   5.347   2.779
 7451SOL    HW223253   5.359   5.302   2.628
 7452SOL     OW23254   6.552   6.142   4.136
 7452SOL    HW123255   6.533   6.215   4.070
 7452SOL    HW223256   6.504   6.059   4.109
 7453SOL     OW23257   5.077   5.357   6.465
 7453SOL    HW123258   4.980   5.362   6.490
 7453SOL    HW223259   5.085   5.331   6.369
 7454SOL     OW23260   3.130   1.664   0.439
 7454SOL    HW123261   3.200   1.715   0.390
 7454SOL    HW223262   3.040   1.703   0.418
 7455SOL     OW23263   6.319   3.021   2.443
 7455SOL    HW123264   6.312   2.979   2.352
 7455SOL    HW223265   6.405   2.993   2.486
 7456SOL     OW23266   2.539   1.870   5.171
 7456SOL    HW123267   2.552   1.959   5.215
 7456SOL    HW223268   2.621   1.846   5.119
 7457SOL     OW23269   2.786   0.137   4.187
 7457SOL    HW123270   2.755   0.227   4.218
 7457SOL    HW223271   2.872   0.146   4.136
 7458SOL     OW23272   1.131   0.434   5.548
 7458SOL    HW123273   1.146   0.369   5.473
 7458SOL    HW223274   1.169   0.398   5.633
 7459SOL     OW23275   6.247   1.166   2.203
 7459SOL    HW123276   6.155   1.195   2.179
 7459SOL    HW223277   6.313   1.217   2.148
 7460SOL     OW23278   1.535   6.713   0.148
 7460SOL    HW123279   1.532   6.727   0.049
 7460SOL    HW223280   1.492   6.626   0.171
 7461SOL     OW23281   6.179   6.226   5.186
 7461SOL    HW123282   6.114   6.208   5.113
 7461SOL    HW223283   6.130   6.249   5.270
 7462SOL     OW23284   1.467   5.361   1.214
 7462SOL    HW123285   1.461   5.293   1.141
 7462SOL    HW223286   1.563   5.371   1.242
 7463SOL     OW23287   3.265   4.322   0.647
 7463SOL    HW123288   3.198   4.333   0.721
 7463SOL    HW223289   3.317   4.407   0.636
 7464SOL     OW23290   6.652   6.280   4.787
 7464SOL    HW123291   6.562   6.293   4.829
 7464SOL    HW223292   6.718   6.340   4.832
 7465SOL     OW23293   2.752   5.606   0.418
 7465SOL    HW123294   2.796   5.520   0.390
 7465SOL    HW223295   2.659   5.609   0.382
 7466SOL     OW23296   0.796   0.713   6.192
 7466SOL    HW123297   0.780   0.647   6.266
 7466SOL    HW223298   0.835   0.797   6.230
 7467SOL     OW23299   0.614   2.368   6.257
 7467SOL    HW123300   0.531   2.314   6.258
 7467SOL    HW223301   0.608   2.439   6.327
 7468SOL     OW23302   5.077   2.581   3.907
 7468SOL    HW123303   5.060   2.652   3.976
 7468SOL    HW223304   5.167   2.540   3.924
 7469SOL     OW23305   6.418   1.969   0.148
 7469SOL    HW123306   6.461   1.976   0.058
 7469SOL    HW223307   6.352   2.044   0.159
 7470SOL     OW23308   5.480   4.178   3.997
 7470SOL    HW123309   5.560   4.221   4.040
 7470SOL    HW223310   5.421   4.141   4.069
 7471SOL     OW23311   5.118   6.230   6.151
 7471SOL    HW123312   5.092   6.151   6.095
 7471SOL    HW223313   5.198   6.207   6.206
 7472SOL     OW23314   6.175   1.199   5.213
 7472SOL    HW123315   6.262   1.243   5.236
 7472SOL    HW223316   6.192   1.124   5.149
 7473SOL     OW23317   5.160   6.870   3.900
 7473SOL    HW123318   5.259   6.860   3.893
 7473SOL    HW223319   5.131   6.953   3.853
 7474SOL     OW23320   6.268   2.461   6.718
 7474SOL    HW123321   6.172   2.434   6.723
 7474SOL    HW223322   6.324   2.393   6.765
 7475SOL     OW23323   4.323   2.250   2.117
 7475SOL    HW123324   4.242   2.203   2.081
 7475SOL    HW223325   4.317   2.254   2.217
 7476SOL     OW23326   2.170   1.983   2.980
 7476SOL    HW123327   2.217   2.071   2.969
 7476SOL    HW223328   2.236   1.914   3.010
 7477SOL     OW23329   0.410   3.366   4.941
 7477SOL    HW123330   0.372   3.274   4.943
 7477SOL    HW223331   0.509   3.361   4.925
 7478SOL     OW23332   5.443   3.349   5.036
 7478SOL    HW123333   5.477   3.346   5.129
 7478SOL    HW223334   5.362   3.291   5.028
 7479SOL     OW23335   5.390   3.017   0.321
 7479SOL    HW123336   5.310   3.075   0.303
 7479SOL    HW223337   5.434   2.992   0.235
 7480SOL     OW23338   2.029   5.265   2.599
 7480SOL    HW123339   2.026   5.245   2.501
 7480SOL    HW223340   2.006   5.361   2.614
 7481SOL     OW23341   6.553   4.686   6.685
 7481SOL    HW123342   6.553   4.723   6.778
 7481SOL    HW223343   6.497   4.744   6.626
 7482SOL     OW23344   4.479   2.292   2.699
 7482SOL    HW123345   4.491   2.391   2.695
 7482SOL    HW223346   4.507   2.252   2.611
 7483SOL     OW23347   4.589   2.676   4.912
 7483SOL    HW123348   4.545   2.586   4.917
 7483SOL    HW223349   4.570   2.727   4.996
 7484SOL     OW23350   1.741   5.285   4.541
 7484SOL    HW123351   1.705   5.350   4.474
 7484SOL    HW223352   1.818   5.235   4.501
 7485SOL     OW23353   2.947   6.764   3.604
 7485SOL    HW123354   3.021   6.733   3.544
 7485SOL    HW223355   2.987   6.804   3.687
 7486SOL     OW23356   0.651   6.178   0.102
 7486SOL    HW123357   0.598   6.256   0.068
 7486SOL    HW223358   0.723   6.211   0.163
 7487SOL     OW23359   4.403   0.955   3.047
 7487SOL    HW123360   4.381   1.025   2.979
 7487SOL    HW223361   4.444   0.876   3.002
 7488SOL     OW23362   1.262   6.247   4.483
 7488SOL    HW123363   1.253   6.333   4.534
 7488SOL    HW223364   1.358   6.228   4.467
 7489SOL     OW23365   6.485   3.650   6.908
 7489SOL    HW123366   6.494   3.674   6.811
 7489SOL    HW223367   6.508   3.553   6.921
 7490SOL     OW23368   1.418   1.702   1.880
 7490SOL    HW123369   1.374   1.613   1.882
 7490SOL    HW223370   1.387   1.753   1.800
 7491SOL     OW23371   4.660   2.483   0.576
 7491SOL    HW123372   4.605   2.487   0.492
 7491SOL    HW223373   4.659   2.390   0.611
 7492SOL     OW23374   1.782   1.183   4.250
 7492SOL    HW123375   1.819   1.224   4.168
 7492SOL    HW223376   1.853   1.129   4.296
 7493SOL     OW23377   6.666   3.398   5.292
 7493SOL    HW123378   6.598   3.362   5.356
 7493SOL    HW223379   6.723   3.323   5.259
 7494SOL     OW23380   5.534   0.991   3.991
 7494SOL    HW123381   5.628   0.968   4.018
 7494SOL    HW223382   5.476   0.911   4.000
 7495SOL     OW23383   2.306   2.925   4.514
 7495SOL    HW123384   2.394   2.877   4.514
 7495SOL    HW223385   2.284   2.954   4.607
 7496SOL     OW23386   5.751   3.336   3.840
 7496SOL    HW123387   5.820   3.324   3.911
 7496SOL    HW223388   5.769   3.421   3.790
 7497SOL     OW23389   1.615   6.321   1.311
 7497SOL    HW123390   1.686   6.382   1.274
 7497SOL    HW223391   1.633   6.227   1.281
 7498SOL     OW23392   2.504   0.569   3.913
 7498SOL    HW123393   2.536   0.551   3.820
 7498SOL    HW223394   2.491   0.482   3.961
 7499SOL     OW23395   4.323   1.795   3.556
 7499SOL    HW123396   4.249   1.750   3.605
 7499SOL    HW223397   4.316   1.894   3.569
 7500SOL     OW23398   3.547   5.978   3.943
 7500SOL    HW123399   3.628   5.936   3.902
 7500SOL    HW223400   3.481   5.999   3.872
 7501SOL     OW23401   5.609   3.163   4.143
 7501SOL    HW123402   5.583   3.123   4.055
 7501SOL    HW223403   5.532   3.161   4.206
 7502SOL     OW23404   3.715   6.960   4.171
 7502SOL    HW123405   3.776   0.018   4.193
 7502SOL    HW223406   3.653   6.987   4.097
 7503SOL     OW23407   1.784   6.169   0.607
 7503SOL    HW123408   1.854   6.239   0.593
 7503SOL    HW223409   1.828   6.083   0.635
 7504SOL     OW23410   0.733   6.326   2.206
 7504SOL    HW123411   0.707   6.388   2.279
 7504SOL    HW223412   0.674   6.340   2.126
 7505SOL     OW23413   0.412   1.585   5.656
 7505SOL    HW123414   0.502   1.574   5.615
 7505SOL    HW223415   0.354   1.507   5.632
 7506SOL     OW23416   3.629   2.132   3.464
 7506SOL    HW123417   3.552   2.069   3.464
 7506SOL    HW223418   3.598   2.222   3.494
 7507SOL     OW23419   6.688   3.210   4.400
 7507SOL    HW123420   6.719   3.284   4.459
 7507SOL    HW223421   6.594   3.228   4.369
 7508SOL     OW23422   1.655   5.680   0.443
 7508SOL    HW123423   1.752   5.666   0.428
 7508SOL    HW223424   1.610   5.700   0.356
 7509SOL     OW23425   5.610   4.052   0.211
 7509SOL    HW123426   5.664   3.976   0.246
 7509SOL    HW223427   5.545   4.018   0.143
 7510SOL     OW23428   4.043   3.547   3.760
 7510SOL    HW123429   4.071   3.633   3.802
 7510SOL    HW223430   4.074   3.471   3.818
 7511SOL     OW23431   2.968   5.992   3.352
 7511SOL    HW123432   2.993   6.086   3.330
 7511SOL    HW223433   2.894   5.961   3.293
 7512SOL     OW23434   2.964   0.867   6.500
 7512SOL    HW123435   3.043   0.840   6.445
 7512SOL    HW223436   2.881   0.831   6.458
 7513SOL     OW23437   2.104   2.150   3.304
 7513SOL    HW123438   2.031   2.215   3.281
 7513SOL    HW223439   2.192   2.185   3.271
 7514SOL     OW23440   1.540   4.998   3.804
 7514SOL    HW123441   1.561   4.920   3.863
 7514SOL    HW223442   1.491   4.966   3.723
 7515SOL     OW23443   6.570   4.187   5.251
 7515SOL    HW123444   6.662   4.184   5.211
 7515SOL    HW223445   6.574   4.237   5.338
 7516SOL     OW23446   0.773   5.535   5.912
 7516SOL    HW123447   0.781   5.470   5.988
 7516SOL    HW223448   0.740   5.486   5.831
 7517SOL     OW23449   1.539   2.289   0.133
 7517SOL    HW123450   1.544   2.372   0.189
 7517SOL    HW223451   1.630   2.251   0.121
 7518SOL     OW23452   4.754   2.614   3.686
 7518SOL    HW123453   4.671   2.608   3.741
 7518SOL    HW223454   4.755   2.539   3.619
 7519SOL     OW23455   5.430   6.931   4.763
 7519SOL    HW123456   5.353   6.873   4.791
 7519SOL    HW223457   5.418   6.957   4.667
 7520SOL     OW23458   1.305   1.619   2.643
 7520SOL    HW123459   1.243   1.696   2.631
 7520SOL    HW223460   1.255   1.540   2.677
 7521SOL     OW23461   4.780   1.945   4.588
 7521SOL    HW123462   4.811   1.998   4.509
 7521SOL    HW223463   4.828   1.977   4.670
 7522SOL     OW23464   0.842   0.286   4.794
 7522SOL    HW123465   0.863   0.337   4.711
 7522SOL    HW223466   0.926   0.271   4.846
 7523SOL     OW23467   5.134   0.923   5.879
 7523SOL    HW123468   5.149   1.014   5.918
 7523SOL    HW223469   5.159   0.854   5.947
 7524SOL     OW23470   0.359   2.795   4.608
 7524SOL    HW123471   0.309   2.775   4.692
 7524SOL    HW223472   0.433   2.860   4.627
 7525SOL     OW23473   4.176   6.561   6.740
 7525SOL    HW123474   4.095   6.503   6.751
 7525SOL    HW223475   4.190   6.579   6.642
 7526SOL     OW23476   2.289   2.930   1.918
 7526SOL    HW123477   2.312   2.868   1.993
 7526SOL    HW223478   2.202   2.975   1.939
 7527SOL     OW23479   3.474   5.736   4.028
 7527SOL    HW123480   3.557   5.681   4.021
 7527SOL    HW223481   3.493   5.831   4.004
 7528SOL     OW23482   5.478   2.147   6.745
 7528SOL    HW123483   5.453   2.136   6.649
 7528SOL    HW223484   5.563   2.099   6.763
 7529SOL     OW23485   5.593   1.875   3.676
 7529SOL    HW123486   5.511   1.924   3.645
 7529SOL    HW223487   5.663   1.879   3.605
 7530SOL     OW23488   6.433   1.526   2.159
 7530SOL    HW123489   6.490   1.497   2.235
 7530SOL    HW223490   6.438   1.457   2.086
 7531SOL     OW23491   4.893   3.223   3.169
 7531SOL    HW123492   4.921   3.297   3.230
 7531SOL    HW223493   4.795   3.206   3.181
 7532SOL     OW23494   4.500   6.096   6.216
 7532SOL    HW123495   4.584   6.148   6.223
 7532SOL    HW223496   4.509   6.028   6.143
 7533SOL     OW23497   4.279   2.750   1.616
 7533SOL    HW123498   4.313   2.833   1.661
 7533SOL    HW223499   4.275   2.765   1.517
 7534SOL     OW23500   4.847   6.674   4.356
 7534SOL    HW123501   4.784   6.670   4.278
 7534SOL    HW223502   4.820   6.605   4.424
 7535SOL     OW23503   1.605   6.298   5.196
 7535SOL    HW123504   1.687   6.241   5.190
 7535SOL    HW223505   1.631   6.395   5.189
 7536SOL     OW23506   5.327   5.972   3.928
 7536SOL    HW123507   5.287   6.063   3.912
 7536SOL    HW223508   5.288   5.933   4.011
 7537SOL     OW23509   1.635   5.509   1.797
 7537SOL    HW123510   1.679   5.460   1.872
 7537SOL    HW223511   1.591   5.592   1.833
 7538SOL     OW23512   1.905   2.652   1.306
 7538SOL    HW123513   1.995   2.682   1.336
 7538SOL    HW223514   1.879   2.569   1.354
 7539SOL     OW23515   1.341   5.206   2.985
 7539SOL    HW123516   1.406   5.235   3.055
 7539SOL    HW223517   1.377   5.127   2.936
 7540SOL     OW23518   4.908   6.064   4.469
 7540SOL    HW123519   4.917   6.127   4.392
 7540SOL    HW223520   4.811   6.053   4.491
 7541SOL     OW23521   0.423   4.286   6.608
 7541SOL    HW123522   0.489   4.330   6.547
 7541SOL    HW223523   0.460   4.282   6.701
 7542SOL     OW23524   6.821   5.725   5.172
 7542SOL    HW123525   6.812   5.696   5.267
 7542SOL    HW223526   6.730   5.734   5.131
 7543SOL     OW23527   2.840   0.505   5.006
 7543SOL    HW123528   2.870   0.411   4.989
 7543SOL    HW223529   2.767   0.528   4.942
 7544SOL     OW23530   0.418   2.652   4.381
 7544SOL    HW123531   0.460   2.727   4.330
 7544SOL    HW223532   0.365   2.690   4.457
 7545SOL     OW23533   0.405   5.762   6.010
 7545SOL    HW123534   0.416   5.732   5.915
 7545SOL    HW223535   0.369   5.855   6.011
 7546SOL     OW23536   4.678   2.331   1.822
 7546SOL    HW123537   4.716   2.313   1.731
 7546SOL    HW223538   4.579   2.316   1.820
 7547SOL     OW23539   4.793   0.750   1.161
 7547SOL    HW123540   4.748   0.728   1.247
 7547SOL    HW223541   4.790   0.671   1.100
 7548SOL     OW23542   4.456   2.299   6.736
 7548SOL    HW123543   4.480   2.203   6.728
 7548SOL    HW223544   4.360   2.312   6.710
 7549SOL     OW23545   3.430   2.613   6.297
 7549SOL    HW123546   3.478   2.525   6.301
 7549SOL    HW223547   3.372   2.616   6.217
 7550SOL     OW23548   1.709   4.520   3.609
 7550SOL    HW123549   1.728   4.446   3.545
 7550SOL    HW223550   1.689   4.604   3.558
 7551SOL     OW23551   5.087   3.195   5.649
 7551SOL    HW123552   5.029   3.260   5.598
 7551SOL    HW223553   5.157   3.158   5.587
 7552SOL     OW23554   1.759   5.650   4.858
 7552SOL    HW123555   1.678   5.669   4.913
 7552SOL    HW223556   1.798   5.737   4.827
 7553SOL     OW23557   5.822   6.059   5.968
 7553SOL    HW123558   5.743   6.034   5.913
 7553SOL    HW223559   5.838   5.989   6.038
 7554SOL     OW23560   5.032   0.956   0.412
 7554SOL    HW123561   5.022   0.968   0.510
 7554SOL    HW223562   5.117   0.999   0.381
 7555SOL     OW23563   3.319   6.065   6.244
 7555SOL    HW123564   3.359   6.108   6.163
 7555SOL    HW223565   3.334   6.123   6.324
 7556SOL     OW23566   1.214   1.583   0.385
 7556SOL    HW123567   1.201   1.682   0.380
 7556SOL    HW223568   1.188   1.542   0.298
 7557SOL     OW23569   4.641   0.113   0.211
 7557SOL    HW123570   4.624   0.104   0.310
 7557SOL    HW223571   4.739   0.101   0.193
 7558SOL     OW23572   1.544   2.900   3.475
 7558SOL    HW123573   1.492   2.863   3.398
 7558SOL    HW223574   1.486   2.961   3.529
 7559SOL     OW23575   3.627   2.286   5.338
 7559SOL    HW123576   3.599   2.196   5.305
 7559SOL    HW223577   3.727   2.292   5.338
 7560SOL     OW23578   6.075   0.196   0.194
 7560SOL    HW123579   6.114   0.127   0.133
 7560SOL    HW223580   6.127   0.200   0.279
 7561SOL     OW23581   5.628   3.392   5.666
 7561SOL    HW123582   5.552   3.335   5.696
 7561SOL    HW223583   5.712   3.339   5.668
 7562SOL     OW23584   1.242   5.033   4.739
 7562SOL    HW123585   1.298   4.964   4.785
 7562SOL    HW223586   1.296   5.117   4.727
 7563SOL     OW23587   2.768   6.422   2.604
 7563SOL    HW123588   2.820   6.493   2.651
 7563SOL    HW223589   2.769   6.338   2.659
 7564SOL     OW23590   4.399   0.607   4.818
 7564SOL    HW123591   4.420   0.699   4.854
 7564SOL    HW223592   4.482   0.552   4.817
 7565SOL     OW23593   5.795   4.511   5.969
 7565SOL    HW123594   5.843   4.511   6.057
 7565SOL    HW223595   5.859   4.533   5.896
 7566SOL     OW23596   5.323   4.831   2.373
 7566SOL    HW123597   5.349   4.746   2.326
 7566SOL    HW223598   5.360   4.909   2.323
 7567SOL     OW23599   1.139   1.639   5.193
 7567SOL    HW123600   1.106   1.733   5.199
 7567SOL    HW223601   1.155   1.614   5.098
 7568SOL     OW23602   5.633   5.490   2.250
 7568SOL    HW123603   5.652   5.409   2.304
 7568SOL    HW223604   5.618   5.568   2.311
 7569SOL     OW23605   3.838   4.582   6.671
 7569SOL    HW123606   3.919   4.561   6.726
 7569SOL    HW223607   3.815   4.679   6.684
 7570SOL     OW23608   0.078   2.335   3.676
 7570SOL    HW123609   0.056   2.430   3.656
 7570SOL    HW223610   0.136   2.329   3.757
 7571SOL     OW23611   5.512   3.623   3.142
 7571SOL    HW123612   5.450   3.610   3.064
 7571SOL    HW223613   5.531   3.534   3.184
 7572SOL     OW23614   4.844   6.532   2.988
 7572SOL    HW123615   4.827   6.535   3.087
 7572SOL    HW223616   4.938   6.559   2.969
 7573SOL     OW23617   5.683   0.474   5.994
 7573SOL    HW123618   5.657   0.566   6.024
 7573SOL    HW223619   5.729   0.426   6.068
 7574SOL     OW23620   5.810   1.506   4.231
 7574SOL    HW123621   5.885   1.505   4.297
 7574SOL    HW223622   5.820   1.585   4.170
 7575SOL     OW23623   6.130   6.572   0.811
 7575SOL    HW123624   6.207   6.512   0.833
 7575SOL    HW223625   6.084   6.539   0.729
 7576SOL     OW23626   4.994   2.475   0.885
 7576SOL    HW123627   5.035   2.473   0.794
 7576SOL    HW223628   4.941   2.559   0.897
 7577SOL     OW23629   0.246   6.514   0.070
 7577SOL    HW123630   0.227   6.533   0.167
 7577SOL    HW223631   0.229   6.596   0.016
 7578SOL     OW23632   0.746   5.137   2.301
 7578SOL    HW123633   0.746   5.065   2.232
 7578SOL    HW223634   0.652   5.165   2.321
 7579SOL     OW23635   6.652   1.896   1.344
 7579SOL    HW123636   6.694   1.986   1.355
 7579SOL    HW223637   6.703   1.828   1.396
 7580SOL     OW23638   1.879   4.750   3.503
 7580SOL    HW123639   1.935   4.790   3.431
 7580SOL    HW223640   1.783   4.760   3.480
 7581SOL     OW23641   0.713   1.204   0.974
 7581SOL    HW123642   0.702   1.301   0.995
 7581SOL    HW223643   0.643   1.175   0.909
 7582SOL     OW23644   4.488   1.496   3.922
 7582SOL    HW123645   4.466   1.512   4.018
 7582SOL    HW223646   4.583   1.468   3.913
 7583SOL     OW23647   5.302   3.820   3.296
 7583SOL    HW123648   5.230   3.795   3.230
 7583SOL    HW223649   5.389   3.827   3.249
 7584SOL     OW23650   1.203   6.843   2.351
 7584SOL    HW123651   1.110   6.867   2.323
 7584SOL    HW223652   1.233   6.903   2.425
 7585SOL     OW23653   1.096   2.098   7.009
 7585SOL    HW123654   1.044   2.017   6.981
 7585SOL    HW223655   1.134   2.143   6.928
 7586SOL     OW23656   1.533   0.404   1.797
 7586SOL    HW123657   1.570   0.426   1.887
 7586SOL    HW223658   1.541   0.306   1.781
 7587SOL     OW23659   3.033   1.184   0.785
 7587SOL    HW123660   3.012   1.131   0.703
 7587SOL    HW223661   2.971   1.262   0.792
 7588SOL     OW23662   1.335   2.685   4.071
 7588SOL    HW123663   1.265   2.701   4.140
 7588SOL    HW223664   1.424   2.715   4.106
 7589SOL     OW23665   0.216   1.357   3.519
 7589SOL    HW123666   0.122   1.336   3.544
 7589SOL    HW223667   0.218   1.438   3.461
 7590SOL     OW23668   6.319   1.611   6.888
 7590SOL    HW123669   6.342   1.639   6.981
 7590SOL    HW223670   6.227   1.643   6.865
 7591SOL     OW23671   4.599   2.918   6.592
 7591SOL    HW123672   4.594   2.833   6.540
 7591SOL    HW223673   4.594   2.898   6.690
 7592SOL     OW23674   6.031   4.449   4.803
 7592SOL    HW123675   6.031   4.353   4.831
 7592SOL    HW223676   6.112   4.494   4.840
 7593SOL     OW23677   6.851   2.432   6.143
 7593SOL    HW123678   6.880   2.354   6.199
 7593SOL    HW223679   6.793   2.399   6.069
 7594SOL     OW23680   1.006   4.575   1.384
 7594SOL    HW123681   1.063   4.653   1.407
 7594SOL    HW223682   0.910   4.600   1.390
 7595SOL     OW23683   6.536   3.320   6.091
 7595SOL    HW123684   6.521   3.298   6.188
 7595SOL    HW223685   6.630   3.297   6.066
 7596SOL     OW23686   3.126   0.355   4.949
 7596SOL    HW123687   3.187   0.312   4.883
 7596SOL    HW223688   3.166   0.441   4.980
 7597SOL     OW23689   1.903   6.341   2.688
 7597SOL    HW123690   1.814   6.382   2.706
 7597SOL    HW223691   1.974   6.411   2.690
 7598SOL     OW23692   5.908   0.546   3.112
 7598SOL    HW123693   5.997   0.522   3.073
 7598SOL    HW223694   5.875   0.631   3.071
 7599SOL     OW23695   4.914   3.027   1.328
 7599SOL    HW123696   4.816   3.041   1.316
 7599SOL    HW223697   4.932   2.929   1.342
 7600SOL     OW23698   1.647   1.240   3.697
 7600SOL    HW123699   1.618   1.300   3.771
 7600SOL    HW223700   1.581   1.166   3.685
 7601SOL     OW23701   3.180   5.097   1.850
 7601SOL    HW123702   3.103   5.142   1.896
 7601SOL    HW223703   3.206   5.015   1.901
 7602SOL     OW23704   0.090   2.729   0.220
 7602SOL    HW123705   0.080   2.820   0.179
 7602SOL    HW223706   0.077   2.736   0.319
 7603SOL     OW23707   2.333   6.580   6.058
 7603SOL    HW123708   2.395   6.639   6.110
 7603SOL    HW223709   2.384   6.503   6.020
 7604SOL     OW23710   1.519   1.984   5.085
 7604SOL    HW123711   1.435   1.952   5.041
 7604SOL    HW223712   1.560   1.909   5.136
 7605SOL     OW23713   0.827   0.314   0.313
 7605SOL    HW123714   0.783   0.325   0.403
 7605SOL    HW223715   0.920   0.281   0.326
 7606SOL     OW23716   5.892   2.519   4.567
 7606SOL    HW123717   5.945   2.588   4.616
 7606SOL    HW223718   5.903   2.430   4.612
 7607SOL     OW23719   3.787   6.134   0.619
 7607SOL    HW123720   3.713   6.113   0.555
 7607SOL    HW223721   3.828   6.049   0.652
 7608SOL     OW23722   5.295   2.687   6.281
 7608SOL    HW123723   5.216   2.715   6.335
 7608SOL    HW223724   5.269   2.680   6.184
 7609SOL     OW23725   0.322   3.188   3.859
 7609SOL    HW123726   0.340   3.148   3.949
 7609SOL    HW223727   0.251   3.134   3.813
 7610SOL     OW23728   3.505   5.154   6.723
 7610SOL    HW123729   3.591   5.202   6.707
 7610SOL    HW223730   3.519   5.083   6.792
 7611SOL     OW23731   4.946   3.757   1.507
 7611SOL    HW123732   5.001   3.817   1.565
 7611SOL    HW223733   4.864   3.728   1.557
 7612SOL     OW23734   3.888   2.102   2.970
 7612SOL    HW123735   3.822   2.027   2.975
 7612SOL    HW223736   3.923   2.109   2.876
 7613SOL     OW23737   1.099   2.240   1.894
 7613SOL    HW123738   1.086   2.307   1.820
 7613SOL    HW223739   1.196   2.218   1.902
 7614SOL     OW23740   4.925   3.391   1.047
 7614SOL    HW123741   4.970   3.307   1.080
 7614SOL    HW223742   4.888   3.375   0.956
 7615SOL     OW23743   5.530   3.791   5.652
 7615SOL    HW123744   5.581   3.737   5.718
 7615SOL    HW223745   5.461   3.845   5.699
 7616SOL     OW23746   5.959   0.090   3.350
 7616SOL    HW123747   6.045   0.135   3.373
 7616SOL    HW223748   5.931   0.115   3.257
 7617SOL     OW23749   5.091   4.994   2.942
 7617SOL    HW123750   5.085   5.042   3.030
 7617SOL    HW223751   5.169   4.932   2.944
 7618SOL     OW23752   1.187   2.605   0.359
 7618SOL    HW123753   1.285   2.616   0.380
 7618SOL    HW223754   1.147   2.695   0.343
 7619SOL     OW23755   0.284   2.193   4.401
 7619SOL    HW123756   0.238   2.121   4.349
 7619SOL    HW223757   0.288   2.277   4.346
 7620SOL     OW23758   3.438   4.550   0.640
 7620SOL    HW123759   3.381   4.626   0.610
 7620SOL    HW223760   3.500   4.524   0.567
 7621SOL     OW23761   0.168   6.177   0.882
 7621SOL    HW123762   0.171   6.274   0.904
 7621SOL    HW223763   0.140   6.165   0.787
 7622SOL     OW23764   4.499   4.310   0.451
 7622SOL    HW123765   4.417   4.254   0.466
 7622SOL    HW223766   4.580   4.251   0.451
 7623SOL     OW23767   4.130   4.730   1.209
 7623SOL    HW123768   4.052   4.759   1.264
 7623SOL    HW223769   4.112   4.638   1.173
 7624SOL     OW23770   0.284   2.769   2.739
 7624SOL    HW123771   0.195   2.808   2.760
 7624SOL    HW223772   0.346   2.784   2.816
 7625SOL     OW23773   5.506   1.988   0.297
 7625SOL    HW123774   5.570   2.064   0.301
 7625SOL    HW223775   5.542   1.916   0.237
 7626SOL     OW23776   6.324   0.860   5.644
 7626SOL    HW123777   6.344   0.858   5.742
 7626SOL    HW223778   6.324   0.767   5.608
 7627SOL     OW23779   3.808   2.117   0.371
 7627SOL    HW123780   3.790   2.156   0.461
 7627SOL    HW223781   3.722   2.084   0.331
 7628SOL     OW23782   4.064   3.123   1.054
 7628SOL    HW123783   4.096   3.175   0.975
 7628SOL    HW223784   4.109   3.035   1.057
 7629SOL     OW23785   6.168   3.633   4.389
 7629SOL    HW123786   6.236   3.562   4.371
 7629SOL    HW223787   6.184   3.672   4.480
 7630SOL     OW23788   1.280   0.071   5.688
 7630SOL    HW123789   1.247   0.058   5.594
 7630SOL    HW223790   1.359   0.131   5.688
 7631SOL     OW23791   2.043   0.082   5.668
 7631SOL    HW123792   2.093   0.097   5.753
 7631SOL    HW223793   2.019   0.171   5.627
 7632SOL     OW23794   4.340   5.307   1.281
 7632SOL    HW123795   4.380   5.389   1.322
 7632SOL    HW223796   4.367   5.226   1.333
 7633SOL     OW23797   5.908   0.125   1.804
 7633SOL    HW123798   5.998   0.084   1.814
 7633SOL    HW223799   5.857   0.077   1.733
 7634SOL     OW23800   1.399   1.604   1.249
 7634SOL    HW123801   1.376   1.576   1.342
 7634SOL    HW223802   1.338   1.677   1.220
 7635SOL     OW23803   2.449   5.123   4.868
 7635SOL    HW123804   2.491   5.177   4.941
 7635SOL    HW223805   2.404   5.042   4.907
 7636SOL     OW23806   6.968   4.487   4.367
 7636SOL    HW123807   6.887   4.430   4.383
 7636SOL    HW223808   0.019   4.467   4.436
 7637SOL     OW23809   0.899   5.992   3.820
 7637SOL    HW123810   0.845   5.915   3.786
 7637SOL    HW223811   0.887   6.000   3.919
 7638SOL     OW23812   1.228   5.250   1.340
 7638SOL    HW123813   1.271   5.256   1.249
 7638SOL    HW223814   1.173   5.332   1.356
 7639SOL     OW23815   0.103   0.815   0.395
 7639SOL    HW123816   0.194   0.776   0.384
 7639SOL    HW223817   0.035   0.755   0.354
 7640SOL     OW23818   3.464   1.799   6.471
 7640SOL    HW123819   3.488   1.891   6.439
 7640SOL    HW223820   3.547   1.751   6.499
 7641SOL     OW23821   6.788   3.825   3.033
 7641SOL    HW123822   6.716   3.857   3.095
 7641SOL    HW223823   6.873   3.813   3.085
 7642SOL     OW23824   5.704   1.038   2.848
 7642SOL    HW123825   5.643   1.052   2.770
 7642SOL    HW223826   5.701   1.118   2.907
 7643SOL     OW23827   5.354   1.888   3.115
 7643SOL    HW123828   5.361   1.965   3.051
 7643SOL    HW223829   5.259   1.879   3.146
 7644SOL     OW23830   4.903   3.211   2.178
 7644SOL    HW123831   4.830   3.169   2.123
 7644SOL    HW223832   4.952   3.140   2.228
 7645SOL     OW23833   3.753   3.532   5.185
 7645SOL    HW123834   3.658   3.556   5.167
 7645SOL    HW223835   3.757   3.460   5.254
 7646SOL     OW23836   0.793   2.966   3.179
 7646SOL    HW123837   0.836   2.951   3.268
 7646SOL    HW223838   0.773   3.063   3.167
 7647SOL     OW23839   0.639   2.937   4.380
 7647SOL    HW123840   0.695   2.873   4.326
 7647SOL    HW223841   0.695   2.974   4.454
 7648SOL     OW23842   2.372   1.842   3.104
 7648SOL    HW123843   2.387   1.840   3.203
 7648SOL    HW223844   2.434   1.776   3.060
 7649SOL     OW23845   0.836   1.160   4.755
 7649SOL    HW123846   0.873   1.122   4.839
 7649SOL    HW223847   0.737   1.172   4.765
 7650SOL     OW23848   4.885   1.282   1.370
 7650SOL    HW123849   4.977   1.278   1.331
 7650SOL    HW223850   4.826   1.338   1.312
 7651SOL     OW23851   2.148   5.252   4.416
 7651SOL    HW123852   2.093   5.189   4.471
 7651SOL    HW223853   2.245   5.238   4.436
 7652SOL     OW23854   5.902   2.231   4.662
 7652SOL    HW123855   5.854   2.180   4.733
 7652SOL    HW223856   5.897   2.181   4.576
 7653SOL     OW23857   0.970   1.587   6.834
 7653SOL    HW123858   0.947   1.502   6.879
 7653SOL    HW223859   0.886   1.636   6.809
 7654SOL     OW23860   5.719   2.907   4.681
 7654SOL    HW123861   5.764   2.931   4.594
 7654SOL    HW223862   5.673   2.819   4.672
 7655SOL     OW23863   3.160   0.200   3.520
 7655SOL    HW123864   3.206   0.114   3.497
 7655SOL    HW223865   3.119   0.238   3.437
 7656SOL     OW23866   6.437   3.155   5.694
 7656SOL    HW123867   6.439   3.113   5.784
 7656SOL    HW223868   6.359   3.119   5.642
 7657SOL     OW23869   1.877   3.502   4.616
 7657SOL    HW123870   1.920   3.555   4.689
 7657SOL    HW223871   1.948   3.452   4.566
 7658SOL     OW23872   2.781   0.474   0.886
 7658SOL    HW123873   2.820   0.399   0.834
 7658SOL    HW223874   2.843   0.500   0.960
 7659SOL     OW23875   4.445   4.091   6.127
 7659SOL    HW123876   4.416   4.117   6.219
 7659SOL    HW223877   4.418   3.996   6.109
 7660SOL     OW23878   6.490   5.988   4.828
 7660SOL    HW123879   6.462   6.044   4.750
 7660SOL    HW223880   6.494   6.045   4.911
 7661SOL     OW23881   4.617   2.424   6.375
 7661SOL    HW123882   4.541   2.405   6.313
 7661SOL    HW223883   4.702   2.390   6.335
 7662SOL     OW23884   0.673   2.154   3.057
 7662SOL    HW123885   0.713   2.211   2.984
 7662SOL    HW223886   0.578   2.180   3.071
 7663SOL     OW23887   5.561   5.887   6.135
 7663SOL    HW123888   5.481   5.885   6.195
 7663SOL    HW223889   5.534   5.862   6.042
 7664SOL     OW23890   4.015   1.089   3.123
 7664SOL    HW123891   3.970   0.999   3.123
 7664SOL    HW223892   4.087   1.091   3.054
 7665SOL     OW23893   5.611   2.384   3.733
 7665SOL    HW123894   5.590   2.480   3.715
 7665SOL    HW223895   5.526   2.335   3.753
 7666SOL     OW23896   6.217   6.399   4.200
 7666SOL    HW123897   6.283   6.357   4.138
 7666SOL    HW223898   6.133   6.420   4.149
 7667SOL     OW23899   4.730   6.859   1.778
 7667SOL    HW123900   4.675   6.794   1.830
 7667SOL    HW223901   4.677   6.892   1.700
 7668SOL     OW23902   2.712   5.178   1.129
 7668SOL    HW123903   2.780   5.193   1.201
 7668SOL    HW223904   2.625   5.152   1.171
 7669SOL     OW23905   4.102   0.597   5.961
 7669SOL    HW123906   4.165   0.671   5.984
 7669SOL    HW223907   4.144   0.509   5.987
 7670SOL     OW23908   0.717   6.862   0.260
 7670SOL    HW123909   0.650   6.926   0.297
 7670SOL    HW223910   0.801   6.911   0.238
 7671SOL     OW23911   5.587   6.738   2.495
 7671SOL    HW123912   5.501   6.786   2.509
 7671SOL    HW223913   5.659   6.804   2.472
 7672SOL     OW23914   6.869   4.592   2.817
 7672SOL    HW123915   6.780   4.569   2.855
 7672SOL    HW223916   6.886   4.690   2.828
 7673SOL     OW23917   1.447   5.594   2.929
 7673SOL    HW123918   1.540   5.614   2.959
 7673SOL    HW223919   1.387   5.669   2.956
 7674SOL     OW23920   3.923   0.991   4.305
 7674SOL    HW123921   3.993   1.046   4.351
 7674SOL    HW223922   3.833   1.033   4.318
 7675SOL     OW23923   3.576   6.619   3.532
 7675SOL    HW123924   3.487   6.646   3.494
 7675SOL    HW223925   3.646   6.683   3.501
 7676SOL     OW23926   3.040   2.558   6.000
 7676SOL    HW123927   2.972   2.630   5.991
 7676SOL    HW223928   3.007   2.474   5.956
 7677SOL     OW23929   6.772   4.474   1.056
 7677SOL    HW123930   6.831   4.477   1.137
 7677SOL    HW223931   6.809   4.534   0.985
 7678SOL     OW23932   1.893   2.065   5.355
 7678SOL    HW123933   1.829   2.076   5.279
 7678SOL    HW223934   1.859   1.995   5.418
 7679SOL     OW23935   2.072   5.190   5.568
 7679SOL    HW123936   2.124   5.115   5.610
 7679SOL    HW223937   2.076   5.182   5.468
 7680SOL     OW23938   1.165   0.344   5.796
 7680SOL    HW123939   1.210   0.256   5.778
 7680SOL    HW223940   1.089   0.330   5.860
 7681SOL     OW23941   2.837   2.250   6.634
 7681SOL    HW123942   2.808   2.242   6.729
 7681SOL    HW223943   2.865   2.161   6.599
 7682SOL     OW23944   3.371   1.853   2.865
 7682SOL    HW123945   3.271   1.851   2.869
 7682SOL    HW223946   3.400   1.941   2.827
 7683SOL     OW23947   0.572   1.138   4.795
 7683SOL    HW123948   0.500   1.103   4.854
 7683SOL    HW223949   0.552   1.233   4.770
 7684SOL     OW23950   4.235   1.901   2.082
 7684SOL    HW123951   4.180   1.980   2.054
 7684SOL    HW223952   4.332   1.922   2.070
 7685SOL     OW23953   3.818   1.489   6.745
 7685SOL    HW123954   3.764   1.409   6.771
 7685SOL    HW223955   3.881   1.512   6.819
 7686SOL     OW23956   5.011   0.490   4.614
 7686SOL    HW123957   4.920   0.463   4.586
 7686SOL    HW223958   5.030   0.583   4.583
 7687SOL     OW23959   5.302   5.436   5.069
 7687SOL    HW123960   5.239   5.361   5.088
 7687SOL    HW223961   5.252   5.512   5.028
 7688SOL     OW23962   0.274   5.631   5.724
 7688SOL    HW123963   0.257   5.554   5.663
 7688SOL    HW223964   0.372   5.640   5.742
 7689SOL     OW23965   4.629   0.235   1.434
 7689SOL    HW123966   4.640   0.284   1.348
 7689SOL    HW223967   4.555   0.276   1.487
 7690SOL     OW23968   5.889   4.705   0.213
 7690SOL    HW123969   5.987   4.716   0.222
 7690SOL    HW223970   5.843   4.789   0.242
 7691SOL     OW23971   4.598   4.682   2.316
 7691SOL    HW123972   4.561   4.591   2.334
 7691SOL    HW223973   4.576   4.743   2.392
 7692SOL     OW23974   0.856   5.785   1.366
 7692SOL    HW123975   0.809   5.805   1.280
 7692SOL    HW223976   0.953   5.807   1.357
 7693SOL     OW23977   2.975   1.061   1.006
 7693SOL    HW123978   2.919   0.980   0.990
 7693SOL    HW223979   3.011   1.094   0.918
 7694SOL     OW23980   5.582   2.843   4.179
 7694SOL    HW123981   5.539   2.903   4.111
 7694SOL    HW223982   5.538   2.754   4.178
 7695SOL     OW23983   6.003   0.235   2.343
 7695SOL    HW123984   6.049   0.315   2.380
 7695SOL    HW223985   5.991   0.246   2.244
 7696SOL     OW23986   0.193   2.133   6.118
 7696SOL    HW123987   0.230   2.084   6.039
 7696SOL    HW223988   0.262   2.137   6.190
 7697SOL     OW23989   3.326   0.455   2.730
 7697SOL    HW123990   3.409   0.464   2.785
 7697SOL    HW223991   3.348   0.472   2.634
 7698SOL     OW23992   6.011   2.720   6.228
 7698SOL    HW123993   6.102   2.762   6.231
 7698SOL    HW223994   6.020   2.621   6.235
 7699SOL     OW23995   2.118   5.043   6.932
 7699SOL    HW123996   2.210   5.080   6.925
 7699SOL    HW223997   2.087   5.012   6.842
 7700SOL     OW23998   4.577   6.422   3.157
 7700SOL    HW123999   4.536   6.486   3.092
 7700SOL    HW224000   4.506   6.384   3.217
 7701SOL     OW24001   0.058   1.955   6.296
 7701SOL    HW124002   6.984   1.984   6.322
 7701SOL    HW224003   0.095   2.019   6.229
 7702SOL     OW24004   4.577   6.877   5.869
 7702SOL    HW124005   4.580   6.812   5.793
 7702SOL    HW224006   4.505   6.851   5.934
 7703SOL     OW24007   6.431   0.325   4.761
 7703SOL    HW124008   6.451   0.228   4.770
 7703SOL    HW224009   6.499   0.378   4.813
 7704SOL     OW24010   6.722   1.485   4.211
 7704SOL    HW124011   6.735   1.585   4.215
 7704SOL    HW224012   6.723   1.447   4.304
 7705SOL     OW24013   2.254   5.119   0.767
 7705SOL    HW124014   2.205   5.035   0.792
 7705SOL    HW224015   2.244   5.135   0.668
 7706SOL     OW24016   3.595   3.045   2.998
 7706SOL    HW124017   3.527   2.997   3.053
 7706SOL    HW224018   3.684   3.038   3.041
 7707SOL     OW24019   0.217   5.274   6.208
 7707SOL    HW124020   0.175   5.204   6.150
 7707SOL    HW224021   0.200   5.252   6.304
 7708SOL     OW24022   1.455   6.658   4.012
 7708SOL    HW124023   1.433   6.568   4.049
 7708SOL    HW224024   1.420   6.666   3.919
 7709SOL     OW24025   6.743   5.131   1.199
 7709SOL    HW124026   6.826   5.077   1.211
 7709SOL    HW224027   6.709   5.120   1.105
 7710SOL     OW24028   1.795   2.574   0.590
 7710SOL    HW124029   1.740   2.654   0.617
 7710SOL    HW224030   1.760   2.493   0.636
 7711SOL     OW24031   6.462   5.720   5.674
 7711SOL    HW124032   6.468   5.820   5.674
 7711SOL    HW224033   6.471   5.686   5.581
 7712SOL     OW24034   6.507   4.667   6.111
 7712SOL    HW124035   6.591   4.704   6.070
 7712SOL    HW224036   6.516   4.568   6.121
 7713SOL     OW24037   1.793   4.313   0.801
 7713SOL    HW124038   1.861   4.307   0.874
 7713SOL    HW224039   1.702   4.297   0.840
 7714SOL     OW24040   0.061   6.900   4.893
 7714SOL    HW124041   0.053   6.823   4.831
 7714SOL    HW224042   0.106   6.977   4.847
 7715SOL     OW24043   2.376   2.660   6.301
 7715SOL    HW124044   2.372   2.571   6.255
 7715SOL    HW224045   2.371   2.647   6.400
 7716SOL     OW24046   0.800   4.735   6.808
 7716SOL    HW124047   0.796   4.792   6.725
 7716SOL    HW224048   0.780   4.640   6.784
 7717SOL     OW24049   1.424   1.960   5.411
 7717SOL    HW124050   1.376   1.892   5.356
 7717SOL    HW224051   1.515   1.925   5.435
 7718SOL     OW24052   0.654   3.297   2.876
 7718SOL    HW124053   0.604   3.266   2.796
 7718SOL    HW224054   0.703   3.221   2.918
 7719SOL     OW24055   1.675   4.149   4.592
 7719SOL    HW124056   1.768   4.185   4.592
 7719SOL    HW224057   1.611   4.221   4.567
 7720SOL     OW24058   6.026   2.204   6.359
 7720SOL    HW124059   5.927   2.188   6.358
 7720SOL    HW224060   6.065   2.162   6.442
 7721SOL     OW24061   1.412   0.711   2.320
 7721SOL    HW124062   1.378   0.775   2.252
 7721SOL    HW224063   1.346   0.637   2.333
 7722SOL     OW24064   2.416   5.036   4.033
 7722SOL    HW124065   2.369   5.012   4.118
 7722SOL    HW224066   2.361   5.102   3.983
 7723SOL     OW24067   4.916   3.196   6.919
 7723SOL    HW124068   4.838   3.259   6.920
 7723SOL    HW224069   4.921   3.150   6.831
 7724SOL     OW24070   3.015   4.162   0.834
 7724SOL    HW124071   3.089   4.095   0.830
 7724SOL    HW224072   3.054   4.254   0.840
 7725SOL     OW24073   6.141   2.613   2.632
 7725SOL    HW124074   6.050   2.602   2.591
 7725SOL    HW224075   6.168   2.527   2.676
 7726SOL     OW24076   1.440   2.865   6.034
 7726SOL    HW124077   1.375   2.926   6.079
 7726SOL    HW224078   1.430   2.773   6.071
 7727SOL     OW24079   5.902   2.369   1.690
 7727SOL    HW124080   5.817   2.386   1.739
 7727SOL    HW224081   5.940   2.456   1.657
 7728SOL     OW24082   2.348   2.491   5.340
 7728SOL    HW124083   2.439   2.502   5.302
 7728SOL    HW224084   2.280   2.523   5.274
 7729SOL     OW24085   6.210   1.668   2.014
 7729SOL    HW124086   6.234   1.685   1.919
 7729SOL    HW224087   6.288   1.626   2.062
 7730SOL     OW24088   5.551   4.539   5.159
 7730SOL    HW124089   5.632   4.482   5.147
 7730SOL    HW224090   5.558   4.619   5.099
 7731SOL     OW24091   5.840   0.244   0.776
 7731SOL    HW124092   5.754   0.276   0.816
 7731SOL    HW224093   5.916   0.269   0.836
 7732SOL     OW24094   3.921   0.112   0.262
 7732SOL    HW124095   4.016   0.134   0.239
 7732SOL    HW224096   3.886   0.044   0.197
 7733SOL     OW24097   6.441   5.663   2.779
 7733SOL    HW124098   6.361   5.698   2.828
 7733SOL    HW224099   6.412   5.616   2.696
 7734SOL     OW24100   2.554   4.611   5.182
 7734SOL    HW124101   2.627   4.626   5.117
 7734SOL    HW224102   2.477   4.565   5.137
 7735SOL     OW24103   6.609   6.471   0.195
 7735SOL    HW124104   6.618   6.494   0.291
 7735SOL    HW224105   6.544   6.396   0.184
 7736SOL     OW24106   2.634   2.877   0.591
 7736SOL    HW124107   2.593   2.844   0.676
 7736SOL    HW224108   2.721   2.829   0.574
 7737SOL     OW24109   3.759   5.169   1.601
 7737SOL    HW124110   3.759   5.069   1.603
 7737SOL    HW224111   3.720   5.205   1.685
 7738SOL     OW24112   2.680   5.809   6.527
 7738SOL    HW124113   2.668   5.896   6.576
 7738SOL    HW224114   2.591   5.766   6.512
 7739SOL     OW24115   1.356   2.189   1.971
 7739SOL    HW124116   1.429   2.152   2.030
 7739SOL    HW224117   1.397   2.242   1.897
 7740SOL     OW24118   1.995   0.806   2.727
 7740SOL    HW124119   2.081   0.846   2.759
 7740SOL    HW224120   1.966   0.851   2.643
 7741SOL     OW24121   1.721   4.800   5.494
 7741SOL    HW124122   1.661   4.781   5.416
 7741SOL    HW224123   1.666   4.809   5.577
 7742SOL     OW24124   3.851   1.200   3.880
 7742SOL    HW124125   3.861   1.112   3.927
 7742SOL    HW224126   3.941   1.242   3.870
 7743SOL     OW24127   4.912   1.178   6.761
 7743SOL    HW124128   4.854   1.117   6.706
 7743SOL    HW224129   4.980   1.123   6.810
 7744SOL     OW24130   0.799   6.039   4.729
 7744SOL    HW124131   0.714   6.004   4.768
 7744SOL    HW224132   0.868   5.967   4.730
 7745SOL     OW24133   2.374   6.564   6.811
 7745SOL    HW124134   2.292   6.554   6.754
 7745SOL    HW224135   2.349   6.599   6.900
 7746SOL     OW24136   1.202   6.231   1.048
 7746SOL    HW124137   1.264   6.182   1.109
 7746SOL    HW224138   1.218   6.330   1.056
 7747SOL     OW24139   6.965   6.071   0.609
 7747SOL    HW124140   6.943   6.076   0.707
 7747SOL    HW224141   0.008   5.994   0.592
 7748SOL     OW24142   3.685   2.821   5.201
 7748SOL    HW124143   3.587   2.808   5.184
 7748SOL    HW224144   3.724   2.881   5.131
 7749SOL     OW24145   3.440   4.003   3.136
 7749SOL    HW124146   3.539   4.012   3.143
 7749SOL    HW224147   3.416   3.907   3.123
 7750SOL     OW24148   5.305   5.392   6.151
 7750SOL    HW124149   5.235   5.323   6.171
 7750SOL    HW224150   5.384   5.347   6.108
 7751SOL     OW24151   0.420   1.390   4.038
 7751SOL    HW124152   0.424   1.359   4.133
 7751SOL    HW224153   0.348   1.340   3.989
 7752SOL     OW24154   5.602   5.179   5.349
 7752SOL    HW124155   5.635   5.239   5.422
 7752SOL    HW224156   5.588   5.087   5.385
 7753SOL     OW24157   2.683   0.502   4.786
 7753SOL    HW124158   2.634   0.418   4.811
 7753SOL    HW224159   2.773   0.478   4.750
 7754SOL     OW24160   5.832   0.602   0.958
 7754SOL    HW124161   5.788   0.691   0.942
 7754SOL    HW224162   5.902   0.587   0.887
 7755SOL     OW24163   0.341   6.454   5.403
 7755SOL    HW124164   0.420   6.396   5.382
 7755SOL    HW224165   0.351   6.542   5.355
 7756SOL     OW24166   2.389   5.589   2.305
 7756SOL    HW124167   2.463   5.571   2.240
 7756SOL    HW224168   2.427   5.615   2.393
 7757SOL     OW24169   4.546   5.902   5.188
 7757SOL    HW124170   4.547   5.804   5.172
 7757SOL    HW224171   4.628   5.928   5.239
 7758SOL     OW24172   1.867   2.570   6.185
 7758SOL    HW124173   1.842   2.561   6.282
 7758SOL    HW224174   1.937   2.501   6.163
 7759SOL     OW24175   2.233   0.660   5.349
 7759SOL    HW124176   2.135   0.674   5.332
 7759SOL    HW224177   2.279   0.749   5.352
 7760SOL     OW24178   6.048   2.626   2.254
 7760SOL    HW124179   5.993   2.685   2.313
 7760SOL    HW224180   6.122   2.585   2.308
 7761SOL     OW24181   2.693   6.752   6.079
 7761SOL    HW124182   2.788   6.753   6.110
 7761SOL    HW224183   2.690   6.752   5.979
 7762SOL     OW24184   3.571   0.690   6.228
 7762SOL    HW124185   3.535   0.649   6.143
 7762SOL    HW224186   3.670   0.690   6.226
 7763SOL     OW24187   1.374   1.617   0.904
 7763SOL    HW124188   1.339   1.642   0.814
 7763SOL    HW224189   1.349   1.522   0.924
 7764SOL     OW24190   3.869   3.267   2.596
 7764SOL    HW124191   3.859   3.366   2.594
 7764SOL    HW224192   3.900   3.237   2.686
 7765SOL     OW24193   6.509   3.618   4.340
 7765SOL    HW124194   6.471   3.568   4.418
 7765SOL    HW224195   6.505   3.561   4.258
 7766SOL     OW24196   5.277   1.881   6.838
 7766SOL    HW124197   5.281   1.813   6.765
 7766SOL    HW224198   5.330   1.962   6.811
 7767SOL     OW24199   3.679   6.476   3.253
 7767SOL    HW124200   3.660   6.410   3.181
 7767SOL    HW224201   3.674   6.431   3.342
 7768SOL     OW24202   3.775   4.952   3.060
 7768SOL    HW124203   3.780   4.977   3.157
 7768SOL    HW224204   3.866   4.929   3.027
 7769SOL     OW24205   4.952   1.466   1.813
 7769SOL    HW124206   4.939   1.462   1.714
 7769SOL    HW224207   4.998   1.551   1.837
 7770SOL     OW24208   2.361   4.550   2.155
 7770SOL    HW124209   2.458   4.573   2.151
 7770SOL    HW224210   2.307   4.634   2.153
 7771SOL     OW24211   2.596   2.440   4.742
 7771SOL    HW124212   2.537   2.509   4.700
 7771SOL    HW224213   2.581   2.439   4.840
 7772SOL     OW24214   5.275   1.565   3.555
 7772SOL    HW124215   5.176   1.581   3.554
 7772SOL    HW224216   5.315   1.615   3.632
 7773SOL     OW24217   3.639   4.800   5.898
 7773SOL    HW124218   3.660   4.871   5.831
 7773SOL    HW224219   3.627   4.841   5.988
 7774SOL     OW24220   5.472   1.609   5.788
 7774SOL    HW124221   5.421   1.613   5.702
 7774SOL    HW224222   5.521   1.696   5.802
 7775SOL     OW24223   3.122   6.705   3.153
 7775SOL    HW124224   3.114   6.789   3.206
 7775SOL    HW224225   3.032   6.663   3.143
 7776SOL     OW24226   3.429   3.225   5.652
 7776SOL    HW124227   3.356   3.264   5.596
 7776SOL    HW224228   3.477   3.298   5.700
 7777SOL     OW24229   2.414   1.768   5.421
 7777SOL    HW124230   2.457   1.785   5.332
 7777SOL    HW224231   2.413   1.852   5.475
 7778SOL     OW24232   5.367   0.234   0.062
 7778SOL    HW124233   5.268   0.248   0.064
 7778SOL    HW224234   5.403   0.234   0.156
 7779SOL     OW24235   3.446   2.665   0.432
 7779SOL    HW124236   3.542   2.639   0.418
 7779SOL    HW224237   3.436   2.710   0.521
 7780SOL     OW24238   1.902   5.973   4.245
 7780SOL    HW124239   1.889   5.935   4.153
 7780SOL    HW224240   1.820   6.023   4.272
 7781SOL     OW24241   0.697   3.703   5.804
 7781SOL    HW124242   0.777   3.763   5.798
 7781SOL    HW224243   0.725   3.609   5.785
 7782SOL     OW24244   1.643   3.866   5.486
 7782SOL    HW124245   1.641   3.963   5.461
 7782SOL    HW224246   1.549   3.833   5.498
 7783SOL     OW24247   2.861   6.654   5.850
 7783SOL    HW124248   2.874   6.585   5.921
 7783SOL    HW224249   2.937   6.718   5.851
 7784SOL     OW24250   1.631   2.630   6.994
 7784SOL    HW124251   1.587   2.718   6.979
 7784SOL    HW224252   1.730   2.642   7.001
 7785SOL     OW24253   1.681   6.508   4.297
 7785SOL    HW124254   1.702   6.550   4.385
 7785SOL    HW224255   1.707   6.570   4.223
 7786SOL     OW24256   3.353   4.912   5.468
 7786SOL    HW124257   3.292   4.991   5.467
 7786SOL    HW224258   3.329   4.852   5.545
 7787SOL     OW24259   2.327   2.226   5.398
 7787SOL    HW124260   2.327   2.326   5.397
 7787SOL    HW224261   2.248   2.192   5.347
 7788SOL     OW24262   1.572   1.076   1.962
 7788SOL    HW124263   1.513   1.022   1.901
 7788SOL    HW224264   1.659   1.028   1.974
 7789SOL     OW24265   2.590   0.302   1.087
 7789SOL    HW124266   2.600   0.332   0.992
 7789SOL    HW224267   2.673   0.322   1.138
 7790SOL     OW24268   6.284   4.591   3.037
 7790SOL    HW124269   6.222   4.648   3.091
 7790SOL    HW224270   6.333   4.528   3.097
 7791SOL     OW24271   2.567   6.109   4.182
 7791SOL    HW124272   2.557   6.010   4.168
 7791SOL    HW224273   2.515   6.158   4.112
 7792SOL     OW24274   1.752   5.222   5.805
 7792SOL    HW124275   1.698   5.304   5.784
 7792SOL    HW224276   1.774   5.174   5.721
 7793SOL     OW24277   1.721   1.406   5.877
 7793SOL    HW124278   1.796   1.430   5.815
 7793SOL    HW224279   1.734   1.311   5.909
 7794SOL     OW24280   5.266   4.964   4.505
 7794SOL    HW124281   5.192   5.004   4.450
 7794SOL    HW224282   5.352   5.011   4.485
 7795SOL     OW24283   2.131   4.174   5.115
 7795SOL    HW124284   2.200   4.118   5.069
 7795SOL    HW224285   2.041   4.156   5.074
 7796SOL     OW24286   3.349   4.040   3.406
 7796SOL    HW124287   3.382   4.030   3.312
 7796SOL    HW224288   3.272   3.979   3.421
 7797SOL     OW24289   0.160   5.597   3.326
 7797SOL    HW124290   0.098   5.563   3.397
 7797SOL    HW224291   0.193   5.687   3.352
 7798SOL     OW24292   2.338   5.229   6.946
 7798SOL    HW124293   2.297   5.294   6.882
 7798SOL    HW224294   2.432   5.210   6.920
 7799SOL     OW24295   6.858   5.579   1.798
 7799SOL    HW124296   6.796   5.576   1.720
 7799SOL    HW224297   6.813   5.624   1.874
 7800SOL     OW24298   1.112   4.156   1.325
 7800SOL    HW124299   1.100   4.217   1.247
 7800SOL    HW224300   1.119   4.210   1.409
 7801SOL     OW24301   2.515   1.688   1.428
 7801SOL    HW124302   2.472   1.685   1.338
 7801SOL    HW224303   2.488   1.607   1.480
 7802SOL     OW24304   6.189   3.223   0.930
 7802SOL    HW124305   6.270   3.172   0.959
 7802SOL    HW224306   6.176   3.302   0.990
 7803SOL     OW24307   4.294   3.772   5.595
 7803SOL    HW124308   4.270   3.675   5.590
 7803SOL    HW224309   4.307   3.807   5.502
 7804SOL     OW24310   6.226   1.121   4.205
 7804SOL    HW124311   6.192   1.136   4.298
 7804SOL    HW224312   6.258   1.026   4.196
 7805SOL     OW24313   5.473   1.896   1.193
 7805SOL    HW124314   5.427   1.854   1.271
 7805SOL    HW224315   5.409   1.955   1.144
 7806SOL     OW24316   5.894   3.267   5.984
 7806SOL    HW124317   5.918   3.175   5.953
 7806SOL    HW224318   5.960   3.333   5.947
 7807SOL     OW24319   0.291   4.893   6.144
 7807SOL    HW124320   0.234   4.971   6.121
 7807SOL    HW224321   0.373   4.924   6.193
 7808SOL     OW24322   0.608   2.923   4.733
 7808SOL    HW124323   0.666   2.843   4.748
 7808SOL    HW224324   0.536   2.927   4.802
 7809SOL     OW24325   2.503   6.520   4.515
 7809SOL    HW124326   2.404   6.518   4.534
 7809SOL    HW224327   2.518   6.541   4.419
 7810SOL     OW24328   2.978   0.425   5.818
 7810SOL    HW124329   2.927   0.362   5.758
 7810SOL    HW224330   3.066   0.384   5.841
 7811SOL     OW24331   6.253   4.247   4.347
 7811SOL    HW124332   6.328   4.218   4.407
 7811SOL    HW224333   6.169   4.255   4.401
 7812SOL     OW24334   1.522   1.922   3.935
 7812SOL    HW124335   1.510   1.829   3.900
 7812SOL    HW224336   1.508   1.923   4.034
 7813SOL     OW24337   4.803   2.703   6.229
 7813SOL    HW124338   4.847   2.786   6.195
 7813SOL    HW224339   4.707   2.724   6.249
 7814SOL     OW24340   6.662   2.363   3.236
 7814SOL    HW124341   6.646   2.265   3.229
 7814SOL    HW224342   6.739   2.380   3.298
 7815SOL     OW24343   4.799   1.284   6.297
 7815SOL    HW124344   4.861   1.315   6.369
 7815SOL    HW224345   4.719   1.344   6.293
 7816SOL     OW24346   2.198   2.781   6.131
 7816SOL    HW124347   2.183   2.880   6.127
 7816SOL    HW224348   2.269   2.761   6.198
 7817SOL     OW24349   6.264   3.728   3.702
 7817SOL    HW124350   6.341   3.747   3.642
 7817SOL    HW224351   6.248   3.807   3.762
 7818SOL     OW24352   5.564   0.735   2.170
 7818SOL    HW124353   5.525   0.645   2.153
 7818SOL    HW224354   5.503   0.806   2.135
 7819SOL     OW24355   0.238   3.048   1.797
 7819SOL    HW124356   0.300   2.996   1.738
 7819SOL    HW224357   0.151   3.000   1.804
 7820SOL     OW24358   1.716   1.994   4.774
 7820SOL    HW124359   1.654   1.996   4.852
 7820SOL    HW224360   1.745   2.087   4.752
 7821SOL     OW24361   4.415   5.691   1.123
 7821SOL    HW124362   4.318   5.666   1.126
 7821SOL    HW224363   4.423   5.791   1.116
 7822SOL     OW24364   0.254   0.546   5.390
 7822SOL    HW124365   0.271   0.485   5.468
 7822SOL    HW224366   0.168   0.594   5.404
 7823SOL     OW24367   2.278   4.193   4.518
 7823SOL    HW124368   2.336   4.131   4.465
 7823SOL    HW224369   2.234   4.143   4.592
 7824SOL     OW24370   6.650   2.392   4.831
 7824SOL    HW124371   6.635   2.385   4.930
 7824SOL    HW224372   6.579   2.339   4.783
 7825SOL     OW24373   2.623   2.963   6.975
 7825SOL    HW124374   2.612   2.886   0.020
 7825SOL    HW224375   2.634   3.048   0.008
 7826SOL     OW24376   6.807   1.203   0.416
 7826SOL    HW124377   6.804   1.253   0.330
 7826SOL    HW224378   6.887   1.143   0.418
 7827SOL     OW24379   0.711   5.752   1.981
 7827SOL    HW124380   0.675   5.680   2.042
 7827SOL    HW224381   0.788   5.715   1.929
 7828SOL     OW24382   6.490   4.322   6.450
 7828SOL    HW124383   6.504   4.264   6.369
 7828SOL    HW224384   6.395   4.352   6.453
 7829SOL     OW24385   3.291   3.162   1.424
 7829SOL    HW124386   3.379   3.130   1.458
 7829SOL    HW224387   3.281   3.259   1.445
 7830SOL     OW24388   3.592   5.061   5.551
 7830SOL    HW124389   3.524   5.001   5.511
 7830SOL    HW224390   3.625   5.125   5.482
 7831SOL     OW24391   2.329   0.917   1.761
 7831SOL    HW124392   2.426   0.900   1.742
 7831SOL    HW224393   2.309   1.014   1.747
 7832SOL     OW24394   5.312   0.025   4.499
 7832SOL    HW124395   5.271   0.109   4.536
 7832SOL    HW224396   5.249   7.004   4.431
 7833SOL     OW24397   1.456   0.380   4.429
 7833SOL    HW124398   1.505   0.295   4.409
 7833SOL    HW224399   1.506   0.458   4.391
 7834SOL     OW24400   0.043   1.604   3.774
 7834SOL    HW124401   7.004   1.541   3.827
 7834SOL    HW224402   0.006   1.613   3.681
 7835SOL     OW24403   3.628   1.774   4.321
 7835SOL    HW124404   3.565   1.799   4.247
 7835SOL    HW224405   3.574   1.745   4.400
 7836SOL     OW24406   3.730   3.878   5.343
 7836SOL    HW124407   3.754   3.974   5.355
 7836SOL    HW224408   3.802   3.831   5.292
 7837SOL     OW24409   5.358   6.171   0.123
 7837SOL    HW124410   5.362   6.231   0.043
 7837SOL    HW224411   5.304   6.216   0.195
 7838SOL     OW24412   4.964   5.268   1.456
 7838SOL    HW124413   4.935   5.243   1.363
 7838SOL    HW224414   4.983   5.366   1.460
 7839SOL     OW24415   5.613   3.809   4.839
 7839SOL    HW124416   5.559   3.826   4.756
 7839SOL    HW224417   5.565   3.743   4.897
 7840SOL     OW24418   0.884   4.349   4.126
 7840SOL    HW124419   0.784   4.346   4.134
 7840SOL    HW224420   0.910   4.362   4.031
 7841SOL     OW24421   4.666   2.026   6.520
 7841SOL    HW124422   4.757   2.004   6.485
 7841SOL    HW224423   4.671   2.111   6.573
 7842SOL     OW24424   2.254   1.580   2.230
 7842SOL    HW124425   2.349   1.610   2.233
 7842SOL    HW224426   2.195   1.655   2.260
 7843SOL     OW24427   6.749   6.701   4.088
 7843SOL    HW124428   6.745   6.771   4.159
 7843SOL    HW224429   6.695   6.622   4.116
 7844SOL     OW24430   3.775   0.602   2.278
 7844SOL    HW124431   3.863   0.555   2.278
 7844SOL    HW224432   3.717   0.568   2.352
 7845SOL     OW24433   5.103   1.916   1.355
 7845SOL    HW124434   5.092   1.854   1.277
 7845SOL    HW224435   5.192   1.901   1.397
 7846SOL     OW24436   1.251   2.048   0.535
 7846SOL    HW124437   1.315   2.023   0.463
 7846SOL    HW224438   1.205   2.134   0.511
 7847SOL     OW24439   6.210   1.577   3.823
 7847SOL    HW124440   6.177   1.671   3.816
 7847SOL    HW224441   6.294   1.575   3.878
 7848SOL     OW24442   2.684   4.685   0.785
 7848SOL    HW124443   2.701   4.607   0.845
 7848SOL    HW224444   2.605   4.666   0.726
 7849SOL     OW24445   5.938   3.335   5.134
 7849SOL    HW124446   5.881   3.342   5.216
 7849SOL    HW224447   6.012   3.402   5.140
 7850SOL     OW24448   6.685   1.636   3.875
 7850SOL    HW124449   6.597   1.632   3.922
 7850SOL    HW224450   6.671   1.644   3.777
 7851SOL     OW24451   0.899   3.339   1.931
 7851SOL    HW124452   0.814   3.351   1.880
 7851SOL    HW224453   0.882   3.287   2.014
 7852SOL     OW24454   2.877   1.127   0.120
 7852SOL    HW124455   2.899   1.030   0.134
 7852SOL    HW224456   2.806   1.154   0.185
 7853SOL     OW24457   4.358   2.973   1.735
 7853SOL    HW124458   4.394   2.986   1.827
 7853SOL    HW224459   4.265   3.009   1.729
 7854SOL     OW24460   3.973   2.218   6.241
 7854SOL    HW124461   4.071   2.238   6.250
 7854SOL    HW224462   3.920   2.299   6.264
 7855SOL     OW24463   4.674   6.151   4.278
 7855SOL    HW124464   4.718   6.063   4.261
 7855SOL    HW224465   4.696   6.214   4.204
 7856SOL     OW24466   1.564   4.772   5.280
 7856SOL    HW124467   1.568   4.868   5.252
 7856SOL    HW224468   1.599   4.714   5.207
 7857SOL     OW24469   4.888   4.146   0.640
 7857SOL    HW124470   4.944   4.216   0.684
 7857SOL    HW224471   4.817   4.190   0.585
 7858SOL     OW24472   6.847   5.778   4.673
 7858SOL    HW124473   6.946   5.775   4.680
 7858SOL    HW224474   6.810   5.835   4.745
 7859SOL     OW24475   4.748   3.422   6.729
 7859SOL    HW124476   4.743   3.377   6.640
 7859SOL    HW224477   4.705   3.512   6.723
 7860SOL     OW24478   3.988   1.408   4.103
 7860SOL    HW124479   3.948   1.456   4.025
 7860SOL    HW224480   3.926   1.334   4.131
 7861SOL     OW24481   2.590   5.561   2.085
 7861SOL    HW124482   2.603   5.473   2.131
 7861SOL    HW224483   2.675   5.613   2.089
 7862SOL     OW24484   2.579   5.314   2.159
 7862SOL    HW124485   2.516   5.258   2.212
 7862SOL    HW224486   2.673   5.296   2.189
 7863SOL     OW24487   0.502   4.186   3.461
 7863SOL    HW124488   0.408   4.204   3.492
 7863SOL    HW224489   0.543   4.116   3.519
 7864SOL     OW24490   1.929   5.991   6.499
 7864SOL    HW124491   1.882   6.054   6.560
 7864SOL    HW224492   2.023   6.023   6.484
 7865SOL     OW24493   6.145   6.172   3.997
 7865SOL    HW124494   6.054   6.178   4.039
 7865SOL    HW224495   6.150   6.232   3.917
 7866SOL     OW24496   2.232   0.389   4.787
 7866SOL    HW124497   2.249   0.306   4.735
 7866SOL    HW224498   2.161   0.372   4.856
 7867SOL     OW24499   5.556   0.015   3.584
 7867SOL    HW124500   5.612   6.950   3.578
 7867SOL    HW224501   5.593   0.084   3.523
 7868SOL     OW24502   3.725   5.399   1.152
 7868SOL    HW124503   3.765   5.360   1.235
 7868SOL    HW224504   3.791   5.394   1.077
 7869SOL     OW24505   4.881   4.953   5.987
 7869SOL    HW124506   4.798   4.898   5.987
 7869SOL    HW224507   4.960   4.895   5.967
 7870SOL     OW24508   4.783   0.320   4.994
 7870SOL    HW124509   4.750   0.281   5.081
 7870SOL    HW224510   4.881   0.341   5.002
 7871SOL     OW24511   5.832   1.258   1.806
 7871SOL    HW124512   5.745   1.300   1.831
 7871SOL    HW224513   5.888   1.324   1.755
 7872SOL     OW24514   1.600   4.646   2.708
 7872SOL    HW124515   1.642   4.583   2.643
 7872SOL    HW224516   1.568   4.594   2.788
 7873SOL     OW24517   6.174   1.141   0.690
 7873SOL    HW124518   6.256   1.196   0.675
 7873SOL    HW224519   6.191   1.074   0.762
 7874SOL     OW24520   5.547   2.695   1.034
 7874SOL    HW124521   5.634   2.702   0.985
 7874SOL    HW224522   5.562   2.652   1.123
 7875SOL     OW24523   3.846   3.621   6.919
 7875SOL    HW124524   3.796   3.700   6.883
 7875SOL    HW224525   3.916   3.594   6.853
 7876SOL     OW24526   0.814   0.329   2.966
 7876SOL    HW124527   0.786   0.358   2.874
 7876SOL    HW224528   0.777   0.238   2.984
 7877SOL     OW24529   6.553   1.507   2.854
 7877SOL    HW124530   6.531   1.573   2.926
 7877SOL    HW224531   6.599   1.428   2.894
 7878SOL     OW24532   4.929   3.736   3.388
 7878SOL    HW124533   5.014   3.688   3.409
 7878SOL    HW224534   4.934   3.829   3.424
 7879SOL     OW24535   3.045   5.237   3.100
 7879SOL    HW124536   3.133   5.279   3.074
 7879SOL    HW224537   3.055   5.192   3.189
 7880SOL     OW24538   2.335   3.443   0.796
 7880SOL    HW124539   2.344   3.484   0.705
 7880SOL    HW224540   2.390   3.494   0.862
 7881SOL     OW24541   5.042   3.931   4.380
 7881SOL    HW124542   4.951   3.890   4.377
 7881SOL    HW224543   5.109   3.865   4.347
 7882SOL     OW24544   2.470   3.888   1.740
 7882SOL    HW124545   2.555   3.908   1.691
 7882SOL    HW224546   2.440   3.970   1.789
 7883SOL     OW24547   0.859   0.480   5.705
 7883SOL    HW124548   0.957   0.475   5.683
 7883SOL    HW224549   0.847   0.519   5.796
 7884SOL     OW24550   0.859   3.813   3.982
 7884SOL    HW124551   0.788   3.853   4.040
 7884SOL    HW224552   0.949   3.842   4.015
 7885SOL     OW24553   6.346   5.385   0.761
 7885SOL    HW124554   6.329   5.318   0.833
 7885SOL    HW224555   6.260   5.419   0.725
 7886SOL     OW24556   4.642   6.046   0.416
 7886SOL    HW124557   4.646   6.107   0.495
 7886SOL    HW224558   4.548   6.015   0.402
 7887SOL     OW24559   3.800   1.806   7.017
 7887SOL    HW124560   3.803   1.901   0.029
 7887SOL    HW224561   3.746   1.800   6.933
 7888SOL     OW24562   5.182   0.417   3.682
 7888SOL    HW124563   5.201   0.335   3.736
 7888SOL    HW224564   5.259   0.481   3.689
 7889SOL     OW24565   0.669   5.574   1.483
 7889SOL    HW124566   0.717   5.488   1.466
 7889SOL    HW224567   0.729   5.651   1.460
 7890SOL     OW24568   1.998   3.875   2.291
 7890SOL    HW124569   1.926   3.809   2.270
 7890SOL    HW224570   2.063   3.878   2.216
 7891SOL     OW24571   2.379   4.964   2.388
 7891SOL    HW124572   2.471   4.939   2.420
 7891SOL    HW224573   2.374   5.063   2.373
 7892SOL     OW24574   1.911   2.349   4.922
 7892SOL    HW124575   1.879   2.371   5.015
 7892SOL    HW224576   1.997   2.300   4.927
 7893SOL     OW24577   5.739   6.620   1.410
 7893SOL    HW124578   5.725   6.704   1.358
 7893SOL    HW224579   5.663   6.557   1.393
 7894SOL     OW24580   2.463   6.416   1.852
 7894SOL    HW124581   2.364   6.430   1.853
 7894SOL    HW224582   2.496   6.419   1.757
 7895SOL     OW24583   6.548   1.253   4.995
 7895SOL    HW124584   6.615   1.200   5.046
 7895SOL    HW224585   6.461   1.255   5.045
 7896SOL     OW24586   4.689   4.027   5.563
 7896SOL    HW124587   4.616   4.082   5.602
 7896SOL    HW224588   4.650   3.963   5.496
 7897SOL     OW24589   2.161   3.813   6.132
 7897SOL    HW124590   2.136   3.848   6.222
 7897SOL    HW224591   2.094   3.844   6.065
 7898SOL     OW24592   4.667   2.243   3.690
 7898SOL    HW124593   4.605   2.318   3.664
 7898SOL    HW224594   4.756   2.258   3.649
 7899SOL     OW24595   6.657   2.134   2.147
 7899SOL    HW124596   6.667   2.216   2.091
 7899SOL    HW224597   6.589   2.073   2.106
 7900SOL     OW24598   1.722   5.332   1.252
 7900SOL    HW124599   1.717   5.291   1.343
 7900SOL    HW224600   1.818   5.339   1.225
 7901SOL     OW24601   5.867   0.424   5.743
 7901SOL    HW124602   5.793   0.444   5.807
 7901SOL    HW224603   5.927   0.504   5.736
 7902SOL     OW24604   4.783   4.866   1.460
 7902SOL    HW124605   4.814   4.855   1.365
 7902SOL    HW224606   4.862   4.859   1.521
 7903SOL     OW24607   6.081   1.853   0.225
 7903SOL    HW124608   6.155   1.849   0.292
 7903SOL    HW224609   5.998   1.888   0.269
 7904SOL     OW24610   6.346   1.072   2.444
 7904SOL    HW124611   6.309   1.103   2.356
 7904SOL    HW224612   6.285   1.002   2.482
 7905SOL     OW24613   4.463   1.602   1.195
 7905SOL    HW124614   4.421   1.570   1.110
 7905SOL    HW224615   4.478   1.701   1.190
 7906SOL     OW24616   6.464   6.211   6.732
 7906SOL    HW124617   6.444   6.148   6.657
 7906SOL    HW224618   6.490   6.300   6.694
 7907SOL     OW24619   6.442   2.658   4.394
 7907SOL    HW124620   6.355   2.616   4.420
 7907SOL    HW224621   6.447   2.663   4.294
 7908SOL     OW24622   1.109   0.756   3.616
 7908SOL    HW124623   1.097   0.816   3.696
 7908SOL    HW224624   1.021   0.741   3.572
 7909SOL     OW24625   4.903   3.765   4.855
 7909SOL    HW124626   4.867   3.858   4.862
 7909SOL    HW224627   4.866   3.709   4.930
 7910SOL     OW24628   4.064   2.958   5.362
 7910SOL    HW124629   4.154   2.924   5.391
 7910SOL    HW224630   3.993   2.893   5.389
 7911SOL     OW24631   6.861   4.886   0.739
 7911SOL    HW124632   6.945   4.928   0.704
 7911SOL    HW224633   6.828   4.818   0.674
 7912SOL     OW24634   6.418   5.472   6.722
 7912SOL    HW124635   6.409   5.571   6.729
 7912SOL    HW224636   6.389   5.429   6.807
 7913SOL     OW24637   0.457   5.379   6.276
 7913SOL    HW124638   0.455   5.479   6.265
 7913SOL    HW224639   0.373   5.340   6.237
 7914SOL     OW24640   6.619   5.144   0.939
 7914SOL    HW124641   6.601   5.095   0.853
 7914SOL    HW224642   6.533   5.181   0.975
 7915SOL     OW24643   4.988   2.268   2.793
 7915SOL    HW124644   4.987   2.225   2.883
 7915SOL    HW224645   4.910   2.330   2.785
 7916SOL     OW24646   5.462   3.562   5.533
 7916SOL    HW124647   5.519   3.493   5.578
 7916SOL    HW224648   5.488   3.653   5.567
 7917SOL     OW24649   4.125   3.463   4.189
 7917SOL    HW124650   4.032   3.451   4.154
 7917SOL    HW224651   4.157   3.555   4.168
 7918SOL     OW24652   5.902   1.598   1.452
 7918SOL    HW124653   5.957   1.556   1.524
 7918SOL    HW224654   5.878   1.529   1.384
 7919SOL     OW24655   6.373   4.013   3.109
 7919SOL    HW124656   6.374   4.049   3.016
 7919SOL    HW224657   6.279   3.994   3.136
 7920SOL     OW24658   7.009   4.600   1.712
 7920SOL    HW124659   0.025   4.648   1.631
 7920SOL    HW224660   0.052   4.616   1.789
 7921SOL     OW24661   3.128   6.550   1.234
 7921SOL    HW124662   3.167   6.459   1.234
 7921SOL    HW224663   3.162   6.602   1.156
 7922SOL     OW24664   6.718   5.628   0.139
 7922SOL    HW124665   6.747   5.701   0.201
 7922SOL    HW224666   6.752   5.647   0.047
 7923SOL     OW24667   1.790   1.548   2.944
 7923SOL    HW124668   1.733   1.515   3.020
 7923SOL    HW224669   1.829   1.636   2.969
 7924SOL     OW24670   2.706   6.239   3.871
 7924SOL    HW124671   2.654   6.321   3.897
 7924SOL    HW224672   2.707   6.230   3.772
 7925SOL     OW24673   6.712   1.879   6.279
 7925SOL    HW124674   6.742   1.810   6.345
 7925SOL    HW224675   6.618   1.861   6.252
 7926SOL     OW24676   3.268   0.599   3.715
 7926SOL    HW124677   3.214   0.574   3.635
 7926SOL    HW224678   3.236   0.685   3.753
 7927SOL     OW24679   4.355   5.455   4.962
 7927SOL    HW124680   4.276   5.502   4.921
 7927SOL    HW224681   4.395   5.394   4.894
 7928SOL     OW24682   1.710   4.778   3.111
 7928SOL    HW124683   1.799   4.814   3.083
 7928SOL    HW224684   1.703   4.780   3.211
 7929SOL     OW24685   4.103   3.728   4.362
 7929SOL    HW124686   4.035   3.662   4.394
 7929SOL    HW224687   4.147   3.771   4.441
 7930SOL     OW24688   4.819   5.703   3.792
 7930SOL    HW124689   4.811   5.733   3.697
 7930SOL    HW224690   4.743   5.739   3.845
 7931SOL     OW24691   1.879   2.737   6.983
 7931SOL    HW124692   1.885   2.742   0.065
 7931SOL    HW224693   1.967   2.760   6.943
 7932SOL     OW24694   2.532   0.548   0.128
 7932SOL    HW124695   2.477   0.466   0.111
 7932SOL    HW224696   2.526   0.572   0.225
 7933SOL     OW24697   1.028   6.382   6.788
 7933SOL    HW124698   1.001   6.298   6.740
 7933SOL    HW224699   0.950   6.444   6.792
 7934SOL     OW24700   2.411   3.178   0.567
 7934SOL    HW124701   2.473   3.199   0.642
 7934SOL    HW224702   2.358   3.259   0.543
 7935SOL     OW24703   4.740   5.833   6.998
 7935SOL    HW124704   4.810   5.856   0.047
 7935SOL    HW224705   4.782   5.829   6.907
 7936SOL     OW24706   3.690   6.009   3.221
 7936SOL    HW124707   3.673   6.091   3.166
 7936SOL    HW224708   3.607   5.985   3.271
 7937SOL     OW24709   5.237   0.025   5.098
 7937SOL    HW124710   5.294   7.015   5.175
 7937SOL    HW224711   5.211   6.964   5.044
 7938SOL     OW24712   4.559   4.909   4.718
 7938SOL    HW124713   4.498   4.853   4.774
 7938SOL    HW224714   4.505   4.976   4.668
 7939SOL     OW24715   1.030   1.281   5.721
 7939SOL    HW124716   0.959   1.223   5.761
 7939SOL    HW224717   1.067   1.238   5.639
 7940SOL     OW24718   2.681   5.200   1.901
 7940SOL    HW124719   2.711   5.105   1.898
 7940SOL    HW224720   2.645   5.220   1.992
 7941SOL     OW24721   6.973   0.798   1.092
 7941SOL    HW124722   0.054   0.805   1.081
 7941SOL    HW224723   6.930   0.885   1.068
 7942SOL     OW24724   0.545   6.442   1.878
 7942SOL    HW124725   0.572   6.520   1.934
 7942SOL    HW224726   0.446   6.442   1.866
 7943SOL     OW24727   5.709   2.031   1.377
 7943SOL    HW124728   5.717   2.111   1.436
 7943SOL    HW224729   5.612   2.015   1.355
 7944SOL     OW24730   0.168   3.187   1.473
 7944SOL    HW124731   0.189   3.208   1.568
 7944SOL    HW224732   0.231   3.236   1.413
 7945SOL     OW24733   5.130   0.287   2.557
 7945SOL    HW124734   5.196   0.264   2.628
 7945SOL    HW224735   5.103   0.383   2.566
 7946SOL     OW24736   1.800   2.031   5.922
 7946SOL    HW124737   1.868   2.097   5.891
 7946SOL    HW224738   1.846   1.959   5.975
 7947SOL     OW24739   3.950   2.979   6.720
 7947SOL    HW124740   4.038   3.025   6.727
 7947SOL    HW224741   3.964   2.881   6.708
 7948SOL     OW24742   6.864   6.935   0.620
 7948SOL    HW124743   6.787   6.939   0.685
 7948SOL    HW224744   6.832   6.895   0.534
 7949SOL     OW24745   5.297   4.701   4.438
 7949SOL    HW124746   5.334   4.682   4.347
 7949SOL    HW224747   5.282   4.799   4.449
 7950SOL     OW24748   4.532   5.056   3.411
 7950SOL    HW124749   4.463   5.012   3.354
 7950SOL    HW224750   4.522   5.155   3.405
 7951SOL     OW24751   2.495   3.553   1.056
 7951SOL    HW124752   2.494   3.642   1.102
 7951SOL    HW224753   2.589   3.523   1.043
 7952SOL     OW24754   6.684   3.014   6.568
 7952SOL    HW124755   6.655   2.922   6.594
 7952SOL    HW224756   6.694   3.070   6.650
 7953SOL     OW24757   1.955   2.770   3.056
 7953SOL    HW124758   2.042   2.784   3.103
 7953SOL    HW224759   1.908   2.690   3.093
 7954SOL     OW24760   4.491   5.429   4.615
 7954SOL    HW124761   4.398   5.407   4.585
 7954SOL    HW224762   4.552   5.431   4.536
 7955SOL     OW24763   0.047   6.437   6.819
 7955SOL    HW124764   0.137   6.479   6.829
 7955SOL    HW224765   0.029   6.377   6.897
 7956SOL     OW24766   0.529   6.060   3.481
 7956SOL    HW124767   0.535   6.060   3.382
 7956SOL    HW224768   0.552   6.151   3.516
 7957SOL     OW24769   1.679   1.834   0.307
 7957SOL    HW124770   1.614   1.773   0.261
 7957SOL    HW224771   1.719   1.896   0.240
 7958SOL     OW24772   3.803   5.869   4.472
 7958SOL    HW124773   3.802   5.856   4.571
 7958SOL    HW224774   3.713   5.901   4.442
 7959SOL     OW24775   5.496   4.422   0.497
 7959SOL    HW124776   5.547   4.406   0.413
 7959SOL    HW224777   5.399   4.403   0.481
 7960SOL     OW24778   3.442   1.816   1.357
 7960SOL    HW124779   3.372   1.887   1.348
 7960SOL    HW224780   3.528   1.850   1.320
 7961SOL     OW24781   1.893   6.581   6.350
 7961SOL    HW124782   1.876   6.525   6.431
 7961SOL    HW224783   1.848   6.539   6.271
 7962SOL     OW24784   2.248   0.810   0.857
 7962SOL    HW124785   2.218   0.864   0.778
 7962SOL    HW224786   2.348   0.805   0.858
 7963SOL     OW24787   0.267   1.263   5.338
 7963SOL    HW124788   0.232   1.206   5.413
 7963SOL    HW224789   0.216   1.349   5.336
 7964SOL     OW24790   5.687   4.932   3.788
 7964SOL    HW124791   5.690   4.918   3.887
 7964SOL    HW224792   5.739   5.014   3.765
 7965SOL     OW24793   4.087   2.408   6.988
 7965SOL    HW124794   4.092   2.438   6.893
 7965SOL    HW224795   4.071   2.487   0.029
 7966SOL     OW24796   1.407   4.096   5.000
 7966SOL    HW124797   1.466   4.019   5.023
 7966SOL    HW224798   1.322   4.089   5.052
 7967SOL     OW24799   2.923   5.677   3.434
 7967SOL    HW124800   2.924   5.589   3.482
 7967SOL    HW224801   2.920   5.752   3.501
 7968SOL     OW24802   2.517   2.585   3.419
 7968SOL    HW124803   2.586   2.559   3.487
 7968SOL    HW224804   2.451   2.646   3.462
 7969SOL     OW24805   3.641   0.046   2.371
 7969SOL    HW124806   3.664   6.998   2.300
 7969SOL    HW224807   3.542   0.057   2.376
 7970SOL     OW24808   0.322   3.803   2.988
 7970SOL    HW124809   0.309   3.889   3.037
 7970SOL    HW224810   0.263   3.801   2.907
 7971SOL     OW24811   2.906   1.087   2.394
 7971SOL    HW124812   3.001   1.066   2.415
 7971SOL    HW224813   2.902   1.144   2.312
 7972SOL     OW24814   6.393   4.459   1.231
 7972SOL    HW124815   6.448   4.456   1.147
 7972SOL    HW224816   6.385   4.367   1.268
 7973SOL     OW24817   5.420   3.482   3.710
 7973SOL    HW124818   5.502   3.505   3.762
 7973SOL    HW224819   5.401   3.554   3.644
 7974SOL     OW24820   5.645   0.391   4.522
 7974SOL    HW124821   5.717   0.459   4.533
 7974SOL    HW224822   5.648   0.325   4.597
 7975SOL     OW24823   4.426   0.832   4.196
 7975SOL    HW124824   4.392   0.754   4.249
 7975SOL    HW224825   4.355   0.902   4.191
 7976SOL     OW24826   0.710   6.774   5.417
 7976SOL    HW124827   0.648   6.741   5.345
 7976SOL    HW224828   0.801   6.736   5.403
 7977SOL     OW24829   4.648   5.900   2.744
 7977SOL    HW124830   4.648   5.898   2.644
 7977SOL    HW224831   4.611   5.987   2.776
 7978SOL     OW24832   4.695   4.167   6.457
 7978SOL    HW124833   4.650   4.253   6.482
 7978SOL    HW224834   4.687   4.152   6.358
 7979SOL     OW24835   3.331   0.280   4.747
 7979SOL    HW124836   3.376   0.192   4.736
 7979SOL    HW224837   3.399   0.353   4.741
 7980SOL     OW24838   3.614   5.809   0.313
 7980SOL    HW124839   3.712   5.789   0.322
 7980SOL    HW224840   3.591   5.814   0.216
 7981SOL     OW24841   0.835   5.179   1.790
 7981SOL    HW124842   0.878   5.262   1.824
 7981SOL    HW224843   0.736   5.190   1.791
 7982SOL     OW24844   6.849   2.324   0.560
 7982SOL    HW124845   6.930   2.357   0.511
 7982SOL    HW224846   6.798   2.402   0.596
 7983SOL     OW24847   5.741   1.733   3.359
 7983SOL    HW124848   5.689   1.665   3.410
 7983SOL    HW224849   5.765   1.809   3.419
 7984SOL     OW24850   0.960   1.988   1.871
 7984SOL    HW124851   0.884   2.043   1.839
 7984SOL    HW224852   1.029   2.047   1.912
 7985SOL     OW24853   1.567   0.486   2.213
 7985SOL    HW124854   1.523   0.545   2.280
 7985SOL    HW224855   1.607   0.543   2.140
 7986SOL     OW24856   3.673   1.278   6.823
 7986SOL    HW124857   3.575   1.294   6.828
 7986SOL    HW224858   3.705   1.237   6.908
 7987SOL     OW24859   0.265   3.408   5.688
 7987SOL    HW124860   0.205   3.407   5.608
 7987SOL    HW224861   0.330   3.484   5.679
 7988SOL     OW24862   2.576   2.346   5.032
 7988SOL    HW124863   2.564   2.361   5.130
 7988SOL    HW224864   2.637   2.268   5.017
 7989SOL     OW24865   3.408   2.796   5.177
 7989SOL    HW124866   3.407   2.873   5.242
 7989SOL    HW224867   3.341   2.728   5.205
 7990SOL     OW24868   1.098   3.320   3.858
 7990SOL    HW124869   1.033   3.296   3.930
 7990SOL    HW224870   1.119   3.417   3.864
 7991SOL     OW24871   0.075   2.795   6.239
 7991SOL    HW124872   0.042   2.821   6.330
 7991SOL    HW224873   0.145   2.723   6.249
 7992SOL     OW24874   1.282   6.474   1.097
 7992SOL    HW124875   1.226   6.557   1.097
 7992SOL    HW224876   1.372   6.494   1.058
 7993SOL     OW24877   2.086   5.651   6.934
 7993SOL    HW124878   2.017   5.606   6.991
 7993SOL    HW224879   2.056   5.744   6.913
 7994SOL     OW24880   4.662   0.777   4.060
 7994SOL    HW124881   4.734   0.772   4.130
 7994SOL    HW224882   4.576   0.802   4.104
 7995SOL     OW24883   4.278   5.766   4.091
 7995SOL    HW124884   4.182   5.739   4.098
 7995SOL    HW224885   4.309   5.756   3.996
 7996SOL     OW24886   3.514   6.585   4.361
 7996SOL    HW124887   3.468   6.534   4.288
 7996SOL    HW224888   3.602   6.619   4.327
 7997SOL     OW24889   6.502   1.749   1.150
 7997SOL    HW124890   6.518   1.826   1.211
 7997SOL    HW224891   6.528   1.664   1.195
 7998SOL     OW24892   4.924   5.176   0.167
 7998SOL    HW124893   4.980   5.142   0.243
 7998SOL    HW224894   4.979   5.180   0.084
 7999SOL     OW24895   1.234   0.102   4.894
 7999SOL    HW124896   1.305   0.087   4.963
 7999SOL    HW224897   1.146   0.066   4.928
 8000SOL     OW24898   5.690   0.245   6.461
 8000SOL    HW124899   5.763   0.306   6.491
 8000SOL    HW224900   5.603   0.294   6.459
 8001SOL     OW24901   2.472   6.125   1.611
 8001SOL    HW124902   2.410   6.083   1.676
 8001SOL    HW224903   2.550   6.064   1.595
 8002SOL     OW24904   0.133   3.461   5.192
 8002SOL    HW124905   0.186   3.530   5.142
 8002SOL    HW224906   0.119   3.380   5.135
 8003SOL     OW24907   2.958   4.922   2.521
 8003SOL    HW124908   3.038   4.978   2.499
 8003SOL    HW224909   2.934   4.935   2.617
 8004SOL     OW24910   2.142   4.343   3.075
 8004SOL    HW124911   2.182   4.281   3.007
 8004SOL    HW224912   2.111   4.426   3.029
 8005SOL     OW24913   3.326   1.142   2.338
 8005SOL    HW124914   3.308   1.239   2.352
 8005SOL    HW224915   3.286   1.090   2.413
 8006SOL     OW24916   2.541   6.013   0.342
 8006SOL    HW124917   2.492   6.081   0.287
 8006SOL    HW224918   2.623   5.984   0.293
 8007SOL     OW24919   0.773   0.289   3.893
 8007SOL    HW124920   0.810   0.315   3.803
 8007SOL    HW224921   0.840   0.233   3.942
 8008SOL     OW24922   5.286   6.430   6.396
 8008SOL    HW124923   5.217   6.361   6.418
 8008SOL    HW224924   5.326   6.409   6.307
 8009SOL     OW24925   6.413   0.597   2.854
 8009SOL    HW124926   6.391   0.643   2.940
 8009SOL    HW224927   6.474   0.520   2.871
 8010SOL     OW24928   2.639   1.581   6.802
 8010SOL    HW124929   2.717   1.604   6.743
 8010SOL    HW224930   2.605   1.664   6.846
 8011SOL     OW24931   2.357   2.100   1.354
 8011SOL    HW124932   2.348   2.131   1.448
 8011SOL    HW224933   2.291   2.027   1.336
 8012SOL     OW24934   1.366   6.115   1.203
 8012SOL    HW124935   1.342   6.095   1.298
 8012SOL    HW224936   1.453   6.072   1.181
 8013SOL     OW24937   6.018   4.883   4.489
 8013SOL    HW124938   6.029   4.975   4.451
 8013SOL    HW224939   6.025   4.816   4.415
 8014SOL     OW24940   1.440   5.814   6.367
 8014SOL    HW124941   1.365   5.795   6.304
 8014SOL    HW224942   1.507   5.739   6.364
 8015SOL     OW24943   3.015   2.466   0.838
 8015SOL    HW124944   3.017   2.514   0.925
 8015SOL    HW224945   2.926   2.478   0.795
 8016SOL     OW24946   4.541   0.367   0.389
 8016SOL    HW124947   4.590   0.286   0.423
 8016SOL    HW224948   4.525   0.430   0.465
 8017SOL     OW24949   0.361   4.242   5.661
 8017SOL    HW124950   0.273   4.211   5.696
 8017SOL    HW224951   0.374   4.339   5.682
 8018SOL     OW24952   5.074   1.942   5.665
 8018SOL    HW124953   5.043   1.862   5.715
 8018SOL    HW224954   5.139   1.993   5.721
 8019SOL     OW24955   1.599   4.479   0.591
 8019SOL    HW124956   1.672   4.514   0.650
 8019SOL    HW224957   1.555   4.401   0.635
 8020SOL     OW24958   5.563   6.317   6.638
 8020SOL    HW124959   5.616   6.386   6.589
 8020SOL    HW224960   5.599   6.226   6.617
 8021SOL     OW24961   0.915   1.275   1.804
 8021SOL    HW124962   1.004   1.250   1.844
 8021SOL    HW224963   0.924   1.360   1.753
 8022SOL     OW24964   4.128   1.001   2.840
 8022SOL    HW124965   4.086   1.089   2.822
 8022SOL    HW224966   4.213   0.992   2.788
 8023SOL     OW24967   6.232   6.647   2.838
 8023SOL    HW124968   6.229   6.576   2.908
 8023SOL    HW224969   6.319   6.643   2.789
 8024SOL     OW24970   3.723   5.232   6.479
 8024SOL    HW124971   3.690   5.326   6.479
 8024SOL    HW224972   3.739   5.202   6.573
 8025SOL     OW24973   3.446   6.482   6.233
 8025SOL    HW124974   3.491   6.510   6.149
 8025SOL    HW224975   3.481   6.537   6.309
 8026SOL     OW24976   0.362   4.007   6.919
 8026SOL    HW124977   0.357   4.093   6.868
 8026SOL    HW224978   0.274   3.959   6.912
 8027SOL     OW24979   4.859   2.260   5.085
 8027SOL    HW124980   4.805   2.318   5.025
 8027SOL    HW224981   4.914   2.317   5.146
 8028SOL     OW24982   4.350   5.267   5.998
 8028SOL    HW124983   4.293   5.185   5.994
 8028SOL    HW224984   4.298   5.342   6.038
 8029SOL     OW24985   5.088   4.436   6.412
 8029SOL    HW124986   5.040   4.403   6.330
 8029SOL    HW224987   5.117   4.358   6.467
 8030SOL     OW24988   5.281   4.317   5.774
 8030SOL    HW124989   5.289   4.360   5.684
 8030SOL    HW224990   5.301   4.384   5.845
 8031SOL     OW24991   4.449   5.116   2.373
 8031SOL    HW124992   4.416   5.036   2.424
 8031SOL    HW224993   4.473   5.088   2.280
 8032SOL     OW24994   6.152   3.692   4.964
 8032SOL    HW124995   6.058   3.688   4.930
 8032SOL    HW224996   6.164   3.775   5.019
 8033SOL     OW24997   5.370   2.802   6.931
 8033SOL    HW124998   5.454   2.752   6.951
 8033SOL    HW224999   5.291   2.750   6.964
 8034SOL     OW25000   6.535   0.210   5.093
 8034SOL    HW125001   6.452   0.241   5.140
 8034SOL    HW225002   6.609   0.275   5.108
 8035SOL     OW25003   5.706   6.406   5.460
 8035SOL    HW125004   5.631   6.357   5.504
 8035SOL    HW225005   5.791   6.392   5.512
 8036SOL     OW25006   1.908   3.589   1.479
 8036SOL    HW125007   1.996   3.557   1.514
 8036SOL    HW225008   1.862   3.644   1.549
 8037SOL     OW25009   1.887   3.311   1.131
 8037SOL    HW125010   1.970   3.367   1.137
 8037SOL    HW225011   1.910   3.219   1.101
 8038SOL     OW25012   5.993   2.120   3.424
 8038SOL    HW125013   6.072   2.058   3.423
 8038SOL    HW225014   6.024   2.213   3.442
 8039SOL     OW25015   1.490   6.791   2.983
 8039SOL    HW125016   1.456   6.850   3.056
 8039SOL    HW225017   1.563   6.733   3.019
 8040SOL     OW25018   0.533   5.441   0.730
 8040SOL    HW125019   0.627   5.448   0.763
 8040SOL    HW225020   0.480   5.518   0.765
 8041SOL     OW25021   3.589   1.652   1.036
 8041SOL    HW125022   3.575   1.614   1.128
 8041SOL    HW225023   3.679   1.626   1.002
 8042SOL     OW25024   3.556   3.000   1.982
 8042SOL    HW125025   3.616   2.939   2.036
 8042SOL    HW225026   3.612   3.070   1.938
 8043SOL     OW25027   2.574   0.609   0.775
 8043SOL    HW125028   2.494   0.552   0.793
 8043SOL    HW225029   2.655   0.566   0.814
 8044SOL     OW25030   3.231   2.893   1.275
 8044SOL    HW125031   3.214   2.979   1.324
 8044SOL    HW225032   3.326   2.864   1.290
 8045SOL     OW25033   5.784   1.343   2.738
 8045SOL    HW125034   5.877   1.349   2.704
 8045SOL    HW225035   5.782   1.365   2.836
 8046SOL     OW25036   5.525   4.425   5.908
 8046SOL    HW125037   5.495   4.498   5.846
 8046SOL    HW225038   5.622   4.436   5.929
 8047SOL     OW25039   3.548   5.395   4.904
 8047SOL    HW125040   3.536   5.386   5.003
 8047SOL    HW225041   3.578   5.307   4.866
 8048SOL     OW25042   5.526   0.978   5.276
 8048SOL    HW125043   5.458   0.907   5.261
 8048SOL    HW225044   5.491   1.043   5.345
 8049SOL     OW25045   0.822   6.452   1.202
 8049SOL    HW125046   0.767   6.393   1.261
 8049SOL    HW225047   0.834   6.541   1.247
 8050SOL     OW25048   1.575   3.065   1.176
 8050SOL    HW125049   1.638   3.083   1.100
 8050SOL    HW225050   1.500   3.007   1.143
 8051SOL     OW25051   5.003   6.977   3.279
 8051SOL    HW125052   4.960   0.046   3.304
 8051SOL    HW225053   4.933   6.910   3.259
 8052SOL     OW25054   3.437   1.646   2.266
 8052SOL    HW125055   3.337   1.647   2.258
 8052SOL    HW225056   3.464   1.688   2.352
 8053SOL     OW25057   3.865   3.737   2.833
 8053SOL    HW125058   3.960   3.709   2.822
 8053SOL    HW225059   3.807   3.656   2.846
 8054SOL     OW25060   4.467   6.826   4.675
 8054SOL    HW125061   4.448   6.922   4.652
 8054SOL    HW225062   4.398   6.793   4.740
 8055SOL     OW25063   0.372   0.459   6.122
 8055SOL    HW125064   0.328   0.443   6.034
 8055SOL    HW225065   0.466   0.426   6.118
 8056SOL     OW25066   4.112   1.408   3.012
 8056SOL    HW125067   4.115   1.415   2.913
 8056SOL    HW225068   4.025   1.445   3.046
 8057SOL     OW25069   2.659   0.484   2.519
 8057SOL    HW125070   2.688   0.390   2.537
 8057SOL    HW225071   2.736   0.546   2.535
 8058SOL     OW25072   2.909   0.005   2.775
 8058SOL    HW125073   2.972   0.032   2.701
 8058SOL    HW225074   2.899   0.080   2.839
 8059SOL     OW25075   3.824   2.081   4.636
 8059SOL    HW125076   3.833   2.088   4.536
 8059SOL    HW225077   3.900   2.129   4.679
 8060SOL     OW25078   0.457   1.390   5.129
 8060SOL    HW125079   0.418   1.300   5.152
 8060SOL    HW225080   0.547   1.378   5.088
 8061SOL     OW25081   6.738   5.651   2.463
 8061SOL    HW125082   6.731   5.639   2.562
 8061SOL    HW225083   6.651   5.686   2.427
 8062SOL     OW25084   1.562   4.365   4.455
 8062SOL    HW125085   1.572   4.465   4.448
 8062SOL    HW225086   1.466   4.342   4.467
 8063SOL     OW25087   2.120   3.882   6.908
 8063SOL    HW125088   2.211   3.872   6.868
 8063SOL    HW225089   2.087   3.974   6.892
 8064SOL     OW25090   0.301   4.720   0.062
 8064SOL    HW125091   0.315   4.622   0.045
 8064SOL    HW225092   0.329   4.742   0.156
 8065SOL     OW25093   4.407   0.071   4.599
 8065SOL    HW125094   4.311   0.052   4.583
 8065SOL    HW225095   4.418   0.113   4.690
 8066SOL     OW25096   1.635   1.078   6.814
 8066SOL    HW125097   1.577   1.147   6.773
 8066SOL    HW225098   1.625   1.079   6.913
 8067SOL     OW25099   3.902   2.913   1.611
 8067SOL    HW125100   3.957   2.832   1.592
 8067SOL    HW225101   3.857   2.944   1.527
 8068SOL     OW25102   6.495   5.710   5.122
 8068SOL    HW125103   6.486   5.711   5.023
 8068SOL    HW225104   6.491   5.803   5.157
 8069SOL     OW25105   2.557   6.006   1.331
 8069SOL    HW125106   2.473   5.962   1.365
 8069SOL    HW225107   2.636   5.951   1.357
 8070SOL     OW25108   3.027   5.587   1.457
 8070SOL    HW125109   3.007   5.495   1.491
 8070SOL    HW225110   2.953   5.618   1.397
 8071SOL     OW25111   4.285   6.741   5.161
 8071SOL    HW125112   4.291   6.643   5.147
 8071SOL    HW225113   4.211   6.762   5.225
 8072SOL     OW25114   4.489   1.257   0.510
 8072SOL    HW125115   4.484   1.320   0.433
 8072SOL    HW225116   4.444   1.171   0.487
 8073SOL     OW25117   4.790   0.048   6.263
 8073SOL    HW125118   4.849   0.125   6.289
 8073SOL    HW225119   4.844   6.982   6.264
 8074SOL     OW25120   2.858   3.340   0.499
 8074SOL    HW125121   2.913   3.336   0.582
 8074SOL    HW225122   2.771   3.385   0.518
 8075SOL     OW25123   6.739   1.310   1.652
 8075SOL    HW125124   6.780   1.338   1.565
 8075SOL    HW225125   6.810   1.278   1.714
 8076SOL     OW25126   4.852   2.441   5.435
 8076SOL    HW125127   4.883   2.535   5.441
 8076SOL    HW225128   4.797   2.429   5.352
 8077SOL     OW25129   0.820   6.727   1.264
 8077SOL    HW125130   0.833   6.797   1.334
 8077SOL    HW225131   0.783   6.769   1.181
 8078SOL     OW25132   6.588   1.589   0.443
 8078SOL    HW125133   6.622   1.674   0.403
 8078SOL    HW225134   6.590   1.597   0.543
 8079SOL     OW25135   6.470   2.218   2.986
 8079SOL    HW125136   6.537   2.235   3.058
 8079SOL    HW225137   6.489   2.279   2.909
 8080SOL     OW25138   1.971   3.554   0.596
 8080SOL    HW125139   1.926   3.533   0.682
 8080SOL    HW225140   1.948   3.647   0.568
 8081SOL     OW25141   5.526   1.386   5.483
 8081SOL    HW125142   5.625   1.381   5.491
 8081SOL    HW225143   5.487   1.294   5.483
 8082SOL     OW25144   5.741   2.523   3.195
 8082SOL    HW125145   5.831   2.484   3.217
 8082SOL    HW225146   5.698   2.557   3.279
 8083SOL     OW25147   5.175   3.433   2.219
 8083SOL    HW125148   5.220   3.507   2.168
 8083SOL    HW225149   5.130   3.371   2.154
 8084SOL     OW25150   6.631   6.032   1.296
 8084SOL    HW125151   6.608   6.129   1.305
 8084SOL    HW225152   6.639   5.992   1.387
 8085SOL     OW25153   5.634   6.790   1.219
 8085SOL    HW125154   5.554   6.734   1.199
 8085SOL    HW225155   5.635   6.870   1.159
 8086SOL     OW25156   4.176   0.243   4.131
 8086SOL    HW125157   4.204   0.216   4.223
 8086SOL    HW225158   4.224   0.328   4.105
 8087SOL     OW25159   2.698   2.355   1.141
 8087SOL    HW125160   2.652   2.268   1.122
 8087SOL    HW225161   2.753   2.346   1.224
 8088SOL     OW25162   6.037   1.086   1.839
 8088SOL    HW125163   5.966   1.156   1.833
 8088SOL    HW225164   6.059   1.068   1.935
 8089SOL     OW25165   4.986   3.327   0.164
 8089SOL    HW125166   4.987   3.295   0.069
 8089SOL    HW225167   4.937   3.414   0.169
 8090SOL     OW25168   5.348   2.085   6.462
 8090SOL    HW125169   5.368   2.145   6.384
 8090SOL    HW225170   5.355   1.990   6.433
 8091SOL     OW25171   3.183   4.633   0.015
 8091SOL    HW125172   3.145   4.723   0.038
 8091SOL    HW225173   3.108   4.568   0.004
 8092SOL     OW25174   1.099   1.221   4.635
 8092SOL    HW125175   1.006   1.228   4.673
 8092SOL    HW225176   1.165   1.218   4.710
 8093SOL     OW25177   6.481   5.587   1.151
 8093SOL    HW125178   6.421   5.657   1.189
 8093SOL    HW225179   6.431   5.502   1.140
 8094SOL     OW25180   1.785   4.310   6.156
 8094SOL    HW125181   1.803   4.217   6.122
 8094SOL    HW225182   1.687   4.320   6.173
 8095SOL     OW25183   5.911   3.637   4.621
 8095SOL    HW125184   5.840   3.570   4.640
 8095SOL    HW225185   5.951   3.618   4.531
 8096SOL     OW25186   2.776   5.642   2.969
 8096SOL    HW125187   2.865   5.623   2.927
 8096SOL    HW225188   2.790   5.674   3.063
 8097SOL     OW25189   4.931   0.193   3.363
 8097SOL    HW125190   4.969   0.251   3.434
 8097SOL    HW225191   4.844   0.230   3.332
 8098SOL     OW25192   2.414   5.659   4.013
 8098SOL    HW125193   2.377   5.727   3.951
 8098SOL    HW225194   2.369   5.667   4.102
 8099SOL     OW25195   6.189   0.218   4.062
 8099SOL    HW125196   6.090   0.225   4.075
 8099SOL    HW225197   6.235   0.241   4.149
 8100SOL     OW25198   0.402   6.679   0.316
 8100SOL    HW125199   0.480   6.683   0.253
 8100SOL    HW225200   0.431   6.638   0.402
 8101SOL     OW25201   1.451   6.974   5.257
 8101SOL    HW125202   1.478   7.003   5.166
 8101SOL    HW225203   1.373   6.911   5.251
 8102SOL     OW25204   0.633   5.196   6.321
 8102SOL    HW125205   0.576   5.278   6.329
 8102SOL    HW225206   0.727   5.218   6.347
 8103SOL     OW25207   4.218   1.491   1.803
 8103SOL    HW125208   4.196   1.585   1.830
 8103SOL    HW225209   4.300   1.461   1.851
 8104SOL     OW25210   3.843   6.885   5.655
 8104SOL    HW125211   3.873   6.912   5.747
 8104SOL    HW225212   3.923   6.874   5.596
 8105SOL     OW25213   2.502   2.224   3.747
 8105SOL    HW125214   2.441   2.249   3.672
 8105SOL    HW225215   2.584   2.180   3.710
 8106SOL     OW25216   1.473   4.527   3.370
 8106SOL    HW125217   1.459   4.433   3.400
 8106SOL    HW225218   1.419   4.544   3.287
 8107SOL     OW25219   2.178   6.222   5.979
 8107SOL    HW125220   2.149   6.127   5.973
 8107SOL    HW225221   2.165   6.267   5.891
 8108SOL     OW25222   6.826   3.577   4.505
 8108SOL    HW125223   6.839   3.595   4.407
 8108SOL    HW225224   6.789   3.659   4.549
 8109SOL     OW25225   2.278   4.988   5.227
 8109SOL    HW125226   2.304   4.903   5.181
 8109SOL    HW225227   2.207   4.969   5.295
 8110SOL     OW25228   2.155   6.298   0.480
 8110SOL    HW125229   2.199   6.232   0.541
 8110SOL    HW225230   2.207   6.384   0.480
 8111SOL     OW25231   2.457   6.437   5.231
 8111SOL    HW125232   2.543   6.487   5.233
 8111SOL    HW225233   2.460   6.367   5.160
 8112SOL     OW25234   2.851   0.556   5.498
 8112SOL    HW125235   2.786   0.496   5.544
 8112SOL    HW225236   2.817   0.650   5.499
 8113SOL     OW25237   3.327   2.415   0.376
 8113SOL    HW125238   3.382   2.490   0.409
 8113SOL    HW225239   3.243   2.451   0.334
 8114SOL     OW25240   1.974   3.162   2.581
 8114SOL    HW125241   1.890   3.146   2.633
 8114SOL    HW225242   2.048   3.105   2.618
 8115SOL     OW25243   3.902   1.442   1.310
 8115SOL    HW125244   3.923   1.378   1.237
 8115SOL    HW225245   3.902   1.394   1.398
 8116SOL     OW25246   6.059   6.520   5.155
 8116SOL    HW125247   6.111   6.464   5.090
 8116SOL    HW225248   6.120   6.556   5.224
 8117SOL     OW25249   1.452   1.842   4.204
 8117SOL    HW125250   1.413   1.898   4.278
 8117SOL    HW225251   1.378   1.792   4.158
 8118SOL     OW25252   0.980   4.177   5.387
 8118SOL    HW125253   0.979   4.248   5.317
 8118SOL    HW225254   0.887   4.152   5.412
 8119SOL     OW25255   0.346   4.911   3.591
 8119SOL    HW125256   0.435   4.878   3.558
 8119SOL    HW225257   0.314   4.853   3.666
 8120SOL     OW25258   4.145   4.446   0.490
 8120SOL    HW125259   4.158   4.402   0.579
 8120SOL    HW225260   4.193   4.394   0.420
 8121SOL     OW25261   0.376   6.413   2.670
 8121SOL    HW125262   0.371   6.512   2.684
 8121SOL    HW225263   0.287   6.379   2.640
 8122SOL     OW25264   0.854   5.325   1.486
 8122SOL    HW125265   0.907   5.342   1.403
 8122SOL    HW225266   0.881   5.391   1.556
 8123SOL     OW25267   0.953   6.847   6.306
 8123SOL    HW125268   0.862   6.821   6.273
 8123SOL    HW225269   1.018   6.842   6.231
 8124SOL     OW25270   1.728   6.095   1.216
 8124SOL    HW125271   1.825   6.072   1.218
 8124SOL    HW225272   1.684   6.049   1.139
 8125SOL     OW25273   5.941   4.587   2.854
 8125SOL    HW125274   5.932   4.513   2.921
 8125SOL    HW225275   5.932   4.675   2.900
 8126SOL     OW25276   5.498   4.363   2.883
 8126SOL    HW125277   5.433   4.409   2.823
 8126SOL    HW225278   5.591   4.377   2.849
 8127SOL     OW25279   2.105   5.408   0.935
 8127SOL    HW125280   2.069   5.498   0.911
 8127SOL    HW225281   2.030   5.347   0.958
 8128SOL     OW25282   3.119   2.725   6.585
 8128SOL    HW125283   3.037   2.685   6.545
 8128SOL    HW225284   3.095   2.775   6.668
 8129SOL     OW25285   5.549   0.741   6.370
 8129SOL    HW125286   5.453   0.765   6.358
 8129SOL    HW225287   5.596   0.813   6.421
 8130SOL     OW25288   0.943   5.170   6.142
 8130SOL    HW125289   0.878   5.245   6.136
 8130SOL    HW225290   0.961   5.134   6.051
 8131SOL     OW25291   3.330   1.319   0.565
 8131SOL    HW125292   3.248   1.328   0.510
 8131SOL    HW225293   3.350   1.222   0.578
 8132SOL     OW25294   6.213   5.327   4.643
 8132SOL    HW125295   6.291   5.318   4.706
 8132SOL    HW225296   6.244   5.370   4.558
 8133SOL     OW25297   3.149   5.288   3.438
 8133SOL    HW125298   3.231   5.315   3.387
 8133SOL    HW225299   3.103   5.214   3.389
 8134SOL     OW25300   1.932   1.995   4.130
 8134SOL    HW125301   1.877   1.915   4.105
 8134SOL    HW225302   1.987   1.973   4.211
 8135SOL     OW25303   3.164   4.914   2.244
 8135SOL    HW125304   3.084   4.854   2.240
 8135SOL    HW225305   3.225   4.894   2.167
 8136SOL     OW25306   3.843   5.438   2.480
 8136SOL    HW125307   3.846   5.374   2.557
 8136SOL    HW225308   3.759   5.425   2.428
 8137SOL     OW25309   1.905   3.264   5.019
 8137SOL    HW125310   1.874   3.244   4.926
 8137SOL    HW225311   2.000   3.233   5.030
 8138SOL     OW25312   5.700   1.678   2.074
 8138SOL    HW125313   5.627   1.610   2.069
 8138SOL    HW225314   5.661   1.768   2.096
 8139SOL     OW25315   0.655   3.138   3.464
 8139SOL    HW125316   0.623   3.148   3.559
 8139SOL    HW225317   0.597   3.194   3.404
 8140SOL     OW25318   4.532   6.607   0.156
 8140SOL    HW125319   4.554   6.666   0.233
 8140SOL    HW225320   4.464   6.651   0.098
 8141SOL     OW25321   5.107   1.311   5.480
 8141SOL    HW125322   5.106   1.388   5.416
 8141SOL    HW225323   5.047   1.332   5.557
 8142SOL     OW25324   2.065   5.899   0.446
 8142SOL    HW125325   2.160   5.889   0.418
 8142SOL    HW225326   2.006   5.852   0.380
 8143SOL     OW25327   5.337   4.572   0.699
 8143SOL    HW125328   5.286   4.486   0.691
 8143SOL    HW225329   5.362   4.604   0.608
 8144SOL     OW25330   0.379   5.944   5.510
 8144SOL    HW125331   0.310   5.909   5.574
 8144SOL    HW225332   0.408   6.035   5.539
 8145SOL     OW25333   5.769   5.728   0.583
 8145SOL    HW125334   5.791   5.791   0.508
 8145SOL    HW225335   5.691   5.763   0.635
 8146SOL     OW25336   5.942   0.192   4.626
 8146SOL    HW125337   5.952   0.120   4.557
 8146SOL    HW225338   5.852   0.234   4.618
 8147SOL     OW25339   0.941   0.433   6.301
 8147SOL    HW125340   0.957   0.492   6.380
 8147SOL    HW225341   0.929   0.338   6.331
 8148SOL     OW25342   4.211   3.855   0.031
 8148SOL    HW125343   4.195   3.793   6.973
 8148SOL    HW225344   4.169   3.818   0.114
 8149SOL     OW25345   1.527   0.211   4.721
 8149SOL    HW125346   1.504   0.298   4.764
 8149SOL    HW225347   1.575   0.228   4.635
 8150SOL     OW25348   0.985   3.149   1.004
 8150SOL    HW125349   0.954   3.058   1.032
 8150SOL    HW225350   0.929   3.181   0.928
 8151SOL     OW25351   6.052   4.752   3.700
 8151SOL    HW125352   6.034   4.706   3.787
 8151SOL    HW225353   6.136   4.806   3.708
 8152SOL     OW25354   4.491   1.894   3.220
 8152SOL    HW125355   4.401   1.851   3.220
 8152SOL    HW225356   4.560   1.826   3.245
 8153SOL     OW25357   0.928   0.311   3.652
 8153SOL    HW125358   1.022   0.304   3.621
 8153SOL    HW225359   0.869   0.254   3.595
 8154SOL     OW25360   2.420   1.576   3.430
 8154SOL    HW125361   2.326   1.556   3.404
 8154SOL    HW225362   2.483   1.529   3.368
 8155SOL     OW25363   1.544   4.330   2.237
 8155SOL    HW125364   1.486   4.259   2.198
 8155SOL    HW225365   1.495   4.375   2.312
 8156SOL     OW25366   5.963   5.398   1.073
 8156SOL    HW125367   5.927   5.443   1.155
 8156SOL    HW225368   6.052   5.437   1.049
 8157SOL     OW25369   6.107   3.523   5.971
 8157SOL    HW125370   6.122   3.492   6.065
 8157SOL    HW225371   6.192   3.563   5.936
 8158SOL     OW25372   5.584   4.859   6.192
 8158SOL    HW125373   5.606   4.947   6.236
 8158SOL    HW225374   5.565   4.791   6.262
 8159SOL     OW25375   3.983   6.682   5.893
 8159SOL    HW125376   4.030   6.687   5.805
 8159SOL    HW225377   3.938   6.770   5.912
 8160SOL     OW25378   5.302   1.536   3.286
 8160SOL    HW125379   5.345   1.598   3.352
 8160SOL    HW225380   5.248   1.467   3.334
 8161SOL     OW25381   5.478   3.684   0.346
 8161SOL    HW125382   5.420   3.705   0.425
 8161SOL    HW225383   5.428   3.626   0.282
 8162SOL     OW25384   0.112   5.083   6.962
 8162SOL    HW125385   0.095   5.114   0.037
 8162SOL    HW225386   0.028   5.093   6.908
 8163SOL     OW25387   4.190   4.730   5.534
 8163SOL    HW125388   4.156   4.688   5.617
 8163SOL    HW225389   4.240   4.662   5.480
 8164SOL     OW25390   4.613   0.438   0.021
 8164SOL    HW125391   4.626   0.521   6.985
 8164SOL    HW225392   4.670   0.364   7.001
 8165SOL     OW25393   6.421   3.139   6.385
 8165SOL    HW125394   6.433   3.210   6.453
 8165SOL    HW225395   6.507   3.088   6.373
 8166SOL     OW25396   1.666   2.164   3.925
 8166SOL    HW125397   1.620   2.077   3.939
 8166SOL    HW225398   1.698   2.200   4.012
 8167SOL     OW25399   6.354   1.261   3.993
 8167SOL    HW125400   6.453   1.250   4.000
 8167SOL    HW225401   6.311   1.224   4.075
 8168SOL     OW25402   2.177   0.694   1.314
 8168SOL    HW125403   2.163   0.745   1.229
 8168SOL    HW225404   2.143   0.601   1.302
 8169SOL     OW25405   4.640   1.731   0.013
 8169SOL    HW125406   4.678   1.758   0.101
 8169SOL    HW225407   4.659   1.634   7.016
 8170SOL     OW25408   6.880   3.888   2.048
 8170SOL    HW125409   6.850   3.953   1.977
 8170SOL    HW225410   6.950   3.931   2.105
 8171SOL     OW25411   1.671   1.399   6.952
 8171SOL    HW125412   1.625   1.317   6.986
 8171SOL    HW225413   1.614   1.443   6.882
 8172SOL     OW25414   0.485   1.955   1.718
 8172SOL    HW125415   0.527   1.958   1.808
 8172SOL    HW225416   0.548   1.913   1.653
 8173SOL     OW25417   5.907   2.461   2.523
 8173SOL    HW125418   5.811   2.432   2.525
 8173SOL    HW225419   5.962   2.393   2.475
 8174SOL     OW25420   1.413   6.082   2.282
 8174SOL    HW125421   1.412   6.170   2.328
 8174SOL    HW225422   1.419   6.097   2.183
 8175SOL     OW25423   1.101   2.389   4.198
 8175SOL    HW125424   1.124   2.296   4.170
 8175SOL    HW225425   1.167   2.452   4.158
 8176SOL     OW25426   1.902   4.197   1.327
 8176SOL    HW125427   1.878   4.101   1.344
 8176SOL    HW225428   2.001   4.207   1.330
 8177SOL     OW25429   3.503   1.183   3.074
 8177SOL    HW125430   3.569   1.114   3.046
 8177SOL    HW225431   3.487   1.246   2.998
 8178SOL     OW25432   2.753   6.488   0.519
 8178SOL    HW125433   2.795   6.579   0.522
 8178SOL    HW225434   2.824   6.420   0.503
 8179SOL     OW25435   5.248   0.664   4.510
 8179SOL    HW125436   5.317   0.624   4.449
 8179SOL    HW225437   5.289   0.738   4.562
 8180SOL     OW25438   5.669   6.807   6.649
 8180SOL    HW125439   5.573   6.822   6.627
 8180SOL    HW225440   5.726   6.866   6.592
 8181SOL     OW25441   0.902   0.988   0.641
 8181SOL    HW125442   0.845   0.940   0.708
 8181SOL    HW225443   0.993   1.002   0.679
 8182SOL     OW25444   3.705   3.660   4.791
 8182SOL    HW125445   3.708   3.749   4.745
 8182SOL    HW225446   3.770   3.598   4.747
 8183SOL     OW25447   6.474   0.778   4.952
 8183SOL    HW125448   6.436   0.849   4.893
 8183SOL    HW225449   6.425   0.777   5.039
 8184SOL     OW25450   1.215   6.835   6.745
 8184SOL    HW125451   1.259   6.795   6.664
 8184SOL    HW225452   1.274   6.907   6.782
 8185SOL     OW25453   1.758   0.717   1.022
 8185SOL    HW125454   1.720   0.795   0.971
 8185SOL    HW225455   1.799   0.750   1.107
 8186SOL     OW25456   1.459   4.961   6.583
 8186SOL    HW125457   1.399   4.898   6.533
 8186SOL    HW225458   1.418   4.983   6.671
 8187SOL     OW25459   2.130   1.847   5.190
 8187SOL    HW125460   2.201   1.810   5.130
 8187SOL    HW225461   2.041   1.836   5.146
 8188SOL     OW25462   4.238   1.920   3.882
 8188SOL    HW125463   4.329   1.916   3.840
 8188SOL    HW225464   4.245   1.964   3.972
 8189SOL     OW25465   4.729   4.834   3.620
 8189SOL    HW125466   4.812   4.885   3.595
 8189SOL    HW225467   4.755   4.740   3.646
 8190SOL     OW25468   5.580   3.895   3.129
 8190SOL    HW125469   5.585   3.795   3.126
 8190SOL    HW225470   5.613   3.927   3.218
 8191SOL     OW25471   4.566   5.053   2.082
 8191SOL    HW125472   4.635   4.982   2.095
 8191SOL    HW225473   4.581   5.098   1.994
 8192SOL     OW25474   1.617   5.191   2.825
 8192SOL    HW125475   1.602   5.282   2.787
 8192SOL    HW225476   1.540   5.132   2.802
 8193SOL     OW25477   7.003   5.314   4.527
 8193SOL    HW125478   6.945   5.301   4.608
 8193SOL    HW225479   0.061   5.250   4.530
 8194SOL     OW25480   4.520   6.958   1.007
 8194SOL    HW125481   4.547   6.965   1.103
 8194SOL    HW225482   4.544   0.024   0.960
 8195SOL     OW25483   5.989   6.479   4.034
 8195SOL    HW125484   5.893   6.487   4.062
 8195SOL    HW225485   6.028   6.570   4.022
 8196SOL     OW25486   4.860   0.385   0.268
 8196SOL    HW125487   4.779   0.339   0.232
 8196SOL    HW225488   4.877   0.468   0.215
 8197SOL     OW25489   5.104   1.690   1.879
 8197SOL    HW125490   5.171   1.736   1.937
 8197SOL    HW225491   5.012   1.722   1.902
 8198SOL     OW25492   2.801   0.581   1.972
 8198SOL    HW125493   2.849   0.667   1.989
 8198SOL    HW225494   2.726   0.597   1.908
 8199SOL     OW25495   4.415   3.009   5.928
 8199SOL    HW125496   4.482   3.072   5.967
 8199SOL    HW225497   4.458   2.955   5.856
 8200SOL     OW25498   5.752   4.295   1.931
 8200SOL    HW125499   5.738   4.337   1.842
 8200SOL    HW225500   5.832   4.338   1.975
 8201SOL     OW25501   0.264   0.686   5.035
 8201SOL    HW125502   0.292   0.720   4.945
 8201SOL    HW225503   0.171   0.650   5.029
 8202SOL     OW25504   0.489   6.231   2.065
 8202SOL    HW125505   0.505   6.134   2.080
 8202SOL    HW225506   0.534   6.260   1.980
 8203SOL     OW25507   2.048   2.073   6.909
 8203SOL    HW125508   2.059   2.167   6.875
 8203SOL    HW225509   1.978   2.027   6.855
 8204SOL     OW25510   4.064   3.742   0.843
 8204SOL    HW125511   4.005   3.735   0.923
 8204SOL    HW225512   4.103   3.653   0.821
 8205SOL     OW25513   0.638   2.403   0.158
 8205SOL    HW125514   0.635   2.438   0.252
 8205SOL    HW225515   0.655   2.304   0.161
 8206SOL     OW25516   4.464   1.082   0.133
 8206SOL    HW125517   4.476   1.035   0.045
 8206SOL    HW225518   4.488   1.020   0.207
 8207SOL     OW25519   3.241   3.447   4.042
 8207SOL    HW125520   3.189   3.524   4.077
 8207SOL    HW225521   3.198   3.412   3.959
 8208SOL     OW25522   0.651   1.175   0.282
 8208SOL    HW125523   0.747   1.146   0.281
 8208SOL    HW225524   0.596   1.110   0.230
 8209SOL     OW25525   0.166   0.932   5.184
 8209SOL    HW125526   0.212   0.847   5.158
 8209SOL    HW225527   0.200   0.963   5.273
 8210SOL     OW25528   1.993   2.756   0.209
 8210SOL    HW125529   1.936   2.685   0.249
 8210SOL    HW225530   2.089   2.732   0.220
 8211SOL     OW25531   3.309   4.241   1.311
 8211SOL    HW125532   3.379   4.240   1.383
 8211SOL    HW225533   3.218   4.249   1.353
 8212SOL     OW25534   1.166   1.994   3.234
 8212SOL    HW125535   1.178   1.908   3.184
 8212SOL    HW225536   1.070   2.007   3.257
 8213SOL     OW25537   6.777   4.474   2.049
 8213SOL    HW125538   6.821   4.405   2.106
 8213SOL    HW225539   6.799   4.455   1.953
 8214SOL     OW25540   5.595   4.902   3.351
 8214SOL    HW125541   5.690   4.880   3.328
 8214SOL    HW225542   5.577   4.997   3.328
 8215SOL     OW25543   3.502   5.757   5.335
 8215SOL    HW125544   3.514   5.855   5.351
 8215SOL    HW225545   3.417   5.742   5.286
 8216SOL     OW25546   5.313   5.624   4.284
 8216SOL    HW125547   5.217   5.619   4.314
 8216SOL    HW225548   5.366   5.553   4.331
 8217SOL     OW25549   2.186   4.649   0.150
 8217SOL    HW125550   2.128   4.596   0.211
 8217SOL    HW225551   2.261   4.690   0.202
 8218SOL     OW25552   0.725   1.709   6.753
 8218SOL    HW125553   0.704   1.781   6.686
 8218SOL    HW225554   0.656   1.708   6.824
 8219SOL     OW25555   4.759   1.837   0.642
 8219SOL    HW125556   4.819   1.912   0.668
 8219SOL    HW225557   4.671   1.846   0.690
 8220SOL     OW25558   3.695   2.901   3.316
 8220SOL    HW125559   3.670   2.963   3.390
 8220SOL    HW225560   3.765   2.945   3.259
 8221SOL     OW25561   4.756   5.872   4.243
 8221SOL    HW125562   4.746   5.834   4.334
 8221SOL    HW225563   4.692   5.829   4.180
 8222SOL     OW25564   5.502   1.499   2.191
 8222SOL    HW125565   5.418   1.484   2.138
 8222SOL    HW225566   5.478   1.515   2.287
 8223SOL     OW25567   1.012   4.520   5.464
 8223SOL    HW125568   1.055   4.477   5.385
 8223SOL    HW225569   0.920   4.550   5.440
 8224SOL     OW25570   0.800   2.641   2.848
 8224SOL    HW125571   0.779   2.739   2.854
 8224SOL    HW225572   0.778   2.597   2.934
 8225SOL     OW25573   4.294   1.268   0.720
 8225SOL    HW125574   4.352   1.299   0.795
 8225SOL    HW225575   4.350   1.221   0.652
 8226SOL     OW25576   4.591   0.420   1.878
 8226SOL    HW125577   4.647   0.382   1.805
 8226SOL    HW225578   4.645   0.428   1.961
 8227SOL     OW25579   0.553   2.529   4.024
 8227SOL    HW125580   0.456   2.515   4.043
 8227SOL    HW225581   0.576   2.491   3.935
 8228SOL     OW25582   6.879   2.853   6.041
 8228SOL    HW125583   6.962   2.828   6.090
 8228SOL    HW225584   6.883   2.816   5.948
 8229SOL     OW25585   3.319   4.777   0.567
 8229SOL    HW125586   3.271   4.860   0.598
 8229SOL    HW225587   3.413   4.800   0.542
 8230SOL     OW25588   5.334   7.007   5.359
 8230SOL    HW125589   5.320   0.088   5.355
 8230SOL    HW225590   5.405   6.986   5.426
 8231SOL     OW25591   3.865   6.019   1.473
 8231SOL    HW125592   3.870   6.118   1.465
 8231SOL    HW225593   3.774   5.988   1.447
 8232SOL     OW25594   4.851   1.142   0.515
 8232SOL    HW125595   4.784   1.134   0.442
 8232SOL    HW225596   4.814   1.103   0.599
 8233SOL     OW25597   0.913   5.798   6.252
 8233SOL    HW125598   0.873   5.792   6.160
 8233SOL    HW225599   0.966   5.882   6.259
 8234SOL     OW25600   2.513   3.207   0.197
 8234SOL    HW125601   2.596   3.191   0.143
 8234SOL    HW225602   2.505   3.137   0.268
 8235SOL     OW25603   2.361   2.936   0.673
 8235SOL    HW125604   2.376   3.028   0.637
 8235SOL    HW225605   2.270   2.904   0.646
 8236SOL     OW25606   6.543   3.770   0.116
 8236SOL    HW125607   6.522   3.707   0.041
 8236SOL    HW225608   6.518   3.728   0.203
 8237SOL     OW25609   4.866   6.464   4.545
 8237SOL    HW125610   4.905   6.469   4.637
 8237SOL    HW225611   4.920   6.401   4.488
 8238SOL     OW25612   1.741   4.102   0.170
 8238SOL    HW125613   1.761   4.200   0.165
 8238SOL    HW225614   1.642   4.090   0.182
 8239SOL     OW25615   6.480   1.869   5.533
 8239SOL    HW125616   6.538   1.816   5.595
 8239SOL    HW225617   6.475   1.964   5.565
 8240SOL     OW25618   3.507   3.768   2.611
 8240SOL    HW125619   3.505   3.754   2.710
 8240SOL    HW225620   3.568   3.701   2.569
 8241SOL     OW25621   3.504   6.532   0.397
 8241SOL    HW125622   3.486   6.456   0.459
 8241SOL    HW225623   3.593   6.518   0.353
 8242SOL     OW25624   1.159   4.725   5.775
 8242SOL    HW125625   1.249   4.767   5.788
 8242SOL    HW225626   1.171   4.629   5.748
 8243SOL     OW25627   0.942   2.911   6.822
 8243SOL    HW125628   0.913   2.826   6.778
 8243SOL    HW225629   1.027   2.943   6.780
 8244SOL     OW25630   0.598   6.589   3.385
 8244SOL    HW125631   0.631   6.545   3.301
 8244SOL    HW225632   0.672   6.643   3.425
 8245SOL     OW25633   3.639   1.123   2.619
 8245SOL    HW125634   3.633   1.218   2.587
 8245SOL    HW225635   3.643   1.061   2.540
 8246SOL     OW25636   6.854   3.867   5.484
 8246SOL    HW125637   6.898   3.934   5.544
 8246SOL    HW225638   6.917   3.843   5.409
 8247SOL     OW25639   1.128   0.867   1.647
 8247SOL    HW125640   1.215   0.866   1.597
 8247SOL    HW225641   1.053   0.879   1.582
 8248SOL     OW25642   5.765   4.598   3.284
 8248SOL    HW125643   5.719   4.593   3.196
 8248SOL    HW225644   5.855   4.640   3.272
 8249SOL     OW25645   2.005   3.632   4.827
 8249SOL    HW125646   2.036   3.703   4.890
 8249SOL    HW225647   1.933   3.578   4.871
 8250SOL     OW25648   3.221   4.097   2.416
 8250SOL    HW125649   3.310   4.094   2.461
 8250SOL    HW225650   3.218   4.174   2.352
 8251SOL     OW25651   6.189   2.520   4.451
 8251SOL    HW125652   6.184   2.493   4.547
 8251SOL    HW225653   6.100   2.556   4.422
 8252SOL     OW25654   3.195   3.577   0.205
 8252SOL    HW125655   3.242   3.620   0.127
 8252SOL    HW225656   3.255   3.507   0.244
 8253SOL     OW25657   3.618   3.858   4.973
 8253SOL    HW125658   3.600   3.901   4.885
 8253SOL    HW225659   3.675   3.777   4.960
 8254SOL     OW25660   4.499   4.542   4.483
 8254SOL    HW125661   4.582   4.524   4.430
 8254SOL    HW225662   4.465   4.634   4.462
 8255SOL     OW25663   3.709   6.061   4.831
 8255SOL    HW125664   3.744   6.128   4.896
 8255SOL    HW225665   3.679   5.979   4.881
 8256SOL     OW25666   6.289   0.346   2.487
 8256SOL    HW125667   6.273   0.288   2.566
 8256SOL    HW225668   6.219   0.418   2.483
 8257SOL     OW25669   6.643   3.994   3.452
 8257SOL    HW125670   6.711   4.053   3.411
 8257SOL    HW225671   6.602   4.040   3.531
 8258SOL     OW25672   5.283   1.298   0.360
 8258SOL    HW125673   5.348   1.235   0.403
 8258SOL    HW225674   5.333   1.377   0.325
 8259SOL     OW25675   4.125   1.726   3.725
 8259SOL    HW125676   4.167   1.780   3.797
 8259SOL    HW225677   4.063   1.784   3.672
 8260SOL     OW25678   2.919   0.558   1.109
 8260SOL    HW125679   2.924   0.638   1.048
 8260SOL    HW225680   2.869   0.584   1.192
 8261SOL     OW25681   6.152   1.257   1.298
 8261SOL    HW125682   6.208   1.176   1.318
 8261SOL    HW225683   6.125   1.300   1.384
 8262SOL     OW25684   1.192   2.495   0.910
 8262SOL    HW125685   1.148   2.559   0.972
 8262SOL    HW225686   1.203   2.539   0.820
 8263SOL     OW25687   0.070   2.190   0.371
 8263SOL    HW125688   0.057   2.253   0.447
 8263SOL    HW225689   0.119   2.237   0.297
 8264SOL     OW25690   1.356   5.802   2.271
 8264SOL    HW125691   1.260   5.787   2.246
 8264SOL    HW225692   1.374   5.900   2.279
 8265SOL     OW25693   1.067   6.714   1.525
 8265SOL    HW125694   1.063   6.624   1.570
 8265SOL    HW225695   1.142   6.715   1.460
 8266SOL     OW25696   1.884   0.438   3.013
 8266SOL    HW125697   1.906   0.432   3.110
 8266SOL    HW225698   1.941   0.374   2.961
 8267SOL     OW25699   1.927   3.016   1.070
 8267SOL    HW125700   1.953   2.961   0.991
 8267SOL    HW225701   1.895   2.956   1.143
 8268SOL     OW25702   2.397   6.407   6.410
 8268SOL    HW125703   2.331   6.482   6.402
 8268SOL    HW225704   2.370   6.332   6.350
 8269SOL     OW25705   5.868   1.201   1.533
 8269SOL    HW125706   5.781   1.193   1.582
 8269SOL    HW225707   5.893   1.112   1.494
 8270SOL     OW25708   2.561   0.110   4.957
 8270SOL    HW125709   2.524   0.203   4.963
 8270SOL    HW225710   2.615   0.091   5.039
 8271SOL     OW25711   0.150   0.801   2.155
 8271SOL    HW125712   0.228   0.864   2.145
 8271SOL    HW225713   0.086   0.816   2.080
 8272SOL     OW25714   5.142   1.234   1.319
 8272SOL    HW125715   5.162   1.143   1.282
 8272SOL    HW225716   5.223   1.292   1.309
 8273SOL     OW25717   1.825   6.311   0.965
 8273SOL    HW125718   1.806   6.366   1.046
 8273SOL    HW225719   1.752   6.244   0.952
 8274SOL     OW25720   4.665   4.721   3.387
 8274SOL    HW125721   4.676   4.793   3.456
 8274SOL    HW225722   4.745   4.662   3.387
 8275SOL     OW25723   4.204   1.164   6.050
 8275SOL    HW125724   4.304   1.161   6.040
 8275SOL    HW225725   4.163   1.096   5.989
 8276SOL     OW25726   1.018   2.239   3.842
 8276SOL    HW125727   1.081   2.230   3.765
 8276SOL    HW225728   1.059   2.197   3.924
 8277SOL     OW25729   0.276   0.562   6.887
 8277SOL    HW125730   0.280   0.576   6.986
 8277SOL    HW225731   0.189   0.520   6.862
 8278SOL     OW25732   2.558   1.677   6.427
 8278SOL    HW125733   2.490   1.621   6.475
 8278SOL    HW225734   2.530   1.773   6.430
 8279SOL     OW25735   1.133   0.295   4.184
 8279SOL    HW125736   1.133   0.347   4.270
 8279SOL    HW225737   1.205   0.227   4.187
 8280SOL     OW25738   2.499   2.958   0.339
 8280SOL    HW125739   2.416   2.961   0.395
 8280SOL    HW225740   2.568   2.903   0.386
 8281SOL     OW25741   1.550   4.961   1.174
 8281SOL    HW125742   1.623   4.901   1.140
 8281SOL    HW225743   1.557   5.050   1.128
 8282SOL     OW25744   5.400   3.656   6.755
 8282SOL    HW125745   5.447   3.684   6.671
 8282SOL    HW225746   5.437   3.568   6.786
 8283SOL     OW25747   1.041   4.451   6.307
 8283SOL    HW125748   1.112   4.382   6.294
 8283SOL    HW225749   0.992   4.465   6.220
 8284SOL     OW25750   0.997   3.677   1.361
 8284SOL    HW125751   1.073   3.727   1.402
 8284SOL    HW225752   1.031   3.612   1.293
 8285SOL     OW25753   3.747   3.048   5.017
 8285SOL    HW125754   3.838   3.080   5.044
 8285SOL    HW225755   3.722   3.090   4.929
 8286SOL     OW25756   5.146   3.535   6.700
 8286SOL    HW125757   5.166   3.454   6.755
 8286SOL    HW225758   5.221   3.600   6.706
 8287SOL     OW25759   2.187   5.321   4.177
 8287SOL    HW125760   2.181   5.300   4.274
 8287SOL    HW225761   2.283   5.334   4.151
 8288SOL     OW25762   2.824   1.852   1.855
 8288SOL    HW125763   2.736   1.810   1.833
 8288SOL    HW225764   2.880   1.858   1.773
 8289SOL     OW25765   0.413   6.531   1.411
 8289SOL    HW125766   0.490   6.557   1.468
 8289SOL    HW225767   0.401   6.431   1.414
 8290SOL     OW25768   5.991   0.841   0.497
 8290SOL    HW125769   6.061   0.848   0.425
 8290SOL    HW225770   5.976   0.930   0.538
 8291SOL     OW25771   4.718   5.972   6.594
 8291SOL    HW125772   4.761   6.037   6.531
 8291SOL    HW225773   4.709   6.014   6.684
 8292SOL     OW25774   2.864   6.520   6.773
 8292SOL    HW125775   2.770   6.524   6.740
 8292SOL    HW225776   2.927   6.533   6.696
 8293SOL     OW25777   3.146   6.776   0.370
 8293SOL    HW125778   3.232   6.793   0.418
 8293SOL    HW225779   3.153   6.690   0.319
 8294SOL     OW25780   5.788   4.380   5.166
 8294SOL    HW125781   5.861   4.339   5.112
 8294SOL    HW225782   5.828   4.442   5.234
 8295SOL     OW25783   5.576   5.218   2.082
 8295SOL    HW125784   5.667   5.228   2.123
 8295SOL    HW225785   5.532   5.308   2.079
 8296SOL     OW25786   2.608   6.862   6.465
 8296SOL    HW125787   2.618   6.764   6.452
 8296SOL    HW225788   2.558   6.881   6.549
 8297SOL     OW25789   6.722   2.894   2.393
 8297SOL    HW125790   6.640   2.893   2.451
 8297SOL    HW225791   6.800   2.858   2.444
 8298SOL     OW25792   6.073   2.355   1.433
 8298SOL    HW125793   6.158   2.390   1.472
 8298SOL    HW225794   6.040   2.278   1.487
 8299SOL     OW25795   6.951   2.758   1.930
 8299SOL    HW125796   6.916   2.829   1.869
 8299SOL    HW225797   6.997   2.801   2.008
 8300SOL     OW25798   1.137   5.661   5.660
 8300SOL    HW125799   1.114   5.602   5.583
 8300SOL    HW225800   1.126   5.757   5.634
 8301SOL     OW25801   4.062   1.881   1.617
 8301SOL    HW125802   3.982   1.941   1.610
 8301SOL    HW225803   4.042   1.793   1.575
 8302SOL     OW25804   5.820   5.897   6.181
 8302SOL    HW125805   5.725   5.866   6.184
 8302SOL    HW225806   5.881   5.819   6.196
 8303SOL     OW25807   6.727   0.889   3.669
 8303SOL    HW125808   6.717   0.790   3.681
 8303SOL    HW225809   6.779   0.927   3.745
 8304SOL     OW25810   1.460   2.867   6.963
 8304SOL    HW125811   1.394   2.879   0.019
 8304SOL    HW225812   1.532   2.936   6.971
 8305SOL     OW25813   4.186   4.962   4.293
 8305SOL    HW125814   4.093   4.956   4.257
 8305SOL    HW225815   4.191   5.034   4.361
 8306SOL     OW25816   0.365   2.893   4.928
 8306SOL    HW125817   0.286   2.888   4.989
 8306SOL    HW225818   0.449   2.896   4.982
 8307SOL     OW25819   4.306   5.207   1.661
 8307SOL    HW125820   4.252   5.274   1.713
 8307SOL    HW225821   4.307   5.234   1.565
 8308SOL     OW25822   4.249   5.985   1.310
 8308SOL    HW125823   4.163   5.934   1.310
 8308SOL    HW225824   4.293   5.978   1.221
 8309SOL     OW25825   6.258   5.724   3.324
 8309SOL    HW125826   6.355   5.706   3.338
 8309SOL    HW225827   6.234   5.812   3.365
 8310SOL     OW25828   1.159   4.055   0.550
 8310SOL    HW125829   1.182   3.962   0.521
 8310SOL    HW225830   1.105   4.051   0.635
 8311SOL     OW25831   0.425   1.111   5.102
 8311SOL    HW125832   0.515   1.093   5.141
 8311SOL    HW225833   0.357   1.052   5.147
 8312SOL     OW25834   4.231   5.849   1.551
 8312SOL    HW125835   4.229   5.890   1.460
 8312SOL    HW225836   4.198   5.915   1.618
 8313SOL     OW25837   4.749   1.090   2.050
 8313SOL    HW125838   4.696   1.174   2.061
 8313SOL    HW225839   4.846   1.114   2.038
 8314SOL     OW25840   4.564   6.509   1.656
 8314SOL    HW125841   4.483   6.452   1.672
 8314SOL    HW225842   4.536   6.598   1.621
 8315SOL     OW25843   3.949   3.710   1.089
 8315SOL    HW125844   3.870   3.693   1.148
 8315SOL    HW225845   4.019   3.641   1.107
 8316SOL     OW25846   1.022   2.762   1.647
 8316SOL    HW125847   1.012   2.663   1.643
 8316SOL    HW225848   1.082   2.787   1.723
 8317SOL     OW25849   2.151   2.938   2.279
 8317SOL    HW125850   2.058   2.916   2.250
 8317SOL    HW225851   2.177   3.027   2.244
 8318SOL     OW25852   4.171   1.726   4.604
 8318SOL    HW125853   4.072   1.719   4.596
 8318SOL    HW225854   4.197   1.822   4.620
 8319SOL     OW25855   3.226   1.786   6.514
 8319SOL    HW125856   3.202   1.880   6.539
 8319SOL    HW225857   3.323   1.780   6.492
 8320SOL     OW25858   3.627   4.747   1.300
 8320SOL    HW125859   3.582   4.658   1.315
 8320SOL    HW225860   3.568   4.820   1.335
 8321SOL     OW25861   6.910   1.446   6.915
 8321SOL    HW125862   6.982   1.399   6.965
 8321SOL    HW225863   6.868   1.383   6.849
 8322SOL     OW25864   0.297   0.147   0.142
 8322SOL    HW125865   0.337   0.129   0.052
 8322SOL    HW225866   0.297   0.062   0.195
 8323SOL     OW25867   6.584   6.573   2.930
 8323SOL    HW125868   6.535   6.511   2.991
 8323SOL    HW225869   6.548   6.666   2.942
 8324SOL     OW25870   6.376   0.629   2.017
 8324SOL    HW125871   6.445   0.593   1.954
 8324SOL    HW225872   6.413   0.629   2.110
 8325SOL     OW25873   3.264   3.311   4.645
 8325SOL    HW125874   3.227   3.219   4.662
 8325SOL    HW225875   3.300   3.348   4.731
 8326SOL     OW25876   4.470   3.245   5.416
 8326SOL    HW125877   4.448   3.255   5.513
 8326SOL    HW225878   4.468   3.335   5.372
 8327SOL     OW25879   5.277   2.669   5.999
 8327SOL    HW125880   5.372   2.696   5.983
 8327SOL    HW225881   5.216   2.736   5.956
 8328SOL     OW25882   2.426   3.939   6.079
 8328SOL    HW125883   2.353   3.891   6.030
 8328SOL    HW225884   2.504   3.952   6.017
 8329SOL     OW25885   0.134   3.821   6.279
 8329SOL    HW125886   0.222   3.774   6.265
 8329SOL    HW225887   0.110   3.818   6.376
 8330SOL     OW25888   1.999   6.855   0.664
 8330SOL    HW125889   2.089   6.869   0.707
 8330SOL    HW225890   1.951   6.781   0.712
 8331SOL     OW25891   2.586   1.054   1.094
 8331SOL    HW125892   2.665   1.063   1.156
 8331SOL    HW225893   2.612   1.085   1.003
 8332SOL     OW25894   5.155   4.865   2.583
 8332SOL    HW125895   5.148   4.771   2.615
 8332SOL    HW225896   5.201   4.867   2.494
 8333SOL     OW25897   0.563   6.055   6.578
 8333SOL    HW125898   0.606   6.082   6.492
 8333SOL    HW225899   0.465   6.042   6.565
 8334SOL     OW25900   4.943   1.556   3.789
 8334SOL    HW125901   4.953   1.547   3.690
 8334SOL    HW225902   5.030   1.586   3.828
 8335SOL     OW25903   6.370   5.363   5.412
 8335SOL    HW125904   6.279   5.404   5.419
 8335SOL    HW225905   6.365   5.265   5.434
 8336SOL     OW25906   0.410   0.553   1.694
 8336SOL    HW125907   0.374   0.610   1.619
 8336SOL    HW225908   0.399   0.602   1.780
 8337SOL     OW25909   0.718   6.482   3.143
 8337SOL    HW125910   0.718   6.389   3.106
 8337SOL    HW225911   0.812   6.516   3.150
 8338SOL     OW25912   1.646   5.139   2.012
 8338SOL    HW125913   1.578   5.067   1.998
 8338SOL    HW225914   1.720   5.105   2.069
 8339SOL     OW25915   5.657   0.529   1.284
 8339SOL    HW125916   5.620   0.533   1.377
 8339SOL    HW225917   5.608   0.595   1.226
 8340SOL     OW25918   5.137   4.012   0.996
 8340SOL    HW125919   5.050   3.991   0.951
 8340SOL    HW225920   5.207   4.032   0.927
 8341SOL     OW25921   2.779   6.341   6.988
 8341SOL    HW125922   2.818   6.395   6.914
 8341SOL    HW225923   2.724   6.400   0.029
 8342SOL     OW25924   3.677   1.003   1.473
 8342SOL    HW125925   3.691   1.039   1.381
 8342SOL    HW225926   3.586   0.963   1.479
 8343SOL     OW25927   0.849   4.872   6.578
 8343SOL    HW125928   0.931   4.815   6.578
 8343SOL    HW225929   0.850   4.931   6.497
 8344SOL     OW25930   4.725   0.286   5.634
 8344SOL    HW125931   4.749   0.200   5.679
 8344SOL    HW225932   4.726   0.273   5.535
 8345SOL     OW25933   5.186   2.171   3.407
 8345SOL    HW125934   5.089   2.192   3.397
 8345SOL    HW225935   5.238   2.214   3.333
 8346SOL     OW25936   3.062   5.032   0.229
 8346SOL    HW125937   2.991   5.012   0.295
 8346SOL    HW225938   3.028   5.014   0.136
 8347SOL     OW25939   3.459   0.022   4.675
 8347SOL    HW125940   3.406   6.960   4.702
 8347SOL    HW225941   3.472   0.022   4.576
 8348SOL     OW25942   1.353   6.979   1.636
 8348SOL    HW125943   1.289   6.965   1.560
 8348SOL    HW225944   1.442   6.943   1.611
 8349SOL     OW25945   6.227   5.331   1.223
 8349SOL    HW125946   6.240   5.394   1.300
 8349SOL    HW225947   6.180   5.248   1.256
 8350SOL     OW25948   4.490   1.254   4.535
 8350SOL    HW125949   4.435   1.314   4.477
 8350SOL    HW225950   4.574   1.302   4.561
 8351SOL     OW25951   4.782   5.136   4.536
 8351SOL    HW125952   4.779   5.236   4.548
 8351SOL    HW225953   4.794   5.092   4.625
 8352SOL     OW25954   6.812   6.907   2.022
 8352SOL    HW125955   6.719   6.877   2.001
 8352SOL    HW225956   6.835   6.881   2.116
 8353SOL     OW25957   5.672   3.838   2.127
 8353SOL    HW125958   5.636   3.895   2.054
 8353SOL    HW225959   5.606   3.767   2.151
 8354SOL     OW25960   3.482   0.860   6.683
 8354SOL    HW125961   3.413   0.818   6.742
 8354SOL    HW225962   3.537   0.923   6.736
 8355SOL     OW25963   3.397   0.551   6.774
 8355SOL    HW125964   3.364   0.637   6.812
 8355SOL    HW225965   3.319   0.497   6.741
 8356SOL     OW25966   1.405   6.710   0.590
 8356SOL    HW125967   1.320   6.732   0.544
 8356SOL    HW225968   1.446   6.629   0.548
 8357SOL     OW25969   3.572   6.568   5.986
 8357SOL    HW125970   3.620   6.649   6.018
 8357SOL    HW225971   3.547   6.579   5.890
 8358SOL     OW25972   1.367   2.538   4.792
 8358SOL    HW125973   1.276   2.573   4.816
 8358SOL    HW225974   1.381   2.546   4.693
 8359SOL     OW25975   3.340   5.910   4.249
 8359SOL    HW125976   3.248   5.942   4.230
 8359SOL    HW225977   3.360   5.829   4.194
 8360SOL     OW25978   3.216   6.185   2.226
 8360SOL    HW125979   3.199   6.284   2.226
 8360SOL    HW225980   3.156   6.141   2.292
 8361SOL     OW25981   1.849   0.683   1.830
 8361SOL    HW125982   1.801   0.753   1.777
 8361SOL    HW225983   1.946   0.704   1.834
 8362SOL     OW25984   2.483   2.329   0.522
 8362SOL    HW125985   2.512   2.239   0.490
 8362SOL    HW225986   2.463   2.325   0.620
 8363SOL     OW25987   0.610   2.640   0.042
 8363SOL    HW125988   0.696   2.689   0.062
 8363SOL    HW225989   0.611   2.551   0.088
 8364SOL     OW25990   6.974   3.447   3.524
 8364SOL    HW125991   6.911   3.447   3.447
 8364SOL    HW225992   0.029   3.381   3.508
 8365SOL     OW25993   1.579   3.887   1.516
 8365SOL    HW125994   1.499   3.907   1.459
 8365SOL    HW225995   1.571   3.795   1.554
 8366SOL     OW25996   4.065   5.623   2.517
 8366SOL    HW125997   4.059   5.710   2.467
 8366SOL    HW225998   3.978   5.574   2.510
 8367SOL     OW25999   3.963   6.111   4.111
 8367SOL    HW126000   4.039   6.051   4.086
 8367SOL    HW226001   3.953   6.183   4.042
 8368SOL     OW26002   2.900   6.450   6.084
 8368SOL    HW126003   2.998   6.441   6.103
 8368SOL    HW226004   2.852   6.370   6.119
 8369SOL     OW26005   1.876   0.694   6.893
 8369SOL    HW126006   1.783   0.715   6.864
 8369SOL    HW226007   1.933   0.776   6.886
 8370SOL     OW26008   3.004   2.124   5.882
 8370SOL    HW126009   3.033   2.092   5.792
 8370SOL    HW226010   2.953   2.051   5.928
 8371SOL     OW26011   1.547   4.274   0.912
 8371SOL    HW126012   1.501   4.256   0.825
 8371SOL    HW226013   1.521   4.203   0.978
 8372SOL     OW26014   0.314   6.250   3.202
 8372SOL    HW126015   0.225   6.278   3.237
 8372SOL    HW226016   0.325   6.281   3.108
 8373SOL     OW26017   0.910   0.532   5.084
 8373SOL    HW126018   0.986   0.470   5.065
 8373SOL    HW226019   0.859   0.548   4.999
 8374SOL     OW26020   6.381   0.437   6.442
 8374SOL    HW126021   6.301   0.380   6.457
 8374SOL    HW226022   6.353   0.525   6.402
 8375SOL     OW26023   3.229   6.616   5.733
 8375SOL    HW126024   3.224   6.544   5.803
 8375SOL    HW226025   3.192   6.581   5.647
 8376SOL     OW26026   2.039   6.559   4.290
 8376SOL    HW126027   1.989   6.608   4.362
 8376SOL    HW226028   1.979   6.543   4.212
 8377SOL     OW26029   5.786   5.840   1.470
 8377SOL    HW126030   5.760   5.789   1.388
 8377SOL    HW226031   5.718   5.911   1.487
 8378SOL     OW26032   4.587   4.384   2.971
 8378SOL    HW126033   4.675   4.408   2.930
 8378SOL    HW226034   4.577   4.285   2.973
 8379SOL     OW26035   6.831   2.989   0.979
 8379SOL    HW126036   6.897   2.931   0.930
 8379SOL    HW226037   6.746   2.938   0.993
 8380SOL     OW26038   6.639   1.219   2.176
 8380SOL    HW126039   6.660   1.189   2.269
 8380SOL    HW226040   6.540   1.215   2.162
 8381SOL     OW26041   0.658   4.084   4.911
 8381SOL    HW126042   0.695   3.992   4.899
 8381SOL    HW226043   0.628   4.119   4.822
 8382SOL     OW26044   1.191   1.299   2.167
 8382SOL    HW126045   1.267   1.290   2.231
 8382SOL    HW226046   1.112   1.248   2.202
 8383SOL     OW26047   2.216   1.239   6.362
 8383SOL    HW126048   2.261   1.195   6.439
 8383SOL    HW226049   2.283   1.259   6.291
 8384SOL     OW26050   0.292   6.921   0.307
 8384SOL    HW126051   0.334   6.831   0.295
 8384SOL    HW226052   0.235   6.920   0.389
 8385SOL     OW26053   5.895   2.790   1.396
 8385SOL    HW126054   5.945   2.873   1.422
 8385SOL    HW226055   5.802   2.815   1.369
 8386SOL     OW26056   0.946   4.169   2.530
 8386SOL    HW126057   0.944   4.255   2.479
 8386SOL    HW226058   0.879   4.105   2.491
 8387SOL     OW26059   0.820   1.646   1.054
 8387SOL    HW126060   0.889   1.620   0.986
 8387SOL    HW226061   0.864   1.698   1.127
 8388SOL     OW26062   1.598   6.188   0.803
 8388SOL    HW126063   1.644   6.168   0.717
 8388SOL    HW226064   1.518   6.246   0.785
 8389SOL     OW26065   5.552   3.409   2.493
 8389SOL    HW126066   5.606   3.493   2.498
 8389SOL    HW226067   5.571   3.362   2.407
 8390SOL     OW26068   3.735   1.529   6.289
 8390SOL    HW126069   3.702   1.620   6.267
 8390SOL    HW226070   3.826   1.516   6.251
 8391SOL     OW26071   6.016   6.291   0.634
 8391SOL    HW126072   6.105   6.263   0.670
 8391SOL    HW226073   5.946   6.229   0.669
 8392SOL     OW26074   5.674   3.896   3.822
 8392SOL    HW126075   5.744   3.922   3.888
 8392SOL    HW226076   5.667   3.796   3.819
 8393SOL     OW26077   5.738   0.788   2.590
 8393SOL    HW126078   5.806   0.810   2.659
 8393SOL    HW226079   5.757   0.698   2.551
 8394SOL     OW26080   5.876   2.961   2.135
 8394SOL    HW126081   5.844   3.035   2.076
 8394SOL    HW226082   5.897   2.881   2.079
 8395SOL     OW26083   3.095   6.825   5.865
 8395SOL    HW126084   3.134   6.744   5.822
 8395SOL    HW226085   3.163   6.866   5.926
 8396SOL     OW26086   4.426   4.857   3.251
 8396SOL    HW126087   4.456   4.896   3.164
 8396SOL    HW226088   4.507   4.836   3.306
 8397SOL     OW26089   0.823   0.833   3.607
 8397SOL    HW126090   0.767   0.757   3.574
 8397SOL    HW226091   0.839   0.823   3.706
 8398SOL     OW26092   5.118   2.179   6.584
 8398SOL    HW126093   5.150   2.201   6.677
 8398SOL    HW226094   5.197   2.163   6.525
 8399SOL     OW26095   6.276   6.499   6.567
 8399SOL    HW126096   6.354   6.513   6.628
 8399SOL    HW226097   6.207   6.569   6.585
 8400SOL     OW26098   1.503   2.292   4.268
 8400SOL    HW126099   1.474   2.344   4.188
 8400SOL    HW226100   1.597   2.261   4.255
 8401SOL     OW26101   2.076   0.956   5.524
 8401SOL    HW126102   2.160   0.964   5.577
 8401SOL    HW226103   2.005   0.912   5.580
 8402SOL     OW26104   5.301   1.453   5.923
 8402SOL    HW126105   5.292   1.501   6.010
 8402SOL    HW226106   5.361   1.506   5.862
 8403SOL     OW26107   0.754   3.831   4.563
 8403SOL    HW126108   0.828   3.844   4.498
 8403SOL    HW226109   0.692   3.909   4.559
 8404SOL     OW26110   3.428   0.640   5.887
 8404SOL    HW126111   3.524   0.660   5.906
 8404SOL    HW226112   3.402   0.554   5.931
 8405SOL     OW26113   3.477   1.551   6.015
 8405SOL    HW126114   3.556   1.608   5.992
 8405SOL    HW226115   3.443   1.576   6.105
 8406SOL     OW26116   4.034   0.077   0.751
 8406SOL    HW126117   4.076   0.137   0.683
 8406SOL    HW226118   4.099   0.006   0.778
 8407SOL     OW26119   4.552   6.718   3.498
 8407SOL    HW126120   4.628   6.744   3.437
 8407SOL    HW226121   4.570   6.627   3.536
 8408SOL     OW26122   5.169   5.563   0.400
 8408SOL    HW126123   5.070   5.552   0.390
 8408SOL    HW226124   5.205   5.611   0.319
 8409SOL     OW26125   4.882   2.355   2.016
 8409SOL    HW126126   4.913   2.261   2.001
 8409SOL    HW226127   4.786   2.363   1.988
 8410SOL     OW26128   6.020   2.123   1.588
 8410SOL    HW126129   6.007   2.034   1.630
 8410SOL    HW226130   5.957   2.189   1.628
 8411SOL     OW26131   0.456   6.145   0.763
 8411SOL    HW126132   0.478   6.220   0.701
 8411SOL    HW226133   0.368   6.162   0.807
 8412SOL     OW26134   4.154   2.874   0.994
 8412SOL    HW126135   4.181   2.785   1.031
 8412SOL    HW226136   4.211   2.896   0.915
 8413SOL     OW26137   4.223   5.492   6.142
 8413SOL    HW126138   4.287   5.557   6.184
 8413SOL    HW226139   4.200   5.421   6.208
 8414SOL     OW26140   2.048   1.257   2.233
 8414SOL    HW126141   1.972   1.307   2.274
 8414SOL    HW226142   2.097   1.207   2.304
 8415SOL     OW26143   2.451   6.622   4.084
 8415SOL    HW126144   2.366   6.591   4.042
 8415SOL    HW226145   2.431   6.678   4.164
 8416SOL     OW26146   6.362   1.526   4.669
 8416SOL    HW126147   6.303   1.551   4.592
 8416SOL    HW226148   6.418   1.448   4.643
 8417SOL     OW26149   2.085   3.138   5.397
 8417SOL    HW126150   2.167   3.123   5.452
 8417SOL    HW226151   2.075   3.235   5.377
 8418SOL     OW26152   0.405   5.720   2.087
 8418SOL    HW126153   0.438   5.779   2.013
 8418SOL    HW226154   0.389   5.775   2.168
 8419SOL     OW26155   6.275   1.621   3.355
 8419SOL    HW126156   6.247   1.627   3.259
 8419SOL    HW226157   6.196   1.596   3.411
 8420SOL     OW26158   3.228   6.636   2.123
 8420SOL    HW126159   3.195   6.706   2.186
 8420SOL    HW226160   3.235   6.675   2.031
 8421SOL     OW26161   3.135   5.430   6.842
 8421SOL    HW126162   3.159   5.525   6.822
 8421SOL    HW226163   3.147   5.374   6.760
 8422SOL     OW26164   4.503   2.474   2.292
 8422SOL    HW126165   4.403   2.483   2.295
 8422SOL    HW226166   4.536   2.495   2.199
 8423SOL     OW26167   4.357   4.091   5.411
 8423SOL    HW126168   4.386   4.129   5.499
 8423SOL    HW226169   4.433   4.093   5.347
 8424SOL     OW26170   1.977   1.665   3.437
 8424SOL    HW126171   2.025   1.697   3.519
 8424SOL    HW226172   1.977   1.565   3.436
 8425SOL     OW26173   3.733   3.796   4.162
 8425SOL    HW126174   3.636   3.816   4.150
 8425SOL    HW226175   3.788   3.859   4.108
 8426SOL     OW26176   3.569   3.102   2.526
 8426SOL    HW126177   3.668   3.109   2.522
 8426SOL    HW226178   3.530   3.130   2.439
 8427SOL     OW26179   3.185   3.544   3.135
 8427SOL    HW126180   3.212   3.462   3.185
 8427SOL    HW226181   3.121   3.519   3.062
 8428SOL     OW26182   0.517   6.937   1.202
 8428SOL    HW126183   0.418   6.927   1.195
 8428SOL    HW226184   0.560   6.900   1.119
 8429SOL     OW26185   1.924   5.156   6.004
 8429SOL    HW126186   1.855   5.182   5.936
 8429SOL    HW226187   1.914   5.213   6.085
 8430SOL     OW26188   3.906   5.074   3.790
 8430SOL    HW126189   3.989   5.019   3.799
 8430SOL    HW226190   3.923   5.165   3.828
 8431SOL     OW26191   3.233   4.286   6.786
 8431SOL    HW126192   3.322   4.311   6.749
 8431SOL    HW226193   3.240   4.275   6.885
 8432SOL     OW26194   7.000   5.076   5.614
 8432SOL    HW126195   0.054   5.058   5.547
 8432SOL    HW226196   6.968   5.170   5.603
 8433SOL     OW26197   4.408   2.701   1.111
 8433SOL    HW126198   4.450   2.633   1.050
 8433SOL    HW226199   4.479   2.760   1.148
 8434SOL     OW26200   2.324   5.894   4.253
 8434SOL    HW126201   2.285   5.974   4.207
 8434SOL    HW226202   2.385   5.923   4.326
 8435SOL     OW26203   5.257   0.539   2.949
 8435SOL    HW126204   5.163   0.536   2.986
 8435SOL    HW226205   5.266   0.471   2.876
 8436SOL     OW26206   2.646   5.965   3.885
 8436SOL    HW126207   2.671   6.059   3.909
 8436SOL    HW226208   2.671   5.948   3.790
 8437SOL     OW26209   1.768   2.533   2.445
 8437SOL    HW126210   1.744   2.438   2.468
 8437SOL    HW226211   1.712   2.595   2.500
 8438SOL     OW26212   2.122   3.963   3.189
 8438SOL    HW126213   2.025   3.959   3.165
 8438SOL    HW226214   2.174   3.992   3.109
 8439SOL     OW26215   6.442   5.217   3.184
 8439SOL    HW126216   6.407   5.274   3.110
 8439SOL    HW226217   6.504   5.271   3.242
 8440SOL     OW26218   2.110   1.780   3.648
 8440SOL    HW126219   2.129   1.718   3.724
 8440SOL    HW226220   2.185   1.846   3.640
 8441SOL     OW26221   5.560   5.762   5.818
 8441SOL    HW126222   5.461   5.768   5.830
 8441SOL    HW226223   5.593   5.672   5.847
 8442SOL     OW26224   3.541   0.529   5.153
 8442SOL    HW126225   3.551   0.610   5.211
 8442SOL    HW226226   3.512   0.451   5.210
 8443SOL     OW26227   2.144   4.882   3.689
 8443SOL    HW126228   2.228   4.833   3.666
 8443SOL    HW226229   2.079   4.818   3.731
 8444SOL     OW26230   3.574   6.410   3.708
 8444SOL    HW126231   3.611   6.473   3.639
 8444SOL    HW226232   3.622   6.424   3.795
 8445SOL     OW26233   2.421   0.517   0.365
 8445SOL    HW126234   2.421   0.571   0.449
 8445SOL    HW226235   2.500   0.456   0.364
 8446SOL     OW26236   6.782   6.087   5.097
 8446SOL    HW126237   6.780   6.041   5.185
 8446SOL    HW226238   6.824   6.178   5.108
 8447SOL     OW26239   3.558   1.687   2.025
 8447SOL    HW126240   3.517   1.686   2.117
 8447SOL    HW226241   3.499   1.635   1.962
 8448SOL     OW26242   4.752   6.257   3.577
 8448SOL    HW126243   4.804   6.198   3.515
 8448SOL    HW226244   4.745   6.213   3.667
 8449SOL     OW26245   0.591   3.477   4.034
 8449SOL    HW126246   0.527   3.405   4.007
 8449SOL    HW226247   0.592   3.548   3.965
 8450SOL     OW26248   0.265   0.635   0.823
 8450SOL    HW126249   0.221   0.723   0.810
 8450SOL    HW226250   0.198   0.568   0.856
 8451SOL     OW26251   2.976   1.023   0.571
 8451SOL    HW126252   2.927   0.944   0.535
 8451SOL    HW226253   2.952   1.104   0.517
 8452SOL     OW26254   4.884   2.303   4.208
 8452SOL    HW126255   4.953   2.350   4.262
 8452SOL    HW226256   4.875   2.348   4.119
 8453SOL     OW26257   0.291   5.287   6.913
 8453SOL    HW126258   0.328   5.244   6.831
 8453SOL    HW226259   0.234   5.221   6.962
 8454SOL     OW26260   0.535   4.801   0.232
 8454SOL    HW126261   0.481   4.873   0.277
 8454SOL    HW226262   0.527   4.811   0.133
 8455SOL     OW26263   6.922   1.470   2.975
 8455SOL    HW126264   6.922   1.541   3.046
 8455SOL    HW226265   6.859   1.397   3.001
 8456SOL     OW26266   4.731   0.718   3.567
 8456SOL    HW126267   4.759   0.759   3.654
 8456SOL    HW226268   4.743   0.785   3.494
 8457SOL     OW26269   6.678   6.403   4.461
 8457SOL    HW126270   6.616   6.388   4.538
 8457SOL    HW226271   6.771   6.417   4.494
 8458SOL     OW26272   0.931   0.443   0.555
 8458SOL    HW126273   0.940   0.365   0.617
 8458SOL    HW226274   1.021   0.468   0.519
 8459SOL     OW26275   1.817   5.921   3.225
 8459SOL    HW126276   1.830   5.830   3.265
 8459SOL    HW226277   1.721   5.949   3.234
 8460SOL     OW26278   4.372   3.817   5.319
 8460SOL    HW126279   4.339   3.910   5.303
 8460SOL    HW226280   4.472   3.819   5.324
 8461SOL     OW26281   0.680   2.399   5.568
 8461SOL    HW126282   0.760   2.342   5.581
 8461SOL    HW226283   0.652   2.397   5.472
 8462SOL     OW26284   3.265   2.047   1.017
 8462SOL    HW126285   3.283   2.042   1.115
 8462SOL    HW226286   3.315   1.974   0.970
 8463SOL     OW26287   6.495   6.978   1.785
 8463SOL    HW126288   6.440   7.004   1.864
 8463SOL    HW226289   6.481   0.025   1.711
 8464SOL     OW26290   5.671   3.617   4.363
 8464SOL    HW126291   5.574   3.599   4.353
 8464SOL    HW226292   5.711   3.638   4.274
 8465SOL     OW26293   1.698   1.848   0.650
 8465SOL    HW126294   1.665   1.781   0.583
 8465SOL    HW226295   1.692   1.940   0.611
 8466SOL     OW26296   1.164   5.761   3.758
 8466SOL    HW126297   1.117   5.739   3.844
 8466SOL    HW226298   1.098   5.763   3.684
 8467SOL     OW26299   3.053   5.901   0.634
 8467SOL    HW126300   2.967   5.890   0.583
 8467SOL    HW226301   3.093   5.811   0.651
 8468SOL     OW26302   3.717   2.211   0.702
 8468SOL    HW126303   3.742   2.289   0.759
 8468SOL    HW226304   3.650   2.240   0.633
 8469SOL     OW26305   3.219   3.370   6.393
 8469SOL    HW126306   3.216   3.428   6.475
 8469SOL    HW226307   3.314   3.357   6.364
 8470SOL     OW26308   2.126   2.716   1.467
 8470SOL    HW126309   2.214   2.751   1.436
 8470SOL    HW226310   2.106   2.750   1.559
 8471SOL     OW26311   2.612   0.508   3.672
 8471SOL    HW126312   2.665   0.428   3.700
 8471SOL    HW226313   2.569   0.490   3.583
 8472SOL     OW26314   0.535   6.891   4.724
 8472SOL    HW126315   0.473   6.949   4.670
 8472SOL    HW226316   0.616   6.870   4.669
 8473SOL     OW26317   7.005   5.983   6.880
 8473SOL    HW126318   0.056   6.050   6.853
 8473SOL    HW226319   6.928   6.030   6.924
 8474SOL     OW26320   3.005   3.106   1.830
 8474SOL    HW126321   3.045   3.045   1.898
 8474SOL    HW226322   3.077   3.143   1.771
 8475SOL     OW26323   6.580   1.663   2.605
 8475SOL    HW126324   6.581   1.634   2.700
 8475SOL    HW226325   6.485   1.668   2.573
 8476SOL     OW26326   6.147   6.986   1.777
 8476SOL    HW126327   6.222   6.996   1.841
 8476SOL    HW226328   6.122   6.890   1.768
 8477SOL     OW26329   2.800   6.558   1.016
 8477SOL    HW126330   2.775   6.485   1.079
 8477SOL    HW226331   2.898   6.555   0.998
 8478SOL     OW26332   1.913   0.769   5.635
 8478SOL    HW126333   1.860   0.750   5.719
 8478SOL    HW226334   1.975   0.692   5.618
 8479SOL     OW26335   6.123   0.869   0.245
 8479SOL    HW126336   6.071   0.923   0.178
 8479SOL    HW226337   6.221   0.888   0.233
 8480SOL     OW26338   3.312   1.432   1.437
 8480SOL    HW126339   3.389   1.443   1.500
 8480SOL    HW226340   3.242   1.500   1.458
 8481SOL     OW26341   4.107   1.355   4.490
 8481SOL    HW126342   4.150   1.351   4.580
 8481SOL    HW226343   4.142   1.281   4.433
 8482SOL     OW26344   2.080   0.274   2.094
 8482SOL    HW126345   2.067   0.230   2.005
 8482SOL    HW226346   2.018   0.352   2.102
 8483SOL     OW26347   3.174   5.456   2.805
 8483SOL    HW126348   3.248   5.480   2.742
 8483SOL    HW226349   3.088   5.495   2.771
 8484SOL     OW26350   6.975   4.928   3.130
 8484SOL    HW126351   6.939   4.896   3.043
 8484SOL    HW226352   0.051   4.895   3.141
 8485SOL     OW26353   1.931   3.573   0.315
 8485SOL    HW126354   1.967   3.559   0.407
 8485SOL    HW226355   1.998   3.622   0.260
 8486SOL     OW26356   5.255   1.124   2.820
 8486SOL    HW126357   5.167   1.081   2.839
 8486SOL    HW226358   5.315   1.057   2.775
 8487SOL     OW26359   5.087   0.161   0.993
 8487SOL    HW126360   5.143   0.162   0.910
 8487SOL    HW226361   5.024   0.083   0.990
 8488SOL     OW26362   5.787   5.497   4.623
 8488SOL    HW126363   5.857   5.449   4.677
 8488SOL    HW226364   5.730   5.430   4.576
 8489SOL     OW26365   5.835   5.546   1.264
 8489SOL    HW126366   5.749   5.497   1.281
 8489SOL    HW226367   5.873   5.578   1.350
 8490SOL     OW26368   4.798   5.700   3.519
 8490SOL    HW126369   4.790   5.610   3.476
 8490SOL    HW226370   4.778   5.771   3.451
 8491SOL     OW26371   2.623   0.585   1.746
 8491SOL    HW126372   2.559   0.552   1.816
 8491SOL    HW226373   2.618   0.526   1.666
 8492SOL     OW26374   4.973   3.737   5.472
 8492SOL    HW126375   5.057   3.787   5.492
 8492SOL    HW226376   4.943   3.757   5.379
 8493SOL     OW26377   3.487   1.765   0.397
 8493SOL    HW126378   3.498   1.703   0.475
 8493SOL    HW226379   3.460   1.712   0.316
 8494SOL     OW26380   2.053   4.893   6.702
 8494SOL    HW126381   2.023   4.860   6.613
 8494SOL    HW226382   2.041   4.822   6.770
 8495SOL     OW26383   0.073   3.194   0.879
 8495SOL    HW126384   0.078   3.128   0.954
 8495SOL    HW226385   0.040   3.282   0.915
 8496SOL     OW26386   0.747   1.551   3.447
 8496SOL    HW126387   0.740   1.542   3.348
 8496SOL    HW226388   0.680   1.490   3.491
 8497SOL     OW26389   5.263   5.907   4.270
 8497SOL    HW126390   5.292   5.956   4.352
 8497SOL    HW226391   5.290   5.811   4.277
 8498SOL     OW26392   0.189   6.596   1.543
 8498SOL    HW126393   0.157   6.674   1.489
 8498SOL    HW226394   0.278   6.565   1.507
 8499SOL     OW26395   2.296   4.956   6.574
 8499SOL    HW126396   2.201   4.929   6.564
 8499SOL    HW226397   2.349   4.923   6.497
 8500SOL     OW26398   2.553   0.066   5.537
 8500SOL    HW126399   2.589   0.144   5.485
 8500SOL    HW226400   2.551   7.004   5.478
 8501SOL     OW26401   1.469   2.783   6.714
 8501SOL    HW126402   1.453   2.812   6.809
 8501SOL    HW226403   1.564   2.755   6.704
 8502SOL     OW26404   0.625   5.135   1.486
 8502SOL    HW126405   0.701   5.189   1.523
 8502SOL    HW226406   0.637   5.039   1.509
 8503SOL     OW26407   0.653   5.231   3.431
 8503SOL    HW126408   0.678   5.186   3.516
 8503SOL    HW226409   0.650   5.330   3.446
 8504SOL     OW26410   1.581   6.097   3.458
 8504SOL    HW126411   1.664   6.150   3.439
 8504SOL    HW226412   1.583   6.012   3.405
 8505SOL     OW26413   5.205   4.076   3.821
 8505SOL    HW126414   5.224   3.991   3.871
 8505SOL    HW226415   5.112   4.106   3.840
 8506SOL     OW26416   1.091   6.594   0.134
 8506SOL    HW126417   1.155   6.602   0.058
 8506SOL    HW226418   0.999   6.616   0.102
 8507SOL     OW26419   2.387   0.906   5.354
 8507SOL    HW126420   2.480   0.891   5.389
 8507SOL    HW226421   2.385   0.990   5.300
 8508SOL     OW26422   6.315   2.989   4.992
 8508SOL    HW126423   6.359   3.018   4.908
 8508SOL    HW226424   6.219   3.017   4.992
 8509SOL     OW26425   6.020   1.207   4.396
 8509SOL    HW126426   5.947   1.207   4.464
 8509SOL    HW226427   5.990   1.254   4.313
 8510SOL     OW26428   6.527   5.651   3.358
 8510SOL    HW126429   6.560   5.665   3.265
 8510SOL    HW226430   6.578   5.709   3.421
 8511SOL     OW26431   5.410   4.204   1.601
 8511SOL    HW126432   5.462   4.283   1.631
 8511SOL    HW226433   5.345   4.177   1.672
 8512SOL     OW26434   4.233   2.068   0.316
 8512SOL    HW126435   4.151   2.012   0.306
 8512SOL    HW226436   4.212   2.150   0.369
 8513SOL     OW26437   4.969   3.756   1.215
 8513SOL    HW126438   4.980   3.749   1.314
 8513SOL    HW226439   5.057   3.774   1.172
 8514SOL     OW26440   2.599   2.452   3.850
 8514SOL    HW126441   2.646   2.492   3.771
 8514SOL    HW226442   2.542   2.376   3.820
 8515SOL     OW26443   0.059   1.277   7.018
 8515SOL    HW126444   0.158   1.285   0.012
 8515SOL    HW226445   0.028   1.188   0.034
 8516SOL     OW26446   6.073   3.090   2.536
 8516SOL    HW126447   6.059   3.188   2.525
 8516SOL    HW226448   6.162   3.064   2.500
 8517SOL     OW26449   2.201   2.507   6.017
 8517SOL    HW126450   2.178   2.595   6.058
 8517SOL    HW226451   2.144   2.491   5.936
 8518SOL     OW26452   4.944   4.143   5.922
 8518SOL    HW126453   4.936   4.115   5.826
 8518SOL    HW226454   4.910   4.237   5.931
 8519SOL     OW26455   0.790   4.457   0.399
 8519SOL    HW126456   0.691   4.467   0.395
 8519SOL    HW226457   0.825   4.501   0.482
 8520SOL     OW26458   3.397   3.279   4.936
 8520SOL    HW126459   3.423   3.237   5.023
 8520SOL    HW226460   3.479   3.309   4.887
 8521SOL     OW26461   2.205   6.489   5.580
 8521SOL    HW126462   2.202   6.503   5.481
 8521SOL    HW226463   2.271   6.552   5.620
 8522SOL     OW26464   0.809   0.241   0.993
 8522SOL    HW126465   0.856   0.181   1.059
 8522SOL    HW226466   0.716   0.258   1.024
 8523SOL     OW26467   3.009   0.072   6.946
 8523SOL    HW126468   2.998   0.029   0.018
 8523SOL    HW226469   2.919   0.088   6.906
 8524SOL     OW26470   1.553   4.518   4.846
 8524SOL    HW126471   1.488   4.556   4.780
 8524SOL    HW226472   1.503   4.464   4.914
 8525SOL     OW26473   5.825   5.076   1.406
 8525SOL    HW126474   5.743   5.023   1.425
 8525SOL    HW226475   5.906   5.018   1.413
 8526SOL     OW26476   3.125   6.469   0.499
 8526SOL    HW126477   3.072   6.388   0.474
 8526SOL    HW226478   3.172   6.505   0.419
 8527SOL     OW26479   3.538   0.968   6.953
 8527SOL    HW126480   3.465   1.031   6.978
 8527SOL    HW226481   3.535   0.887   7.012
 8528SOL     OW26482   4.562   1.881   1.232
 8528SOL    HW126483   4.493   1.953   1.234
 8528SOL    HW226484   4.625   1.896   1.155
 8529SOL     OW26485   1.316   6.682   6.572
 8529SOL    HW126486   1.270   6.596   6.551
 8529SOL    HW226487   1.415   6.670   6.562
 8530SOL     OW26488   3.503   4.179   4.579
 8530SOL    HW126489   3.447   4.257   4.551
 8530SOL    HW226490   3.450   4.095   4.567
 8531SOL     OW26491   6.945   5.624   2.876
 8531SOL    HW126492   6.969   5.576   2.792
 8531SOL    HW226493   6.980   5.572   2.955
 8532SOL     OW26494   3.877   6.717   4.404
 8532SOL    HW126495   3.970   6.755   4.410
 8532SOL    HW226496   3.859   6.689   4.310
 8533SOL     OW26497   1.558   5.951   6.958
 8533SOL    HW126498   1.582   6.013   6.884
 8533SOL    HW226499   1.641   5.923   7.007
 8534SOL     OW26500   4.458   2.427   3.646
 8534SOL    HW126501   4.460   2.434   3.546
 8534SOL    HW226502   4.364   2.411   3.676
 8535SOL     OW26503   5.756   1.247   4.239
 8535SOL    HW126504   5.766   1.345   4.252
 8535SOL    HW226505   5.816   1.216   4.166
 8536SOL     OW26506   1.215   2.308   5.020
 8536SOL    HW126507   1.281   2.279   4.951
 8536SOL    HW226508   1.124   2.313   4.980
 8537SOL     OW26509   6.052   1.493   3.505
 8537SOL    HW126510   5.991   1.418   3.530
 8537SOL    HW226511   6.058   1.558   3.580
 8538SOL     OW26512   1.846   1.608   0.064
 8538SOL    HW126513   1.907   1.565   0.130
 8538SOL    HW226514   1.766   1.550   0.049
 8539SOL     OW26515   6.708   1.859   2.460
 8539SOL    HW126516   6.648   1.855   2.380
 8539SOL    HW226517   6.679   1.790   2.526
 8540SOL     OW26518   5.503   0.427   6.912
 8540SOL    HW126519   5.447   0.377   6.978
 8540SOL    HW226520   5.520   0.371   6.831
 8541SOL     OW26521   3.343   1.707   3.496
 8541SOL    HW126522   3.365   1.726   3.400
 8541SOL    HW226523   3.420   1.735   3.554
 8542SOL     OW26524   3.268   4.335   6.284
 8542SOL    HW126525   3.364   4.312   6.268
 8542SOL    HW226526   3.236   4.397   6.213
 8543SOL     OW26527   1.619   1.531   1.087
 8543SOL    HW126528   1.668   1.617   1.103
 8543SOL    HW226529   1.521   1.545   1.100
 8544SOL     OW26530   5.455   2.929   3.961
 8544SOL    HW126531   5.371   2.882   3.934
 8544SOL    HW226532   5.463   3.016   3.912
 8545SOL     OW26533   4.612   6.679   6.204
 8545SOL    HW126534   4.647   6.679   6.297
 8545SOL    HW226535   4.687   6.696   6.140
 8546SOL     OW26536   6.198   2.171   3.746
 8546SOL    HW126537   6.172   2.164   3.842
 8546SOL    HW226538   6.132   2.228   3.697
 8547SOL     OW26539   1.608   6.030   6.270
 8547SOL    HW126540   1.599   6.115   6.322
 8547SOL    HW226541   1.562   5.956   6.318
 8548SOL     OW26542   6.236   2.480   4.721
 8548SOL    HW126543   6.233   2.578   4.741
 8548SOL    HW226544   6.174   2.431   4.783
 8549SOL     OW26545   0.101   3.520   4.511
 8549SOL    HW126546   0.145   3.513   4.600
 8549SOL    HW226547   0.004   3.543   4.523
 8550SOL     OW26548   1.835   4.838   0.077
 8550SOL    HW126549   1.914   4.898   0.091
 8550SOL    HW226550   1.779   4.874   0.002
 8551SOL     OW26551   3.516   4.240   6.505
 8551SOL    HW126552   3.523   4.296   6.423
 8551SOL    HW226553   3.503   4.299   6.585
 8552SOL     OW26554   2.990   5.881   3.588
 8552SOL    HW126555   2.894   5.886   3.616
 8552SOL    HW226556   2.998   5.908   3.492
 8553SOL     OW26557   5.259   5.641   0.165
 8553SOL    HW126558   5.311   5.706   0.110
 8553SOL    HW226559   5.244   5.557   0.113
 8554SOL     OW26560   0.365   4.924   0.405
 8554SOL    HW126561   0.374   4.911   0.504
 8554SOL    HW226562   0.353   5.021   0.386
 8555SOL     OW26563   1.179   0.708   3.059
 8555SOL    HW126564   1.227   0.699   2.972
 8555SOL    HW226565   1.109   0.637   3.066
 8556SOL     OW26566   0.548   0.129   2.991
 8556SOL    HW126567   0.539   0.059   3.061
 8556SOL    HW226568   0.478   0.200   3.005
 8557SOL     OW26569   6.409   0.511   1.595
 8557SOL    HW126570   6.400   0.454   1.677
 8557SOL    HW226571   6.468   0.465   1.528
 8558SOL     OW26572   2.580   5.305   2.848
 8558SOL    HW126573   2.557   5.241   2.923
 8558SOL    HW226574   2.585   5.398   2.884
 8559SOL     OW26575   0.318   0.630   2.339
 8559SOL    HW126576   0.299   0.669   2.429
 8559SOL    HW226577   0.297   0.698   2.268
 8560SOL     OW26578   6.856   0.210   0.889
 8560SOL    HW126579   6.786   0.207   0.818
 8560SOL    HW226580   6.830   0.275   0.960
 8561SOL     OW26581   4.124   5.861   2.364
 8561SOL    HW126582   4.137   5.958   2.383
 8561SOL    HW226583   4.051   5.849   2.297
 8562SOL     OW26584   5.342   6.452   4.715
 8562SOL    HW126585   5.275   6.412   4.776
 8562SOL    HW226586   5.433   6.449   4.758
 8563SOL     OW26587   2.911   3.178   6.556
 8563SOL    HW126588   2.880   3.229   6.636
 8563SOL    HW226589   2.839   3.178   6.487
 8564SOL     OW26590   1.590   0.879   3.433
 8564SOL    HW126591   1.530   0.957   3.414
 8564SOL    HW226592   1.628   0.844   3.347
 8565SOL     OW26593   4.006   6.944   1.453
 8565SOL    HW126594   3.942   6.896   1.514
 8565SOL    HW226595   4.017   6.892   1.368
 8566SOL     OW26596   1.030   1.524   2.724
 8566SOL    HW126597   1.020   1.425   2.733
 8566SOL    HW226598   0.954   1.560   2.669
 8567SOL     OW26599   6.515   1.476   1.280
 8567SOL    HW126600   6.422   1.472   1.316
 8567SOL    HW226601   6.580   1.473   1.356
 8568SOL     OW26602   5.066   1.543   6.823
 8568SOL    HW126603   4.975   1.516   6.790
 8568SOL    HW226604   5.102   1.471   6.882
 8569SOL     OW26605   4.782   1.687   5.594
 8569SOL    HW126606   4.842   1.608   5.591
 8569SOL    HW226607   4.686   1.658   5.585
 8570SOL     OW26608   1.155   3.819   5.891
 8570SOL    HW126609   1.188   3.913   5.883
 8570SOL    HW226610   1.134   3.784   5.799
 8571SOL     OW26611   0.232   5.412   5.579
 8571SOL    HW126612   0.139   5.381   5.596
 8571SOL    HW226613   0.295   5.365   5.640
 8572SOL     OW26614   2.486   5.329   5.879
 8572SOL    HW126615   2.430   5.305   5.800
 8572SOL    HW226616   2.438   5.396   5.935
 8573SOL     OW26617   4.026   6.146   6.654
 8573SOL    HW126618   4.036   6.135   6.753
 8573SOL    HW226619   4.031   6.243   6.630
 8574SOL     OW26620   0.944   4.879   5.804
 8574SOL    HW126621   1.016   4.811   5.793
 8574SOL    HW226622   0.932   4.929   5.718
 8575SOL     OW26623   2.506   2.423   6.874
 8575SOL    HW126624   2.540   2.516   6.859
 8575SOL    HW226625   2.577   2.358   6.848
 8576SOL     OW26626   0.549   6.983   1.463
 8576SOL    HW126627   0.543   6.969   1.364
 8576SOL    HW226628   0.457   6.982   1.502
 8577SOL     OW26629   6.160   5.195   4.178
 8577SOL    HW126630   6.208   5.267   4.228
 8577SOL    HW226631   6.201   5.184   4.088
 8578SOL     OW26632   4.783   0.403   4.493
 8578SOL    HW126633   4.813   0.390   4.398
 8578SOL    HW226634   4.719   0.331   4.518
 8579SOL     OW26635   1.046   5.088   3.493
 8579SOL    HW126636   1.076   5.021   3.425
 8579SOL    HW226637   1.099   5.076   3.577
 8580SOL     OW26638   2.593   6.900   1.952
 8580SOL    HW126639   2.551   6.852   1.875
 8580SOL    HW226640   2.591   6.841   2.033
 8581SOL     OW26641   3.672   2.213   1.406
 8581SOL    HW126642   3.616   2.232   1.487
 8581SOL    HW226643   3.620   2.158   1.341
 8582SOL     OW26644   4.673   4.403   2.450
 8582SOL    HW126645   4.655   4.477   2.515
 8582SOL    HW226646   4.771   4.385   2.448
 8583SOL     OW26647   6.063   0.995   6.366
 8583SOL    HW126648   6.116   0.927   6.416
 8583SOL    HW226649   5.969   0.997   6.400
 8584SOL     OW26650   0.279   4.563   0.458
 8584SOL    HW126651   0.223   4.593   0.381
 8584SOL    HW226652   0.240   4.597   0.544
 8585SOL     OW26653   0.283   0.227   0.910
 8585SOL    HW126654   0.219   0.183   0.847
 8585SOL    HW226655   0.235   0.291   0.969
 8586SOL     OW26656   2.917   6.228   3.088
 8586SOL    HW126657   2.987   6.199   3.023
 8586SOL    HW226658   2.961   6.266   3.169
 8587SOL     OW26659   0.621   0.951   3.039
 8587SOL    HW126660   0.649   0.963   3.134
 8587SOL    HW226661   0.651   0.861   3.006
 8588SOL     OW26662   3.388   1.822   0.947
 8588SOL    HW126663   3.469   1.770   0.974
 8588SOL    HW226664   3.351   1.784   0.863
 8589SOL     OW26665   3.691   1.442   4.440
 8589SOL    HW126666   3.741   1.357   4.460
 8589SOL    HW226667   3.739   1.519   4.481
 8590SOL     OW26668   6.682   5.694   4.432
 8590SOL    HW126669   6.613   5.764   4.416
 8590SOL    HW226670   6.748   5.727   4.499
 8591SOL     OW26671   0.722   4.466   6.754
 8591SOL    HW126672   0.794   4.434   6.693
 8591SOL    HW226673   0.718   4.408   6.835
 8592SOL     OW26674   0.107   4.668   0.268
 8592SOL    HW126675   0.035   4.605   0.241
 8592SOL    HW226676   0.151   4.706   0.186
 8593SOL     OW26677   1.212   6.763   1.860
 8593SOL    HW126678   1.287   6.798   1.805
 8593SOL    HW226679   1.183   6.675   1.824
 8594SOL     OW26680   3.137   4.017   4.344
 8594SOL    HW126681   3.052   4.028   4.293
 8594SOL    HW226682   3.156   3.919   4.355
 8595SOL     OW26683   1.895   2.118   2.944
 8595SOL    HW126684   1.973   2.060   2.965
 8595SOL    HW226685   1.868   2.105   2.849
 8596SOL     OW26686   5.978   5.437   2.398
 8596SOL    HW126687   5.943   5.527   2.372
 8596SOL    HW226688   5.904   5.371   2.400
 8597SOL     OW26689   3.948   2.040   1.195
 8597SOL    HW126690   4.016   2.055   1.267
 8597SOL    HW226691   3.917   2.129   1.159
 8598SOL     OW26692   0.147   5.053   0.958
 8598SOL    HW126693   0.099   4.995   1.023
 8598SOL    HW226694   0.105   5.045   0.868
 8599SOL     OW26695   1.058   2.945   4.063
 8599SOL    HW126696   1.031   2.879   3.993
 8599SOL    HW226697   1.118   2.900   4.129
 8600SOL     OW26698   6.265   4.409   6.574
 8600SOL    HW126699   6.221   4.377   6.658
 8600SOL    HW226700   6.235   4.503   6.554
 8601SOL     OW26701   0.211   1.196   4.905
 8601SOL    HW126702   0.288   1.177   4.965
 8601SOL    HW226703   0.197   1.295   4.898
 8602SOL     OW26704   2.753   6.799   2.902
 8602SOL    HW126705   2.807   6.875   2.867
 8602SOL    HW226706   2.750   6.803   3.002
 8603SOL     OW26707   3.592   3.972   0.004
 8603SOL    HW126708   3.510   3.939   6.975
 8603SOL    HW226709   3.673   3.947   6.970
 8604SOL     OW26710   6.262   2.804   3.637
 8604SOL    HW126711   6.300   2.825   3.547
 8604SOL    HW226712   6.318   2.734   3.681
 8605SOL     OW26713   3.755   5.075   4.409
 8605SOL    HW126714   3.735   5.022   4.491
 8605SOL    HW226715   3.672   5.087   4.355
 8606SOL     OW26716   2.311   4.070   5.811
 8606SOL    HW126717   2.256   4.001   5.764
 8606SOL    HW226718   2.399   4.081   5.765
 8607SOL     OW26719   3.569   5.650   1.387
 8607SOL    HW126720   3.622   5.574   1.426
 8607SOL    HW226721   3.472   5.638   1.409
 8608SOL     OW26722   4.450   5.095   2.717
 8608SOL    HW126723   4.473   5.034   2.641
 8608SOL    HW226724   4.531   5.114   2.771
 8609SOL     OW26725   3.552   0.402   4.358
 8609SOL    HW126726   3.557   0.491   4.402
 8609SOL    HW226727   3.553   0.414   4.259
 8610SOL     OW26728   1.081   0.139   2.759
 8610SOL    HW126729   1.093   0.228   2.802
 8610SOL    HW226730   1.028   0.148   2.675
 8611SOL     OW26731   1.457   2.192   4.669
 8611SOL    HW126732   1.477   2.290   4.662
 8611SOL    HW226733   1.524   2.141   4.615
 8612SOL     OW26734   3.105   3.714   6.312
 8612SOL    HW126735   3.128   3.811   6.320
 8612SOL    HW226736   3.151   3.675   6.233
 8613SOL     OW26737   2.324   1.358   1.251
 8613SOL    HW126738   2.277   1.440   1.219
 8613SOL    HW226739   2.322   1.288   1.179
 8614SOL     OW26740   0.894   4.019   2.855
 8614SOL    HW126741   0.891   4.003   2.954
 8614SOL    HW226742   0.889   4.117   2.837
 8615SOL     OW26743   4.761   2.116   5.501
 8615SOL    HW126744   4.664   2.125   5.523
 8615SOL    HW226745   4.782   2.020   5.482
 8616SOL     OW26746   0.551   4.553   0.388
 8616SOL    HW126747   0.545   4.632   0.327
 8616SOL    HW226748   0.469   4.550   0.445
 8617SOL     OW26749   6.558   1.870   0.363
 8617SOL    HW126750   6.621   1.913   0.428
 8617SOL    HW226751   6.500   1.939   0.321
 8618SOL     OW26752   4.395   6.836   1.916
 8618SOL    HW126753   4.398   6.801   1.822
 8618SOL    HW226754   4.323   6.905   1.923
 8619SOL     OW26755   4.163   5.081   0.562
 8619SOL    HW126756   4.071   5.053   0.592
 8619SOL    HW226757   4.186   5.169   0.604
 8620SOL     OW26758   6.021   6.743   2.356
 8620SOL    HW126759   6.117   6.751   2.331
 8620SOL    HW226760   5.978   6.833   2.354
 8621SOL     OW26761   6.136   1.087   3.918
 8621SOL    HW126762   6.217   1.109   3.971
 8621SOL    HW226763   6.055   1.120   3.966
 8622SOL     OW26764   4.761   4.469   0.333
 8622SOL    HW126765   4.844   4.513   0.298
 8622SOL    HW226766   4.684   4.532   0.323
 8623SOL     OW26767   0.638   4.364   2.863
 8623SOL    HW126768   0.727   4.324   2.883
 8623SOL    HW226769   0.589   4.381   2.948
 8624SOL     OW26770   1.057   4.619   3.345
 8624SOL    HW126771   1.046   4.559   3.423
 8624SOL    HW226772   0.972   4.622   3.292
 8625SOL     OW26773   4.612   0.604   4.361
 8625SOL    HW126774   4.679   0.562   4.422
 8625SOL    HW226775   4.532   0.545   4.353
 8626SOL     OW26776   3.812   3.405   4.179
 8626SOL    HW126777   3.780   3.333   4.241
 8626SOL    HW226778   3.734   3.445   4.131
 8627SOL     OW26779   1.243   0.576   2.027
 8627SOL    HW126780   1.243   0.493   1.971
 8627SOL    HW226781   1.215   0.553   2.121
 8628SOL     OW26782   6.173   6.818   0.656
 8628SOL    HW126783   6.128   6.907   0.652
 8628SOL    HW226784   6.135   6.765   0.732
 8629SOL     OW26785   1.858   4.663   4.283
 8629SOL    HW126786   1.842   4.706   4.194
 8629SOL    HW226787   1.911   4.580   4.270
 8630SOL     OW26788   5.937   3.975   5.036
 8630SOL    HW126789   5.935   3.909   4.961
 8630SOL    HW226790   5.945   3.927   5.123
 8631SOL     OW26791   3.755   6.405   5.798
 8631SOL    HW126792   3.757   6.492   5.849
 8631SOL    HW226793   3.797   6.420   5.708
 8632SOL     OW26794   3.444   6.608   4.040
 8632SOL    HW126795   3.528   6.564   4.007
 8632SOL    HW226796   3.369   6.542   4.036
 8633SOL     OW26797   5.473   1.559   4.291
 8633SOL    HW126798   5.430   1.503   4.221
 8633SOL    HW226799   5.472   1.510   4.379
 8634SOL     OW26800   6.383   3.628   1.420
 8634SOL    HW126801   6.450   3.702   1.421
 8634SOL    HW226802   6.315   3.645   1.492
 8635SOL     OW26803   5.768   3.958   5.852
 8635SOL    HW126804   5.797   3.989   5.942
 8635SOL    HW226805   5.697   4.020   5.817
 8636SOL     OW26806   6.413   4.891   6.553
 8636SOL    HW126807   6.445   4.907   6.460
 8636SOL    HW226808   6.411   4.977   6.603
 8637SOL     OW26809   1.512   1.071   0.329
 8637SOL    HW126810   1.424   1.118   0.320
 8637SOL    HW226811   1.586   1.139   0.325
 8638SOL     OW26812   2.177   3.276   0.257
 8638SOL    HW126813   2.242   3.226   0.200
 8638SOL    HW226814   2.198   3.259   0.353
 8639SOL     OW26815   5.701   2.415   1.861
 8639SOL    HW126816   5.752   2.466   1.930
 8639SOL    HW226817   5.603   2.423   1.880
 8640SOL     OW26818   4.942   3.878   0.648
 8640SOL    HW126819   5.032   3.859   0.607
 8640SOL    HW226820   4.924   3.976   0.644
 8641SOL     OW26821   6.783   3.867   4.082
 8641SOL    HW126822   6.701   3.833   4.035
 8641SOL    HW226823   6.845   3.907   4.015
 8642SOL     OW26824   4.718   0.465   2.426
 8642SOL    HW126825   4.702   0.518   2.509
 8642SOL    HW226826   4.805   0.493   2.386
 8643SOL     OW26827   4.741   6.660   0.004
 8643SOL    HW126828   4.796   6.580   7.000
 8643SOL    HW226829   4.663   6.633   0.060
 8644SOL     OW26830   5.361   2.878   5.382
 8644SOL    HW126831   5.383   2.943   5.456
 8644SOL    HW226832   5.434   2.810   5.376
 8645SOL     OW26833   6.058   4.931   1.423
 8645SOL    HW126834   6.113   4.956   1.342
 8645SOL    HW226835   6.075   4.835   1.446
 8646SOL     OW26836   5.133   0.975   0.716
 8646SOL    HW126837   5.108   0.900   0.777
 8646SOL    HW226838   5.179   1.047   0.767
 8647SOL     OW26839   3.552   4.742   0.408
 8647SOL    HW126840   3.527   4.693   0.324
 8647SOL    HW226841   3.651   4.743   0.418
 8648SOL     OW26842   5.823   1.108   4.627
 8648SOL    HW126843   5.833   1.074   4.721
 8648SOL    HW226844   5.766   1.189   4.627
 8649SOL     OW26845   5.817   4.726   5.510
 8649SOL    HW126846   5.725   4.695   5.488
 8649SOL    HW226847   5.818   4.825   5.517
 8650SOL     OW26848   1.941   5.164   4.050
 8650SOL    HW126849   1.899   5.159   3.959
 8650SOL    HW226850   2.036   5.192   4.041
 8651SOL     OW26851   3.978   0.949   0.424
 8651SOL    HW126852   3.976   0.999   0.337
 8651SOL    HW226853   3.956   0.853   0.407
 8652SOL     OW26854   1.787   4.369   3.018
 8652SOL    HW126855   1.731   4.293   3.050
 8652SOL    HW226856   1.729   4.445   2.991
 8653SOL     OW26857   6.643   2.721   6.501
 8653SOL    HW126858   6.658   2.662   6.422
 8653SOL    HW226859   6.567   2.783   6.483
 8654SOL     OW26860   0.654   6.048   2.400
 8654SOL    HW126861   0.665   5.983   2.475
 8654SOL    HW226862   0.587   6.117   2.425
 8655SOL     OW26863   5.929   0.298   4.146
 8655SOL    HW126864   5.945   0.395   4.162
 8655SOL    HW226865   5.881   0.286   4.059
 8656SOL     OW26866   5.888   0.951   1.075
 8656SOL    HW126867   5.796   0.983   1.097
 8656SOL    HW226868   5.950   1.029   1.072
 8657SOL     OW26869   4.140   5.281   6.277
 8657SOL    HW126870   4.062   5.278   6.340
 8657SOL    HW226871   4.176   5.189   6.265
 8658SOL     OW26872   4.678   5.238   0.210
 8658SOL    HW126873   4.631   5.211   0.126
 8658SOL    HW226874   4.777   5.224   0.198
 8659SOL     OW26875   4.671   0.914   3.206
 8659SOL    HW126876   4.577   0.925   3.172
 8659SOL    HW226877   4.736   0.933   3.133
 8660SOL     OW26878   6.058   3.790   0.571
 8660SOL    HW126879   5.982   3.726   0.581
 8660SOL    HW226880   6.052   3.833   0.481
 8661SOL     OW26881   5.940   4.381   2.092
 8661SOL    HW126882   5.932   4.385   2.191
 8661SOL    HW226883   6.036   4.378   2.066
 8662SOL     OW26884   5.617   6.462   1.781
 8662SOL    HW126885   5.674   6.392   1.737
 8662SOL    HW226886   5.521   6.446   1.756
 8663SOL     OW26887   2.372   5.829   0.431
 8663SOL    HW126888   2.403   5.802   0.522
 8663SOL    HW226889   2.438   5.894   0.391
 8664SOL     OW26890   4.417   5.184   0.348
 8664SOL    HW126891   4.504   5.188   0.298
 8664SOL    HW226892   4.355   5.253   0.311
 8665SOL     OW26893   5.212   5.845   5.863
 8665SOL    HW126894   5.232   5.753   5.899
 8665SOL    HW226895   5.199   5.839   5.764
 8666SOL     OW26896   5.395   2.483   5.148
 8666SOL    HW126897   5.461   2.449   5.216
 8666SOL    HW226898   5.385   2.415   5.075
 8667SOL     OW26899   5.036   2.181   3.074
 8667SOL    HW126900   4.995   2.265   3.109
 8667SOL    HW226901   5.016   2.106   3.136
 8668SOL     OW26902   5.119   2.451   3.653
 8668SOL    HW126903   5.091   2.459   3.558
 8668SOL    HW226904   5.090   2.533   3.703
 8669SOL     OW26905   3.727   0.207   6.456
 8669SOL    HW126906   3.819   0.240   6.477
 8669SOL    HW226907   3.662   0.282   6.460
 8670SOL     OW26908   3.703   5.207   5.373
 8670SOL    HW126909   3.734   5.200   5.278
 8670SOL    HW226910   3.782   5.217   5.434
 8671SOL     OW26911   5.192   0.593   4.086
 8671SOL    HW126912   5.129   0.589   4.163
 8671SOL    HW226913   5.141   0.600   4.001
 8672SOL     OW26914   2.559   5.981   4.437
 8672SOL    HW126915   2.486   6.030   4.484
 8672SOL    HW226916   2.615   6.046   4.386
 8673SOL     OW26917   0.509   0.541   0.236
 8673SOL    HW126918   0.561   0.459   0.260
 8673SOL    HW226919   0.519   0.609   0.309
 8674SOL     OW26920   6.878   5.856   2.025
 8674SOL    HW126921   6.835   5.881   1.938
 8674SOL    HW226922   6.974   5.883   2.025
 8675SOL     OW26923   3.293   2.026   4.257
 8675SOL    HW126924   3.370   1.993   4.203
 8675SOL    HW226925   3.240   2.093   4.205
 8676SOL     OW26926   3.140   6.972   3.197
 8676SOL    HW126927   3.220   0.014   3.204
 8676SOL    HW226928   3.060   0.001   3.235
 8677SOL     OW26929   2.065   5.706   6.482
 8677SOL    HW126930   2.078   5.764   6.562
 8677SOL    HW226931   2.088   5.758   6.400
 8678SOL     OW26932   0.614   0.050   6.911
 8678SOL    HW126933   0.683   0.080   6.977
 8678SOL    HW226934   0.638   6.978   6.877
 8679SOL     OW26935   5.641   2.408   4.137
 8679SOL    HW126936   5.645   2.459   4.223
 8679SOL    HW226937   5.633   2.310   4.157
 8680SOL     OW26938   0.889   3.547   1.106
 8680SOL    HW126939   0.871   3.500   1.192
 8680SOL    HW226940   0.847   3.497   1.030
 8681SOL     OW26941   4.829   4.594   0.003
 8681SOL    HW126942   4.831   4.681   6.972
 8681SOL    HW226943   4.734   4.570   0.024
 8682SOL     OW26944   3.661   6.481   2.877
 8682SOL    HW126945   3.566   6.501   2.855
 8682SOL    HW226946   3.719   6.558   2.849
 8683SOL     OW26947   1.385   2.170   2.283
 8683SOL    HW126948   1.462   2.138   2.227
 8683SOL    HW226949   1.351   2.256   2.247
 8684SOL     OW26950   0.628   3.294   4.437
 8684SOL    HW126951   0.717   3.251   4.422
 8684SOL    HW226952   0.630   3.347   4.522
 8685SOL     OW26953   1.561   1.911   6.044
 8685SOL    HW126954   1.654   1.945   6.027
 8685SOL    HW226955   1.511   1.978   6.099
 8686SOL     OW26956   6.579   1.857   1.820
 8686SOL    HW126957   6.588   1.823   1.914
 8686SOL    HW226958   6.483   1.853   1.793
 8687SOL     OW26959   3.685   6.204   2.764
 8687SOL    HW126960   3.623   6.175   2.691
 8687SOL    HW226961   3.678   6.303   2.776
 8688SOL     OW26962   3.120   6.281   6.820
 8688SOL    HW126963   3.065   6.198   6.826
 8688SOL    HW226964   3.099   6.329   6.734
 8689SOL     OW26965   3.259   5.938   0.161
 8689SOL    HW126966   3.192   5.879   0.116
 8689SOL    HW226967   3.351   5.899   0.149
 8690SOL     OW26968   1.441   2.513   3.675
 8690SOL    HW126969   1.453   2.461   3.591
 8690SOL    HW226970   1.418   2.450   3.750
 8691SOL     OW26971   4.296   2.746   6.400
 8691SOL    HW126972   4.272   2.797   6.483
 8691SOL    HW226973   4.298   2.808   6.322
 8692SOL     OW26974   3.446   2.113   2.556
 8692SOL    HW126975   3.502   2.076   2.482
 8692SOL    HW226976   3.351   2.084   2.544
 8693SOL     OW26977   5.843   1.657   1.049
 8693SOL    HW126978   5.810   1.638   1.141
 8693SOL    HW226979   5.800   1.593   0.985
 8694SOL     OW26980   4.676   0.364   6.631
 8694SOL    HW126981   4.670   0.298   6.556
 8694SOL    HW226982   4.672   0.316   6.718
 8695SOL     OW26983   4.467   2.473   6.150
 8695SOL    HW126984   4.396   2.467   6.079
 8695SOL    HW226985   4.541   2.531   6.118
 8696SOL     OW26986   3.477   5.781   0.762
 8696SOL    HW126987   3.428   5.818   0.684
 8696SOL    HW226988   3.506   5.687   0.741
 8697SOL     OW26989   6.598   3.746   0.690
 8697SOL    HW126990   6.618   3.844   0.694
 8697SOL    HW226991   6.679   3.697   0.659
 8698SOL     OW26992   5.606   6.055   3.779
 8698SOL    HW126993   5.545   6.098   3.713
 8698SOL    HW226994   5.553   6.019   3.856
 8699SOL     OW26995   0.979   2.047   5.596
 8699SOL    HW126996   0.888   2.018   5.628
 8699SOL    HW226997   0.987   2.146   5.605
 8700SOL     OW26998   2.383   0.816   4.957
 8700SOL    HW126999   2.327   0.753   5.011
 8700SOL    HW227000   2.406   0.896   5.012
 8701SOL     OW27001   1.112   0.920   6.434
 8701SOL    HW127002   1.112   0.863   6.351
 8701SOL    HW227003   1.066   1.006   6.415
 8702SOL     OW27004   5.537   4.820   0.080
 8702SOL    HW127005   5.603   4.749   0.057
 8702SOL    HW227006   5.514   4.873   7.016
 8703SOL     OW27007   2.995   6.095   1.470
 8703SOL    HW127008   2.930   6.062   1.538
 8703SOL    HW227009   2.964   6.068   1.378
 8704SOL     OW27010   6.579   3.628   2.795
 8704SOL    HW127011   6.516   3.603   2.722
 8704SOL    HW227012   6.527   3.662   2.874
 8705SOL     OW27013   5.075   1.023   6.929
 8705SOL    HW127014   5.153   0.983   6.880
 8705SOL    HW227015   5.108   1.090   6.995
 8706SOL     OW27016   4.689   2.552   6.010
 8706SOL    HW127017   4.756   2.585   6.077
 8706SOL    HW227018   4.719   2.463   5.975
 8707SOL     OW27019   4.892   2.121   0.300
 8707SOL    HW127020   4.926   2.059   0.371
 8707SOL    HW227021   4.920   2.086   0.210
 8708SOL     OW27022   4.427   1.554   2.009
 8708SOL    HW127023   4.511   1.582   1.962
 8708SOL    HW227024   4.442   1.558   2.108
 8709SOL     OW27025   6.708   5.522   6.647
 8709SOL    HW127026   6.662   5.609   6.631
 8709SOL    HW227027   6.653   5.448   6.610
 8710SOL     OW27028   2.217   2.999   3.178
 8710SOL    HW127029   2.228   2.944   3.095
 8710SOL    HW227030   2.227   2.941   3.259
 8711SOL     OW27031   0.117   6.386   2.267
 8711SOL    HW127032   0.045   6.322   2.241
 8711SOL    HW227033   0.145   6.438   2.186
 8712SOL     OW27034   4.120   2.005   4.160
 8712SOL    HW127035   4.197   2.036   4.216
 8712SOL    HW227036   4.077   1.926   4.202
 8713SOL     OW27037   6.947   4.276   3.646
 8713SOL    HW127038   6.920   4.187   3.609
 8713SOL    HW227039   0.028   4.277   3.661
 8714SOL     OW27040   0.686   1.060   6.029
 8714SOL    HW127041   0.731   1.026   5.946
 8714SOL    HW227042   0.622   1.133   6.003
 8715SOL     OW27043   5.168   0.603   1.335
 8715SOL    HW127044   5.126   0.515   1.315
 8715SOL    HW227045   5.097   0.673   1.339
 8716SOL     OW27046   1.151   1.726   1.174
 8716SOL    HW127047   1.121   1.733   1.269
 8716SOL    HW227048   1.150   1.817   1.132
 8717SOL     OW27049   4.063   3.723   2.329
 8717SOL    HW127050   4.087   3.632   2.363
 8717SOL    HW227051   4.054   3.786   2.407
 8718SOL     OW27052   1.100   2.183   5.363
 8718SOL    HW127053   1.046   2.118   5.417
 8718SOL    HW227054   1.163   2.232   5.423
 8719SOL     OW27055   2.200   0.436   6.080
 8719SOL    HW127056   2.272   0.369   6.099
 8719SOL    HW227057   2.111   0.390   6.078
 8720SOL     OW27058   6.873   5.468   5.436
 8720SOL    HW127059   6.796   5.532   5.434
 8720SOL    HW227060   6.840   5.376   5.411
 8721SOL     OW27061   6.113   2.161   4.007
 8721SOL    HW127062   6.182   2.195   4.071
 8721SOL    HW227063   6.027   2.210   4.023
 8722SOL     OW27064   4.045   0.466   0.955
 8722SOL    HW127065   4.013   0.423   1.039
 8722SOL    HW227066   4.141   0.442   0.939
 8723SOL     OW27067   5.801   5.830   1.058
 8723SOL    HW127068   5.819   5.744   1.105
 8723SOL    HW227069   5.713   5.824   1.010
 8724SOL     OW27070   6.010   6.729   5.003
 8724SOL    HW127071   6.038   6.643   5.045
 8724SOL    HW227072   5.974   6.711   4.911
 8725SOL     OW27073   2.091   0.522   0.147
 8725SOL    HW127074   2.164   0.465   0.110
 8725SOL    HW227075   2.084   0.506   0.246
 8726SOL     OW27076   6.550   0.375   1.412
 8726SOL    HW127077   6.512   0.327   1.333
 8726SOL    HW227078   6.631   0.426   1.384
 8727SOL     OW27079   6.807   6.477   1.897
 8727SOL    HW127080   6.818   6.531   1.813
 8727SOL    HW227081   6.871   6.510   1.966
 8728SOL     OW27082   4.076   0.410   4.871
 8728SOL    HW127083   4.134   0.410   4.789
 8728SOL    HW227084   4.052   0.316   4.895
 8729SOL     OW27085   5.088   5.883   3.329
 8729SOL    HW127086   5.145   5.820   3.380
 8729SOL    HW227087   5.129   5.902   3.240
 8730SOL     OW27088   6.723   5.590   2.728
 8730SOL    HW127089   6.646   5.644   2.762
 8730SOL    HW227090   6.802   5.605   2.788
 8731SOL     OW27091   2.011   1.769   2.980
 8731SOL    HW127092   2.056   1.709   2.913
 8731SOL    HW227093   2.053   1.859   2.977
 8732SOL     OW27094   5.143   4.355   1.940
 8732SOL    HW127095   5.143   4.312   2.030
 8732SOL    HW227096   5.139   4.285   1.869
 8733SOL     OW27097   1.525   5.933   3.269
 8733SOL    HW127098   1.496   5.999   3.199
 8733SOL    HW227099   1.448   5.874   3.293
 8734SOL     OW27100   1.134   4.691   1.688
 8734SOL    HW127101   1.139   4.739   1.776
 8734SOL    HW227102   1.194   4.612   1.690
 8735SOL     OW27103   0.755   1.899   0.025
 8735SOL    HW127104   0.719   1.814   0.063
 8735SOL    HW227105   0.851   1.887   7.017
 8736SOL     OW27106   0.643   6.650   0.129
 8736SOL    HW127107   0.661   6.742   0.163
 8736SOL    HW227108   0.716   6.624   0.065
 8737SOL     OW27109   3.529   6.938   6.199
 8737SOL    HW127110   3.610   6.957   6.256
 8737SOL    HW227111   3.448   6.935   6.258
 8738SOL     OW27112   1.616   4.021   4.288
 8738SOL    HW127113   1.667   4.039   4.372
 8738SOL    HW227114   1.645   3.934   4.250
 8739SOL     OW27115   6.602   5.159   6.397
 8739SOL    HW127116   6.651   5.139   6.482
 8739SOL    HW227117   6.654   5.123   6.320
 8740SOL     OW27118   4.105   0.995   5.880
 8740SOL    HW127119   4.012   1.008   5.845
 8740SOL    HW227120   4.166   0.971   5.805
 8741SOL     OW27121   1.956   1.686   1.777
 8741SOL    HW127122   1.899   1.618   1.730
 8741SOL    HW227123   1.959   1.665   1.874
 8742SOL     OW27124   4.897   5.862   1.794
 8742SOL    HW127125   4.856   5.792   1.735
 8742SOL    HW227126   4.902   5.828   1.887
 8743SOL     OW27127   1.980   7.001   2.542
 8743SOL    HW127128   1.970   0.036   2.458
 8743SOL    HW227129   2.073   7.013   2.578
 8744SOL     OW27130   3.779   2.523   6.145
 8744SOL    HW127131   3.794   2.597   6.079
 8744SOL    HW227132   3.714   2.457   6.107
 8745SOL     OW27133   6.225   2.623   5.850
 8745SOL    HW127134   6.272   2.569   5.781
 8745SOL    HW227135   6.132   2.644   5.819
 8746SOL     OW27136   4.160   4.275   5.410
 8746SOL    HW127137   4.188   4.179   5.411
 8746SOL    HW227138   4.176   4.314   5.319
 8747SOL     OW27139   0.785   2.650   3.605
 8747SOL    HW127140   0.828   2.597   3.679
 8747SOL    HW227141   0.700   2.691   3.639
 8748SOL     OW27142   0.606   0.743   6.870
 8748SOL    HW127143   0.670   0.679   6.828
 8748SOL    HW227144   0.515   0.702   6.873
 8749SOL     OW27145   2.935   0.375   4.748
 8749SOL    HW127146   3.015   0.365   4.807
 8749SOL    HW227147   2.963   0.413   4.660
 8750SOL     OW27148   2.359   3.061   5.388
 8750SOL    HW127149   2.356   3.160   5.372
 8750SOL    HW227150   2.418   3.018   5.320
 8751SOL     OW27151   6.642   0.190   2.154
 8751SOL    HW127152   6.683   0.104   2.187
 8751SOL    HW227153   6.647   0.193   2.055
 8752SOL     OW27154   3.039   4.151   0.209
 8752SOL    HW127155   2.939   4.160   0.207
 8752SOL    HW227156   3.075   4.196   0.290
 8753SOL     OW27157   5.061   1.587   4.697
 8753SOL    HW127158   5.079   1.585   4.598
 8753SOL    HW227159   5.111   1.513   4.741
 8754SOL     OW27160   0.750   1.969   5.707
 8754SOL    HW127161   0.788   1.967   5.800
 8754SOL    HW227162   0.661   2.015   5.709
 8755SOL     OW27163   2.967   1.487   6.588
 8755SOL    HW127164   2.909   1.568   6.598
 8755SOL    HW227165   3.058   1.508   6.622
 8756SOL     OW27166   2.130   3.124   3.536
 8756SOL    HW127167   2.120   3.135   3.635
 8756SOL    HW227168   2.165   3.033   3.515
 8757SOL     OW27169   5.873   6.306   6.055
 8757SOL    HW127170   5.852   6.369   5.981
 8757SOL    HW227171   5.857   6.212   6.026
 8758SOL     OW27172   5.350   5.836   2.255
 8758SOL    HW127173   5.255   5.843   2.284
 8758SOL    HW227174   5.389   5.928   2.246
 8759SOL     OW27175   4.407   1.387   6.470
 8759SOL    HW127176   4.338   1.458   6.487
 8759SOL    HW227177   4.360   1.302   6.446
 8760SOL     OW27178   1.798   1.552   4.698
 8760SOL    HW127179   1.742   1.495   4.757
 8760SOL    HW227180   1.850   1.495   4.635
 8761SOL     OW27181   4.780   0.571   0.949
 8761SOL    HW127182   4.715   0.496   0.961
 8761SOL    HW227183   4.864   0.537   0.907
 8762SOL     OW27184   1.286   3.400   2.775
 8762SOL    HW127185   1.308   3.303   2.783
 8762SOL    HW227186   1.364   3.454   2.809
 8763SOL     OW27187   5.994   6.184   5.009
 8763SOL    HW127188   5.973   6.214   4.916
 8763SOL    HW227189   5.909   6.175   5.060
 8764SOL     OW27190   5.107   1.307   3.929
 8764SOL    HW127191   5.102   1.405   3.950
 8764SOL    HW227192   5.127   1.256   4.013
 8765SOL     OW27193   6.258   6.378   4.697
 8765SOL    HW127194   6.171   6.427   4.689
 8765SOL    HW227195   6.256   6.297   4.638
 8766SOL     OW27196   3.452   4.971   3.606
 8766SOL    HW127197   3.467   5.068   3.586
 8766SOL    HW227198   3.535   4.919   3.587
 8767SOL     OW27199   4.214   0.648   2.924
 8767SOL    HW127200   4.197   0.550   2.937
 8767SOL    HW227201   4.130   0.699   2.945
 8768SOL     OW27202   2.246   3.108   0.035
 8768SOL    HW127203   2.305   3.028   0.046
 8768SOL    HW227204   2.176   3.108   0.106
 8769SOL     OW27205   1.159   0.009   5.442
 8769SOL    HW127206   1.192   6.943   5.401
 8769SOL    HW227207   1.068   7.013   5.481
 8770SOL     OW27208   5.031   3.986   2.161
 8770SOL    HW127209   4.949   3.949   2.206
 8770SOL    HW227210   5.098   4.012   2.231
 8771SOL     OW27211   2.227   0.919   6.078
 8771SOL    HW127212   2.211   0.965   5.991
 8771SOL    HW227213   2.162   0.952   6.146
 8772SOL     OW27214   5.674   0.119   6.901
 8772SOL    HW127215   5.736   0.157   6.832
 8772SOL    HW227216   5.720   0.117   6.989
 8773SOL     OW27217   4.026   2.187   3.448
 8773SOL    HW127218   4.097   2.163   3.381
 8773SOL    HW227219   3.936   2.160   3.412
 8774SOL     OW27220   1.652   1.389   0.605
 8774SOL    HW127221   1.727   1.455   0.619
 8774SOL    HW227222   1.567   1.439   0.591
 8775SOL     OW27223   5.659   0.039   4.156
 8775SOL    HW127224   5.613   0.106   4.215
 8775SOL    HW227225   5.715   0.087   4.089
 8776SOL     OW27226   3.596   2.850   4.722
 8776SOL    HW127227   3.662   2.785   4.758
 8776SOL    HW227228   3.523   2.865   4.789
 8777SOL     OW27229   0.059   4.678   1.463
 8777SOL    HW127230   0.096   4.768   1.441
 8777SOL    HW227231   0.028   4.633   1.379
 8778SOL     OW27232   0.468   1.864   3.953
 8778SOL    HW127233   0.512   1.783   3.913
 8778SOL    HW227234   0.370   1.845   3.965
 8779SOL     OW27235   1.648   5.475   2.440
 8779SOL    HW127236   1.698   5.561   2.455
 8779SOL    HW227237   1.587   5.459   2.518
 8780SOL     OW27238   1.550   5.659   3.422
 8780SOL    HW127239   1.647   5.681   3.423
 8780SOL    HW227240   1.520   5.643   3.328
 8781SOL     OW27241   6.535   1.402   3.595
 8781SOL    HW127242   6.453   1.384   3.649
 8781SOL    HW227243   6.512   1.398   3.498
 8782SOL     OW27244   5.912   0.884   1.661
 8782SOL    HW127245   5.958   0.867   1.573
 8782SOL    HW227246   5.974   0.935   1.721
 8783SOL     OW27247   6.138   4.052   3.696
 8783SOL    HW127248   6.133   4.139   3.646
 8783SOL    HW227249   6.164   4.069   3.791
 8784SOL     OW27250   4.965   4.577   5.248
 8784SOL    HW127251   4.887   4.552   5.190
 8784SOL    HW227252   5.043   4.517   5.226
 8785SOL     OW27253   5.692   3.808   0.226
 8785SOL    HW127254   5.746   3.751   0.163
 8785SOL    HW227255   5.626   3.751   0.274
 8786SOL     OW27256   2.357   6.912   0.054
 8786SOL    HW127257   2.456   6.922   0.063
 8786SOL    HW227258   2.312   6.937   0.140
 8787SOL     OW27259   1.485   3.056   2.340
 8787SOL    HW127260   1.554   3.028   2.406
 8787SOL    HW227261   1.503   3.011   2.252
 8788SOL     OW27262   6.423   2.315   5.361
 8788SOL    HW127263   6.370   2.236   5.331
 8788SOL    HW227264   6.370   2.399   5.347
 8789SOL     OW27265   6.036   0.158   6.234
 8789SOL    HW127266   6.025   0.060   6.254
 8789SOL    HW227267   6.043   0.171   6.135
 8790SOL     OW27268   6.586   1.083   0.112
 8790SOL    HW127269   6.641   1.162   0.139
 8790SOL    HW227270   6.632   1.034   0.038
 8791SOL     OW27271   5.260   0.100   5.807
 8791SOL    HW127272   5.194   0.096   5.732
 8791SOL    HW227273   5.287   0.195   5.823
 8792SOL     OW27274   3.654   6.877   3.122
 8792SOL    HW127275   3.597   6.915   3.195
 8792SOL    HW227276   3.707   6.801   3.157
 8793SOL     OW27277   2.107   5.620   4.004
 8793SOL    HW127278   2.179   5.597   4.070
 8793SOL    HW227279   2.114   5.716   3.979
 8794SOL     OW27280   3.328   6.425   2.970
 8794SOL    HW127281   3.330   6.447   3.067
 8794SOL    HW227282   3.249   6.469   2.927
 8795SOL     OW27283   1.588   6.663   5.370
 8795SOL    HW127284   1.495   6.643   5.402
 8795SOL    HW227285   1.585   6.685   5.273
 8796SOL     OW27286   4.033   1.587   5.542
 8796SOL    HW127287   4.129   1.576   5.516
 8796SOL    HW227288   4.022   1.564   5.638
 8797SOL     OW27289   1.660   6.208   6.514
 8797SOL    HW127290   1.661   6.136   6.584
 8797SOL    HW227291   1.754   6.239   6.498
 8798SOL     OW27292   5.954   4.055   5.678
 8798SOL    HW127293   5.881   4.007   5.725
 8798SOL    HW227294   5.987   3.999   5.602
 8799SOL     OW27295   2.252   4.340   3.585
 8799SOL    HW127296   2.304   4.307   3.507
 8799SOL    HW227297   2.176   4.397   3.553
 8800SOL     OW27298   5.200   3.836   5.548
 8800SOL    HW127299   5.241   3.885   5.471
 8800SOL    HW227300   5.200   3.895   5.628
 8801SOL     OW27301   2.202   1.145   3.971
 8801SOL    HW127302   2.220   1.057   4.016
 8801SOL    HW227303   2.280   1.207   3.987
 8802SOL     OW27304   1.334   0.170   1.192
 8802SOL    HW127305   1.314   0.248   1.131
 8802SOL    HW227306   1.248   0.133   1.227
 8803SOL     OW27307   1.323   4.576   6.211
 8803SOL    HW127308   1.349   4.537   6.122
 8803SOL    HW227309   1.404   4.588   6.267
 8804SOL     OW27310   4.286   0.905   1.817
 8804SOL    HW127311   4.346   0.886   1.895
 8804SOL    HW227312   4.234   0.989   1.834
 8805SOL     OW27313   1.538   6.990   3.945
 8805SOL    HW127314   1.475   7.004   3.869
 8805SOL    HW227315   1.580   0.058   3.971
 8806SOL     OW27316   2.218   5.150   1.392
 8806SOL    HW127317   2.239   5.203   1.475
 8806SOL    HW227318   2.132   5.102   1.404
 8807SOL     OW27319   6.628   5.629   5.900
 8807SOL    HW127320   6.550   5.649   5.840
 8807SOL    HW227321   6.600   5.637   5.996
 8808SOL     OW27322   5.391   1.539   0.351
 8808SOL    HW127323   5.329   1.617   0.358
 8808SOL    HW227324   5.448   1.534   0.433
 8809SOL     OW27325   5.392   3.693   1.806
 8809SOL    HW127326   5.473   3.641   1.835
 8809SOL    HW227327   5.355   3.742   1.885
 8810SOL     OW27328   6.123   1.589   5.084
 8810SOL    HW127329   6.109   1.629   4.993
 8810SOL    HW227330   6.044   1.533   5.108
 8811SOL     OW27331   2.315   1.906   4.047
 8811SOL    HW127332   2.215   1.910   4.040
 8811SOL    HW227333   2.341   1.846   4.122
 8812SOL     OW27334   0.394   0.526   0.595
 8812SOL    HW127335   0.435   0.608   0.555
 8812SOL    HW227336   0.357   0.548   0.685
 8813SOL     OW27337   1.092   4.981   1.254
 8813SOL    HW127338   1.114   5.050   1.323
 8813SOL    HW227339   1.083   5.024   1.165
 8814SOL     OW27340   0.050   0.807   0.070
 8814SOL    HW127341   0.126   0.763   0.118
 8814SOL    HW227342   7.001   0.737   0.043
 8815SOL     OW27343   6.561   5.985   0.754
 8815SOL    HW127344   6.602   5.925   0.822
 8815SOL    HW227345   6.464   5.964   0.744
 8816SOL     OW27346   1.297   6.767   1.380
 8816SOL    HW127347   1.346   6.681   1.396
 8816SOL    HW227348   1.304   6.792   1.284
 8817SOL     OW27349   0.766   6.093   5.498
 8817SOL    HW127350   0.724   6.175   5.459
 8817SOL    HW227351   0.694   6.031   5.530
 8818SOL     OW27352   7.010   3.749   3.450
 8818SOL    HW127353   0.067   3.768   3.512
 8818SOL    HW227354   6.942   3.691   3.496
 8819SOL     OW27355   4.440   6.649   4.006
 8819SOL    HW127356   4.458   6.638   3.908
 8819SOL    HW227357   4.420   6.560   4.046
 8820SOL     OW27358   2.126   2.399   4.293
 8820SOL    HW127359   2.082   2.445   4.216
 8820SOL    HW227360   2.212   2.359   4.264
 8821SOL     OW27361   1.861   6.802   6.704
 8821SOL    HW127362   1.828   6.863   6.776
 8821SOL    HW227363   1.796   6.726   6.693
 8822SOL     OW27364   0.683   0.708   2.946
 8822SOL    HW127365   0.603   0.649   2.955
 8822SOL    HW227366   0.757   0.657   2.901
 8823SOL     OW27367   1.866   0.358   1.075
 8823SOL    HW127368   1.791   0.300   1.105
 8823SOL    HW227369   1.848   0.392   0.983
 8824SOL     OW27370   2.576   3.509   0.484
 8824SOL    HW127371   2.507   3.577   0.511
 8824SOL    HW227372   2.575   3.500   0.384
 8825SOL     OW27373   1.156   0.863   2.617
 8825SOL    HW127374   1.251   0.894   2.617
 8825SOL    HW227375   1.115   0.878   2.706
 8826SOL     OW27376   6.204   2.143   0.457
 8826SOL    HW127377   6.168   2.236   0.451
 8826SOL    HW227378   6.160   2.095   0.534
 8827SOL     OW27379   3.032   0.733   3.272
 8827SOL    HW127380   3.026   0.829   3.246
 8827SOL    HW227381   2.944   0.702   3.307
 8828SOL     OW27382   4.131   5.367   3.756
 8828SOL    HW127383   4.165   5.297   3.693
 8828SOL    HW227384   4.195   5.376   3.833
 8829SOL     OW27385   6.949   3.561   0.216
 8829SOL    HW127386   7.008   3.483   0.235
 8829SOL    HW227387   6.943   3.575   0.117
 8830SOL     OW27388   6.732   1.257   6.793
 8830SOL    HW127389   6.643   1.238   6.752
 8830SOL    HW227390   6.754   1.186   6.860
 8831SOL     OW27391   5.599   1.269   3.578
 8831SOL    HW127392   5.600   1.189   3.638
 8831SOL    HW227393   5.561   1.244   3.489
 8832SOL     OW27394   0.247   6.612   2.105
 8832SOL    HW127395   0.315   6.550   2.142
 8832SOL    HW227396   0.290   6.700   2.084
 8833SOL     OW27397   2.085   5.844   5.087
 8833SOL    HW127398   2.160   5.898   5.049
 8833SOL    HW227399   2.007   5.846   5.024
 8834SOL     OW27400   5.376   3.072   4.263
 8834SOL    HW127401   5.287   3.035   4.239
 8834SOL    HW227402   5.364   3.158   4.313
 8835SOL     OW27403   6.059   0.517   5.444
 8835SOL    HW127404   5.993   0.444   5.460
 8835SOL    HW227405   6.023   0.582   5.377
 8836SOL     OW27406   4.305   0.888   1.078
 8836SOL    HW127407   4.378   0.914   1.014
 8836SOL    HW227408   4.290   0.962   1.143
 8837SOL     OW27409   1.169   0.408   2.505
 8837SOL    HW127410   1.261   0.370   2.511
 8837SOL    HW227411   1.106   0.354   2.562
 8838SOL     OW27412   2.944   5.273   3.634
 8838SOL    HW127413   2.900   5.187   3.659
 8838SOL    HW227414   3.032   5.255   3.590
 8839SOL     OW27415   5.644   6.317   3.102
 8839SOL    HW127416   5.729   6.320   3.049
 8839SOL    HW227417   5.589   6.398   3.082
 8840SOL     OW27418   6.471   2.381   2.335
 8840SOL    HW127419   6.569   2.368   2.327
 8840SOL    HW227420   6.429   2.297   2.370
 8841SOL     OW27421   1.211   1.144   5.039
 8841SOL    HW127422   1.233   1.063   5.095
 8841SOL    HW227423   1.262   1.223   5.074
 8842SOL     OW27424   3.901   2.601   0.853
 8842SOL    HW127425   3.884   2.638   0.762
 8842SOL    HW227426   3.872   2.668   0.922
 8843SOL     OW27427   1.460   2.827   5.416
 8843SOL    HW127428   1.370   2.860   5.446
 8843SOL    HW227429   1.456   2.729   5.398
 8844SOL     OW27430   5.799   1.462   6.221
 8844SOL    HW127431   5.771   1.533   6.157
 8844SOL    HW227432   5.729   1.391   6.224
 8845SOL     OW27433   4.130   3.715   0.251
 8845SOL    HW127434   4.067   3.638   0.238
 8845SOL    HW227435   4.123   3.747   0.346
 8846SOL     OW27436   1.994   5.627   3.681
 8846SOL    HW127437   1.960   5.720   3.685
 8846SOL    HW227438   1.974   5.580   3.767
 8847SOL     OW27439   2.530   0.747   2.493
 8847SOL    HW127440   2.597   0.674   2.480
 8847SOL    HW227441   2.571   0.835   2.469
 8848SOL     OW27442   2.328   1.177   1.018
 8848SOL    HW127443   2.253   1.119   0.986
 8848SOL    HW227444   2.408   1.120   1.037
 8849SOL     OW27445   2.070   5.827   3.134
 8849SOL    HW127446   2.033   5.895   3.070
 8849SOL    HW227447   2.041   5.736   3.107
 8850SOL     OW27448   2.912   1.759   0.294
 8850SOL    HW127449   2.844   1.692   0.322
 8850SOL    HW227450   2.951   1.732   0.206
 8851SOL     OW27451   1.692   4.708   2.296
 8851SOL    HW127452   1.747   4.741   2.220
 8851SOL    HW227453   1.596   4.707   2.270
 8852SOL     OW27454   1.326   1.955   5.664
 8852SOL    HW127455   1.330   1.909   5.575
 8852SOL    HW227456   1.418   1.980   5.692
 8853SOL     OW27457   3.146   1.046   2.167
 8853SOL    HW127458   3.222   1.076   2.224
 8853SOL    HW227459   3.138   1.106   2.087
 8854SOL     OW27460   1.677   2.858   5.052
 8854SOL    HW127461   1.663   2.882   5.148
 8854SOL    HW227462   1.771   2.877   5.026
 8855SOL     OW27463   6.335   5.710   1.602
 8855SOL    HW127464   6.319   5.620   1.641
 8855SOL    HW227465   6.431   5.735   1.613
 8856SOL     OW27466   6.189   5.574   6.389
 8856SOL    HW127467   6.172   5.639   6.463
 8856SOL    HW227468   6.155   5.484   6.415
 8857SOL     OW27469   6.869   2.273   5.118
 8857SOL    HW127470   6.910   2.355   5.078
 8857SOL    HW227471   6.907   2.258   5.209
 8858SOL     OW27472   0.546   4.743   5.284
 8858SOL    HW127473   0.456   4.753   5.241
 8858SOL    HW227474   0.536   4.756   5.383
 8859SOL     OW27475   0.798   0.571   3.718
 8859SOL    HW127476   0.848   0.484   3.727
 8859SOL    HW227477   0.830   0.635   3.787
 8860SOL     OW27478   6.942   2.787   1.332
 8860SOL    HW127479   0.002   2.805   1.392
 8860SOL    HW227480   6.905   2.873   1.299
 8861SOL     OW27481   4.042   1.163   0.897
 8861SOL    HW127482   4.101   1.103   0.844
 8861SOL    HW227483   3.955   1.175   0.849
 8862SOL     OW27484   4.794   5.416   4.640
 8862SOL    HW127485   4.717   5.425   4.703
 8862SOL    HW227486   4.870   5.473   4.672
 8863SOL     OW27487   2.033   4.473   3.490
 8863SOL    HW127488   1.973   4.553   3.482
 8863SOL    HW227489   2.055   4.439   3.399
 8864SOL     OW27490   4.819   3.814   6.511
 8864SOL    HW127491   4.898   3.791   6.454
 8864SOL    HW227492   4.762   3.881   6.463
 8865SOL     OW27493   2.905   1.718   5.448
 8865SOL    HW127494   2.963   1.698   5.527
 8865SOL    HW227495   2.864   1.634   5.415
 8866SOL     OW27496   5.605   6.279   2.461
 8866SOL    HW127497   5.541   6.285   2.385
 8866SOL    HW227498   5.691   6.322   2.436
 8867SOL     OW27499   6.737   3.394   2.815
 8867SOL    HW127500   6.694   3.484   2.821
 8867SOL    HW227501   6.737   3.363   2.719
 8868SOL     OW27502   6.756   3.261   2.575
 8868SOL    HW127503   6.840   3.233   2.529
 8868SOL    HW227504   6.698   3.312   2.512
 8869SOL     OW27505   4.604   5.307   4.837
 8869SOL    HW127506   4.692   5.264   4.818
 8869SOL    HW227507   4.546   5.301   4.756
 8870SOL     OW27508   2.311   6.989   1.917
 8870SOL    HW127509   2.395   6.970   1.968
 8870SOL    HW227510   2.232   6.977   1.977
 8871SOL     OW27511   1.469   0.964   3.000
 8871SOL    HW127512   1.491   0.867   3.008
 8871SOL    HW227513   1.384   0.984   3.049
 8872SOL     OW27514   0.631   4.343   6.383
 8872SOL    HW127515   0.579   4.344   6.297
 8872SOL    HW227516   0.687   4.425   6.389
 8873SOL     OW27517   2.117   0.502   1.907
 8873SOL    HW127518   2.125   0.450   1.822
 8873SOL    HW227519   2.112   0.600   1.886
 8874SOL     OW27520   1.897   5.257   0.977
 8874SOL    HW127521   1.953   5.200   1.037
 8874SOL    HW227522   1.821   5.203   0.941
 8875SOL     OW27523   6.908   2.923   3.786
 8875SOL    HW127524   6.809   2.934   3.790
 8875SOL    HW227525   6.947   2.928   3.878
 8876SOL     OW27526   2.901   0.547   6.337
 8876SOL    HW127527   2.918   0.534   6.239
 8876SOL    HW227528   2.834   0.619   6.349
 8877SOL     OW27529   1.430   3.341   1.985
 8877SOL    HW127530   1.364   3.266   1.988
 8877SOL    HW227531   1.432   3.381   1.894
 8878SOL     OW27532   3.605   4.713   0.759
 8878SOL    HW127533   3.700   4.733   0.733
 8878SOL    HW227534   3.569   4.640   0.702
 8879SOL     OW27535   6.491   4.676   2.731
 8879SOL    HW127536   6.514   4.625   2.648
 8879SOL    HW227537   6.393   4.666   2.751
 8880SOL     OW27538   4.184   6.631   3.646
 8880SOL    HW127539   4.163   6.723   3.613
 8880SOL    HW227540   4.100   6.576   3.645
 8881SOL     OW27541   4.784   4.863   3.917
 8881SOL    HW127542   4.829   4.805   3.986
 8881SOL    HW227543   4.745   4.805   3.846
 8882SOL     OW27544   3.561   0.817   0.164
 8882SOL    HW127545   3.479   0.843   0.213
 8882SOL    HW227546   3.592   0.727   0.195
 8883SOL     OW27547   6.962   6.936   6.159
 8883SOL    HW127548   6.894   6.961   6.228
 8883SOL    HW227549   6.966   7.008   6.090
 8884SOL     OW27550   5.322   4.340   4.980
 8884SOL    HW127551   5.421   4.348   4.967
 8884SOL    HW227552   5.277   4.421   4.944
 8885SOL     OW27553   5.538   5.221   0.198
 8885SOL    HW127554   5.627   5.264   0.216
 8885SOL    HW227555   5.530   5.202   0.100
 8886SOL     OW27556   3.776   5.267   6.750
 8886SOL    HW127557   3.787   5.232   6.843
 8886SOL    HW227558   3.806   5.362   6.746
 8887SOL     OW27559   4.195   0.103   0.483
 8887SOL    HW127560   4.187   0.196   0.448
 8887SOL    HW227561   4.148   0.040   0.421
 8888SOL     OW27562   1.896   1.890   3.741
 8888SOL    HW127563   1.967   1.828   3.709
 8888SOL    HW227564   1.937   1.965   3.791
 8889SOL     OW27565   6.855   6.657   6.158
 8889SOL    HW127566   6.919   6.612   6.096
 8889SOL    HW227567   6.871   6.756   6.157
 8890SOL     OW27568   6.882   6.256   6.947
 8890SOL    HW127569   6.908   6.186   7.014
 8890SOL    HW227570   6.864   6.343   6.994
 8891SOL     OW27571   5.761   4.480   6.521
 8891SOL    HW127572   5.740   4.386   6.498
 8891SOL    HW227573   5.764   4.490   6.621
 8892SOL     OW27574   3.496   4.893   3.902
 8892SOL    HW127575   3.473   4.826   3.831
 8892SOL    HW227576   3.501   4.984   3.861
 8893SOL     OW27577   1.592   5.050   5.220
 8893SOL    HW127578   1.649   5.094   5.151
 8893SOL    HW227579   1.495   5.063   5.196
 8894SOL     OW27580   5.248   2.069   1.092
 8894SOL    HW127581   5.303   2.150   1.070
 8894SOL    HW227582   5.160   2.098   1.130
 8895SOL     OW27583   0.938   2.941   0.780
 8895SOL    HW127584   0.885   2.859   0.758
 8895SOL    HW227585   0.975   2.933   0.872
 8896SOL     OW27586   0.915   3.035   4.745
 8896SOL    HW127587   0.858   3.071   4.671
 8896SOL    HW227588   0.970   2.959   4.710
 8897SOL     OW27589   2.054   3.567   3.845
 8897SOL    HW127590   1.958   3.551   3.868
 8897SOL    HW227591   2.075   3.524   3.757
 8898SOL     OW27592   5.252   3.451   2.496
 8898SOL    HW127593   5.352   3.460   2.501
 8898SOL    HW227594   5.223   3.451   2.401
 8899SOL     OW27595   7.005   4.669   6.174
 8899SOL    HW127596   0.030   4.579   6.163
 8899SOL    HW227597   0.028   4.716   6.252
 8900SOL     OW27598   5.814   1.963   3.530
 8900SOL    HW127599   5.881   2.011   3.473
 8900SOL    HW227600   5.833   1.982   3.627
 8901SOL     OW27601   0.727   2.211   3.732
 8901SOL    HW127602   0.756   2.151   3.658
 8901SOL    HW227603   0.800   2.216   3.801
 8902SOL     OW27604   1.217   4.703   0.190
 8902SOL    HW127605   1.292   4.677   0.129
 8902SOL    HW227606   1.239   4.679   0.284
 8903SOL     OW27607   1.413   1.209   4.852
 8903SOL    HW127608   1.438   1.156   4.771
 8903SOL    HW227609   1.343   1.159   4.903
 8904SOL     OW27610   0.353   1.461   2.567
 8904SOL    HW127611   0.436   1.404   2.560
 8904SOL    HW227612   0.348   1.520   2.487
 8905SOL     OW27613   1.692   2.903   2.491
 8905SOL    HW127614   1.627   2.829   2.507
 8905SOL    HW227615   1.741   2.923   2.576
 8906SOL     OW27616   0.823   6.732   0.679
 8906SOL    HW127617   0.827   6.701   0.584
 8906SOL    HW227618   0.873   6.668   0.737
 8907SOL     OW27619   3.220   2.659   5.346
 8907SOL    HW127620   3.234   2.573   5.296
 8907SOL    HW227621   3.137   2.704   5.312
 8908SOL     OW27622   1.256   4.610   0.468
 8908SOL    HW127623   1.312   4.636   0.547
 8908SOL    HW227624   1.225   4.516   0.480
 8909SOL     OW27625   2.630   1.009   6.284
 8909SOL    HW127626   2.562   1.043   6.220
 8909SOL    HW227627   2.700   1.080   6.298
 8910SOL     OW27628   0.903   2.553   5.317
 8910SOL    HW127629   0.898   2.579   5.414
 8910SOL    HW227630   0.859   2.465   5.304
 8911SOL     OW27631   5.169   1.799   4.152
 8911SOL    HW127632   5.148   1.857   4.231
 8911SOL    HW227633   5.202   1.856   4.077
 8912SOL     OW27634   3.997   3.485   5.353
 8912SOL    HW127635   3.930   3.414   5.376
 8912SOL    HW227636   3.973   3.570   5.400
 8913SOL     OW27637   5.511   4.865   6.832
 8913SOL    HW127638   5.442   4.794   6.849
 8913SOL    HW227639   5.472   4.937   6.775
 8914SOL     OW27640   5.156   6.658   5.022
 8914SOL    HW127641   5.141   6.663   4.924
 8914SOL    HW227642   5.250   6.682   5.043
 8915SOL     OW27643   1.368   1.274   3.917
 8915SOL    HW127644   1.305   1.317   3.982
 8915SOL    HW227645   1.316   1.227   3.846
 8916SOL     OW27646   5.721   1.618   6.697
 8916SOL    HW127647   5.636   1.566   6.694
 8916SOL    HW227648   5.772   1.603   6.612
 8917SOL     OW27649   6.067   1.381   0.855
 8917SOL    HW127650   6.112   1.333   0.780
 8917SOL    HW227651   6.129   1.449   0.893
 8918SOL     OW27652   1.706   5.562   1.104
 8918SOL    HW127653   1.746   5.479   1.068
 8918SOL    HW227654   1.644   5.540   1.179
 8919SOL     OW27655   5.547   4.651   6.451
 8919SOL    HW127656   5.633   4.600   6.447
 8919SOL    HW227657   5.485   4.606   6.515
 8920SOL     OW27658   0.330   1.316   0.046
 8920SOL    HW127659   0.406   1.254   0.029
 8920SOL    HW227660   0.333   1.347   0.141
 8921SOL     OW27661   1.282   2.548   1.368
 8921SOL    HW127662   1.325   2.612   1.431
 8921SOL    HW227663   1.203   2.591   1.325
 8922SOL     OW27664   3.640   6.863   2.629
 8922SOL    HW127665   3.610   6.897   2.719
 8922SOL    HW227666   3.633   6.937   2.562
 8923SOL     OW27667   1.583   1.690   5.893
 8923SOL    HW127668   1.563   1.778   5.936
 8923SOL    HW227669   1.652   1.642   5.948
 8924SOL     OW27670   5.396   5.496   4.570
 8924SOL    HW127671   5.411   5.530   4.663
 8924SOL    HW227672   5.323   5.427   4.572
 8925SOL     OW27673   0.726   1.111   2.632
 8925SOL    HW127674   0.634   1.094   2.597
 8925SOL    HW227675   0.721   1.139   2.727
 8926SOL     OW27676   6.507   4.083   5.624
 8926SOL    HW127677   6.514   4.050   5.718
 8926SOL    HW227678   6.542   4.013   5.562
 8927SOL     OW27679   6.435   2.358   5.732
 8927SOL    HW127680   6.418   2.413   5.650
 8927SOL    HW227681   6.496   2.408   5.793
 8928SOL     OW27682   2.426   0.461   5.423
 8928SOL    HW127683   2.374   0.546   5.410
 8928SOL    HW227684   2.375   0.400   5.483
 8929SOL     OW27685   6.283   2.739   4.807
 8929SOL    HW127686   6.371   2.709   4.771
 8929SOL    HW227687   6.253   2.821   4.759
 8930SOL     OW27688   0.953   3.717   2.811
 8930SOL    HW127689   0.931   3.809   2.842
 8930SOL    HW227690   0.898   3.695   2.731
 8931SOL     OW27691   3.531   2.640   1.585
 8931SOL    HW127692   3.505   2.704   1.657
 8931SOL    HW227693   3.522   2.685   1.496
 8932SOL     OW27694   0.221   1.575   3.327
 8932SOL    HW127695   0.236   1.617   3.238
 8932SOL    HW227696   0.198   1.645   3.394
 8933SOL     OW27697   2.961   2.463   6.500
 8933SOL    HW127698   2.870   2.470   6.461
 8933SOL    HW227699   2.974   2.372   6.540
 8934SOL     OW27700   3.721   5.396   4.469
 8934SOL    HW127701   3.662   5.372   4.546
 8934SOL    HW227702   3.742   5.314   4.415
 8935SOL     OW27703   0.297   5.273   0.979
 8935SOL    HW127704   0.265   5.366   0.964
 8935SOL    HW227705   0.224   5.208   0.956
 8936SOL     OW27706   1.618   3.470   0.749
 8936SOL    HW127707   1.592   3.463   0.652
 8936SOL    HW227708   1.611   3.379   0.791
 8937SOL     OW27709   0.081   6.906   5.180
 8937SOL    HW127710   0.024   6.962   5.241
 8937SOL    HW227711   0.076   6.944   5.087
 8938SOL     OW27712   0.386   5.110   1.377
 8938SOL    HW127713   0.468   5.135   1.429
 8938SOL    HW227714   0.346   5.192   1.335
 8939SOL     OW27715   4.860   2.486   4.923
 8939SOL    HW127716   4.836   2.579   4.894
 8939SOL    HW227717   4.954   2.484   4.955
 8940SOL     OW27718   6.908   0.951   3.864
 8940SOL    HW127719   6.875   0.923   3.955
 8940SOL    HW227720   6.990   0.898   3.841
 8941SOL     OW27721   5.875   2.172   5.565
 8941SOL    HW127722   5.909   2.085   5.530
 8941SOL    HW227723   5.909   2.185   5.659
 8942SOL     OW27724   0.266   3.120   5.814
 8942SOL    HW127725   0.264   3.203   5.758
 8942SOL    HW227726   0.186   3.118   5.874
 8943SOL     OW27727   5.198   4.348   0.478
 8943SOL    HW127728   5.164   4.321   0.568
 8943SOL    HW227729   5.207   4.267   0.420
 8944SOL     OW27730   5.149   5.366   5.825
 8944SOL    HW127731   5.151   5.270   5.853
 8944SOL    HW227732   5.054   5.394   5.808
 8945SOL     OW27733   1.995   0.113   4.615
 8945SOL    HW127734   2.053   0.111   4.696
 8945SOL    HW227735   1.999   0.203   4.573
 8946SOL     OW27736   3.535   2.067   4.907
 8946SOL    HW127737   3.464   2.015   4.859
 8946SOL    HW227738   3.538   2.160   4.870
 8947SOL     OW27739   1.769   4.034   5.064
 8947SOL    HW127740   1.776   3.985   4.977
 8947SOL    HW227741   1.783   3.969   5.139
 8948SOL     OW27742   5.555   5.533   3.695
 8948SOL    HW127743   5.459   5.523   3.723
 8948SOL    HW227744   5.561   5.540   3.596
 8949SOL     OW27745   1.930   0.219   0.052
 8949SOL    HW127746   1.863   0.262   0.113
 8949SOL    HW227747   1.958   0.285   7.000
 8950SOL     OW27748   4.815   3.072   5.579
 8950SOL    HW127749   4.742   3.017   5.621
 8950SOL    HW227750   4.902   3.024   5.588
 8951SOL     OW27751   1.747   2.124   5.132
 8951SOL    HW127752   1.714   2.216   5.152
 8951SOL    HW227753   1.669   2.066   5.106
 8952SOL     OW27754   1.268   0.927   2.189
 8952SOL    HW127755   1.217   0.962   2.267
 8952SOL    HW227756   1.208   0.919   2.110
 8953SOL     OW27757   1.162   3.602   6.742
 8953SOL    HW127758   1.143   3.650   6.828
 8953SOL    HW227759   1.255   3.624   6.712
 8954SOL     OW27760   0.305   6.067   5.245
 8954SOL    HW127761   0.324   5.988   5.305
 8954SOL    HW227762   0.253   6.135   5.297
 8955SOL     OW27763   6.911   4.180   3.058
 8955SOL    HW127764   6.856   4.158   2.978
 8955SOL    HW227765   6.990   4.120   3.062
 8956SOL     OW27766   6.845   1.392   6.545
 8956SOL    HW127767   6.798   1.352   6.624
 8956SOL    HW227768   6.881   1.319   6.487
 8957SOL     OW27769   3.086   4.321   1.413
 8957SOL    HW127770   3.038   4.241   1.448
 8957SOL    HW227771   3.045   4.404   1.451
 8958SOL     OW27772   0.813   0.472   4.271
 8958SOL    HW127773   0.786   0.401   4.205
 8958SOL    HW227774   0.733   0.523   4.301
 8959SOL     OW27775   1.155   4.343   0.537
 8959SOL    HW127776   1.128   4.249   0.517
 8959SOL    HW227777   1.111   4.373   0.622
 8960SOL     OW27778   4.184   5.474   2.927
 8960SOL    HW127779   4.270   5.466   2.976
 8960SOL    HW227780   4.200   5.465   2.828
 8961SOL     OW27781   1.308   2.104   4.316
 8961SOL    HW127782   1.387   2.166   4.313
 8961SOL    HW227783   1.244   2.134   4.386
 8962SOL     OW27784   5.839   6.603   2.203
 8962SOL    HW127785   5.905   6.667   2.244
 8962SOL    HW227786   5.784   6.652   2.135
 8963SOL     OW27787   4.723   6.340   4.074
 8963SOL    HW127788   4.647   6.404   4.088
 8963SOL    HW227789   4.808   6.390   4.062
 8964SOL     OW27790   5.765   4.605   2.323
 8964SOL    HW127791   5.794   4.664   2.398
 8964SOL    HW227792   5.805   4.637   2.237
 8965SOL     OW27793   1.777   4.804   1.128
 8965SOL    HW127794   1.831   4.852   1.059
 8965SOL    HW227795   1.768   4.708   1.103
 8966SOL     OW27796   1.876   2.973   5.426
 8966SOL    HW127797   1.909   2.882   5.451
 8966SOL    HW227798   1.951   3.039   5.430
 8967SOL     OW27799   3.054   6.254   1.955
 8967SOL    HW127800   3.114   6.207   2.020
 8967SOL    HW227801   3.087   6.348   1.941
 8968SOL     OW27802   4.582   5.407   2.654
 8968SOL    HW127803   4.574   5.491   2.708
 8968SOL    HW227804   4.491   5.374   2.630
 8969SOL     OW27805   6.133   0.596   3.950
 8969SOL    HW127806   6.086   0.594   4.038
 8969SOL    HW227807   6.073   0.638   3.881
 8970SOL     OW27808   3.266   2.848   0.319
 8970SOL    HW127809   3.197   2.872   0.388
 8970SOL    HW227810   3.341   2.798   0.363
 8971SOL     OW27811   3.270   5.871   2.356
 8971SOL    HW127812   3.255   5.792   2.416
 8971SOL    HW227813   3.197   5.876   2.288
 8972SOL     OW27814   4.600   6.089   0.116
 8972SOL    HW127815   4.596   6.005   0.061
 8972SOL    HW227816   4.587   6.066   0.212
 8973SOL     OW27817   1.105   3.927   1.842
 8973SOL    HW127818   1.025   3.977   1.809
 8973SOL    HW227819   1.186   3.957   1.792
 8974SOL     OW27820   0.895   4.362   6.051
 8974SOL    HW127821   0.977   4.383   5.999
 8974SOL    HW227822   0.902   4.270   6.090
 8975SOL     OW27823   2.495   1.026   6.898
 8975SOL    HW127824   2.572   1.085   6.923
 8975SOL    HW227825   2.499   0.942   6.952
 8976SOL     OW27826   1.088   5.266   5.346
 8976SOL    HW127827   1.176   5.234   5.310
 8976SOL    HW227828   1.017   5.248   5.278
 8977SOL     OW27829   5.963   1.419   6.616
 8977SOL    HW127830   5.934   1.489   6.552
 8977SOL    HW227831   6.060   1.397   6.601
 8978SOL     OW27832   6.317   6.125   6.965
 8978SOL    HW127833   6.359   6.161   6.881
 8978SOL    HW227834   6.225   6.090   6.944
 8979SOL     OW27835   1.577   3.187   4.411
 8979SOL    HW127836   1.493   3.189   4.464
 8979SOL    HW227837   1.618   3.278   4.409
 8980SOL     OW27838   2.525   3.318   5.662
 8980SOL    HW127839   2.497   3.264   5.741
 8980SOL    HW227840   2.445   3.356   5.616
 8981SOL     OW27841   4.068   1.384   4.983
 8981SOL    HW127842   3.971   1.371   5.003
 8981SOL    HW227843   4.087   1.481   4.968
 8982SOL     OW27844   1.236   2.942   0.166
 8982SOL    HW127845   1.156   2.909   0.215
 8982SOL    HW227846   1.312   2.954   0.231
 8983SOL     OW27847   3.068   5.771   6.513
 8983SOL    HW127848   3.099   5.694   6.456
 8983SOL    HW227849   2.984   5.809   6.474
 8984SOL     OW27850   1.426   6.919   3.224
 8984SOL    HW127851   1.346   6.927   3.284
 8984SOL    HW227852   1.465   7.010   3.209
 8985SOL     OW27853   3.994   2.360   0.917
 8985SOL    HW127854   3.943   2.441   0.890
 8985SOL    HW227855   3.939   2.306   0.981
 8986SOL     OW27856   4.119   4.877   2.607
 8986SOL    HW127857   4.117   4.914   2.700
 8986SOL    HW227858   4.135   4.778   2.612
 8987SOL     OW27859   4.053   6.459   2.704
 8987SOL    HW127860   4.070   6.362   2.690
 8987SOL    HW227861   4.007   6.497   2.624
 8988SOL     OW27862   0.951   5.283   3.956
 8988SOL    HW127863   0.964   5.270   4.054
 8988SOL    HW227864   0.876   5.347   3.940
 8989SOL     OW27865   4.397   3.282   6.830
 8989SOL    HW127866   4.342   3.356   6.868
 8989SOL    HW227867   4.490   3.287   6.866
 8990SOL     OW27868   0.704   4.838   4.026
 8990SOL    HW127869   0.765   4.909   4.060
 8990SOL    HW227870   0.743   4.748   4.047
 8991SOL     OW27871   1.441   3.686   4.577
 8991SOL    HW127872   1.389   3.771   4.580
 8991SOL    HW227873   1.497   3.678   4.660
 8992SOL     OW27874   4.709   1.831   0.991
 8992SOL    HW127875   4.716   1.928   0.968
 8992SOL    HW227876   4.714   1.777   0.907
 8993SOL     OW27877   3.806   3.589   0.329
 8993SOL    HW127878   3.747   3.670   0.330
 8993SOL    HW227879   3.762   3.515   0.380
 8994SOL     OW27880   1.377   4.873   4.878
 8994SOL    HW127881   1.325   4.789   4.893
 8994SOL    HW227882   1.463   4.870   4.929
 8995SOL     OW27883   0.089   1.766   0.014
 8995SOL    HW127884   0.031   1.747   6.954
 8995SOL    HW227885   0.041   1.741   0.098
 8996SOL     OW27886   5.418   4.246   6.398
 8996SOL    HW127887   5.407   4.272   6.302
 8996SOL    HW227888   5.342   4.187   6.425
 8997SOL     OW27889   4.452   1.332   5.993
 8997SOL    HW127890   4.532   1.392   5.997
 8997SOL    HW227891   4.481   1.237   5.994
 8998SOL     OW27892   5.868   3.224   4.303
 8998SOL    HW127893   5.820   3.188   4.383
 8998SOL    HW227894   5.837   3.177   4.221
 8999SOL     OW27895   4.964   6.652   6.326
 8999SOL    HW127896   5.006   6.563   6.309
 8999SOL    HW227897   4.871   6.639   6.360
 9000SOL     OW27898   1.886   2.907   2.254
 9000SOL    HW127899   1.856   2.921   2.349
 9000SOL    HW227900   1.854   2.984   2.198
 9001SOL     OW27901   0.972   5.019   1.538
 9001SOL    HW127902   1.050   5.040   1.597
 9001SOL    HW227903   0.950   5.099   1.482
 9002SOL     OW27904   2.092   4.927   5.430
 9002SOL    HW127905   2.002   4.927   5.387
 9002SOL    HW227906   2.125   4.833   5.440
 9003SOL     OW27907   5.506   3.809   1.113
 9003SOL    HW127908   5.555   3.774   1.193
 9003SOL    HW227909   5.410   3.784   1.120
 9004SOL     OW27910   4.307   5.162   0.838
 9004SOL    HW127911   4.233   5.096   0.848
 9004SOL    HW227912   4.364   5.137   0.760
 9005SOL     OW27913   6.794   2.044   5.561
 9005SOL    HW127914   6.816   2.026   5.657
 9005SOL    HW227915   6.701   2.081   5.555
 9006SOL     OW27916   3.113   6.294   0.948
 9006SOL    HW127917   3.119   6.391   0.926
 9006SOL    HW227918   3.031   6.255   0.906
 9007SOL     OW27919   2.662   1.135   2.805
 9007SOL    HW127920   2.580   1.156   2.859
 9007SOL    HW227921   2.714   1.220   2.790
 9008SOL     OW27922   0.035   4.961   2.567
 9008SOL    HW127923   0.037   5.033   2.636
 9008SOL    HW227924   0.021   5.002   2.477
 9009SOL     OW27925   3.462   5.319   1.132
 9009SOL    HW127926   3.430   5.269   1.212
 9009SOL    HW227927   3.560   5.335   1.141
 9010SOL     OW27928   1.787   6.275   4.222
 9010SOL    HW127929   1.747   6.366   4.229
 9010SOL    HW227930   1.885   6.283   4.204
 9011SOL     OW27931   4.241   0.639   1.453
 9011SOL    HW127932   4.292   0.604   1.531
 9011SOL    HW227933   4.191   0.721   1.480
 9012SOL     OW27934   2.323   5.363   0.187
 9012SOL    HW127935   2.336   5.347   0.090
 9012SOL    HW227936   2.362   5.452   0.212
 9013SOL     OW27937   1.078   0.984   5.812
 9013SOL    HW127938   1.149   1.026   5.869
 9013SOL    HW227939   1.110   0.894   5.782
 9014SOL     OW27940   6.183   2.513   0.816
 9014SOL    HW127941   6.178   2.442   0.745
 9014SOL    HW227942   6.162   2.473   0.905
 9015SOL     OW27943   4.842   2.071   1.856
 9015SOL    HW127944   4.936   2.089   1.884
 9015SOL    HW227945   4.824   2.118   1.769
 9016SOL     OW27946   6.248   5.667   6.944
 9016SOL    HW127947   6.217   5.583   6.988
 9016SOL    HW227948   6.325   5.705   6.995
 9017SOL     OW27949   4.742   1.226   4.135
 9017SOL    HW127950   4.818   1.161   4.144
 9017SOL    HW227951   4.753   1.279   4.051
 9018SOL     OW27952   2.428   3.421   5.361
 9018SOL    HW127953   2.522   3.456   5.371
 9018SOL    HW227954   2.378   3.436   5.446
 9019SOL     OW27955   1.229   4.755   2.707
 9019SOL    HW127956   1.177   4.738   2.623
 9019SOL    HW227957   1.167   4.750   2.786
 9020SOL     OW27958   6.801   4.318   0.808
 9020SOL    HW127959   6.899   4.314   0.827
 9020SOL    HW227960   6.751   4.268   0.878
 9021SOL     OW27961   6.400   1.285   3.062
 9021SOL    HW127962   6.318   1.238   3.095
 9021SOL    HW227963   6.395   1.295   2.963
 9022SOL     OW27964   3.362   1.320   6.793
 9022SOL    HW127965   3.342   1.240   6.735
 9022SOL    HW227966   3.331   1.403   6.746
 9023SOL     OW27967   3.979   3.838   1.629
 9023SOL    HW127968   4.005   3.764   1.692
 9023SOL    HW227969   3.885   3.825   1.599
 9024SOL     OW27970   1.403   4.372   5.303
 9024SOL    HW127971   1.399   4.460   5.350
 9024SOL    HW227972   1.351   4.304   5.354
 9025SOL     OW27973   0.196   5.519   0.977
 9025SOL    HW127974   0.199   5.610   1.017
 9025SOL    HW227975   0.197   5.526   0.878
 9026SOL     OW27976   3.579   2.274   0.920
 9026SOL    HW127977   3.518   2.262   0.842
 9026SOL    HW227978   3.657   2.211   0.911
 9027SOL     OW27979   0.738   3.216   3.139
 9027SOL    HW127980   0.808   3.287   3.134
 9027SOL    HW227981   0.676   3.235   3.215
 9028SOL     OW27982   3.531   3.124   5.164
 9028SOL    HW127983   3.523   3.068   5.246
 9028SOL    HW227984   3.594   3.080   5.100
 9029SOL     OW27985   3.924   6.763   4.928
 9029SOL    HW127986   3.851   6.803   4.982
 9029SOL    HW227987   3.889   6.738   4.837
 9030SOL     OW27988   2.373   2.193   3.998
 9030SOL    HW127989   2.441   2.200   3.924
 9030SOL    HW227990   2.375   2.101   4.036
 9031SOL     OW27991   4.425   6.831   4.388
 9031SOL    HW127992   4.327   6.816   4.374
 9031SOL    HW227993   4.446   6.824   4.486
 9032SOL     OW27994   5.154   4.140   1.226
 9032SOL    HW127995   5.149   4.114   1.129
 9032SOL    HW227996   5.065   4.123   1.269
 9033SOL     OW27997   0.607   4.429   2.324
 9033SOL    HW127998   0.674   4.381   2.267
 9033SOL    HW227999   0.613   4.394   2.418
 9034SOL     OW28000   3.376   5.973   4.627
 9034SOL    HW128001   3.418   5.980   4.537
 9034SOL    HW228002   3.379   5.878   4.658
 9035SOL     OW28003   2.120   5.409   0.359
 9035SOL    HW128004   2.193   5.395   0.292
 9035SOL    HW228005   2.155   5.460   0.437
 9036SOL     OW28006   1.849   3.891   5.281
 9036SOL    HW128007   1.927   3.941   5.318
 9036SOL    HW228008   1.790   3.862   5.357
 9037SOL     OW28009   1.267   3.617   3.866
 9037SOL    HW128010   1.235   3.690   3.806
 9037SOL    HW228011   1.230   3.630   3.958
 9038SOL     OW28012   4.316   2.658   0.039
 9038SOL    HW128013   4.283   2.568   0.011
 9038SOL    HW228014   4.392   2.647   0.103
 9039SOL     OW28015   2.856   4.783   6.215
 9039SOL    HW128016   2.764   4.767   6.250
 9039SOL    HW228017   2.922   4.778   6.290
 9040SOL     OW28018   2.636   2.342   2.244
 9040SOL    HW128019   2.727   2.383   2.242
 9040SOL    HW228020   2.617   2.298   2.156
 9041SOL     OW28021   1.245   2.215   0.957
 9041SOL    HW128022   1.273   2.203   0.862
 9041SOL    HW228023   1.284   2.300   0.993
 9042SOL     OW28024   3.753   0.205   4.360
 9042SOL    HW128025   3.808   0.233   4.281
 9042SOL    HW228026   3.670   0.260   4.364
 9043SOL     OW28027   2.426   1.286   6.206
 9043SOL    HW128028   2.438   1.349   6.283
 9043SOL    HW228029   2.512   1.279   6.155
 9044SOL     OW28030   7.001   1.043   0.155
 9044SOL    HW128031   0.027   1.061   0.243
 9044SOL    HW228032   7.011   0.947   0.131
 9045SOL     OW28033   3.427   0.799   2.616
 9045SOL    HW128034   3.334   0.794   2.578
 9045SOL    HW228035   3.433   0.875   2.680
 9046SOL     OW28036   4.048   3.886   2.606
 9046SOL    HW128037   4.124   3.951   2.602
 9046SOL    HW228038   4.056   3.830   2.689
 9047SOL     OW28039   1.330   3.946   4.485
 9047SOL    HW128040   1.231   3.962   4.475
 9047SOL    HW228041   1.360   3.982   4.573
 9048SOL     OW28042   6.191   2.322   6.089
 9048SOL    HW128043   6.144   2.370   6.163
 9048SOL    HW228044   6.244   2.387   6.036
 9049SOL     OW28045   4.487   6.212   5.535
 9049SOL    HW128046   4.421   6.145   5.569
 9049SOL    HW228047   4.510   6.276   5.608
 9050SOL     OW28048   0.222   3.325   1.789
 9050SOL    HW128049   0.312   3.309   1.750
 9050SOL    HW228050   0.176   3.237   1.804
 9051SOL     OW28051   2.318   0.204   1.788
 9051SOL    HW128052   2.327   0.120   1.842
 9051SOL    HW228053   2.225   0.241   1.799
 9052SOL     OW28054   1.958   2.686   4.230
 9052SOL    HW128055   2.043   2.704   4.278
 9052SOL    HW228056   1.881   2.724   4.282
 9053SOL     OW28057   1.951   1.306   1.234
 9053SOL    HW128058   1.872   1.357   1.269
 9053SOL    HW228059   1.921   1.216   1.202
 9054SOL     OW28060   2.425   5.960   4.790
 9054SOL    HW128061   2.337   5.919   4.766
 9054SOL    HW228062   2.484   5.891   4.831
 9055SOL     OW28063   6.358   2.908   4.012
 9055SOL    HW128064   6.392   2.814   4.024
 9055SOL    HW228065   6.260   2.905   3.992
 9056SOL     OW28066   6.804   1.880   1.664
 9056SOL    HW128067   6.831   1.976   1.661
 9056SOL    HW228068   6.720   1.870   1.717
 9057SOL     OW28069   4.710   2.508   5.209
 9057SOL    HW128070   4.652   2.589   5.221
 9057SOL    HW228071   4.696   2.471   5.117
 9058SOL     OW28072   1.526   0.570   1.065
 9058SOL    HW128073   1.624   0.590   1.057
 9058SOL    HW228074   1.490   0.612   1.148
 9059SOL     OW28075   0.914   2.163   3.235
 9059SOL    HW128076   0.869   2.135   3.150
 9059SOL    HW228077   0.978   2.238   3.215
 9060SOL     OW28078   6.222   2.522   4.170
 9060SOL    HW128079   6.222   2.537   4.269
 9060SOL    HW228080   6.229   2.424   4.152
 9061SOL     OW28081   3.047   5.491   2.408
 9061SOL    HW128082   2.965   5.519   2.357
 9061SOL    HW228083   3.068   5.395   2.386
 9062SOL     OW28084   1.125   5.813   1.523
 9062SOL    HW128085   1.078   5.897   1.552
 9062SOL    HW228086   1.218   5.835   1.496
 9063SOL     OW28087   2.878   0.396   3.524
 9063SOL    HW128088   2.811   0.453   3.477
 9063SOL    HW228089   2.831   0.337   3.590
 9064SOL     OW28090   6.639   3.627   6.403
 9064SOL    HW128091   6.647   3.527   6.399
 9064SOL    HW228092   6.729   3.668   6.387
 9065SOL     OW28093   3.625   0.303   0.535
 9065SOL    HW128094   3.696   0.324   0.603
 9065SOL    HW228095   3.555   0.374   0.537
 9066SOL     OW28096   5.222   0.224   0.740
 9066SOL    HW128097   5.216   0.194   0.645
 9066SOL    HW228098   5.265   0.315   0.743
 9067SOL     OW28099   1.504   0.448   3.303
 9067SOL    HW128100   1.601   0.421   3.302
 9067SOL    HW228101   1.452   0.388   3.242
 9068SOL     OW28102   0.592   0.180   4.886
 9068SOL    HW128103   0.675   0.225   4.852
 9068SOL    HW228104   0.583   0.090   4.845
 9069SOL     OW28105   1.203   3.045   6.781
 9069SOL    HW128106   1.288   2.992   6.769
 9069SOL    HW228107   1.222   3.125   6.837
 9070SOL     OW28108   2.204   4.008   4.721
 9070SOL    HW128109   2.206   3.917   4.681
 9070SOL    HW228110   2.253   4.008   4.808
 9071SOL     OW28111   6.675   6.226   0.673
 9071SOL    HW128112   6.753   6.196   0.728
 9071SOL    HW228113   6.609   6.151   0.667
 9072SOL     OW28114   6.741   3.240   0.962
 9072SOL    HW128115   6.767   3.144   0.976
 9072SOL    HW228116   6.812   3.299   1.000
 9073SOL     OW28117   1.979   6.798   1.871
 9073SOL    HW128118   1.882   6.786   1.894
 9073SOL    HW228119   2.018   6.870   1.929
 9074SOL     OW28120   1.476   0.768   2.565
 9074SOL    HW128121   1.537   0.847   2.558
 9074SOL    HW228122   1.450   0.738   2.474
 9075SOL     OW28123   6.504   0.984   2.195
 9075SOL    HW128124   6.405   0.984   2.211
 9075SOL    HW228125   6.523   0.964   2.099
 9076SOL     OW28126   0.807   1.432   6.328
 9076SOL    HW128127   0.738   1.489   6.282
 9076SOL    HW228128   0.794   1.437   6.427
 9077SOL     OW28129   4.330   6.493   1.936
 9077SOL    HW128130   4.420   6.480   1.979
 9077SOL    HW228131   4.333   6.458   1.843
 9078SOL     OW28132   4.045   3.198   4.865
 9078SOL    HW128133   4.008   3.130   4.802
 9078SOL    HW228134   3.975   3.267   4.885
 9079SOL     OW28135   2.902   0.557   4.525
 9079SOL    HW128136   2.946   0.537   4.438
 9079SOL    HW228137   2.946   0.636   4.568
 9080SOL     OW28138   5.091   2.738   0.049
 9080SOL    HW128139   5.045   2.822   0.020
 9080SOL    HW228140   5.117   2.746   0.145
 9081SOL     OW28141   5.313   6.168   2.688
 9081SOL    HW128142   5.225   6.214   2.693
 9081SOL    HW228143   5.354   6.165   2.779
 9082SOL     OW28144   1.670   6.886   4.301
 9082SOL    HW128145   1.687   6.844   4.212
 9082SOL    HW228146   1.756   6.925   4.336
 9083SOL     OW28147   4.708   4.756   5.955
 9083SOL    HW128148   4.640   4.682   5.960
 9083SOL    HW228149   4.740   4.764   5.860
 9084SOL     OW28150   3.590   3.508   2.744
 9084SOL    HW128151   3.543   3.420   2.750
 9084SOL    HW228152   3.676   3.504   2.795
 9085SOL     OW28153   2.433   0.713   0.569
 9085SOL    HW128154   2.507   0.675   0.626
 9085SOL    HW228155   2.351   0.725   0.624
 9086SOL     OW28156   0.616   4.066   0.407
 9086SOL    HW128157   0.706   4.070   0.365
 9086SOL    HW228158   0.616   3.997   0.480
 9087SOL     OW28159   5.140   3.276   2.671
 9087SOL    HW128160   5.060   3.229   2.634
 9087SOL    HW228161   5.179   3.335   2.601
 9088SOL     OW28162   6.259   0.265   0.388
 9088SOL    HW128163   6.246   0.365   0.391
 9088SOL    HW228164   6.340   0.241   0.441
 9089SOL     OW28165   5.215   6.309   5.900
 9089SOL    HW128166   5.187   6.288   5.994
 9089SOL    HW228167   5.249   6.226   5.856
 9090SOL     OW28168   6.347   0.928   4.768
 9090SOL    HW128169   6.361   1.006   4.707
 9090SOL    HW228170   6.262   0.941   4.820
 9091SOL     OW28171   2.986   3.902   6.873
 9091SOL    HW128172   2.942   3.813   6.881
 9091SOL    HW228173   2.975   3.936   6.780
 9092SOL     OW28174   6.432   1.350   6.902
 9092SOL    HW128175   6.402   1.303   6.985
 9092SOL    HW228176   6.390   1.441   6.899
 9093SOL     OW28177   1.461   5.975   5.231
 9093SOL    HW128178   1.430   5.916   5.304
 9093SOL    HW228179   1.386   5.994   5.168
 9094SOL     OW28180   0.705   3.536   3.009
 9094SOL    HW128181   0.709   3.452   2.955
 9094SOL    HW228182   0.691   3.614   2.949
 9095SOL     OW28183   4.347   4.734   5.818
 9095SOL    HW128184   4.417   4.771   5.757
 9095SOL    HW228185   4.263   4.715   5.766
 9096SOL     OW28186   6.623   5.093   3.431
 9096SOL    HW128187   6.610   5.181   3.476
 9096SOL    HW228188   6.720   5.081   3.408
 9097SOL     OW28189   1.118   2.738   6.421
 9097SOL    HW128190   1.151   2.758   6.329
 9097SOL    HW228191   1.048   2.667   6.418
 9098SOL     OW28192   2.148   2.211   4.978
 9098SOL    HW128193   2.207   2.131   4.962
 9098SOL    HW228194   2.130   2.220   5.075
 9099SOL     OW28195   2.460   3.131   5.842
 9099SOL    HW128196   2.460   3.045   5.792
 9099SOL    HW228197   2.454   3.112   5.940
 9100SOL     OW28198   1.462   3.937   2.385
 9100SOL    HW128199   1.374   3.898   2.359
 9100SOL    HW228200   1.528   3.863   2.398
 9101SOL     OW28201   2.958   1.708   2.433
 9101SOL    HW128202   2.991   1.626   2.387
 9101SOL    HW228203   2.964   1.694   2.532
 9102SOL     OW28204   4.508   6.123   2.868
 9102SOL    HW128205   4.586   6.181   2.892
 9102SOL    HW228206   4.424   6.164   2.903
 9103SOL     OW28207   6.049   1.688   6.859
 9103SOL    HW128208   6.032   1.760   6.927
 9103SOL    HW228209   6.048   1.728   6.767
 9104SOL     OW28210   0.104   1.108   1.096
 9104SOL    HW128211   0.069   1.138   1.007
 9104SOL    HW228212   0.155   1.183   1.139
 9105SOL     OW28213   1.742   0.169   5.510
 9105SOL    HW128214   1.704   0.247   5.459
 9105SOL    HW228215   1.724   0.182   5.608
 9106SOL     OW28216   0.799   4.014   0.192
 9106SOL    HW128217   0.742   3.934   0.211
 9106SOL    HW228218   0.808   4.026   0.093
 9107SOL     OW28219   2.548   0.583   6.295
 9107SOL    HW128220   2.589   0.504   6.251
 9107SOL    HW228221   2.449   0.570   6.302
 9108SOL     OW28222   5.000   5.047   5.462
 9108SOL    HW128223   4.943   4.966   5.471
 9108SOL    HW228224   5.096   5.019   5.451
 9109SOL     OW28225   5.432   3.252   2.230
 9109SOL    HW128226   5.335   3.274   2.222
 9109SOL    HW228227   5.444   3.179   2.297
 9110SOL     OW28228   1.381   5.736   5.362
 9110SOL    HW128229   1.429   5.740   5.449
 9110SOL    HW228230   1.392   5.646   5.321
 9111SOL     OW28231   4.666   2.923   5.769
 9111SOL    HW128232   4.665   2.833   5.725
 9111SOL    HW228233   4.730   2.922   5.846
 9112SOL     OW28234   1.859   5.058   2.707
 9112SOL    HW128235   1.911   5.128   2.659
 9112SOL    HW228236   1.782   5.100   2.755
 9113SOL     OW28237   5.328   2.237   2.980
 9113SOL    HW128238   5.305   2.296   2.902
 9113SOL    HW228239   5.249   2.182   3.005
 9114SOL     OW28240   1.522   6.198   4.447
 9114SOL    HW128241   1.578   6.270   4.408
 9114SOL    HW228242   1.576   6.143   4.511
 9115SOL     OW28243   5.356   4.992   3.448
 9115SOL    HW128244   5.283   4.944   3.401
 9115SOL    HW228245   5.444   4.949   3.427
 9116SOL     OW28246   0.329   6.619   3.347
 9116SOL    HW128247   0.428   6.617   3.365
 9116SOL    HW228248   0.292   6.526   3.357
 9117SOL     OW28249   4.195   0.880   0.009
 9117SOL    HW128250   4.207   0.781   7.015
 9117SOL    HW228251   4.205   0.903   0.105
 9118SOL     OW28252   6.308   3.847   0.332
 9118SOL    HW128253   6.224   3.821   0.283
 9118SOL    HW228254   6.387   3.830   0.273
 9119SOL     OW28255   3.629   6.151   1.250
 9119SOL    HW128256   3.624   6.065   1.301
 9119SOL    HW228257   3.631   6.131   1.152
 9120SOL     OW28258   6.456   2.502   6.079
 9120SOL    HW128259   6.449   2.602   6.070
 9120SOL    HW228260   6.472   2.479   6.175
 9121SOL     OW28261   3.936   0.552   5.765
 9121SOL    HW128262   3.974   0.581   5.853
 9121SOL    HW228263   3.937   0.452   5.760
 9122SOL     OW28264   2.254   4.203   2.077
 9122SOL    HW128265   2.270   4.243   2.167
 9122SOL    HW228266   2.201   4.268   2.021
 9123SOL     OW28267   1.302   0.904   3.451
 9123SOL    HW128268   1.240   0.849   3.507
 9123SOL    HW228269   1.363   0.843   3.399
 9124SOL     OW28270   3.379   5.179   1.355
 9124SOL    HW128271   3.379   5.223   1.444
 9124SOL    HW228272   3.410   5.084   1.365
 9125SOL     OW28273   3.362   6.171   6.915
 9125SOL    HW128274   3.385   6.176   7.013
 9125SOL    HW228275   3.265   6.189   6.903
 9126SOL     OW28276   4.143   4.649   0.872
 9126SOL    HW128277   4.124   4.563   0.920
 9126SOL    HW228278   4.231   4.642   0.826
 9127SOL     OW28279   6.890   3.327   4.959
 9127SOL    HW128280   6.844   3.280   5.034
 9127SOL    HW228281   6.989   3.325   4.974
 9128SOL     OW28282   6.065   3.020   4.709
 9128SOL    HW128283   6.037   3.116   4.714
 9128SOL    HW228284   6.053   2.978   4.799
 9129SOL     OW28285   2.326   1.933   1.025
 9129SOL    HW128286   2.255   1.892   0.968
 9129SOL    HW228287   2.378   1.999   0.971
 9130SOL     OW28288   2.797   4.253   5.454
 9130SOL    HW128289   2.888   4.261   5.412
 9130SOL    HW228290   2.729   4.295   5.394
 9131SOL     OW28291   6.271   2.977   0.759
 9131SOL    HW128292   6.208   2.909   0.797
 9131SOL    HW228293   6.297   3.042   0.830
 9132SOL     OW28294   0.978   4.326   3.143
 9132SOL    HW128295   0.920   4.280   3.209
 9132SOL    HW228296   1.074   4.323   3.173
 9133SOL     OW28297   4.330   0.645   1.203
 9133SOL    HW128298   4.295   0.642   1.297
 9133SOL    HW228299   4.309   0.734   1.163
 9134SOL     OW28300   4.754   5.149   0.880
 9134SOL    HW128301   4.839   5.192   0.912
 9134SOL    HW228302   4.702   5.214   0.825
 9135SOL     OW28303   1.042   6.051   1.664
 9135SOL    HW128304   1.080   6.144   1.656
 9135SOL    HW228305   0.984   6.046   1.746
 9136SOL     OW28306   5.346   4.869   6.514
 9136SOL    HW128307   5.265   4.865   6.573
 9136SOL    HW228308   5.415   4.804   6.548
 9137SOL     OW28309   4.227   6.006   6.516
 9137SOL    HW128310   4.229   6.034   6.420
 9137SOL    HW228311   4.149   6.048   6.561
 9138SOL     OW28312   3.171   2.571   0.235
 9138SOL    HW128313   3.235   2.631   0.283
 9138SOL    HW228314   3.095   2.626   0.199
 9139SOL     OW28315   0.091   0.099   1.172
 9139SOL    HW128316   0.133   0.188   1.155
 9139SOL    HW228317   0.050   0.065   1.087
 9140SOL     OW28318   0.661   3.975   2.702
 9140SOL    HW128319   0.694   3.907   2.637
 9140SOL    HW228320   0.733   3.994   2.769
 9141SOL     OW28321   6.671   5.328   6.126
 9141SOL    HW128322   6.680   5.422   6.095
 9141SOL    HW228323   6.724   5.315   6.210
 9142SOL     OW28324   1.026   3.691   2.449
 9142SOL    HW128325   1.032   3.756   2.525
 9142SOL    HW228326   0.946   3.713   2.393
 9143SOL     OW28327   0.446   3.613   3.131
 9143SOL    HW128328   0.402   3.677   3.068
 9143SOL    HW228329   0.533   3.583   3.093
 9144SOL     OW28330   2.704   4.941   5.133
 9144SOL    HW128331   2.746   5.030   5.114
 9144SOL    HW228332   2.729   4.911   5.225
 9145SOL     OW28333   0.980   6.600   6.494
 9145SOL    HW128334   0.969   6.632   6.588
 9145SOL    HW228335   1.006   6.676   6.436
 9146SOL     OW28336   5.585   3.673   3.499
 9146SOL    HW128337   5.557   3.580   3.476
 9146SOL    HW228338   5.508   3.722   3.539
 9147SOL     OW28339   5.307   0.162   3.881
 9147SOL    HW128340   5.247   0.212   3.943
 9147SOL    HW228341   5.253   0.119   3.809
 9148SOL     OW28342   6.493   0.134   1.579
 9148SOL    HW128343   6.404   0.097   1.551
 9148SOL    HW228344   6.503   0.227   1.543
 9149SOL     OW28345   5.896   4.259   1.512
 9149SOL    HW128346   5.853   4.250   1.423
 9149SOL    HW228347   5.880   4.176   1.566
 9150SOL     OW28348   3.001   3.881   0.152
 9150SOL    HW128349   3.032   3.881   0.057
 9150SOL    HW228350   3.014   3.972   0.191
 9151SOL     OW28351   1.746   3.513   3.864
 9151SOL    HW128352   1.693   3.593   3.891
 9151SOL    HW228353   1.722   3.487   3.771
 9152SOL     OW28354   1.816   4.213   3.732
 9152SOL    HW128355   1.819   4.258   3.642
 9152SOL    HW228356   1.775   4.275   3.799
 9153SOL     OW28357   0.555   2.587   6.430
 9153SOL    HW128358   0.519   2.628   6.514
 9153SOL    HW228359   0.617   2.651   6.385
 9154SOL     OW28360   5.980   4.837   3.037
 9154SOL    HW128361   6.049   4.799   3.098
 9154SOL    HW228362   6.015   4.919   2.993
 9155SOL     OW28363   0.697   5.679   2.551
 9155SOL    HW128364   0.784   5.716   2.517
 9155SOL    HW228365   0.695   5.686   2.651
 9156SOL     OW28366   6.784   4.108   0.289
 9156SOL    HW128367   6.825   4.132   0.377
 9156SOL    HW228368   6.689   4.140   0.287
 9157SOL     OW28369   2.968   4.270   6.359
 9157SOL    HW128370   3.053   4.305   6.318
 9157SOL    HW228371   2.942   4.185   6.315
 9158SOL     OW28372   0.258   3.485   3.827
 9158SOL    HW128373   0.339   3.544   3.827
 9158SOL    HW228374   0.282   3.396   3.866
 9159SOL     OW28375   3.589   0.587   3.570
 9159SOL    HW128376   3.608   0.537   3.485
 9159SOL    HW228377   3.497   0.625   3.566
 9160SOL     OW28378   0.240   4.646   6.635
 9160SOL    HW128379   0.340   4.651   6.636
 9160SOL    HW228380   0.202   4.714   6.697
 9161SOL     OW28381   5.501   3.946   1.687
 9161SOL    HW128382   5.463   3.854   1.697
 9161SOL    HW228383   5.454   3.994   1.612
 9162SOL     OW28384   5.412   2.064   2.216
 9162SOL    HW128385   5.393   2.040   2.311
 9162SOL    HW228386   5.406   2.163   2.205
 9163SOL     OW28387   1.256   2.065   2.987
 9163SOL    HW128388   1.287   1.980   2.945
 9163SOL    HW228389   1.226   2.046   3.081
 9164SOL     OW28390   2.663   0.485   6.909
 9164SOL    HW128391   2.756   0.457   6.936
 9164SOL    HW228392   2.613   0.515   6.990
 9165SOL     OW28393   4.862   2.798   5.389
 9165SOL    HW128394   4.766   2.827   5.382
 9165SOL    HW228395   4.907   2.811   5.301
 9166SOL     OW28396   5.119   5.331   1.968
 9166SOL    HW128397   5.032   5.284   1.983
 9166SOL    HW228398   5.171   5.284   1.898
 9167SOL     OW28399   1.539   0.672   5.671
 9167SOL    HW128400   1.489   0.586   5.665
 9167SOL    HW228401   1.592   0.685   5.587
 9168SOL     OW28402   6.518   6.046   4.569
 9168SOL    HW128403   6.488   6.112   4.501
 9168SOL    HW228404   6.566   6.094   4.643
 9169SOL     OW28405   6.281   6.452   0.309
 9169SOL    HW128406   6.283   6.547   0.340
 9169SOL    HW228407   6.195   6.409   0.339
 9170SOL     OW28408   1.508   1.402   6.076
 9170SOL    HW128409   1.420   1.401   6.030
 9170SOL    HW228410   1.578   1.363   6.015
 9171SOL     OW28411   3.284   5.006   0.716
 9171SOL    HW128412   3.242   4.986   0.804
 9171SOL    HW228413   3.379   5.033   0.729
 9172SOL     OW28414   5.107   1.381   4.271
 9172SOL    HW128415   5.100   1.458   4.335
 9172SOL    HW228416   5.124   1.415   4.179
 9173SOL     OW28417   6.460   2.649   4.113
 9173SOL    HW128418   6.381   2.594   4.088
 9173SOL    HW228419   6.544   2.597   4.095
 9174SOL     OW28420   0.410   5.795   0.053
 9174SOL    HW128421   0.326   5.850   0.055
 9174SOL    HW228422   0.484   5.848   0.095
 9175SOL     OW28423   1.547   0.270   6.739
 9175SOL    HW128424   1.576   0.205   6.668
 9175SOL    HW228425   1.571   0.233   6.829
 9176SOL     OW28426   1.578   1.656   2.693
 9176SOL    HW128427   1.486   1.621   2.678
 9176SOL    HW228428   1.582   1.707   2.778
 9177SOL     OW28429   0.172   4.116   3.658
 9177SOL    HW128430   0.196   4.082   3.749
 9177SOL    HW228431   0.105   4.055   3.617
 9178SOL     OW28432   1.529   6.478   0.512
 9178SOL    HW128433   1.500   6.470   0.417
 9178SOL    HW228434   1.629   6.472   0.518
 9179SOL     OW28435   4.623   6.244   4.831
 9179SOL    HW128436   4.555   6.197   4.888
 9179SOL    HW228437   4.586   6.332   4.801
 9180SOL     OW28438   0.014   1.346   4.202
 9180SOL    HW128439   6.994   1.435   4.228
 9180SOL    HW228440   0.113   1.354   4.194
 9181SOL     OW28441   3.773   1.991   3.938
 9181SOL    HW128442   3.841   2.057   3.970
 9181SOL    HW228443   3.773   1.912   3.999
 9182SOL     OW28444   1.743   1.253   3.130
 9182SOL    HW128445   1.787   1.254   3.219
 9182SOL    HW228446   1.738   1.160   3.095
 9183SOL     OW28447   5.898   2.931   6.066
 9183SOL    HW128448   5.939   2.850   6.108
 9183SOL    HW228449   5.806   2.945   6.103
 9184SOL     OW28450   3.805   3.331   1.461
 9184SOL    HW128451   3.853   3.400   1.515
 9184SOL    HW228452   3.791   3.365   1.368
 9185SOL     OW28453   0.645   0.335   6.226
 9185SOL    HW128454   0.712   0.389   6.276
 9185SOL    HW228455   0.692   0.265   6.171
 9186SOL     OW28456   5.232   0.755   6.097
 9186SOL    HW128457   5.276   0.771   6.185
 9186SOL    HW228458   5.277   0.677   6.052
 9187SOL     OW28459   5.184   1.729   0.294
 9187SOL    HW128460   5.173   1.790   0.372
 9187SOL    HW228461   5.100   1.677   0.281
 9188SOL     OW28462   0.974   6.972   2.240
 9188SOL    HW128463   0.979   6.944   2.144
 9188SOL    HW228464   0.903   0.023   2.252
 9189SOL     OW28465   3.425   1.499   3.830
 9189SOL    HW128466   3.429   1.417   3.887
 9189SOL    HW228467   3.332   1.535   3.830
 9190SOL     OW28468   5.986   3.743   5.797
 9190SOL    HW128469   6.047   3.705   5.866
 9190SOL    HW228470   5.919   3.804   5.840
 9191SOL     OW28471   5.035   5.976   6.381
 9191SOL    HW128472   4.987   6.053   6.421
 9191SOL    HW228473   5.085   6.006   6.300
 9192SOL     OW28474   6.775   4.288   5.706
 9192SOL    HW128475   6.773   4.359   5.776
 9192SOL    HW228476   6.712   4.314   5.632
 9193SOL     OW28477   3.623   3.062   3.524
 9193SOL    HW128478   3.539   3.105   3.558
 9193SOL    HW228479   3.697   3.077   3.589
 9194SOL     OW28480   2.732   4.987   3.098
 9194SOL    HW128481   2.762   4.902   3.056
 9194SOL    HW228482   2.757   5.064   3.039
 9195SOL     OW28483   0.487   3.225   3.269
 9195SOL    HW128484   0.402   3.270   3.244
 9195SOL    HW228485   0.495   3.139   3.219
 9196SOL     OW28486   4.875   0.503   3.361
 9196SOL    HW128487   4.779   0.531   3.352
 9196SOL    HW228488   4.886   0.449   3.444
 9197SOL     OW28489   3.208   2.869   6.306
 9197SOL    HW128490   3.250   2.852   6.395
 9197SOL    HW228491   3.144   2.795   6.285
 9198SOL     OW28492   5.829   3.158   5.646
 9198SOL    HW128493   5.803   3.104   5.566
 9198SOL    HW228494   5.903   3.220   5.622
 9199SOL     OW28495   1.224   4.232   6.310
 9199SOL    HW128496   1.306   4.211   6.256
 9199SOL    HW228497   1.217   4.168   6.386
 9200SOL     OW28498   6.377   0.032   0.613
 9200SOL    HW128499   6.401   0.123   0.648
 9200SOL    HW228500   6.279   0.017   0.623
 9201SOL     OW28501   0.411   3.784   2.130
 9201SOL    HW128502   0.459   3.698   2.146
 9201SOL    HW228503   0.361   3.809   2.213
 9202SOL     OW28504   3.002   5.285   4.490
 9202SOL    HW128505   2.978   5.326   4.578
 9202SOL    HW228506   2.971   5.344   4.416
 9203SOL     OW28507   5.159   1.027   5.422
 9203SOL    HW128508   5.197   1.025   5.330
 9203SOL    HW228509   5.174   1.117   5.463
 9204SOL     OW28510   5.153   4.367   2.960
 9204SOL    HW128511   5.233   4.358   3.019
 9204SOL    HW228512   5.120   4.276   2.935
 9205SOL     OW28513   5.794   2.732   2.782
 9205SOL    HW128514   5.752   2.781   2.705
 9205SOL    HW228515   5.723   2.707   2.848
 9206SOL     OW28516   0.961   6.525   3.210
 9206SOL    HW128517   1.025   6.587   3.256
 9206SOL    HW228518   0.921   6.463   3.277
 9207SOL     OW28519   4.097   6.275   6.902
 9207SOL    HW128520   4.092   6.243   6.996
 9207SOL    HW228521   4.024   6.342   6.886
 9208SOL     OW28522   5.388   3.374   1.878
 9208SOL    HW128523   5.443   3.368   1.795
 9208SOL    HW228524   5.327   3.294   1.883
 9209SOL     OW28525   4.386   1.146   2.836
 9209SOL    HW128526   4.336   1.232   2.828
 9209SOL    HW228527   4.369   1.089   2.756
 9210SOL     OW28528   2.040   6.956   1.193
 9210SOL    HW128529   1.957   7.006   1.221
 9210SOL    HW228530   2.060   6.884   1.260
 9211SOL     OW28531   5.061   1.554   6.429
 9211SOL    HW128532   5.066   1.606   6.344
 9211SOL    HW228533   5.021   1.610   6.501
 9212SOL     OW28534   5.507   4.231   4.445
 9212SOL    HW128535   5.504   4.138   4.481
 9212SOL    HW228536   5.519   4.296   4.520
 9213SOL     OW28537   5.712   6.759   3.590
 9213SOL    HW128538   5.794   6.797   3.548
 9213SOL    HW228539   5.732   6.668   3.627
 9214SOL     OW28540   2.403   2.141   4.498
 9214SOL    HW128541   2.344   2.168   4.575
 9214SOL    HW228542   2.499   2.153   4.524
 9215SOL     OW28543   0.355   4.077   2.772
 9215SOL    HW128544   0.308   4.145   2.829
 9215SOL    HW228545   0.401   4.122   2.696
 9216SOL     OW28546   2.194   5.836   4.701
 9216SOL    HW128547   2.166   5.872   4.612
 9216SOL    HW228548   2.153   5.746   4.716
 9217SOL     OW28549   4.392   0.782   6.506
 9217SOL    HW128550   4.373   0.834   6.589
 9217SOL    HW228551   4.467   0.718   6.523
 9218SOL     OW28552   6.250   5.888   6.078
 9218SOL    HW128553   6.287   5.966   6.028
 9218SOL    HW228554   6.188   5.836   6.019
 9219SOL     OW28555   3.823   3.354   4.956
 9219SOL    HW128556   3.821   3.395   5.047
 9219SOL    HW228557   3.730   3.336   4.925
 9220SOL     OW28558   1.739   6.307   3.284
 9220SOL    HW128559   1.686   6.322   3.200
 9220SOL    HW228560   1.827   6.265   3.260
 9221SOL     OW28561   2.684   0.941   6.634
 9221SOL    HW128562   2.645   1.030   6.611
 9221SOL    HW228563   2.760   0.921   6.571
 9222SOL     OW28564   1.586   4.091   3.386
 9222SOL    HW128565   1.644   4.014   3.413
 9222SOL    HW228566   1.513   4.103   3.453
 9223SOL     OW28567   1.083   4.075   4.482
 9223SOL    HW128568   1.000   4.126   4.504
 9223SOL    HW228569   1.060   3.981   4.458
 9224SOL     OW28570   2.015   4.130   3.914
 9224SOL    HW128571   1.946   4.141   3.842
 9224SOL    HW228572   2.081   4.205   3.908
 9225SOL     OW28573   4.651   6.934   6.652
 9225SOL    HW128574   4.578   6.895   6.596
 9225SOL    HW228575   4.665   0.011   6.626
 9226SOL     OW28576   0.706   0.509   0.700
 9226SOL    HW128577   0.778   0.492   0.634
 9226SOL    HW228578   0.634   0.440   0.691
 9227SOL     OW28579   2.308   5.394   0.653
 9227SOL    HW128580   2.254   5.471   0.620
 9227SOL    HW228581   2.398   5.395   0.608
 9228SOL     OW28582   3.115   2.812   5.720
 9228SOL    HW128583   3.163   2.735   5.763
 9228SOL    HW228584   3.023   2.784   5.694
 9229SOL     OW28585   6.908   4.771   6.668
 9229SOL    HW128586   6.960   4.773   6.583
 9229SOL    HW228587   6.825   4.826   6.657
 9230SOL     OW28588   5.067   1.574   4.048
 9230SOL    HW128589   5.119   1.656   4.068
 9230SOL    HW228590   4.977   1.580   4.091
 9231SOL     OW28591   0.749   5.279   4.748
 9231SOL    HW128592   0.703   5.331   4.676
 9231SOL    HW228593   0.788   5.196   4.710
 9232SOL     OW28594   1.266   5.352   1.619
 9232SOL    HW128595   1.323   5.430   1.644
 9232SOL    HW228596   1.290   5.322   1.527
 9233SOL     OW28597   0.925   0.434   0.085
 9233SOL    HW128598   0.952   0.520   0.129
 9233SOL    HW228599   0.885   0.373   0.154
 9234SOL     OW28600   2.109   4.867   0.915
 9234SOL    HW128601   2.024   4.843   0.868
 9234SOL    HW228602   2.147   4.786   0.959
 9235SOL     OW28603   2.526   2.512   4.313
 9235SOL    HW128604   2.465   2.433   4.318
 9235SOL    HW228605   2.504   2.567   4.232
 9236SOL     OW28606   2.050   3.425   6.121
 9236SOL    HW128607   2.147   3.449   6.134
 9236SOL    HW228608   1.992   3.499   6.154
 9237SOL     OW28609   6.216   5.185   3.440
 9237SOL    HW128610   6.221   5.093   3.400
 9237SOL    HW228611   6.291   5.241   3.405
 9238SOL     OW28612   1.739   3.249   5.450
 9238SOL    HW128613   1.767   3.216   5.360
 9238SOL    HW228614   1.706   3.173   5.505
 9239SOL     OW28615   0.575   4.840   6.992
 9239SOL    HW128616   0.662   4.835   6.944
 9239SOL    HW228617   0.504   4.797   6.937
 9240SOL     OW28618   4.715   2.756   2.971
 9240SOL    HW128619   4.771   2.805   2.904
 9240SOL    HW228620   4.677   2.673   2.929
 9241SOL     OW28621   5.771   6.659   0.804
 9241SOL    HW128622   5.785   6.618   0.894
 9241SOL    HW228623   5.829   6.613   0.737
 9242SOL     OW28624   1.311   1.997   1.262
 9242SOL    HW128625   1.228   2.011   1.208
 9242SOL    HW228626   1.376   1.942   1.209
 9243SOL     OW28627   1.169   0.248   0.898
 9243SOL    HW128628   1.079   0.263   0.857
 9243SOL    HW228629   1.207   0.336   0.928
 9244SOL     OW28630   4.519   6.545   4.772
 9244SOL    HW128631   4.434   6.595   4.755
 9244SOL    HW228632   4.566   6.584   4.850
 9245SOL     OW28633   1.067   4.744   2.958
 9245SOL    HW128634   1.062   4.843   2.948
 9245SOL    HW228635   0.978   4.708   2.986
 9246SOL     OW28636   6.969   0.980   4.380
 9246SOL    HW128637   6.902   1.041   4.423
 9246SOL    HW228638   0.002   1.030   4.311
 9247SOL     OW28639   3.664   5.757   3.422
 9247SOL    HW128640   3.592   5.827   3.420
 9247SOL    HW228641   3.683   5.732   3.517
 9248SOL     OW28642   2.596   1.179   5.349
 9248SOL    HW128643   2.673   1.125   5.315
 9248SOL    HW228644   2.540   1.208   5.271
 9249SOL     OW28645   3.594   4.997   1.869
 9249SOL    HW128646   3.655   4.982   1.792
 9249SOL    HW228647   3.571   4.910   1.912
 9250SOL     OW28648   0.077   2.993   4.019
 9250SOL    HW128649   0.158   3.003   4.077
 9250SOL    HW228650   7.014   3.022   4.070
 9251SOL     OW28651   3.410   2.768   0.670
 9251SOL    HW128652   3.425   2.684   0.722
 9251SOL    HW228653   3.460   2.843   0.713
 9252SOL     OW28654   5.348   0.255   5.356
 9252SOL    HW128655   5.298   0.309   5.425
 9252SOL    HW228656   5.425   0.308   5.322
 9253SOL     OW28657   1.095   5.005   5.054
 9253SOL    HW128658   1.190   4.994   5.085
 9253SOL    HW228659   1.085   5.094   5.010
 9254SOL     OW28660   6.346   4.976   3.292
 9254SOL    HW128661   6.393   4.929   3.367
 9254SOL    HW228662   6.409   5.040   3.247
 9255SOL     OW28663   6.446   4.709   0.478
 9255SOL    HW128664   6.383   4.633   0.464
 9255SOL    HW228665   6.525   4.676   0.531
 9256SOL     OW28666   2.173   6.397   1.930
 9256SOL    HW128667   2.215   6.472   1.982
 9256SOL    HW228668   2.113   6.344   1.990
 9257SOL     OW28669   0.053   5.103   4.001
 9257SOL    HW128670   0.152   5.115   4.004
 9257SOL    HW228671   0.010   5.169   4.063
 9258SOL     OW28672   3.571   4.136   0.822
 9258SOL    HW128673   3.528   4.092   0.743
 9258SOL    HW228674   3.651   4.188   0.792
 9259SOL     OW28675   2.417   2.193   6.685
 9259SOL    HW128676   2.374   2.280   6.710
 9259SOL    HW228677   2.491   2.211   6.620
 9260SOL     OW28678   5.627   3.126   4.903
 9260SOL    HW128679   5.582   3.065   4.837
 9260SOL    HW228680   5.624   3.220   4.868
 9261SOL     OW28681   4.186   2.041   1.398
 9261SOL    HW128682   4.227   2.132   1.409
 9261SOL    HW228683   4.158   2.007   1.488
 9262SOL     OW28684   6.187   6.301   3.747
 9262SOL    HW128685   6.225   6.219   3.704
 9262SOL    HW228686   6.096   6.320   3.709
 9263SOL     OW28687   2.104   3.429   3.631
 9263SOL    HW128688   2.129   3.336   3.605
 9263SOL    HW228689   2.036   3.464   3.567
 9264SOL     OW28690   4.882   4.251   7.017
 9264SOL    HW128691   4.906   4.335   0.048
 9264SOL    HW228692   4.907   4.261   6.921
 9265SOL     OW28693   5.083   2.040   0.003
 9265SOL    HW128694   4.997   2.075   6.984
 9265SOL    HW228695   5.088   1.941   7.006
 9266SOL     OW28696   0.158   4.302   1.176
 9266SOL    HW128697   0.248   4.341   1.157
 9266SOL    HW228698   0.168   4.207   1.203
 9267SOL     OW28699   0.471   1.082   3.816
 9267SOL    HW128700   0.554   1.122   3.778
 9267SOL    HW228701   0.479   1.076   3.915
 9268SOL     OW28702   0.800   6.678   1.728
 9268SOL    HW128703   0.714   6.685   1.676
 9268SOL    HW228704   0.862   6.750   1.698
 9269SOL     OW28705   4.108   0.376   0.654
 9269SOL    HW128706   4.098   0.390   0.555
 9269SOL    HW228707   4.020   0.392   0.699
 9270SOL     OW28708   2.646   1.062   5.590
 9270SOL    HW128709   2.638   1.100   5.498
 9270SOL    HW228710   2.566   1.087   5.643
 9271SOL     OW28711   1.226   0.213   6.299
 9271SOL    HW128712   1.278   0.287   6.343
 9271SOL    HW228713   1.140   0.199   6.348
 9272SOL     OW28714   6.981   6.529   5.950
 9272SOL    HW128715   0.005   6.444   5.981
 9272SOL    HW228716   6.912   6.508   5.881
 9273SOL     OW28717   5.056   5.243   4.069
 9273SOL    HW128718   5.083   5.331   4.029
 9273SOL    HW228719   4.970   5.255   4.120
 9274SOL     OW28720   0.797   3.338   0.451
 9274SOL    HW128721   0.724   3.293   0.399
 9274SOL    HW228722   0.885   3.322   0.406
 9275SOL     OW28723   0.934   6.314   0.984
 9275SOL    HW128724   0.885   6.376   1.045
 9275SOL    HW228725   1.031   6.313   1.008
 9276SOL     OW28726   3.176   4.796   0.352
 9276SOL    HW128727   3.221   4.795   0.441
 9276SOL    HW228728   3.156   4.890   0.325
 9277SOL     OW28729   4.786   4.906   2.184
 9277SOL    HW128730   4.702   4.857   2.206
 9277SOL    HW228731   4.863   4.863   2.231
 9278SOL     OW28732   0.539   0.783   4.402
 9278SOL    HW128733   0.554   0.838   4.485
 9278SOL    HW228734   0.517   0.689   4.428
 9279SOL     OW28735   3.960   5.501   1.433
 9279SOL    HW128736   4.043   5.520   1.486
 9279SOL    HW228737   3.985   5.458   1.346
 9280SOL     OW28738   1.607   1.340   2.902
 9280SOL    HW128739   1.620   1.304   2.994
 9280SOL    HW228740   1.684   1.400   2.879
 9281SOL     OW28741   3.012   4.566   0.326
 9281SOL    HW128742   3.074   4.644   0.336
 9281SOL    HW228743   3.053   4.486   0.369
 9282SOL     OW28744   3.485   0.138   4.967
 9282SOL    HW128745   3.513   0.078   4.892
 9282SOL    HW228746   3.490   0.233   4.938
 9283SOL     OW28747   4.473   6.205   6.592
 9283SOL    HW128748   4.402   6.135   6.602
 9283SOL    HW228749   4.501   6.239   6.682
 9284SOL     OW28750   3.037   4.112   5.134
 9284SOL    HW128751   3.096   4.158   5.201
 9284SOL    HW228752   2.967   4.177   5.103
 9285SOL     OW28753   6.425   3.860   2.537
 9285SOL    HW128754   6.521   3.874   2.510
 9285SOL    HW228755   6.406   3.762   2.542
 9286SOL     OW28756   4.782   5.697   1.604
 9286SOL    HW128757   4.844   5.697   1.526
 9286SOL    HW228758   4.772   5.603   1.638
 9287SOL     OW28759   3.286   4.501   6.499
 9287SOL    HW128760   3.271   4.593   6.463
 9287SOL    HW228761   3.262   4.434   6.429
 9288SOL     OW28762   4.174   1.993   3.320
 9288SOL    HW128763   4.141   2.036   3.236
 9288SOL    HW228764   4.175   1.893   3.307
 9289SOL     OW28765   4.916   6.395   0.007
 9289SOL    HW128766   4.872   6.332   0.071
 9289SOL    HW228767   4.934   6.348   6.939
 9290SOL     OW28768   5.664   0.708   4.764
 9290SOL    HW128769   5.706   0.665   4.684
 9290SOL    HW228770   5.653   0.639   4.836
 9291SOL     OW28771   1.376   5.323   5.797
 9291SOL    HW128772   1.322   5.271   5.863
 9291SOL    HW228773   1.436   5.260   5.747
 9292SOL     OW28774   1.557   1.793   6.308
 9292SOL    HW128775   1.537   1.828   6.216
 9292SOL    HW228776   1.648   1.822   6.335
 9293SOL     OW28777   5.222   3.054   5.859
 9293SOL    HW128778   5.173   2.967   5.850
 9293SOL    HW228779   5.177   3.123   5.803
 9294SOL     OW28780   4.523   1.537   0.342
 9294SOL    HW128781   4.533   1.479   0.261
 9294SOL    HW228782   4.427   1.540   0.369
 9295SOL     OW28783   0.827   1.094   5.487
 9295SOL    HW128784   0.914   1.142   5.475
 9295SOL    HW228785   0.843   0.995   5.486
 9296SOL     OW28786   2.520   4.645   0.580
 9296SOL    HW128787   2.455   4.720   0.589
 9296SOL    HW228788   2.489   4.582   0.509
 9297SOL     OW28789   6.078   6.521   2.578
 9297SOL    HW128790   6.059   6.599   2.518
 9297SOL    HW228791   6.143   6.549   2.649
 9298SOL     OW28792   1.519   6.242   5.834
 9298SOL    HW128793   1.489   6.327   5.878
 9298SOL    HW228794   1.498   6.165   5.895
 9299SOL     OW28795   2.309   2.646   4.820
 9299SOL    HW128796   2.326   2.554   4.856
 9299SOL    HW228797   2.365   2.661   4.739
 9300SOL     OW28798   1.754   6.141   5.677
 9300SOL    HW128799   1.774   6.116   5.582
 9300SOL    HW228800   1.674   6.200   5.680
 9301SOL     OW28801   0.353   4.078   4.693
 9301SOL    HW128802   0.449   4.100   4.675
 9301SOL    HW228803   0.334   3.984   4.664
 9302SOL     OW28804   2.154   3.374   4.809
 9302SOL    HW128805   2.148   3.453   4.870
 9302SOL    HW228806   2.166   3.406   4.715
 9303SOL     OW28807   2.677   4.846   1.012
 9303SOL    HW128808   2.675   4.780   0.937
 9303SOL    HW228809   2.589   4.894   1.016
 9304SOL     OW28810   5.078   5.141   0.371
 9304SOL    HW128811   5.165   5.174   0.409
 9304SOL    HW228812   5.003   5.166   0.432
 9305SOL     OW28813   3.207   1.731   1.268
 9305SOL    HW128814   3.189   1.829   1.276
 9305SOL    HW228815   3.301   1.712   1.293
 9306SOL     OW28816   0.607   4.926   5.086
 9306SOL    HW128817   0.633   4.893   5.177
 9306SOL    HW228818   0.594   4.848   5.025
 9307SOL     OW28819   2.760   2.901   1.670
 9307SOL    HW128820   2.697   2.832   1.706
 9307SOL    HW228821   2.854   2.877   1.697
 9308SOL     OW28822   1.857   3.923   1.390
 9308SOL    HW128823   1.767   3.902   1.427
 9308SOL    HW228824   1.928   3.896   1.454
 9309SOL     OW28825   4.280   5.707   5.168
 9309SOL    HW128826   4.208   5.713   5.238
 9309SOL    HW228827   4.354   5.649   5.202
 9310SOL     OW28828   4.773   5.998   6.279
 9310SOL    HW128829   4.675   5.983   6.297
 9310SOL    HW228830   4.798   5.954   6.193
 9311SOL     OW28831   4.982   3.376   1.962
 9311SOL    HW128832   4.896   3.403   1.918
 9311SOL    HW228833   4.963   3.311   2.036
 9312SOL     OW28834   0.667   2.341   1.123
 9312SOL    HW128835   0.585   2.398   1.129
 9312SOL    HW228836   0.745   2.398   1.097
 9313SOL     OW28837   1.044   6.951   1.931
 9313SOL    HW128838   1.087   0.016   1.966
 9313SOL    HW228839   1.115   6.890   1.896
 9314SOL     OW28840   5.023   2.853   0.494
 9314SOL    HW128841   4.995   2.910   0.417
 9314SOL    HW228842   4.965   2.772   0.498
 9315SOL     OW28843   5.668   0.978   6.474
 9315SOL    HW128844   5.728   1.057   6.467
 9315SOL    HW228845   5.573   1.008   6.469
 9316SOL     OW28846   4.073   1.123   5.435
 9316SOL    HW128847   4.060   1.219   5.408
 9316SOL    HW228848   4.153   1.116   5.495
 9317SOL     OW28849   3.447   5.931   3.424
 9317SOL    HW128850   3.440   5.900   3.519
 9317SOL    HW228851   3.378   5.885   3.368
 9318SOL     OW28852   4.763   5.670   1.189
 9318SOL    HW128853   4.697   5.746   1.195
 9318SOL    HW228854   4.797   5.662   1.096
 9319SOL     OW28855   2.212   4.591   0.674
 9319SOL    HW128856   2.295   4.646   0.678
 9319SOL    HW228857   2.236   4.496   0.654
 9320SOL     OW28858   6.055   6.676   6.595
 9320SOL    HW128859   6.037   6.746   6.527
 9320SOL    HW228860   5.980   6.671   6.660
 9321SOL     OW28861   0.306   3.637   5.085
 9321SOL    HW128862   0.309   3.699   5.164
 9321SOL    HW228863   0.398   3.604   5.065
 9322SOL     OW28864   5.785   4.321   5.728
 9322SOL    HW128865   5.842   4.239   5.729
 9322SOL    HW228866   5.836   4.398   5.766
 9323SOL     OW28867   1.236   3.103   3.464
 9323SOL    HW128868   1.179   3.179   3.494
 9323SOL    HW228869   1.183   3.018   3.466
 9324SOL     OW28870   0.329   3.905   1.460
 9324SOL    HW128871   0.395   3.841   1.500
 9324SOL    HW228872   0.281   3.954   1.533
 9325SOL     OW28873   1.356   5.206   2.291
 9325SOL    HW128874   1.440   5.190   2.343
 9325SOL    HW228875   1.282   5.229   2.354
 9326SOL     OW28876   4.325   4.130   0.576
 9326SOL    HW128877   4.357   4.038   0.553
 9326SOL    HW228878   4.269   4.126   0.659
 9327SOL     OW28879   4.336   0.929   3.326
 9327SOL    HW128880   4.349   0.932   3.227
 9327SOL    HW228881   4.346   1.021   3.364
 9328SOL     OW28882   2.869   6.114   4.435
 9328SOL    HW128883   2.903   6.022   4.417
 9328SOL    HW228884   2.870   6.131   4.533
 9329SOL     OW28885   0.307   5.995   6.217
 9329SOL    HW128886   0.400   5.979   6.252
 9329SOL    HW228887   0.307   6.077   6.160
 9330SOL     OW28888   5.682   6.541   6.196
 9330SOL    HW128889   5.587   6.557   6.169
 9330SOL    HW228890   5.705   6.445   6.181
 9331SOL     OW28891   1.677   3.739   4.909
 9331SOL    HW128892   1.757   3.680   4.920
 9331SOL    HW228893   1.613   3.696   4.846
 9332SOL     OW28894   4.657   5.329   0.669
 9332SOL    HW128895   4.736   5.327   0.607
 9332SOL    HW228896   4.587   5.390   0.632
 9333SOL     OW28897   3.530   5.175   0.556
 9333SOL    HW128898   3.580   5.131   0.482
 9333SOL    HW228899   3.491   5.105   0.616
 9334SOL     OW28900   5.041   6.538   5.807
 9334SOL    HW128901   5.039   6.441   5.829
 9334SOL    HW228902   4.948   6.575   5.810
 9335SOL     OW28903   2.166   2.425   1.513
 9335SOL    HW128904   2.211   2.389   1.431
 9335SOL    HW228905   2.156   2.524   1.504
 9336SOL     OW28906   6.677   1.124   5.186
 9336SOL    HW128907   6.640   1.119   5.279
 9336SOL    HW228908   6.753   1.059   5.177
 9337SOL     OW28909   3.879   0.271   5.855
 9337SOL    HW128910   3.838   0.229   5.936
 9337SOL    HW228911   3.808   0.317   5.801
 9338SOL     OW28912   6.420   5.870   0.008
 9338SOL    HW128913   6.486   5.846   6.956
 9338SOL    HW228914   6.373   5.955   7.001
 9339SOL     OW28915   6.166   4.874   5.609
 9339SOL    HW128916   6.259   4.846   5.628
 9339SOL    HW228917   6.120   4.805   5.553
 9340SOL     OW28918   3.616   6.216   2.499
 9340SOL    HW128919   3.551   6.177   2.435
 9340SOL    HW228920   3.709   6.185   2.475
 9341SOL     OW28921   5.358   4.234   6.880
 9341SOL    HW128922   5.298   4.172   6.830
 9341SOL    HW228923   5.439   4.255   6.824
 9342SOL     OW28924   2.608   6.899   4.103
 9342SOL    HW128925   2.679   6.958   4.142
 9342SOL    HW228926   2.579   6.833   4.172
 9343SOL     OW28927   4.794   4.323   2.065
 9343SOL    HW128928   4.699   4.299   2.047
 9343SOL    HW228929   4.800   4.419   2.094
 9344SOL     OW28930   6.417   5.442   5.152
 9344SOL    HW128931   6.420   5.542   5.145
 9344SOL    HW228932   6.433   5.415   5.247
 9345SOL     OW28933   0.221   6.010   0.118
 9345SOL    HW128934   0.123   6.029   0.108
 9345SOL    HW228935   0.273   6.065   0.053
 9346SOL     OW28936   5.757   6.723   1.773
 9346SOL    HW128937   5.740   6.636   1.727
 9346SOL    HW228938   5.752   6.711   1.872
 9347SOL     OW28939   4.258   5.703   0.605
 9347SOL    HW128940   4.343   5.656   0.578
 9347SOL    HW228941   4.197   5.637   0.649
 9348SOL     OW28942   2.326   5.819   2.039
 9348SOL    HW128943   2.287   5.853   2.124
 9348SOL    HW228944   2.327   5.719   2.040
 9349SOL     OW28945   6.367   4.793   1.631
 9349SOL    HW128946   6.277   4.786   1.674
 9349SOL    HW228947   6.405   4.702   1.617
 9350SOL     OW28948   6.981   1.197   4.988
 9350SOL    HW128949   6.978   1.143   5.073
 9350SOL    HW228950   0.057   1.202   4.955
 9351SOL     OW28951   2.905   1.129   5.710
 9351SOL    HW128952   2.916   1.053   5.774
 9351SOL    HW228953   2.822   1.116   5.656
 9352SOL     OW28954   2.892   2.364   5.871
 9352SOL    HW128955   2.882   2.380   5.773
 9352SOL    HW228956   2.933   2.274   5.887
 9353SOL     OW28957   1.315   3.981   1.307
 9353SOL    HW128958   1.244   4.051   1.321
 9353SOL    HW228959   1.304   3.939   1.217
 9354SOL     OW28960   6.164   1.875   1.385
 9354SOL    HW128961   6.077   1.876   1.434
 9354SOL    HW228962   6.152   1.915   1.295
 9355SOL     OW28963   6.822   6.975   3.840
 9355SOL    HW128964   6.821   0.050   3.803
 9355SOL    HW228965   6.842   6.978   3.938
 9356SOL     OW28966   4.321   5.271   1.980
 9356SOL    HW128967   4.298   5.261   2.077
 9356SOL    HW228968   4.261   5.339   1.938
 9357SOL     OW28969   3.136   3.078   0.728
 9357SOL    HW128970   3.058   3.119   0.776
 9357SOL    HW228971   3.168   2.998   0.779
 9358SOL     OW28972   6.186   4.454   1.991
 9358SOL    HW128973   6.236   4.525   2.042
 9358SOL    HW228974   6.207   4.463   1.894
 9359SOL     OW28975   6.881   4.065   6.497
 9359SOL    HW128976   6.909   3.970   6.508
 9359SOL    HW228977   6.805   4.071   6.433
 9360SOL     OW28978   2.186   0.629   5.873
 9360SOL    HW128979   2.194   0.551   5.936
 9360SOL    HW228980   2.220   0.712   5.918
 9361SOL     OW28981   2.947   6.090   2.251
 9361SOL    HW128982   2.998   6.025   2.195
 9361SOL    HW228983   2.957   6.182   2.212
 9362SOL     OW28984   2.516   1.190   1.922
 9362SOL    HW128985   2.546   1.095   1.930
 9362SOL    HW228986   2.416   1.193   1.923
 9363SOL     OW28987   3.369   5.844   2.901
 9363SOL    HW128988   3.359   5.868   2.804
 9363SOL    HW228989   3.385   5.927   2.954
 9364SOL     OW28990   4.091   3.092   6.445
 9364SOL    HW128991   4.179   3.087   6.398
 9364SOL    HW228992   4.104   3.132   6.536
 9365SOL     OW28993   2.770   1.828   5.045
 9365SOL    HW128994   2.848   1.772   5.019
 9365SOL    HW228995   2.734   1.875   4.965
 9366SOL     OW28996   3.499   1.989   0.581
 9366SOL    HW128997   3.463   1.921   0.517
 9366SOL    HW228998   3.559   1.944   0.647
 9367SOL     OW28999   6.704   5.835   3.464
 9367SOL    HW129000   6.728   5.897   3.538
 9367SOL    HW229001   6.784   5.781   3.437
 9368SOL     OW29002   3.370   2.111   1.861
 9368SOL    HW129003   3.440   2.137   1.795
 9368SOL    HW229004   3.379   2.014   1.882
 9369SOL     OW29005   6.594   1.655   5.714
 9369SOL    HW129006   6.533   1.579   5.738
 9369SOL    HW229007   6.684   1.619   5.691
 9370SOL     OW29008   5.879   0.835   2.844
 9370SOL    HW129009   5.824   0.917   2.847
 9370SOL    HW229010   5.961   0.848   2.901
 9371SOL     OW29011   1.155   5.397   0.242
 9371SOL    HW129012   1.079   5.424   0.182
 9371SOL    HW229013   1.124   5.325   0.303
 9372SOL     OW29014   5.592   6.626   3.395
 9372SOL    HW129015   5.599   6.683   3.313
 9372SOL    HW229016   5.614   6.681   3.475
 9373SOL     OW29017   4.248   1.467   3.379
 9373SOL    HW129018   4.249   1.444   3.476
 9373SOL    HW229019   4.284   1.391   3.326
 9374SOL     OW29020   5.604   2.668   0.060
 9374SOL    HW129021   5.572   2.608   0.133
 9374SOL    HW229022   5.637   2.754   0.099
 9375SOL     OW29023   6.606   0.860   2.777
 9375SOL    HW129024   6.543   0.785   2.798
 9375SOL    HW229025   6.625   0.860   2.678
 9376SOL     OW29026   3.119   3.522   0.817
 9376SOL    HW129027   3.063   3.445   0.848
 9376SOL    HW229028   3.093   3.604   0.867
 9377SOL     OW29029   6.325   5.550   3.792
 9377SOL    HW129030   6.273   5.508   3.718
 9377SOL    HW229031   6.420   5.561   3.763
 9378SOL     OW29032   2.764   0.074   6.776
 9378SOL    HW129033   2.685   0.131   6.799
 9378SOL    HW229034   2.811   0.112   6.696
 9379SOL     OW29035   4.691   4.252   3.875
 9379SOL    HW129036   4.687   4.174   3.937
 9379SOL    HW229037   4.639   4.328   3.914
 9380SOL     OW29038   6.657   6.341   5.631
 9380SOL    HW129039   6.654   6.254   5.581
 9380SOL    HW229040   6.590   6.404   5.592
 9381SOL     OW29041   2.541   2.763   5.376
 9381SOL    HW129042   2.476   2.801   5.441
 9381SOL    HW229043   2.533   2.811   5.289
 9382SOL     OW29044   4.085   0.478   3.235
 9382SOL    HW129045   4.067   0.557   3.293
 9382SOL    HW229046   4.180   0.448   3.248
 9383SOL     OW29047   3.252   6.866   4.758
 9383SOL    HW129048   3.189   6.869   4.836
 9383SOL    HW229049   3.204   6.830   4.678
 9384SOL     OW29050   4.410   6.057   2.535
 9384SOL    HW129051   4.336   6.088   2.474
 9384SOL    HW229052   4.393   5.962   2.561
 9385SOL     OW29053   3.889   1.524   3.113
 9385SOL    HW129054   3.794   1.498   3.095
 9385SOL    HW229055   3.907   1.517   3.211
 9386SOL     OW29056   3.577   6.369   5.129
 9386SOL    HW129057   3.519   6.300   5.174
 9386SOL    HW229058   3.557   6.370   5.031
 9387SOL     OW29059   3.503   6.667   1.243
 9387SOL    HW129060   3.594   6.697   1.271
 9387SOL    HW229061   3.495   6.568   1.254
 9388SOL     OW29062   1.225   6.265   2.682
 9388SOL    HW129063   1.251   6.178   2.725
 9388SOL    HW229064   1.160   6.247   2.608
 9389SOL     OW29065   2.668   0.248   5.407
 9389SOL    HW129066   2.708   0.309   5.476
 9389SOL    HW229067   2.663   0.296   5.319
 9390SOL     OW29068   4.418   5.788   3.372
 9390SOL    HW129069   4.472   5.791   3.287
 9390SOL    HW229070   4.473   5.826   3.447
 9391SOL     OW29071   1.702   0.796   5.476
 9391SOL    HW129072   1.782   0.782   5.534
 9391SOL    HW229073   1.678   0.893   5.475
 9392SOL     OW29074   0.560   6.582   5.224
 9392SOL    HW129075   0.503   6.572   5.143
 9392SOL    HW229076   0.656   6.573   5.198
 9393SOL     OW29077   3.645   1.694   4.800
 9393SOL    HW129078   3.711   1.707   4.726
 9393SOL    HW229079   3.680   1.736   4.883
 9394SOL     OW29080   6.041   2.691   3.218
 9394SOL    HW129081   5.950   2.731   3.205
 9394SOL    HW229082   6.073   2.710   3.311
 9395SOL     OW29083   2.907   2.503   0.371
 9395SOL    HW129084   2.956   2.460   0.296
 9395SOL    HW229085   2.973   2.531   0.442
 9396SOL     OW29086   0.054   6.594   4.804
 9396SOL    HW129087   0.149   6.603   4.834
 9396SOL    HW229088   7.012   6.588   4.883
 9397SOL     OW29089   2.154   0.482   0.407
 9397SOL    HW129090   2.248   0.503   0.382
 9397SOL    HW229091   2.140   0.384   0.405
 9398SOL     OW29092   2.214   1.120   6.898
 9398SOL    HW129093   2.298   1.065   6.895
 9398SOL    HW229094   2.238   1.217   6.890
 9399SOL     OW29095   6.651   2.288   6.729
 9399SOL    HW129096   6.667   2.386   6.717
 9399SOL    HW229097   6.658   2.241   6.641
 9400SOL     OW29098   5.401   3.587   1.553
 9400SOL    HW129099   5.412   3.613   1.649
 9400SOL    HW229100   5.365   3.494   1.547
 9401SOL     OW29101   2.327   6.582   3.523
 9401SOL    HW129102   2.301   6.586   3.619
 9401SOL    HW229103   2.415   6.537   3.513
 9402SOL     OW29104   2.190   4.669   6.459
 9402SOL    HW129105   2.137   4.584   6.452
 9402SOL    HW229106   2.264   4.656   6.525
 9403SOL     OW29107   5.003   1.438   3.520
 9403SOL    HW129108   4.986   1.399   3.429
 9403SOL    HW229109   4.995   1.366   3.589
 9404SOL     OW29110   0.528   5.032   6.525
 9404SOL    HW129111   0.577   5.081   6.454
 9404SOL    HW229112   0.501   4.941   6.491
 9405SOL     OW29113   5.942   6.787   1.523
 9405SOL    HW129114   5.972   6.762   1.616
 9405SOL    HW229115   5.866   6.728   1.496
 9406SOL     OW29116   0.404   2.092   5.428
 9406SOL    HW129117   0.317   2.048   5.407
 9406SOL    HW229118   0.428   2.155   5.354
 9407SOL     OW29119   3.159   6.632   2.806
 9407SOL    HW129120   3.139   6.701   2.876
 9407SOL    HW229121   3.230   6.666   2.745
 9408SOL     OW29122   3.850   0.939   5.763
 9408SOL    HW129123   3.790   0.948   5.684
 9408SOL    HW229124   3.797   0.952   5.847
 9409SOL     OW29125   4.873   4.207   4.337
 9409SOL    HW129126   4.947   4.185   4.400
 9409SOL    HW229127   4.855   4.128   4.278
 9410SOL     OW29128   3.516   6.267   1.833
 9410SOL    HW129129   3.517   6.339   1.763
 9410SOL    HW229130   3.574   6.294   1.910
 9411SOL     OW29131   3.758   5.059   1.114
 9411SOL    HW129132   3.747   5.132   1.181
 9411SOL    HW229133   3.824   4.992   1.148
 9412SOL     OW29134   0.839   3.040   1.675
 9412SOL    HW129135   0.882   2.953   1.649
 9412SOL    HW229136   0.911   3.106   1.698
 9413SOL     OW29137   4.175   5.921   4.969
 9413SOL    HW129138   4.078   5.900   4.979
 9413SOL    HW229139   4.228   5.870   5.037
 9414SOL     OW29140   2.967   1.694   2.695
 9414SOL    HW129141   3.038   1.676   2.763
 9414SOL    HW229142   2.929   1.785   2.710
 9415SOL     OW29143   1.531   6.760   2.525
 9415SOL    HW129144   1.543   6.710   2.440
 9415SOL    HW229145   1.438   6.747   2.560
 9416SOL     OW29146   0.890   1.325   1.475
 9416SOL    HW129147   0.986   1.295   1.477
 9416SOL    HW229148   0.881   1.410   1.527
 9417SOL     OW29149   3.093   6.867   5.542
 9417SOL    HW129150   3.121   6.897   5.633
 9417SOL    HW229151   3.174   6.849   5.486
 9418SOL     OW29152   2.299   5.753   0.920
 9418SOL    HW129153   2.300   5.827   0.988
 9418SOL    HW229154   2.373   5.689   0.940
 9419SOL     OW29155   3.466   6.687   5.222
 9419SOL    HW129156   3.556   6.665   5.259
 9419SOL    HW229157   3.468   6.681   5.122
 9420SOL     OW29158   0.030   1.580   5.091
 9420SOL    HW129159   0.114   1.540   5.053
 9420SOL    HW229160   6.970   1.556   5.034
 9421SOL     OW29161   2.281   5.370   5.336
 9421SOL    HW129162   2.273   5.449   5.275
 9421SOL    HW229163   2.233   5.292   5.296
 9422SOL     OW29164   5.432   0.028   2.285
 9422SOL    HW129165   5.388   0.116   2.302
 9422SOL    HW229166   5.375   6.992   2.223
 9423SOL     OW29167   4.591   0.504   3.064
 9423SOL    HW129168   4.565   0.443   2.989
 9423SOL    HW229169   4.687   0.490   3.086
 9424SOL     OW29170   5.332   0.862   5.613
 9424SOL    HW129171   5.281   0.874   5.528
 9424SOL    HW229172   5.267   0.852   5.689
 9425SOL     OW29173   0.525   3.072   5.864
 9425SOL    HW129174   0.430   3.103   5.863
 9425SOL    HW229175   0.543   3.020   5.947
 9426SOL     OW29176   2.797   1.363   0.523
 9426SOL    HW129177   2.751   1.359   0.612
 9426SOL    HW229178   2.787   1.454   0.484
 9427SOL     OW29179   3.146   4.666   5.217
 9427SOL    HW129180   3.065   4.607   5.215
 9427SOL    HW229181   3.136   4.738   5.148
 9428SOL     OW29182   5.780   6.928   2.453
 9428SOL    HW129183   5.824   6.943   2.541
 9428SOL    HW229184   5.704   6.992   2.442
 9429SOL     OW29185   1.576   3.995   2.135
 9429SOL    HW129186   1.571   3.903   2.095
 9429SOL    HW229187   1.546   3.991   2.231
 9430SOL     OW29188   6.719   6.659   2.202
 9430SOL    HW129189   6.693   6.568   2.235
 9430SOL    HW229190   6.649   6.693   2.140
 9431SOL     OW29191   6.261   4.111   0.087
 9431SOL    HW129192   6.196   4.127   0.013
 9431SOL    HW229193   6.343   4.066   0.050
 9432SOL     OW29194   6.197   0.120   3.798
 9432SOL    HW129195   6.283   0.161   3.769
 9432SOL    HW229196   6.201   0.100   3.896
 9433SOL     OW29197   3.445   4.992   4.696
 9433SOL    HW129198   3.382   4.959   4.625
 9433SOL    HW229199   3.401   4.983   4.786
 9434SOL     OW29200   5.358   4.258   3.557
 9434SOL    HW129201   5.379   4.352   3.530
 9434SOL    HW229202   5.353   4.200   3.475
 9435SOL     OW29203   1.313   1.224   4.465
 9435SOL    HW129204   1.308   1.226   4.365
 9435SOL    HW229205   1.221   1.231   4.504
 9436SOL     OW29206   1.198   3.432   1.402
 9436SOL    HW129207   1.270   3.501   1.406
 9436SOL    HW229208   1.225   3.352   1.456
 9437SOL     OW29209   1.238   5.799   3.002
 9437SOL    HW129210   1.146   5.760   3.001
 9437SOL    HW229211   1.242   5.875   2.938
 9438SOL     OW29212   1.161   6.339   1.373
 9438SOL    HW129213   1.088   6.279   1.342
 9438SOL    HW229214   1.194   6.394   1.296
 9439SOL     OW29215   6.921   3.114   2.405
 9439SOL    HW129216   6.852   3.047   2.377
 9439SOL    HW229217   6.954   3.163   2.325
 9440SOL     OW29218   4.854   5.660   4.971
 9440SOL    HW129219   4.834   5.697   5.062
 9440SOL    HW229220   4.769   5.654   4.919
 9441SOL     OW29221   1.096   5.515   5.422
 9441SOL    HW129222   1.094   5.580   5.346
 9441SOL    HW229223   1.107   5.422   5.385
 9442SOL     OW29224   6.344   1.708   0.151
 9442SOL    HW129225   6.248   1.720   0.177
 9442SOL    HW229226   6.392   1.796   0.155
 9443SOL     OW29227   2.135   4.179   1.753
 9443SOL    HW129228   2.085   4.144   1.833
 9443SOL    HW229229   2.113   4.124   1.673
 9444SOL     OW29230   0.401   3.128   0.309
 9444SOL    HW129231   0.416   3.223   0.281
 9444SOL    HW229232   0.482   3.074   0.287
 9445SOL     OW29233   5.195   3.186   1.834
 9445SOL    HW129234   5.125   3.253   1.857
 9445SOL    HW229235   5.184   3.105   1.892
 9446SOL     OW29236   6.541   6.858   2.978
 9446SOL    HW129237   6.529   6.830   2.883
 9446SOL    HW229238   6.506   6.950   2.992
 9447SOL     OW29239   5.643   3.568   2.851
 9447SOL    HW129240   5.552   3.535   2.878
 9447SOL    HW229241   5.695   3.592   2.933
 9448SOL     OW29242   5.323   5.882   6.263
 9448SOL    HW129243   5.313   5.821   6.342
 9448SOL    HW229244   5.309   5.976   6.293
 9449SOL     OW29245   6.834   5.478   5.820
 9449SOL    HW129246   6.745   5.521   5.838
 9449SOL    HW229247   6.907   5.540   5.847
 9450SOL     OW29248   2.603   4.801   4.931
 9450SOL    HW129249   2.672   4.730   4.944
 9450SOL    HW229250   2.597   4.858   5.013
 9451SOL     OW29251   4.833   5.874   6.039
 9451SOL    HW129252   4.806   5.780   6.062
 9451SOL    HW229253   4.777   5.907   5.963
 9452SOL     OW29254   1.791   3.277   0.057
 9452SOL    HW129255   1.744   3.330   0.128
 9452SOL    HW229256   1.888   3.270   0.080
 9453SOL     OW29257   1.693   3.751   2.971
 9453SOL    HW129258   1.669   3.693   3.048
 9453SOL    HW229259   1.685   3.699   2.886
 9454SOL     OW29260   1.418   3.697   5.820
 9454SOL    HW129261   1.456   3.642   5.894
 9454SOL    HW229262   1.397   3.789   5.853
 9455SOL     OW29263   3.580   1.393   2.861
 9455SOL    HW129264   3.645   1.428   2.793
 9455SOL    HW229265   3.603   1.431   2.951
 9456SOL     OW29266   0.034   4.326   0.929
 9456SOL    HW129267   0.114   4.273   0.900
 9456SOL    HW229268   0.045   4.352   1.024
 9457SOL     OW29269   1.458   3.854   6.150
 9457SOL    HW129270   1.491   3.872   6.243
 9457SOL    HW229271   1.510   3.778   6.111
 9458SOL     OW29272   0.445   4.792   6.387
 9458SOL    HW129273   0.516   4.837   6.333
 9458SOL    HW229274   0.428   4.701   6.350
 9459SOL     OW29275   6.552   5.290   1.644
 9459SOL    HW129276   6.594   5.222   1.585
 9459SOL    HW229277   6.504   5.245   1.719
 9460SOL     OW29278   0.062   2.523   5.223
 9460SOL    HW129279   0.013   2.505   5.309
 9460SOL    HW229280   0.047   2.618   5.195
 9461SOL     OW29281   6.494   1.464   3.296
 9461SOL    HW129282   6.484   1.443   3.199
 9461SOL    HW229283   6.419   1.522   3.327
 9462SOL     OW29284   1.597   3.337   3.279
 9462SOL    HW129285   1.517   3.276   3.279
 9462SOL    HW229286   1.674   3.291   3.322
 9463SOL     OW29287   6.958   0.554   0.937
 9463SOL    HW129288   6.982   0.638   0.986
 9463SOL    HW229289   6.901   0.496   0.996
 9464SOL     OW29290   5.486   6.884   6.359
 9464SOL    HW129291   5.443   6.908   6.446
 9464SOL    HW229292   5.423   6.831   6.303
 9465SOL     OW29293   6.903   0.455   3.020
 9465SOL    HW129294   6.840   0.419   2.951
 9465SOL    HW229295   6.859   0.530   3.070
 9466SOL     OW29296   3.152   3.201   5.450
 9466SOL    HW129297   3.152   3.109   5.488
 9466SOL    HW229298   3.138   3.196   5.351
 9467SOL     OW29299   1.597   2.459   1.592
 9467SOL    HW129300   1.687   2.450   1.634
 9467SOL    HW229301   1.579   2.556   1.572
 9468SOL     OW29302   5.595   3.008   6.167
 9468SOL    HW129303   5.593   2.967   6.258
 9468SOL    HW229304   5.508   3.052   6.148
 9469SOL     OW29305   6.208   5.350   2.202
 9469SOL    HW129306   6.152   5.372   2.283
 9469SOL    HW229307   6.293   5.307   2.231
 9470SOL     OW29308   4.903   3.066   6.678
 9470SOL    HW129309   4.820   3.011   6.661
 9470SOL    HW229310   4.982   3.018   6.641
 9471SOL     OW29311   6.678   2.464   5.480
 9471SOL    HW129312   6.671   2.378   5.530
 9471SOL    HW229313   6.587   2.495   5.452
 9472SOL     OW29314   6.532   3.916   4.374
 9472SOL    HW129315   6.540   3.817   4.364
 9472SOL    HW229316   6.616   3.959   4.340
 9473SOL     OW29317   3.873   6.758   5.331
 9473SOL    HW129318   3.803   6.695   5.365
 9473SOL    HW229319   3.833   6.849   5.320
 9474SOL     OW29320   5.919   4.714   1.748
 9474SOL    HW129321   5.834   4.763   1.726
 9474SOL    HW229322   5.898   4.621   1.777
 9475SOL     OW29323   3.425   3.347   1.168
 9475SOL    HW129324   3.412   3.259   1.123
 9475SOL    HW229325   3.373   3.417   1.119
 9476SOL     OW29326   2.985   3.208   4.421
 9476SOL    HW129327   2.929   3.290   4.432
 9476SOL    HW229328   2.979   3.153   4.504
 9477SOL     OW29329   0.928   3.363   1.335
 9477SOL    HW129330   0.919   3.352   1.434
 9477SOL    HW229331   1.024   3.366   1.310
 9478SOL     OW29332   5.483   3.862   6.280
 9478SOL    HW129333   5.524   3.920   6.351
 9478SOL    HW229334   5.535   3.871   6.195
 9479SOL     OW29335   5.992   6.046   6.434
 9479SOL    HW129336   5.976   6.021   6.338
 9479SOL    HW229337   6.007   6.144   6.442
 9480SOL     OW29338   4.116   4.584   6.825
 9480SOL    HW129339   4.095   4.671   6.780
 9480SOL    HW229340   4.204   4.550   6.792
 9481SOL     OW29341   6.224   3.699   1.635
 9481SOL    HW129342   6.261   3.760   1.705
 9481SOL    HW229343   6.129   3.724   1.615
 9482SOL     OW29344   5.671   0.792   3.055
 9482SOL    HW129345   5.667   0.842   2.968
 9482SOL    HW229346   5.654   0.856   3.130
 9483SOL     OW29347   2.111   1.852   0.893
 9483SOL    HW129348   2.015   1.867   0.868
 9483SOL    HW229349   2.131   1.754   0.891
 9484SOL     OW29350   5.816   1.651   3.649
 9484SOL    HW129351   5.734   1.672   3.701
 9484SOL    HW229352   5.793   1.641   3.552
 9485SOL     OW29353   1.446   0.352   1.396
 9485SOL    HW129354   1.400   0.299   1.325
 9485SOL    HW229355   1.514   0.294   1.442
 9486SOL     OW29356   2.346   5.240   1.128
 9486SOL    HW129357   2.273   5.198   1.183
 9486SOL    HW229358   2.420   5.270   1.188
 9487SOL     OW29359   2.954   3.780   3.236
 9487SOL    HW129360   2.910   3.718   3.170
 9487SOL    HW229361   3.016   3.842   3.187
 9488SOL     OW29362   2.471   6.239   0.958
 9488SOL    HW129363   2.413   6.163   0.930
 9488SOL    HW229364   2.458   6.256   1.056
 9489SOL     OW29365   3.327   4.178   0.943
 9489SOL    HW129366   3.416   4.170   0.899
 9489SOL    HW229367   3.270   4.100   0.917
 9490SOL     OW29368   5.560   7.005   1.034
 9490SOL    HW129369   5.633   0.047   1.066
 9490SOL    HW229370   5.493   0.039   0.982
 9491SOL     OW29371   6.733   4.843   4.949
 9491SOL    HW129372   6.648   4.859   4.900
 9491SOL    HW229373   6.715   4.833   5.047
 9492SOL     OW29374   3.213   3.412   2.493
 9492SOL    HW129375   3.210   3.511   2.503
 9492SOL    HW229376   3.269   3.388   2.414
 9493SOL     OW29377   5.012   5.279   3.661
 9493SOL    HW129378   4.927   5.303   3.708
 9493SOL    HW229379   5.066   5.220   3.720
 9494SOL     OW29380   5.117   4.375   0.751
 9494SOL    HW129381   5.189   4.342   0.811
 9494SOL    HW229382   5.066   4.448   0.796
 9495SOL     OW29383   6.559   2.206   4.252
 9495SOL    HW129384   6.578   2.111   4.276
 9495SOL    HW229385   6.562   2.263   4.334
 9496SOL     OW29386   5.332   4.514   6.588
 9496SOL    HW129387   5.254   4.551   6.638
 9496SOL    HW229388   5.376   4.443   6.643
 9497SOL     OW29389   4.235   4.104   0.844
 9497SOL    HW129390   4.288   4.178   0.886
 9497SOL    HW229391   4.276   4.016   0.870
 9498SOL     OW29392   5.286   0.490   6.020
 9498SOL    HW129393   5.330   0.428   6.085
 9498SOL    HW229394   5.291   0.450   5.928
 9499SOL     OW29395   2.080   3.999   5.362
 9499SOL    HW129396   2.134   4.081   5.340
 9499SOL    HW229397   2.121   3.919   5.318
 9500SOL     OW29398   3.289   6.793   1.650
 9500SOL    HW129399   3.370   6.851   1.653
 9500SOL    HW229400   3.264   6.775   1.555
 9501SOL     OW29401   3.370   1.633   4.765
 9501SOL    HW129402   3.316   1.715   4.745
 9501SOL    HW229403   3.465   1.659   4.782
 9502SOL     OW29404   0.202   2.421   4.970
 9502SOL    HW129405   0.199   2.481   4.890
 9502SOL    HW229406   0.149   2.461   5.044
 9503SOL     OW29407   0.205   0.960   1.391
 9503SOL    HW129408   0.207   0.967   1.291
 9503SOL    HW229409   0.137   1.024   1.427
 9504SOL     OW29410   6.462   2.615   0.851
 9504SOL    HW129411   6.498   2.528   0.884
 9504SOL    HW229412   6.367   2.603   0.823
 9505SOL     OW29413   5.607   4.111   3.653
 9505SOL    HW129414   5.628   4.086   3.558
 9505SOL    HW229415   5.630   4.034   3.713
 9506SOL     OW29416   0.244   3.246   6.970
 9506SOL    HW129417   0.146   3.253   6.955
 9506SOL    HW229418   0.274   3.152   6.954
 9507SOL     OW29419   2.237   0.862   4.017
 9507SOL    HW129420   2.316   0.826   4.066
 9507SOL    HW229421   2.189   0.787   3.971
 9508SOL     OW29422   5.724   2.304   0.542
 9508SOL    HW129423   5.674   2.385   0.572
 9508SOL    HW229424   5.660   2.229   0.524
 9509SOL     OW29425   1.467   6.872   5.579
 9509SOL    HW129426   1.433   6.878   5.485
 9509SOL    HW229427   1.430   6.948   5.632
 9510SOL     OW29428   0.450   3.722   1.639
 9510SOL    HW129429   0.516   3.671   1.584
 9510SOL    HW229430   0.499   3.789   1.695
 9511SOL     OW29431   0.612   2.123   0.152
 9511SOL    HW129432   0.515   2.125   0.176
 9511SOL    HW229433   0.631   2.045   0.093
 9512SOL     OW29434   6.386   1.840   3.897
 9512SOL    HW129435   6.407   1.937   3.909
 9512SOL    HW229436   6.416   1.810   3.807
 9513SOL     OW29437   1.806   3.258   4.762
 9513SOL    HW129438   1.827   3.329   4.696
 9513SOL    HW229439   1.874   3.185   4.755
 9514SOL     OW29440   1.471   3.843   6.863
 9514SOL    HW129441   1.380   3.852   6.904
 9514SOL    HW229442   1.540   3.875   6.928
 9515SOL     OW29443   1.301   5.875   6.885
 9515SOL    HW129444   1.308   5.857   6.787
 9515SOL    HW229445   1.392   5.888   6.923
 9516SOL     OW29446   5.168   3.244   4.390
 9516SOL    HW129447   5.221   3.329   4.378
 9516SOL    HW229448   5.107   3.253   4.468
 9517SOL     OW29449   1.729   5.061   0.866
 9517SOL    HW129450   1.671   5.079   0.787
 9517SOL    HW229451   1.788   4.983   0.847
 9518SOL     OW29452   1.834   2.219   6.679
 9518SOL    HW129453   1.893   2.275   6.621
 9518SOL    HW229454   1.766   2.277   6.723
 9519SOL     OW29455   3.168   2.952   3.042
 9519SOL    HW129456   3.210   2.887   2.979
 9519SOL    HW229457   3.105   3.011   2.991
 9520SOL     OW29458   6.632   1.032   4.243
 9520SOL    HW129459   6.671   1.085   4.318
 9520SOL    HW229460   6.564   0.968   4.279
 9521SOL     OW29461   3.371   4.893   1.377
 9521SOL    HW129462   3.301   4.855   1.317
 9521SOL    HW229463   3.371   4.843   1.464
 9522SOL     OW29464   4.245   5.457   2.662
 9522SOL    HW129465   4.177   5.522   2.629
 9522SOL    HW229466   4.299   5.424   2.585
 9523SOL     OW29467   2.288   5.546   4.965
 9523SOL    HW129468   2.270   5.450   4.985
 9523SOL    HW229469   2.229   5.576   4.889
 9524SOL     OW29470   1.898   3.258   1.560
 9524SOL    HW129471   1.819   3.265   1.500
 9524SOL    HW229472   1.969   3.322   1.530
 9525SOL     OW29473   1.949   1.571   5.795
 9525SOL    HW129474   1.937   1.669   5.779
 9525SOL    HW229475   2.035   1.556   5.843
 9526SOL     OW29476   5.739   4.959   0.745
 9526SOL    HW129477   5.815   4.923   0.690
 9526SOL    HW229478   5.658   4.904   0.728
 9527SOL     OW29479   2.786   6.785   4.371
 9527SOL    HW129480   2.749   6.727   4.299
 9527SOL    HW229481   2.782   6.738   4.459
 9528SOL     OW29482   6.273   1.615   1.455
 9528SOL    HW129483   6.236   1.695   1.406
 9528SOL    HW229484   6.198   1.559   1.490
 9529SOL     OW29485   5.628   3.790   0.866
 9529SOL    HW129486   5.595   3.804   0.960
 9529SOL    HW229487   5.631   3.878   0.818
 9530SOL     OW29488   0.990   5.102   4.195
 9530SOL    HW129489   0.973   5.009   4.226
 9530SOL    HW229490   1.087   5.124   4.208
 9531SOL     OW29491   4.104   5.047   3.154
 9531SOL    HW129492   4.087   5.131   3.102
 9531SOL    HW229493   4.134   4.975   3.092
 9532SOL     OW29494   6.419   4.857   1.319
 9532SOL    HW129495   6.498   4.808   1.283
 9532SOL    HW229496   6.407   4.834   1.416
 9533SOL     OW29497   0.582   5.217   3.917
 9533SOL    HW129498   0.500   5.260   3.953
 9533SOL    HW229499   0.637   5.182   3.993
 9534SOL     OW29500   6.048   4.225   4.984
 9534SOL    HW129501   6.008   4.136   5.009
 9534SOL    HW229502   6.148   4.219   4.989
 9535SOL     OW29503   2.377   1.667   5.783
 9535SOL    HW129504   2.392   1.759   5.748
 9535SOL    HW229505   2.410   1.661   5.877
 9536SOL     OW29506   3.622   3.298   4.793
 9536SOL    HW129507   3.602   3.391   4.761
 9536SOL    HW229508   3.640   3.239   4.715
 9537SOL     OW29509   2.787   2.021   4.126
 9537SOL    HW129510   2.789   2.121   4.114
 9537SOL    HW229511   2.701   1.994   4.168
 9538SOL     OW29512   4.654   1.434   4.298
 9538SOL    HW129513   4.701   1.430   4.386
 9538SOL    HW229514   4.690   1.361   4.239
 9539SOL     OW29515   3.145   3.098   3.959
 9539SOL    HW129516   3.070   3.138   4.011
 9539SOL    HW229517   3.117   3.086   3.864
 9540SOL     OW29518   4.815   5.296   4.221
 9540SOL    HW129519   4.774   5.384   4.197
 9540SOL    HW229520   4.744   5.226   4.228
 9541SOL     OW29521   1.587   0.906   5.772
 9541SOL    HW129522   1.551   0.822   5.732
 9541SOL    HW229523   1.621   0.966   5.699
 9542SOL     OW29524   5.447   4.916   4.897
 9542SOL    HW129525   5.361   4.925   4.848
 9542SOL    HW229526   5.521   4.955   4.841
 9543SOL     OW29527   2.889   0.240   6.074
 9543SOL    HW129528   2.902   0.319   6.014
 9543SOL    HW229529   2.836   0.170   6.025
 9544SOL     OW29530   5.151   3.712   4.164
 9544SOL    HW129531   5.169   3.681   4.071
 9544SOL    HW229532   5.168   3.638   4.228
 9545SOL     OW29533   6.950   5.279   1.992
 9545SOL    HW129534   7.008   5.197   1.995
 9545SOL    HW229535   6.910   5.287   1.901
 9546SOL     OW29536   3.758   1.929   5.652
 9546SOL    HW129537   3.738   2.026   5.661
 9546SOL    HW229538   3.676   1.876   5.673
 9547SOL     OW29539   2.775   5.496   4.154
 9547SOL    HW129540   2.724   5.582   4.148
 9547SOL    HW229541   2.740   5.431   4.088
 9548SOL     OW29542   0.929   5.699   4.644
 9548SOL    HW129543   0.964   5.606   4.650
 9548SOL    HW229544   0.987   5.761   4.697
 9549SOL     OW29545   3.067   0.685   2.286
 9549SOL    HW129546   3.019   0.735   2.214
 9549SOL    HW229547   3.153   0.650   2.250
 9550SOL     OW29548   6.431   1.922   0.726
 9550SOL    HW129549   6.474   2.011   0.711
 9550SOL    HW229550   6.351   1.933   0.784
 9551SOL     OW29551   6.300   3.631   5.758
 9551SOL    HW129552   6.375   3.575   5.794
 9551SOL    HW229553   6.334   3.686   5.681
 9552SOL     OW29554   2.181   6.517   6.293
 9552SOL    HW129555   2.081   6.518   6.291
 9552SOL    HW229556   2.216   6.543   6.203
 9553SOL     OW29557   5.240   2.246   6.875
 9553SOL    HW129558   5.339   2.238   6.881
 9553SOL    HW229559   5.197   2.163   6.911
 9554SOL     OW29560   1.732   6.717   4.077
 9554SOL    HW129561   1.780   6.798   4.042
 9554SOL    HW229562   1.642   6.711   4.034
 9555SOL     OW29563   0.608   1.238   3.322
 9555SOL    HW129564   0.551   1.239   3.240
 9555SOL    HW229565   0.564   1.291   3.395
 9556SOL     OW29566   2.049   4.199   0.933
 9556SOL    HW129567   2.075   4.258   1.010
 9556SOL    HW229568   2.027   4.108   0.967
 9557SOL     OW29569   5.164   0.047   1.660
 9557SOL    HW129570   5.240   7.000   1.665
 9557SOL    HW229571   5.166   0.107   1.740
 9558SOL     OW29572   5.125   6.023   5.538
 9558SOL    HW129573   5.222   6.048   5.542
 9558SOL    HW229574   5.116   5.924   5.531
 9559SOL     OW29575   1.239   4.057   6.580
 9559SOL    HW129576   1.334   4.087   6.585
 9559SOL    HW229577   1.197   4.064   6.671
 9560SOL     OW29578   2.423   1.089   2.460
 9560SOL    HW129579   2.519   1.061   2.466
 9560SOL    HW229580   2.402   1.150   2.536
 9561SOL     OW29581   0.369   0.669   1.433
 9561SOL    HW129582   0.305   0.730   1.386
 9561SOL    HW229583   0.373   0.581   1.385
 9562SOL     OW29584   2.746   6.317   4.293
 9562SOL    HW129585   2.673   6.281   4.235
 9562SOL    HW229586   2.793   6.241   4.339
 9563SOL     OW29587   0.450   6.699   6.925
 9563SOL    HW129588   0.508   6.685   7.005
 9563SOL    HW229589   0.437   6.612   6.878
 9564SOL     OW29590   2.307   1.372   0.822
 9564SOL    HW129591   2.331   1.300   0.758
 9564SOL    HW229592   2.292   1.333   0.913
 9565SOL     OW29593   3.192   1.427   4.757
 9565SOL    HW129594   3.172   1.408   4.661
 9565SOL    HW229595   3.245   1.512   4.764
 9566SOL     OW29596   2.527   5.639   0.053
 9566SOL    HW129597   2.530   5.738   0.036
 9566SOL    HW229598   2.476   5.594   6.998
 9567SOL     OW29599   5.829   4.243   0.556
 9567SOL    HW129600   5.808   4.150   0.529
 9567SOL    HW229601   5.926   4.249   0.583
 9568SOL     OW29602   4.258   1.256   0.098
 9568SOL    HW129603   4.332   1.188   0.097
 9568SOL    HW229604   4.297   1.348   0.099
 9569SOL     OW29605   0.404   0.889   1.878
 9569SOL    HW129606   0.387   0.819   1.946
 9569SOL    HW229607   0.491   0.935   1.898
 9570SOL     OW29608   0.048   2.835   0.995
 9570SOL    HW129609   7.012   2.812   1.075
 9570SOL    HW229610   0.065   2.753   0.941
 9571SOL     OW29611   3.113   3.093   5.801
 9571SOL    HW129612   3.142   3.004   5.767
 9571SOL    HW229613   3.032   3.122   5.751
 9572SOL     OW29614   1.589   4.853   2.543
 9572SOL    HW129615   1.655   4.823   2.474
 9572SOL    HW229616   1.578   4.782   2.612
 9573SOL     OW29617   0.040   1.438   6.219
 9573SOL    HW129618   0.045   1.382   6.301
 9573SOL    HW229619   0.126   1.429   6.168
 9574SOL     OW29620   3.369   2.786   2.032
 9574SOL    HW129621   3.439   2.857   2.022
 9574SOL    HW229622   3.400   2.702   1.988
 9575SOL     OW29623   6.588   0.931   1.773
 9575SOL    HW129624   6.597   0.844   1.724
 9575SOL    HW229625   6.667   0.943   1.834
 9576SOL     OW29626   1.868   2.131   0.337
 9576SOL    HW129627   1.946   2.069   0.337
 9576SOL    HW229628   1.898   2.224   0.360
 9577SOL     OW29629   0.608   6.679   5.654
 9577SOL    HW129630   0.545   6.745   5.696
 9577SOL    HW229631   0.644   6.718   5.569
 9578SOL     OW29632   1.227   2.648   2.739
 9578SOL    HW129633   1.192   2.705   2.664
 9578SOL    HW229634   1.154   2.628   2.804
 9579SOL     OW29635   6.939   6.113   3.202
 9579SOL    HW129636   6.957   6.037   3.264
 9579SOL    HW229637   6.907   6.078   3.114
 9580SOL     OW29638   5.280   3.693   1.115
 9580SOL    HW129639   5.346   3.622   1.140
 9580SOL    HW229640   5.218   3.658   1.044
 9581SOL     OW29641   0.579   6.931   6.476
 9581SOL    HW129642   0.657   6.988   6.501
 9581SOL    HW229643   0.528   6.905   6.558
 9582SOL     OW29644   3.851   5.736   4.723
 9582SOL    HW129645   3.848   5.640   4.696
 9582SOL    HW229646   3.781   5.754   4.792
 9583SOL     OW29647   2.996   3.815   1.221
 9583SOL    HW129648   3.006   3.760   1.304
 9583SOL    HW229649   3.072   3.880   1.214
 9584SOL     OW29650   0.708   4.885   5.952
 9584SOL    HW129651   0.658   4.826   5.889
 9584SOL    HW229652   0.804   4.857   5.955
 9585SOL     OW29653   5.115   6.628   2.979
 9585SOL    HW129654   5.142   6.679   3.060
 9585SOL    HW229655   5.181   6.642   2.906
 9586SOL     OW29656   4.331   5.797   2.567
 9586SOL    HW129657   4.245   5.779   2.521
 9586SOL    HW229658   4.404   5.806   2.499
 9587SOL     OW29659   1.077   6.986   1.523
 9587SOL    HW129660   1.067   0.011   1.612
 9587SOL    HW229661   1.055   6.888   1.531
 9588SOL     OW29662   5.973   6.640   0.324
 9588SOL    HW129663   5.905   6.711   0.341
 9588SOL    HW229664   5.929   6.561   0.280
 9589SOL     OW29665   1.507   4.161   6.568
 9589SOL    HW129666   1.459   4.237   6.612
 9589SOL    HW229667   1.593   4.145   6.616
 9590SOL     OW29668   6.233   2.576   1.664
 9590SOL    HW129669   6.303   2.527   1.613
 9590SOL    HW229670   6.216   2.530   1.751
 9591SOL     OW29671   3.850   5.297   5.751
 9591SOL    HW129672   3.870   5.395   5.760
 9591SOL    HW229673   3.859   5.270   5.655
 9592SOL     OW29674   3.370   4.797   0.995
 9592SOL    HW129675   3.426   4.873   0.964
 9592SOL    HW229676   3.313   4.826   1.072
 9593SOL     OW29677   1.080   1.440   6.232
 9593SOL    HW129678   0.991   1.437   6.277
 9593SOL    HW229679   1.113   1.534   6.228
 9594SOL     OW29680   2.666   5.717   4.486
 9594SOL    HW129681   2.608   5.640   4.460
 9594SOL    HW229682   2.621   5.803   4.461
 9595SOL     OW29683   0.250   2.285   3.904
 9595SOL    HW129684   0.339   2.239   3.906
 9595SOL    HW229685   0.260   2.379   3.938
 9596SOL     OW29686   0.608   5.120   0.094
 9596SOL    HW129687   0.618   5.024   0.067
 9596SOL    HW229688   0.529   5.129   0.155
 9597SOL     OW29689   6.655   4.135   1.317
 9597SOL    HW129690   6.706   4.049   1.325
 9597SOL    HW229691   6.583   4.137   1.387
 9598SOL     OW29692   1.937   4.305   3.273
 9598SOL    HW129693   1.885   4.322   3.189
 9598SOL    HW229694   2.035   4.303   3.252
 9599SOL     OW29695   2.734   0.261   3.721
 9599SOL    HW129696   2.806   0.192   3.716
 9599SOL    HW229697   2.659   0.227   3.777
 9600SOL     OW29698   3.046   0.457   6.751
 9600SOL    HW129699   3.040   0.550   6.715
 9600SOL    HW229700   3.111   0.454   6.826
 9601SOL     OW29701   5.409   4.849   0.365
 9601SOL    HW129702   5.379   4.945   0.371
 9601SOL    HW229703   5.470   4.839   0.286
 9602SOL     OW29704   5.601   4.010   6.473
 9602SOL    HW129705   5.656   3.973   6.549
 9602SOL    HW229706   5.648   4.089   6.434
 9603SOL     OW29707   4.283   0.341   6.696
 9603SOL    HW129708   4.285   0.438   6.674
 9603SOL    HW229709   4.246   0.328   6.788
 9604SOL     OW29710   4.933   6.969   1.018
 9604SOL    HW129711   5.009   6.928   1.068
 9604SOL    HW229712   4.851   6.967   1.075
 9605SOL     OW29713   1.262   5.780   3.279
 9605SOL    HW129714   1.244   5.683   3.296
 9605SOL    HW229715   1.266   5.797   3.181
 9606SOL     OW29716   1.729   6.566   6.750
 9606SOL    HW129717   1.671   6.541   6.673
 9606SOL    HW229718   1.818   6.522   6.740
 9607SOL     OW29719   2.691   1.400   7.014
 9607SOL    HW129720   2.679   1.470   6.945
 9607SOL    HW229721   2.768   1.424   0.055
 9608SOL     OW29722   0.036   4.158   1.410
 9608SOL    HW129723   0.094   4.237   1.427
 9608SOL    HW229724   0.053   4.088   1.479
 9609SOL     OW29725   3.173   3.003   0.117
 9609SOL    HW129726   3.084   3.048   0.122
 9609SOL    HW229727   3.193   2.960   0.205
 9610SOL     OW29728   1.623   4.769   3.406
 9610SOL    HW129729   1.554   4.697   3.405
 9610SOL    HW229730   1.578   4.858   3.395
 9611SOL     OW29731   1.407   6.353   0.736
 9611SOL    HW129732   1.436   6.412   0.662
 9611SOL    HW229733   1.313   6.323   0.720
 9612SOL     OW29734   0.021   3.406   2.005
 9612SOL    HW129735   0.083   3.466   1.955
 9612SOL    HW229736   6.982   3.460   2.066
 9613SOL     OW29737   4.796   6.776   3.327
 9613SOL    HW129738   4.838   6.771   3.417
 9613SOL    HW229739   4.786   6.684   3.290
 9614SOL     OW29740   4.115   2.127   1.982
 9614SOL    HW129741   4.039   2.111   2.045
 9614SOL    HW229742   4.097   2.210   1.929
 9615SOL     OW29743   2.759   1.085   1.314
 9615SOL    HW129744   2.820   1.156   1.351
 9615SOL    HW229745   2.668   1.097   1.353
 9616SOL     OW29746   3.538   4.289   1.464
 9616SOL    HW129747   3.636   4.305   1.451
 9616SOL    HW229748   3.513   4.315   1.557
 9617SOL     OW29749   1.698   2.986   3.102
 9617SOL    HW129750   1.714   2.964   3.198
 9617SOL    HW229751   1.768   3.050   3.071
 9618SOL     OW29752   2.652   6.858   0.602
 9618SOL    HW129753   2.655   6.799   0.683
 9618SOL    HW229754   2.739   6.852   0.553
 9619SOL     OW29755   1.967   0.419   6.356
 9619SOL    HW129756   1.924   0.439   6.443
 9619SOL    HW229757   2.025   0.495   6.329
 9620SOL     OW29758   4.233   0.373   6.075
 9620SOL    HW129759   4.223   0.343   5.980
 9620SOL    HW229760   4.318   0.335   6.113
 9621SOL     OW29761   1.740   2.674   2.189
 9621SOL    HW129762   1.760   2.766   2.222
 9621SOL    HW229763   1.764   2.607   2.259
 9622SOL     OW29764   0.032   1.448   0.521
 9622SOL    HW129765   6.974   1.384   0.534
 9622SOL    HW229766   0.046   1.463   0.423
 9623SOL     OW29767   2.627   3.605   5.412
 9623SOL    HW129768   2.643   3.611   5.511
 9623SOL    HW229769   2.597   3.695   5.378
 9624SOL     OW29770   0.012   4.116   2.698
 9624SOL    HW129771   0.061   4.044   2.647
 9624SOL    HW229772   6.950   4.076   2.742
 9625SOL     OW29773   4.694   5.331   6.861
 9625SOL    HW129774   4.667   5.427   6.874
 9625SOL    HW229775   4.627   5.285   6.804
 9626SOL     OW29776   4.500   5.548   0.497
 9626SOL    HW129777   4.540   5.618   0.555
 9626SOL    HW229778   4.564   5.524   0.424
 9627SOL     OW29779   0.259   5.787   4.978
 9627SOL    HW129780   0.214   5.828   5.058
 9627SOL    HW229781   0.303   5.701   5.005
 9628SOL     OW29782   4.549   5.073   0.656
 9628SOL    HW129783   4.589   5.165   0.656
 9628SOL    HW229784   4.621   5.006   0.639
 9629SOL     OW29785   1.204   0.521   1.480
 9629SOL    HW129786   1.300   0.493   1.471
 9629SOL    HW229787   1.149   0.472   1.413
 9630SOL     OW29788   6.362   0.039   4.462
 9630SOL    HW129789   6.313   0.125   4.444
 9630SOL    HW229790   6.316   7.008   4.536
 9631SOL     OW29791   0.147   6.713   6.468
 9631SOL    HW129792   0.106   6.802   6.446
 9631SOL    HW229793   0.075   6.645   6.480
 9632SOL     OW29794   1.379   0.337   2.645
 9632SOL    HW129795   1.315   0.314   2.718
 9632SOL    HW229796   1.448   0.400   2.680
 9633SOL     OW29797   4.772   5.162   5.848
 9633SOL    HW129798   4.830   5.087   5.880
 9633SOL    HW229799   4.707   5.186   5.920
 9634SOL     OW29800   1.417   6.104   4.063
 9634SOL    HW129801   1.323   6.115   4.096
 9634SOL    HW229802   1.417   6.043   3.983
 9635SOL     OW29803   1.881   5.917   4.902
 9635SOL    HW129804   1.784   5.936   4.909
 9635SOL    HW229805   1.920   5.966   4.824
 9636SOL     OW29806   4.120   2.033   5.870
 9636SOL    HW129807   4.038   2.017   5.926
 9636SOL    HW229808   4.151   1.946   5.832
 9637SOL     OW29809   2.567   2.228   6.466
 9637SOL    HW129810   2.667   2.240   6.471
 9637SOL    HW229811   2.529   2.293   6.400
 9638SOL     OW29812   6.885   3.768   6.286
 9638SOL    HW129813   6.827   3.850   6.293
 9638SOL    HW229814   6.978   3.796   6.265
 9639SOL     OW29815   4.229   1.452   2.488
 9639SOL    HW129816   4.248   1.429   2.392
 9639SOL    HW229817   4.137   1.421   2.512
 9640SOL     OW29818   1.946   2.317   3.949
 9640SOL    HW129819   1.905   2.384   4.012
 9640SOL    HW229820   1.897   2.318   3.862
 9641SOL     OW29821   4.073   6.405   1.036
 9641SOL    HW129822   4.002   6.366   0.978
 9641SOL    HW229823   4.036   6.420   1.128
 9642SOL     OW29824   3.066   6.889   4.968
 9642SOL    HW129825   3.001   6.956   4.933
 9642SOL    HW229826   3.110   6.925   5.050
 9643SOL     OW29827   5.431   4.987   3.714
 9643SOL    HW129828   5.513   4.940   3.749
 9643SOL    HW229829   5.432   4.984   3.614
 9644SOL     OW29830   0.983   4.091   6.110
 9644SOL    HW129831   1.068   4.040   6.119
 9644SOL    HW229832   0.929   4.083   6.194
 9645SOL     OW29833   2.683   5.449   4.929
 9645SOL    HW129834   2.693   5.362   4.977
 9645SOL    HW229835   2.625   5.436   4.849
 9646SOL     OW29836   2.782   4.963   1.932
 9646SOL    HW129837   2.777   4.900   1.854
 9646SOL    HW229838   2.814   4.913   2.013
 9647SOL     OW29839   6.173   4.382   1.098
 9647SOL    HW129840   6.199   4.340   1.011
 9647SOL    HW229841   6.253   4.424   1.141
 9648SOL     OW29842   4.428   1.332   0.945
 9648SOL    HW129843   4.372   1.311   1.025
 9648SOL    HW229844   4.525   1.322   0.969
 9649SOL     OW29845   2.901   6.882   0.499
 9649SOL    HW129846   2.923   6.854   0.592
 9649SOL    HW229847   2.970   6.847   0.436
 9650SOL     OW29848   6.472   5.207   1.904
 9650SOL    HW129849   6.465   5.252   1.992
 9650SOL    HW229850   6.563   5.169   1.892
 9651SOL     OW29851   0.007   1.755   5.864
 9651SOL    HW129852   0.017   1.745   5.963
 9651SOL    HW229853   0.016   1.665   5.821
 9652SOL     OW29854   1.666   4.524   1.034
 9652SOL    HW129855   1.708   4.435   1.052
 9652SOL    HW229856   1.571   4.522   1.065
 9653SOL     OW29857   4.254   4.758   4.632
 9653SOL    HW129858   4.297   4.721   4.714
 9653SOL    HW229859   4.312   4.740   4.553
 9654SOL     OW29860   3.025   2.580   1.080
 9654SOL    HW129861   3.121   2.598   1.055
 9654SOL    HW229862   3.014   2.594   1.179
 9655SOL     OW29863   0.254   0.932   6.944
 9655SOL    HW129864   0.177   0.893   6.994
 9655SOL    HW229865   0.246   0.911   6.847
 9656SOL     OW29866   2.599   0.862   1.713
 9656SOL    HW129867   2.621   0.765   1.725
 9656SOL    HW229868   2.641   0.916   1.786
 9657SOL     OW29869   5.432   0.421   4.137
 9657SOL    HW129870   5.420   0.323   4.151
 9657SOL    HW229871   5.344   0.467   4.149
 9658SOL     OW29872   6.997   1.882   3.015
 9658SOL    HW129873   6.952   1.825   3.083
 9658SOL    HW229874   6.998   1.835   2.927
 9659SOL     OW29875   6.259   4.510   0.388
 9659SOL    HW129876   6.227   4.422   0.353
 9659SOL    HW229877   6.208   4.583   0.343
 9660SOL     OW29878   0.414   5.691   0.769
 9660SOL    HW129879   0.463   5.769   0.731
 9660SOL    HW229880   0.333   5.672   0.714
 9661SOL     OW29881   4.512   5.505   1.396
 9661SOL    HW129882   4.587   5.505   1.330
 9661SOL    HW229883   4.487   5.600   1.418
 9662SOL     OW29884   6.567   2.956   4.372
 9662SOL    HW129885   6.639   3.025   4.378
 9662SOL    HW229886   6.480   3.000   4.351
 9663SOL     OW29887   1.696   5.651   3.941
 9663SOL    HW129888   1.761   5.726   3.956
 9663SOL    HW229889   1.648   5.666   3.855
 9664SOL     OW29890   5.355   6.932   2.796
 9664SOL    HW129891   5.360   6.954   2.698
 9664SOL    HW229892   5.259   6.925   2.824
 9665SOL     OW29893   5.853   5.036   5.481
 9665SOL    HW129894   5.846   5.073   5.574
 9665SOL    HW229895   5.945   5.055   5.445
 9666SOL     OW29896   5.660   4.012   1.877
 9666SOL    HW129897   5.591   3.988   1.809
 9666SOL    HW229898   5.660   4.111   1.891
 9667SOL     OW29899   4.170   3.391   4.671
 9667SOL    HW129900   4.261   3.420   4.640
 9667SOL    HW229901   4.179   3.318   4.738
 9668SOL     OW29902   6.848   2.057   6.106
 9668SOL    HW129903   6.898   2.104   6.179
 9668SOL    HW229904   6.793   1.983   6.146
 9669SOL     OW29905   0.580   1.437   0.459
 9669SOL    HW129906   0.564   1.428   0.557
 9669SOL    HW229907   0.604   1.348   0.420
 9670SOL     OW29908   4.737   4.739   5.679
 9670SOL    HW129909   4.785   4.765   5.595
 9670SOL    HW229910   4.652   4.791   5.685
 9671SOL     OW29911   0.757   5.381   6.118
 9671SOL    HW129912   0.747   5.433   6.202
 9671SOL    HW229913   0.666   5.361   6.080
 9672SOL     OW29914   1.084   0.203   4.645
 9672SOL    HW129915   1.133   0.191   4.559
 9672SOL    HW229916   1.140   0.168   4.720
 9673SOL     OW29917   4.180   4.468   0.032
 9673SOL    HW129918   4.270   4.431   0.008
 9673SOL    HW229919   4.137   4.507   6.969
 9674SOL     OW29920   2.776   5.885   2.751
 9674SOL    HW129921   2.837   5.870   2.828
 9674SOL    HW229922   2.811   5.839   2.670
 9675SOL     OW29923   6.041   0.943   2.112
 9675SOL    HW129924   5.946   0.976   2.111
 9675SOL    HW229925   6.083   0.967   2.200
 9676SOL     OW29926   1.415   3.397   5.342
 9676SOL    HW129927   1.456   3.389   5.251
 9676SOL    HW229928   1.472   3.457   5.399
 9677SOL     OW29929   2.763   4.567   5.917
 9677SOL    HW129930   2.762   4.490   5.852
 9677SOL    HW229931   2.688   4.556   5.982
 9678SOL     OW29932   3.531   4.141   2.753
 9678SOL    HW129933   3.588   4.065   2.786
 9678SOL    HW229934   3.559   4.225   2.800
 9679SOL     OW29935   0.709   1.745   1.932
 9679SOL    HW129936   0.647   1.823   1.938
 9679SOL    HW229937   0.667   1.674   1.876
 9680SOL     OW29938   5.931   6.848   3.491
 9680SOL    HW129939   5.933   6.942   3.457
 9680SOL    HW229940   6.025   6.813   3.496
 9681SOL     OW29941   2.809   0.658   1.360
 9681SOL    HW129942   2.709   0.665   1.359
 9681SOL    HW229943   2.848   0.736   1.408
 9682SOL     OW29944   4.677   5.489   2.968
 9682SOL    HW129945   4.764   5.534   2.989
 9682SOL    HW229946   4.618   5.552   2.918
 9683SOL     OW29947   4.161   5.472   0.717
 9683SOL    HW129948   4.228   5.431   0.655
 9683SOL    HW229949   4.185   5.448   0.811
 9684SOL     OW29950   0.459   3.795   4.812
 9684SOL    HW129951   0.434   3.759   4.722
 9684SOL    HW229952   0.521   3.731   4.858
 9685SOL     OW29953   2.345   2.724   1.083
 9685SOL    HW129954   2.444   2.730   1.087
 9685SOL    HW229955   2.304   2.799   1.134
 9686SOL     OW29956   6.402   1.613   0.705
 9686SOL    HW129957   6.406   1.713   0.714
 9686SOL    HW229958   6.483   1.573   0.748
 9687SOL     OW29959   1.812   0.694   2.890
 9687SOL    HW129960   1.852   0.607   2.919
 9687SOL    HW229961   1.865   0.732   2.814
 9688SOL     OW29962   6.521   2.603   3.289
 9688SOL    HW129963   6.478   2.646   3.209
 9688SOL    HW229964   6.570   2.520   3.261
 9689SOL     OW29965   1.346   0.107   0.454
 9689SOL    HW129966   1.409   0.183   0.470
 9689SOL    HW229967   1.318   0.068   0.541
 9690SOL     OW29968   5.868   5.208   6.606
 9690SOL    HW129969   5.835   5.267   6.532
 9690SOL    HW229970   5.857   5.113   6.579
 9691SOL     OW29971   2.423   4.622   1.514
 9691SOL    HW129972   2.341   4.602   1.460
 9691SOL    HW229973   2.412   4.709   1.562
 9692SOL     OW29974   2.283   5.490   2.845
 9692SOL    HW129975   2.257   5.394   2.835
 9692SOL    HW229976   2.369   5.496   2.895
 9693SOL     OW29977   6.937   5.187   1.684
 9693SOL    HW129978   6.887   5.226   1.606
 9693SOL    HW229979   6.875   5.130   1.738
 9694SOL     OW29980   1.953   1.089   6.527
 9694SOL    HW129981   2.051   1.091   6.510
 9694SOL    HW229982   1.933   1.127   6.618
 9695SOL     OW29983   5.592   4.640   1.313
 9695SOL    HW129984   5.599   4.548   1.273
 9695SOL    HW229985   5.588   4.708   1.240
 9696SOL     OW29986   4.515   2.631   1.709
 9696SOL    HW129987   4.528   2.541   1.667
 9696SOL    HW229988   4.424   2.666   1.686
 9697SOL     OW29989   0.119   5.482   6.950
 9697SOL    HW129990   0.191   5.412   6.948
 9697SOL    HW229991   0.061   5.473   6.869
 9698SOL     OW29992   6.154   0.845   5.324
 9698SOL    HW129993   6.078   0.797   5.281
 9698SOL    HW229994   6.144   0.842   5.423
 9699SOL     OW29995   0.670   3.936   6.166
 9699SOL    HW129996   0.761   3.900   6.184
 9699SOL    HW229997   0.636   3.984   6.247
 9700SOL     OW29998   4.028   4.943   5.970
 9700SOL    HW129999   3.989   4.888   6.044
 9700SOL    HW230000   3.980   4.921   5.885
 9701SOL     OW30001   3.925   5.535   4.973
 9701SOL    HW130002   3.876   5.506   4.891
 9701SOL    HW230003   3.867   5.595   5.028
 9702SOL     OW30004   5.301   0.583   6.799
 9702SOL    HW130005   5.353   0.660   6.836
 9702SOL    HW230006   5.345   0.497   6.826
 9703SOL     OW30007   3.565   5.977   4.397
 9703SOL    HW130008   3.610   6.063   4.372
 9703SOL    HW230009   3.478   5.969   4.348
 9704SOL     OW30010   2.883   0.622   2.494
 9704SOL    HW130011   2.930   0.543   2.535
 9704SOL    HW230012   2.929   0.647   2.409
 9705SOL     OW30013   5.153   4.752   0.411
 9705SOL    HW130014   5.249   4.776   0.396
 9705SOL    HW230015   5.101   4.768   0.327
 9706SOL     OW30016   6.872   2.057   0.956
 9706SOL    HW130017   6.818   1.976   0.979
 9706SOL    HW230018   6.875   2.068   0.857
 9707SOL     OW30019   0.307   4.268   1.956
 9707SOL    HW130020   0.324   4.243   2.051
 9707SOL    HW230021   0.312   4.368   1.946
 9708SOL     OW30022   1.736   2.297   3.458
 9708SOL    HW130023   1.785   2.321   3.374
 9708SOL    HW230024   1.638   2.302   3.442
 9709SOL     OW30025   0.426   5.583   3.711
 9709SOL    HW130026   0.398   5.564   3.804
 9709SOL    HW230027   0.403   5.678   3.688
 9710SOL     OW30028   0.398   1.243   3.181
 9710SOL    HW130029   0.361   1.188   3.106
 9710SOL    HW230030   0.368   1.206   3.268
 9711SOL     OW30031   1.314   3.460   5.726
 9711SOL    HW130032   1.396   3.405   5.711
 9711SOL    HW230033   1.340   3.554   5.749
 9712SOL     OW30034   5.225   3.179   5.029
 9712SOL    HW130035   5.137   3.186   5.075
 9712SOL    HW230036   5.251   3.082   5.022
 9713SOL     OW30037   0.244   4.693   2.858
 9713SOL    HW130038   0.199   4.706   2.770
 9713SOL    HW230039   0.177   4.668   2.927
 9714SOL     OW30040   1.800   1.225   1.635
 9714SOL    HW130041   1.776   1.319   1.613
 9714SOL    HW230042   1.719   1.167   1.627
 9715SOL     OW30043   6.829   5.568   4.230
 9715SOL    HW130044   6.778   5.639   4.181
 9715SOL    HW230045   6.803   5.569   4.326
 9716SOL     OW30046   4.073   2.160   0.061
 9716SOL    HW130047   4.071   2.253   0.026
 9716SOL    HW230048   4.106   2.159   0.155
 9717SOL     OW30049   5.845   5.714   5.064
 9717SOL    HW130050   5.751   5.748   5.071
 9717SOL    HW230051   5.906   5.773   5.118
 9718SOL     OW30052   4.688   2.832   1.699
 9718SOL    HW130053   4.618   2.762   1.714
 9718SOL    HW230054   4.678   2.904   1.768
 9719SOL     OW30055   0.582   2.343   6.816
 9719SOL    HW130056   0.568   2.411   6.888
 9719SOL    HW230057   0.498   2.291   6.802
 9720SOL     OW30058   0.470   5.587   1.681
 9720SOL    HW130059   0.531   5.588   1.601
 9720SOL    HW230060   0.376   5.567   1.651
 9721SOL     OW30061   1.021   2.616   2.074
 9721SOL    HW130062   1.014   2.714   2.054
 9721SOL    HW230063   0.967   2.564   2.007
 9722SOL     OW30064   0.321   6.876   3.479
 9722SOL    HW130065   0.412   6.914   3.460
 9722SOL    HW230066   0.321   6.779   3.457
 9723SOL     OW30067   1.188   6.136   3.025
 9723SOL    HW130068   1.121   6.064   3.043
 9723SOL    HW230069   1.198   6.148   2.926
 9724SOL     OW30070   2.991   2.811   1.744
 9724SOL    HW130071   3.045   2.728   1.734
 9724SOL    HW230072   3.020   2.859   1.827
 9725SOL     OW30073   3.927   3.489   6.320
 9725SOL    HW130074   3.927   3.392   6.294
 9725SOL    HW230075   3.984   3.541   6.257
 9726SOL     OW30076   4.887   0.689   4.840
 9726SOL    HW130077   4.926   0.696   4.748
 9726SOL    HW230078   4.886   0.780   4.883
 9727SOL     OW30079   1.626   4.102   5.390
 9727SOL    HW130080   1.592   4.194   5.408
 9727SOL    HW230081   1.564   4.055   5.327
 9728SOL     OW30082   1.264   6.622   6.945
 9728SOL    HW130083   1.361   6.632   6.923
 9728SOL    HW230084   1.209   6.669   6.875
 9729SOL     OW30085   1.341   4.479   2.689
 9729SOL    HW130086   1.357   4.577   2.684
 9729SOL    HW230087   1.334   4.452   2.785
 9730SOL     OW30088   0.184   3.265   2.695
 9730SOL    HW130089   0.145   3.182   2.657
 9730SOL    HW230090   0.259   3.242   2.757
 9731SOL     OW30091   4.155   5.097   1.088
 9731SOL    HW130092   4.120   5.069   1.177
 9731SOL    HW230093   4.103   5.051   1.016
 9732SOL     OW30094   5.920   6.193   3.160
 9732SOL    HW130095   5.895   6.200   3.256
 9732SOL    HW230096   6.018   6.212   3.149
 9733SOL     OW30097   5.966   5.216   4.611
 9733SOL    HW130098   5.940   5.199   4.706
 9733SOL    HW230099   6.060   5.250   4.608
 9734SOL     OW30100   5.656   1.880   3.969
 9734SOL    HW130101   5.579   1.850   4.025
 9734SOL    HW230102   5.638   1.857   3.873
 9735SOL     OW30103   1.961   4.811   2.744
 9735SOL    HW130104   1.948   4.750   2.666
 9735SOL    HW230105   1.914   4.898   2.727
 9736SOL     OW30106   5.181   1.201   5.952
 9736SOL    HW130107   5.238   1.281   5.971
 9736SOL    HW230108   5.086   1.222   5.978
 9737SOL     OW30109   4.577   2.757   5.215
 9737SOL    HW130110   4.616   2.831   5.159
 9737SOL    HW230111   4.533   2.797   5.295
 9738SOL     OW30112   1.788   0.113   2.781
 9738SOL    HW130113   1.862   0.138   2.718
 9738SOL    HW230114   1.715   0.182   2.775
 9739SOL     OW30115   0.732   4.859   1.562
 9739SOL    HW130116   0.822   4.902   1.562
 9739SOL    HW230117   0.706   4.837   1.468
 9740SOL     OW30118   6.328   3.415   3.119
 9740SOL    HW130119   6.384   3.348   3.070
 9740SOL    HW230120   6.292   3.482   3.054
 9741SOL     OW30121   4.607   1.236   2.686
 9741SOL    HW130122   4.625   1.332   2.708
 9741SOL    HW230123   4.561   1.193   2.764
 9742SOL     OW30124   4.703   0.083   3.026
 9742SOL    HW130125   4.752   0.168   3.047
 9742SOL    HW230126   4.659   0.049   3.110
 9743SOL     OW30127   2.046   2.167   5.838
 9743SOL    HW130128   2.129   2.187   5.785
 9743SOL    HW230129   2.065   2.095   5.904
 9744SOL     OW30130   0.829   0.390   2.197
 9744SOL    HW130131   0.791   0.298   2.210
 9744SOL    HW230132   0.890   0.412   2.273
 9745SOL     OW30133   0.575   2.477   5.830
 9745SOL    HW130134   0.633   2.456   5.908
 9745SOL    HW230135   0.617   2.442   5.747
 9746SOL     OW30136   5.071   1.953   4.927
 9746SOL    HW130137   5.024   1.942   5.014
 9746SOL    HW230138   5.136   2.029   4.934
 9747SOL     OW30139   1.619   1.050   1.555
 9747SOL    HW130140   1.561   1.130   1.542
 9747SOL    HW230141   1.627   1.001   1.468
 9748SOL     OW30142   1.021   0.005   5.018
 9748SOL    HW130143   0.960   7.008   4.940
 9748SOL    HW230144   0.987   0.080   5.073
 9749SOL     OW30145   1.720   2.276   5.488
 9749SOL    HW130146   1.627   2.242   5.471
 9749SOL    HW230147   1.785   2.201   5.479
 9750SOL     OW30148   5.866   5.178   3.841
 9750SOL    HW130149   5.964   5.192   3.837
 9750SOL    HW230150   5.822   5.258   3.882
 9751SOL     OW30151   2.024   1.969   1.372
 9751SOL    HW130152   2.075   1.897   1.326
 9751SOL    HW230153   2.015   1.946   1.469
 9752SOL     OW30154   4.516   0.594   6.271
 9752SOL    HW130155   4.429   0.637   6.296
 9752SOL    HW230156   4.592   0.648   6.307
 9753SOL     OW30157   6.422   6.625   4.695
 9753SOL    HW130158   6.378   6.713   4.678
 9753SOL    HW230159   6.352   6.554   4.702
 9754SOL     OW30160   1.231   1.893   0.197
 9754SOL    HW130161   1.182   1.809   0.172
 9754SOL    HW230162   1.221   1.960   0.123
 9755SOL     OW30163   4.156   3.722   5.086
 9755SOL    HW130164   4.183   3.627   5.099
 9755SOL    HW230165   4.200   3.780   5.155
 9756SOL     OW30166   5.777   2.923   0.185
 9756SOL    HW130167   5.862   2.894   0.141
 9756SOL    HW230168   5.757   3.018   0.161
 9757SOL     OW30169   4.847   3.212   3.800
 9757SOL    HW130170   4.867   3.146   3.728
 9757SOL    HW230171   4.792   3.168   3.871
 9758SOL     OW30172   1.687   0.221   5.792
 9758SOL    HW130173   1.755   0.293   5.804
 9758SOL    HW230174   1.666   0.180   5.881
 9759SOL     OW30175   2.135   0.053   0.976
 9759SOL    HW130176   2.136   0.153   0.985
 9759SOL    HW230177   2.108   0.012   1.064
 9760SOL     OW30178   5.175   4.412   5.204
 9760SOL    HW130179   5.222   4.394   5.117
 9760SOL    HW230180   5.233   4.381   5.280
 9761SOL     OW30181   5.789   5.752   1.742
 9761SOL    HW130182   5.771   5.654   1.739
 9761SOL    HW230183   5.791   5.788   1.648
 9762SOL     OW30184   2.395   1.873   4.521
 9762SOL    HW130185   2.391   1.973   4.518
 9762SOL    HW230186   2.395   1.837   4.427
 9763SOL     OW30187   4.956   1.340   2.045
 9763SOL    HW130188   4.907   1.381   2.122
 9763SOL    HW230189   4.929   1.385   1.960
 9764SOL     OW30190   1.551   2.044   3.276
 9764SOL    HW130191   1.611   2.078   3.203
 9764SOL    HW230192   1.604   2.030   3.359
 9765SOL     OW30193   6.399   2.061   4.864
 9765SOL    HW130194   6.451   2.019   4.938
 9765SOL    HW230195   6.301   2.055   4.884
 9766SOL     OW30196   2.411   0.460   2.682
 9766SOL    HW130197   2.342   0.451   2.611
 9766SOL    HW230198   2.495   0.497   2.643
 9767SOL     OW30199   5.356   2.229   4.368
 9767SOL    HW130200   5.295   2.202   4.443
 9767SOL    HW230201   5.446   2.251   4.405
 9768SOL     OW30202   5.379   2.328   2.132
 9768SOL    HW130203   5.329   2.382   2.199
 9768SOL    HW230204   5.428   2.389   2.070
 9769SOL     OW30205   1.315   2.259   1.375
 9769SOL    HW130206   1.346   2.196   1.303
 9769SOL    HW230207   1.314   2.352   1.339
 9770SOL     OW30208   5.925   5.565   6.173
 9770SOL    HW130209   5.982   5.591   6.250
 9770SOL    HW230210   5.966   5.600   6.088
 9771SOL     OW30211   4.697   4.426   1.161
 9771SOL    HW130212   4.620   4.361   1.160
 9771SOL    HW230213   4.743   4.422   1.249
 9772SOL     OW30214   6.920   6.759   1.811
 9772SOL    HW130215   6.860   6.822   1.861
 9772SOL    HW230216   6.978   6.710   1.876
 9773SOL     OW30217   5.895   6.302   3.690
 9773SOL    HW130218   5.866   6.253   3.608
 9773SOL    HW230219   5.861   6.255   3.771
 9774SOL     OW30220   5.971   5.008   3.575
 9774SOL    HW130221   6.010   4.923   3.611
 9774SOL    HW230222   5.921   5.056   3.647
 9775SOL     OW30223   2.007   2.110   4.653
 9775SOL    HW130224   1.919   2.157   4.655
 9775SOL    HW230225   1.999   2.022   4.701
 9776SOL     OW30226   0.028   5.441   4.092
 9776SOL    HW130227   0.002   5.469   3.999
 9776SOL    HW230228   6.975   5.469   4.156
 9777SOL     OW30229   6.153   4.684   5.891
 9777SOL    HW130230   6.099   4.749   5.943
 9777SOL    HW230231   6.206   4.626   5.953
 9778SOL     OW30232   5.230   0.061   3.328
 9778SOL    HW130233   5.243   0.037   3.425
 9778SOL    HW230234   5.150   0.012   3.293
 9779SOL     OW30235   2.677   1.586   4.738
 9779SOL    HW130236   2.685   1.514   4.669
 9779SOL    HW230237   2.744   1.658   4.718
 9780SOL     OW30238   2.124   2.821   0.598
 9780SOL    HW130239   2.101   2.850   0.505
 9780SOL    HW230240   2.114   2.722   0.605
 9781SOL     OW30241   1.586   4.785   3.988
 9781SOL    HW130242   1.557   4.691   4.005
 9781SOL    HW230243   1.683   4.794   4.008
 9782SOL     OW30244   6.522   0.274   1.152
 9782SOL    HW130245   6.436   0.224   1.159
 9782SOL    HW230246   6.534   0.308   1.059
 9783SOL     OW30247   6.210   0.838   1.412
 9783SOL    HW130248   6.203   0.773   1.336
 9783SOL    HW230249   6.193   0.791   1.498
 9784SOL     OW30250   4.173   1.169   3.549
 9784SOL    HW130251   4.111   1.183   3.472
 9784SOL    HW230252   4.267   1.162   3.514
 9785SOL     OW30253   0.518   2.930   3.193
 9785SOL    HW130254   0.476   2.901   3.279
 9785SOL    HW230255   0.615   2.905   3.193
 9786SOL     OW30256   1.897   4.546   6.255
 9786SOL    HW130257   1.861   4.462   6.215
 9786SOL    HW230258   1.983   4.570   6.210
 9787SOL     OW30259   5.279   3.331   1.578
 9787SOL    HW130260   5.255   3.274   1.656
 9787SOL    HW230261   5.316   3.274   1.505
 9788SOL     OW30262   0.171   0.035   4.307
 9788SOL    HW130263   0.136   0.063   4.217
 9788SOL    HW230264   0.131   0.093   4.378
 9789SOL     OW30265   2.220   5.202   6.325
 9789SOL    HW130266   2.240   5.113   6.366
 9789SOL    HW230267   2.140   5.242   6.370
 9790SOL     OW30268   5.569   2.107   4.113
 9790SOL    HW130269   5.581   2.048   4.033
 9790SOL    HW230270   5.650   2.102   4.171
 9791SOL     OW30271   1.134   1.115   1.379
 9791SOL    HW130272   1.042   1.082   1.357
 9791SOL    HW230273   1.199   1.040   1.369
 9792SOL     OW30274   4.545   5.112   1.816
 9792SOL    HW130275   4.495   5.184   1.766
 9792SOL    HW230276   4.575   5.042   1.752
 9793SOL     OW30277   4.959   6.010   2.762
 9793SOL    HW130278   4.918   6.014   2.671
 9793SOL    HW230279   4.894   5.966   2.825
 9794SOL     OW30280   4.988   3.403   6.442
 9794SOL    HW130281   5.033   3.409   6.531
 9794SOL    HW230282   5.032   3.466   6.378
 9795SOL     OW30283   1.154   2.733   4.255
 9795SOL    HW130284   1.059   2.720   4.280
 9795SOL    HW230285   1.197   2.796   4.319
 9796SOL     OW30286   3.119   5.053   0.917
 9796SOL    HW130287   3.119   5.108   1.000
 9796SOL    HW230288   3.039   4.993   0.917
 9797SOL     OW30289   4.624   3.710   6.987
 9797SOL    HW130290   4.632   3.682   6.892
 9797SOL    HW230291   4.539   3.673   0.007
 9798SOL     OW30292   2.341   0.397   1.164
 9798SOL    HW130293   2.377   0.463   1.229
 9798SOL    HW230294   2.409   0.326   1.148
 9799SOL     OW30295   3.378   2.902   2.552
 9799SOL    HW130296   3.363   2.879   2.455
 9799SOL    HW230297   3.448   2.973   2.558
 9800SOL     OW30298   4.567   5.733   6.272
 9800SOL    HW130299   4.628   5.667   6.318
 9800SOL    HW230300   4.472   5.710   6.292
 9801SOL     OW30301   4.894   5.653   0.244
 9801SOL    HW130302   4.929   5.727   0.187
 9801SOL    HW230303   4.877   5.572   0.188
 9802SOL     OW30304   0.469   3.340   1.647
 9802SOL    HW130305   0.439   3.392   1.566
 9802SOL    HW230306   0.547   3.386   1.689
 9803SOL     OW30307   6.059   0.058   6.656
 9803SOL    HW130308   6.008   0.012   6.729
 9803SOL    HW230309   6.151   0.021   6.651
 9804SOL     OW30310   6.815   5.333   3.207
 9804SOL    HW130311   6.850   5.242   3.229
 9804SOL    HW230312   6.743   5.358   3.271
 9805SOL     OW30313   1.280   5.496   6.510
 9805SOL    HW130314   1.282   5.561   6.586
 9805SOL    HW230315   1.371   5.487   6.470
 9806SOL     OW30316   0.595   2.670   1.715
 9806SOL    HW130317   0.587   2.650   1.618
 9806SOL    HW230318   0.681   2.632   1.750
 9807SOL     OW30319   3.868   1.417   0.209
 9807SOL    HW130320   3.963   1.401   0.237
 9807SOL    HW230321   3.815   1.448   0.288
 9808SOL     OW30322   5.917   1.400   5.046
 9808SOL    HW130323   5.870   1.424   4.961
 9808SOL    HW230324   5.867   1.328   5.093
 9809SOL     OW30325   0.922   1.545   5.579
 9809SOL    HW130326   0.975   1.464   5.605
 9809SOL    HW230327   0.863   1.522   5.502
 9810SOL     OW30328   2.388   1.437   3.102
 9810SOL    HW130329   2.455   1.411   3.171
 9810SOL    HW230330   2.306   1.472   3.148
 9811SOL     OW30331   6.619   6.312   3.533
 9811SOL    HW130332   6.719   6.304   3.537
 9811SOL    HW230333   6.592   6.400   3.574
 9812SOL     OW30334   4.565   2.100   6.119
 9812SOL    HW130335   4.622   2.038   6.064
 9812SOL    HW230336   4.509   2.155   6.057
 9813SOL     OW30337   6.126   5.774   0.184
 9813SOL    HW130338   6.220   5.775   0.218
 9813SOL    HW230339   6.085   5.684   0.200
 9814SOL     OW30340   6.527   0.404   5.722
 9814SOL    HW130341   6.466   0.478   5.748
 9814SOL    HW230342   6.502   0.368   5.632
 9815SOL     OW30343   6.483   3.407   1.269
 9815SOL    HW130344   6.489   3.423   1.170
 9815SOL    HW230345   6.427   3.479   1.311
 9816SOL     OW30346   6.476   0.541   6.707
 9816SOL    HW130347   6.460   0.621   6.649
 9816SOL    HW230348   6.404   0.473   6.690
 9817SOL     OW30349   3.055   5.498   1.930
 9817SOL    HW130350   3.016   5.420   1.880
 9817SOL    HW230351   3.124   5.543   1.874
 9818SOL     OW30352   1.981   1.395   3.454
 9818SOL    HW130353   1.907   1.329   3.443
 9818SOL    HW230354   2.068   1.347   3.458
 9819SOL     OW30355   5.781   3.423   4.925
 9819SOL    HW130356   5.771   3.511   4.971
 9819SOL    HW230357   5.832   3.360   4.983
 9820SOL     OW30358   2.902   1.940   6.580
 9820SOL    HW130359   2.890   1.964   6.483
 9820SOL    HW230360   2.999   1.947   6.604
 9821SOL     OW30361   4.499   1.973   2.019
 9821SOL    HW130362   4.527   2.063   2.054
 9821SOL    HW230363   4.494   1.977   1.919
 9822SOL     OW30364   4.119   5.828   4.685
 9822SOL    HW130365   4.159   5.875   4.764
 9822SOL    HW230366   4.024   5.804   4.706
 9823SOL     OW30367   0.846   0.656   2.113
 9823SOL    HW130368   0.782   0.670   2.037
 9823SOL    HW230369   0.868   0.559   2.120
 9824SOL     OW30370   2.041   6.277   5.694
 9824SOL    HW130371   2.088   6.349   5.643
 9824SOL    HW230372   2.075   6.187   5.666
 9825SOL     OW30373   4.901   6.186   5.576
 9825SOL    HW130374   4.887   6.211   5.672
 9825SOL    HW230375   4.988   6.140   5.566
 9826SOL     OW30376   3.255   6.832   5.300
 9826SOL    HW130377   3.334   6.773   5.282
 9826SOL    HW230378   3.269   6.920   5.256
 9827SOL     OW30379   1.952   5.840   2.703
 9827SOL    HW130380   2.042   5.797   2.709
 9827SOL    HW230381   1.964   5.937   2.679
 9828SOL     OW30382   3.950   1.807   5.059
 9828SOL    HW130383   3.880   1.739   5.080
 9828SOL    HW230384   3.917   1.868   4.987
 9829SOL     OW30385   4.383   6.036   5.864
 9829SOL    HW130386   4.457   6.091   5.902
 9829SOL    HW230387   4.387   5.943   5.900
 9830SOL     OW30388   5.862   1.788   2.919
 9830SOL    HW130389   5.792   1.851   2.887
 9830SOL    HW230390   5.907   1.745   2.841
 9831SOL     OW30391   0.651   3.721   2.311
 9831SOL    HW130392   0.648   3.633   2.359
 9831SOL    HW230393   0.614   3.709   2.219
 9832SOL     OW30394   4.843   4.635   4.418
 9832SOL    HW130395   4.929   4.597   4.451
 9832SOL    HW230396   4.789   4.669   4.495
 9833SOL     OW30397   3.486   4.092   4.051
 9833SOL    HW130398   3.451   4.125   4.139
 9833SOL    HW230399   3.583   4.073   4.059
 9834SOL     OW30400   2.480   5.653   5.777
 9834SOL    HW130401   2.573   5.628   5.804
 9834SOL    HW230402   2.470   5.640   5.678
 9835SOL     OW30403   3.420   4.080   5.059
 9835SOL    HW130404   3.511   4.046   5.079
 9835SOL    HW230405   3.396   4.058   4.964
 9836SOL     OW30406   0.930   3.306   6.027
 9836SOL    HW130407   0.868   3.335   5.954
 9836SOL    HW230408   1.019   3.350   6.016
 9837SOL     OW30409   5.897   1.874   1.482
 9837SOL    HW130410   5.837   1.937   1.432
 9837SOL    HW230411   5.878   1.780   1.452
 9838SOL     OW30412   0.783   5.798   1.114
 9838SOL    HW130413   0.776   5.850   1.029
 9838SOL    HW230414   0.734   5.711   1.104
 9839SOL     OW30415   4.314   1.074   2.329
 9839SOL    HW130416   4.354   0.998   2.276
 9839SOL    HW230417   4.228   1.102   2.286
 9840SOL     OW30418   5.599   1.836   0.094
 9840SOL    HW130419   5.502   1.817   0.074
 9840SOL    HW230420   5.656   1.795   0.022
 9841SOL     OW30421   0.052   5.421   3.514
 9841SOL    HW130422   0.069   5.324   3.501
 9841SOL    HW230423   0.115   5.457   3.583
 9842SOL     OW30424   3.511   2.218   0.130
 9842SOL    HW130425   3.553   2.134   0.166
 9842SOL    HW230426   3.581   2.289   0.123
 9843SOL     OW30427   6.869   6.133   0.889
 9843SOL    HW130428   6.852   6.079   0.972
 9843SOL    HW230429   6.907   6.222   0.914
 9844SOL     OW30430   5.191   7.003   4.257
 9844SOL    HW130431   5.220   6.930   4.196
 9844SOL    HW230432   5.093   6.994   4.277
 9845SOL     OW30433   1.636   2.663   1.908
 9845SOL    HW130434   1.670   2.628   1.996
 9845SOL    HW230435   1.711   2.709   1.860
 9846SOL     OW30436   5.456   1.197   1.298
 9846SOL    HW130437   5.535   1.146   1.264
 9846SOL    HW230438   5.461   1.204   1.398
 9847SOL     OW30439   3.608   3.624   1.041
 9847SOL    HW130440   3.629   3.621   1.139
 9847SOL    HW230441   3.520   3.580   1.026
 9848SOL     OW30442   3.421   3.536   4.724
 9848SOL    HW130443   3.329   3.573   4.713
 9848SOL    HW230444   3.478   3.565   4.647
 9849SOL     OW30445   1.043   1.157   6.355
 9849SOL    HW130446   1.113   1.189   6.291
 9849SOL    HW230447   0.953   1.158   6.310
 9850SOL     OW30448   0.344   0.582   4.155
 9850SOL    HW130449   0.291   0.504   4.189
 9850SOL    HW230450   0.311   0.666   4.198
 9851SOL     OW30451   3.936   4.963   4.212
 9851SOL    HW130452   3.870   4.996   4.281
 9851SOL    HW230453   3.888   4.944   4.127
 9852SOL     OW30454   1.739   1.208   6.375
 9852SOL    HW130455   1.823   1.186   6.424
 9852SOL    HW230456   1.673   1.134   6.388
 9853SOL     OW30457   6.785   4.285   4.124
 9853SOL    HW130458   6.748   4.231   4.200
 9853SOL    HW230459   6.840   4.360   4.160
 9854SOL     OW30460   0.631   5.951   5.864
 9854SOL    HW130461   0.538   5.959   5.897
 9854SOL    HW230462   0.668   6.042   5.844
 9855SOL     OW30463   1.151   3.457   0.781
 9855SOL    HW130464   1.133   3.371   0.829
 9855SOL    HW230465   1.226   3.505   0.825
 9856SOL     OW30466   5.631   4.207   3.351
 9856SOL    HW130467   5.576   4.187   3.270
 9856SOL    HW230468   5.607   4.297   3.386
 9857SOL     OW30469   4.905   2.242   3.412
 9857SOL    HW130470   4.847   2.322   3.397
 9857SOL    HW230471   4.882   2.171   3.346
 9858SOL     OW30472   0.299   5.963   2.330
 9858SOL    HW130473   0.332   6.044   2.379
 9858SOL    HW230474   0.309   5.883   2.388
 9859SOL     OW30475   0.642   4.918   4.764
 9859SOL    HW130476   0.576   4.992   4.749
 9859SOL    HW230477   0.627   4.846   4.696
 9860SOL     OW30478   2.110   2.117   5.260
 9860SOL    HW130479   2.126   2.029   5.216
 9860SOL    HW230480   2.018   2.119   5.298
 9861SOL     OW30481   2.834   1.464   3.957
 9861SOL    HW130482   2.865   1.452   3.863
 9861SOL    HW230483   2.821   1.375   4.000
 9862SOL     OW30484   2.083   5.092   1.113
 9862SOL    HW130485   2.086   5.010   1.057
 9862SOL    HW230486   2.076   5.067   1.209
 9863SOL     OW30487   3.276   5.992   1.153
 9863SOL    HW130488   3.196   5.937   1.129
 9863SOL    HW230489   3.358   5.951   1.111
 9864SOL     OW30490   2.777   5.988   5.530
 9864SOL    HW130491   2.803   6.072   5.482
 9864SOL    HW230492   2.757   5.917   5.463
 9865SOL     OW30493   0.815   6.620   5.826
 9865SOL    HW130494   0.749   6.634   5.751
 9865SOL    HW230495   0.815   6.700   5.885
 9866SOL     OW30496   6.479   4.476   4.469
 9866SOL    HW130497   6.463   4.382   4.498
 9866SOL    HW230498   6.419   4.537   4.519
 9867SOL     OW30499   5.331   2.047   1.633
 9867SOL    HW130500   5.358   1.996   1.715
 9867SOL    HW230501   5.328   1.985   1.555
 9868SOL     OW30502   1.290   4.568   3.160
 9868SOL    HW130503   1.231   4.624   3.219
 9868SOL    HW230504   1.232   4.515   3.098
 9869SOL     OW30505   0.260   2.554   1.511
 9869SOL    HW130506   0.212   2.543   1.423
 9869SOL    HW230507   0.208   2.616   1.569
 9870SOL     OW30508   3.479   1.437   1.660
 9870SOL    HW130509   3.428   1.487   1.730
 9870SOL    HW230510   3.509   1.349   1.698
 9871SOL     OW30511   6.984   3.643   5.079
 9871SOL    HW130512   6.897   3.666   5.122
 9871SOL    HW230513   0.000   3.557   5.117
 9872SOL     OW30514   2.005   5.235   5.302
 9872SOL    HW130515   2.006   5.255   5.204
 9872SOL    HW230516   1.953   5.306   5.349
 9873SOL     OW30517   2.509   2.443   6.134
 9873SOL    HW130518   2.463   2.363   6.174
 9873SOL    HW230519   2.468   2.463   6.045
 9874SOL     OW30520   0.468   2.481   4.956
 9874SOL    HW130521   0.470   2.502   4.859
 9874SOL    HW230522   0.378   2.446   4.981
 9875SOL     OW30523   6.773   5.807   0.594
 9875SOL    HW130524   6.760   5.796   0.692
 9875SOL    HW230525   6.750   5.900   0.568
 9876SOL     OW30526   2.247   6.617   3.226
 9876SOL    HW130527   2.264   6.593   3.322
 9876SOL    HW230528   2.249   6.717   3.217
 9877SOL     OW30529   1.095   5.105   4.487
 9877SOL    HW130530   1.150   5.076   4.565
 9877SOL    HW230531   1.155   5.120   4.408
 9878SOL     OW30532   1.953   3.023   0.095
 9878SOL    HW130533   1.857   2.997   0.087
 9878SOL    HW230534   2.011   2.946   0.067
 9879SOL     OW30535   0.634   4.380   5.944
 9879SOL    HW130536   0.644   4.353   5.848
 9879SOL    HW230537   0.715   4.354   5.995
 9880SOL     OW30538   3.216   1.838   0.234
 9880SOL    HW130539   3.149   1.823   0.162
 9880SOL    HW230540   3.237   1.935   0.241
 9881SOL     OW30541   5.195   0.295   4.559
 9881SOL    HW130542   5.282   0.303   4.609
 9881SOL    HW230543   5.130   0.362   4.596
 9882SOL     OW30544   4.000   3.069   3.993
 9882SOL    HW130545   3.903   3.050   3.976
 9882SOL    HW230546   4.053   2.986   3.979
 9883SOL     OW30547   2.211   6.566   1.164
 9883SOL    HW130548   2.226   6.500   1.090
 9883SOL    HW230549   2.292   6.624   1.174
 9884SOL     OW30550   1.898   3.559   6.304
 9884SOL    HW130551   1.911   3.650   6.342
 9884SOL    HW230552   1.820   3.515   6.350
 9885SOL     OW30553   6.741   3.198   3.948
 9885SOL    HW130554   6.816   3.144   3.987
 9885SOL    HW230555   6.775   3.289   3.922
 9886SOL     OW30556   4.837   6.149   1.586
 9886SOL    HW130557   4.832   6.079   1.515
 9886SOL    HW230558   4.836   6.106   1.676
 9887SOL     OW30559   3.685   6.460   0.628
 9887SOL    HW130560   3.613   6.392   0.640
 9887SOL    HW230561   3.708   6.467   0.531
 9888SOL     OW30562   5.906   5.723   2.612
 9888SOL    HW130563   5.869   5.815   2.618
 9888SOL    HW230564   6.006   5.727   2.607
 9889SOL     OW30565   0.240   4.879   3.175
 9889SOL    HW130566   0.289   4.824   3.107
 9889SOL    HW230567   0.237   4.974   3.146
 9890SOL     OW30568   6.495   3.873   1.413
 9890SOL    HW130569   6.479   3.961   1.456
 9890SOL    HW230570   6.591   3.867   1.386
 9891SOL     OW30571   5.448   5.092   0.675
 9891SOL    HW130572   5.463   5.010   0.729
 9891SOL    HW230573   5.521   5.158   0.692
 9892SOL     OW30574   1.922   5.330   3.754
 9892SOL    HW130575   1.880   5.240   3.741
 9892SOL    HW230576   1.932   5.348   3.852
 9893SOL     OW30577   6.078   5.115   3.120
 9893SOL    HW130578   6.096   5.189   3.056
 9893SOL    HW230579   6.151   5.046   3.114
 9894SOL     OW30580   3.381   2.789   5.814
 9894SOL    HW130581   3.392   2.886   5.793
 9894SOL    HW230582   3.392   2.734   5.731
 9895SOL     OW30583   5.143   2.896   6.608
 9895SOL    HW130584   5.111   2.855   6.522
 9895SOL    HW230585   5.227   2.849   6.638
 9896SOL     OW30586   3.820   3.918   0.570
 9896SOL    HW130587   3.726   3.887   0.580
 9896SOL    HW230588   3.826   3.983   0.494
 9897SOL     OW30589   5.669   1.579   2.597
 9897SOL    HW130590   5.755   1.615   2.561
 9897SOL    HW230591   5.689   1.502   2.658
 9898SOL     OW30592   1.414   5.565   5.670
 9898SOL    HW130593   1.352   5.565   5.591
 9898SOL    HW230594   1.362   5.545   5.753
 9899SOL     OW30595   5.042   4.750   2.212
 9899SOL    HW130596   5.079   4.684   2.277
 9899SOL    HW230597   4.999   4.700   2.136
 9900SOL     OW30598   1.376   2.415   4.065
 9900SOL    HW130599   1.356   2.513   4.057
 9900SOL    HW230600   1.406   2.381   3.976
 9901SOL     OW30601   2.733   2.457   6.342
 9901SOL    HW130602   2.670   2.442   6.265
 9901SOL    HW230603   2.717   2.547   6.381
 9902SOL     OW30604   3.465   3.816   0.886
 9902SOL    HW130605   3.519   3.806   0.802
 9902SOL    HW230606   3.513   3.773   0.962
 9903SOL     OW30607   4.412   1.516   2.275
 9903SOL    HW130608   4.467   1.458   2.335
 9903SOL    HW230609   4.381   1.597   2.325
 9904SOL     OW30610   6.300   2.267   0.711
 9904SOL    HW130611   6.360   2.225   0.643
 9904SOL    HW230612   6.333   2.245   0.803
 9905SOL     OW30613   1.530   6.534   6.140
 9905SOL    HW130614   1.481   6.612   6.178
 9905SOL    HW230615   1.628   6.550   6.146
 9906SOL     OW30616   2.241   3.440   6.429
 9906SOL    HW130617   2.260   3.489   6.344
 9906SOL    HW230618   2.166   3.375   6.415
 9907SOL     OW30619   2.522   6.314   2.844
 9907SOL    HW130620   2.564   6.344   2.930
 9907SOL    HW230621   2.573   6.237   2.807
 9908SOL     OW30622   0.588   3.676   6.366
 9908SOL    HW130623   0.612   3.741   6.438
 9908SOL    HW230624   0.651   3.598   6.369
 9909SOL     OW30625   3.408   1.567   2.644
 9909SOL    HW130626   3.348   1.630   2.693
 9909SOL    HW230627   3.485   1.543   2.703
 9910SOL     OW30628   6.110   4.196   0.874
 9910SOL    HW130629   6.019   4.228   0.900
 9910SOL    HW230630   6.108   4.160   0.781
 9911SOL     OW30631   4.233   5.081   3.412
 9911SOL    HW130632   4.209   5.173   3.443
 9911SOL    HW230633   4.177   5.057   3.333
 9912SOL     OW30634   4.993   0.431   2.035
 9912SOL    HW130635   4.971   0.425   1.938
 9912SOL    HW230636   5.061   0.503   2.049
 9913SOL     OW30637   5.389   2.715   2.669
 9913SOL    HW130638   5.393   2.655   2.749
 9913SOL    HW230639   5.335   2.796   2.691
 9914SOL     OW30640   1.090   0.404   4.873
 9914SOL    HW130641   1.043   0.485   4.837
 9914SOL    HW230642   1.173   0.387   4.819
 9915SOL     OW30643   4.806   2.952   3.933
 9915SOL    HW130644   4.730   2.907   3.980
 9915SOL    HW230645   4.817   2.912   3.842
 9916SOL     OW30646   2.163   2.971   2.720
 9916SOL    HW130647   2.180   2.890   2.663
 9916SOL    HW230648   2.216   2.964   2.804
 9917SOL     OW30649   3.248   4.188   5.724
 9917SOL    HW130650   3.178   4.117   5.726
 9917SOL    HW230651   3.331   4.152   5.681
 9918SOL     OW30652   2.086   1.947   5.976
 9918SOL    HW130653   2.038   1.899   6.049
 9918SOL    HW230654   2.077   1.896   5.891
 9919SOL     OW30655   1.184   5.607   2.453
 9919SOL    HW130656   1.252   5.677   2.474
 9919SOL    HW230657   1.191   5.580   2.357
 9920SOL     OW30658   3.775   6.289   1.496
 9920SOL    HW130659   3.740   6.282   1.403
 9920SOL    HW230660   3.805   6.383   1.514
 9921SOL     OW30661   5.909   6.980   2.702
 9921SOL    HW130662   5.847   0.029   2.742
 9921SOL    HW230663   5.960   6.934   2.774
 9922SOL     OW30664   4.403   4.601   0.798
 9922SOL    HW130665   4.428   4.656   0.718
 9922SOL    HW230666   4.468   4.619   0.872
 9923SOL     OW30667   6.431   2.178   6.135
 9923SOL    HW130668   6.442   2.109   6.063
 9923SOL    HW230669   6.357   2.241   6.110
 9924SOL     OW30670   7.014   0.873   2.868
 9924SOL    HW130671   0.023   0.880   2.964
 9924SOL    HW230672   6.958   0.791   2.855
 9925SOL     OW30673   2.902   3.132   5.655
 9925SOL    HW130674   2.827   3.065   5.657
 9925SOL    HW230675   2.885   3.198   5.582
 9926SOL     OW30676   1.103   1.326   0.553
 9926SOL    HW130677   1.052   1.312   0.638
 9926SOL    HW230678   1.128   1.422   0.545
 9927SOL     OW30679   0.330   1.837   2.724
 9927SOL    HW130680   0.331   1.932   2.694
 9927SOL    HW230681   0.302   1.832   2.820
 9928SOL     OW30682   0.265   3.827   1.910
 9928SOL    HW130683   0.333   3.795   1.976
 9928SOL    HW230684   0.243   3.754   1.845
 9929SOL     OW30685   2.745   4.554   6.904
 9929SOL    HW130686   2.838   4.532   6.875
 9929SOL    HW230687   2.682   4.541   6.827
 9930SOL     OW30688   6.507   0.202   6.302
 9930SOL    HW130689   6.475   0.154   6.221
 9930SOL    HW230690   6.507   0.301   6.285
 9931SOL     OW30691   2.072   6.274   5.327
 9931SOL    HW130692   2.115   6.360   5.298
 9931SOL    HW230693   2.113   6.245   5.413
 9932SOL     OW30694   1.656   1.335   0.323
 9932SOL    HW130695   1.674   1.353   0.420
 9932SOL    HW230696   1.597   1.407   0.286
 9933SOL     OW30697   2.505   1.638   2.962
 9933SOL    HW130698   2.552   1.610   2.878
 9933SOL    HW230699   2.459   1.558   3.001
 9934SOL     OW30700   5.452   1.763   6.149
 9934SOL    HW130701   5.433   1.860   6.133
 9934SOL    HW230702   5.532   1.735   6.096
 9935SOL     OW30703   3.231   2.044   0.684
 9935SOL    HW130704   3.319   2.021   0.641
 9935SOL    HW230705   3.196   1.964   0.732
 9936SOL     OW30706   5.752   5.889   5.670
 9936SOL    HW130707   5.762   5.826   5.592
 9936SOL    HW230708   5.685   5.851   5.734
 9937SOL     OW30709   0.428   6.672   2.701
 9937SOL    HW130710   0.393   6.756   2.743
 9937SOL    HW230711   0.526   6.666   2.717
 9938SOL     OW30712   0.273   0.674   4.514
 9938SOL    HW130713   0.276   0.710   4.421
 9938SOL    HW230714   0.187   0.701   4.557
 9939SOL     OW30715   2.222   4.272   0.681
 9939SOL    HW130716   2.270   4.216   0.614
 9939SOL    HW230717   2.133   4.231   0.701
 9940SOL     OW30718   0.309   6.915   2.856
 9940SOL    HW130719   0.361   6.981   2.802
 9940SOL    HW230720   0.330   6.928   2.953
 9941SOL     OW30721   4.235   5.055   6.150
 9941SOL    HW130722   4.144   5.053   6.108
 9941SOL    HW230723   4.293   4.985   6.109
 9942SOL     OW30724   4.352   5.016   3.637
 9942SOL    HW130725   4.297   5.018   3.554
 9942SOL    HW230726   4.438   5.064   3.620
 9943SOL     OW30727   2.264   3.652   0.363
 9943SOL    HW130728   2.316   3.597   0.297
 9943SOL    HW230729   2.240   3.740   0.322
 9944SOL     OW30730   1.399   4.920   6.949
 9944SOL    HW130731   1.353   5.004   6.975
 9944SOL    HW230732   1.404   4.859   0.010
 9945SOL     OW30733   6.001   3.882   0.311
 9945SOL    HW130734   5.960   3.806   0.260
 9945SOL    HW230735   5.975   3.969   0.269
 9946SOL     OW30736   5.353   1.197   3.103
 9946SOL    HW130737   5.303   1.138   3.039
 9946SOL    HW230738   5.383   1.279   3.055
 9947SOL     OW30739   1.903   1.405   4.498
 9947SOL    HW130740   1.891   1.488   4.445
 9947SOL    HW230741   1.953   1.337   4.443
 9948SOL     OW30742   6.191   0.268   4.415
 9948SOL    HW130743   6.115   0.218   4.373
 9948SOL    HW230744   6.154   0.344   4.470
 9949SOL     OW30745   6.434   4.166   4.515
 9949SOL    HW130746   6.461   4.181   4.610
 9949SOL    HW230747   6.464   4.075   4.486
 9950SOL     OW30748   6.497   5.094   5.720
 9950SOL    HW130749   6.580   5.148   5.732
 9950SOL    HW230750   6.484   5.035   5.800
 9951SOL     OW30751   0.890   2.527   2.603
 9951SOL    HW130752   0.835   2.537   2.685
 9951SOL    HW230753   0.833   2.492   2.528
 9952SOL     OW30754   0.474   4.327   1.557
 9952SOL    HW130755   0.514   4.414   1.584
 9952SOL    HW230756   0.521   4.292   1.476
 9953SOL     OW30757   5.993   2.398   3.186
 9953SOL    HW130758   6.069   2.340   3.157
 9953SOL    HW230759   6.029   2.474   3.240
 9954SOL     OW30760   2.811   1.965   6.016
 9954SOL    HW130761   2.778   1.877   5.983
 9954SOL    HW230762   2.734   2.028   6.025
 9955SOL     OW30763   5.298   3.011   1.018
 9955SOL    HW130764   5.304   2.946   1.094
 9955SOL    HW230765   5.219   3.071   1.032
 9956SOL     OW30766   1.753   4.297   3.473
 9956SOL    HW130767   1.825   4.294   3.403
 9956SOL    HW230768   1.690   4.221   3.459
 9957SOL     OW30769   5.733   6.981   1.680
 9957SOL    HW130770   5.750   6.885   1.705
 9957SOL    HW230771   5.698   6.985   1.586
 9958SOL     OW30772   3.878   5.060   6.273
 9958SOL    HW130773   3.906   5.133   6.212
 9958SOL    HW230774   3.818   5.097   6.345
 9959SOL     OW30775   4.069   4.443   1.056
 9959SOL    HW130776   4.089   4.393   1.141
 9959SOL    HW230777   3.971   4.455   1.047
 9960SOL     OW30778   6.647   6.997   0.055
 9960SOL    HW130779   6.602   6.986   0.143
 9960SOL    HW230780   6.732   6.944   0.054
 9961SOL     OW30781   2.104   4.805   2.403
 9961SOL    HW130782   2.199   4.821   2.374
 9961SOL    HW230783   2.085   4.707   2.398
 9962SOL     OW30784   3.232   5.652   2.492
 9962SOL    HW130785   3.289   5.608   2.561
 9962SOL    HW230786   3.167   5.585   2.455
 9963SOL     OW30787   1.506   1.517   6.736
 9963SOL    HW130788   1.427   1.561   6.778
 9963SOL    HW230789   1.480   1.478   6.648
 9964SOL     OW30790   4.782   4.401   5.446
 9964SOL    HW130791   4.736   4.327   5.397
 9964SOL    HW230792   4.854   4.439   5.388
 9965SOL     OW30793   3.066   5.688   4.977
 9965SOL    HW130794   3.098   5.783   4.978
 9965SOL    HW230795   3.014   5.669   5.060
 9966SOL     OW30796   3.191   5.038   2.502
 9966SOL    HW130797   3.199   5.008   2.407
 9966SOL    HW230798   3.235   4.971   2.562
 9967SOL     OW30799   0.120   6.894   2.567
 9967SOL    HW130800   0.100   6.822   2.634
 9967SOL    HW230801   0.193   6.862   2.506
 9968SOL     OW30802   4.039   6.248   0.400
 9968SOL    HW130803   4.049   6.183   0.475
 9968SOL    HW230804   4.051   6.341   0.435
 9969SOL     OW30805   1.335   5.024   3.970
 9969SOL    HW130806   1.374   5.003   4.059
 9969SOL    HW230807   1.408   5.045   3.905
 9970SOL     OW30808   6.178   4.726   1.826
 9970SOL    HW130809   6.085   4.737   1.791
 9970SOL    HW230810   6.217   4.641   1.790
 9971SOL     OW30811   1.658   3.368   2.535
 9971SOL    HW130812   1.677   3.380   2.438
 9971SOL    HW230813   1.564   3.395   2.555
 9972SOL     OW30814   3.586   4.399   0.423
 9972SOL    HW130815   3.549   4.308   0.441
 9972SOL    HW230816   3.552   4.433   0.336
 9973SOL     OW30817   3.681   1.717   3.943
 9973SOL    HW130818   3.656   1.668   3.859
 9973SOL    HW230819   3.747   1.663   3.995
 9974SOL     OW30820   0.078   1.816   3.415
 9974SOL    HW130821   7.010   1.796   3.461
 9974SOL    HW230822   0.096   1.914   3.418
 9975SOL     OW30823   1.065   5.286   6.382
 9975SOL    HW130824   0.970   5.276   6.411
 9975SOL    HW230825   1.074   5.262   6.285
 9976SOL     OW30826   2.115   4.632   6.153
 9976SOL    HW130827   2.208   4.657   6.177
 9976SOL    HW230828   2.103   4.639   6.054
 9977SOL     OW30829   5.547   5.508   5.050
 9977SOL    HW130830   5.545   5.584   4.986
 9977SOL    HW230831   5.454   5.489   5.082
 9978SOL     OW30832   0.365   2.147   6.330
 9978SOL    HW130833   0.375   2.058   6.375
 9978SOL    HW230834   0.384   2.220   6.396
 9979SOL     OW30835   5.031   3.410   5.879
 9979SOL    HW130836   5.000   3.502   5.901
 9979SOL    HW230837   5.086   3.412   5.796
 9980SOL     OW30838   1.159   0.999   0.181
 9980SOL    HW130839   1.160   1.080   0.123
 9980SOL    HW230840   1.115   0.923   0.132
 9981SOL     OW30841   0.661   2.339   1.495
 9981SOL    HW130842   0.604   2.258   1.482
 9981SOL    HW230843   0.603   2.419   1.511
 9982SOL     OW30844   2.019   1.484   4.916
 9982SOL    HW130845   1.965   1.460   4.835
 9982SOL    HW230846   1.965   1.543   4.976
 9983SOL     OW30847   6.595   3.096   2.057
 9983SOL    HW130848   6.634   3.015   2.100
 9983SOL    HW230849   6.582   3.079   1.959
 9984SOL     OW30850   0.134   6.171   1.426
 9984SOL    HW130851   0.108   6.267   1.419
 9984SOL    HW230852   0.233   6.164   1.440
 9985SOL     OW30853   3.903   5.554   0.688
 9985SOL    HW130854   3.863   5.537   0.598
 9985SOL    HW230855   3.998   5.523   0.688
 9986SOL     OW30856   4.916   4.712   0.240
 9986SOL    HW130857   4.914   4.677   0.146
 9986SOL    HW230858   4.885   4.807   0.241
 9987SOL     OW30859   5.361   3.018   1.421
 9987SOL    HW130860   5.365   2.995   1.324
 9987SOL    HW230861   5.266   3.020   1.452
 9988SOL     OW30862   6.307   5.968   4.095
 9988SOL    HW130863   6.263   6.053   4.065
 9988SOL    HW230864   6.297   5.898   4.025
 9989SOL     OW30865   6.368   4.101   1.794
 9989SOL    HW130866   6.283   4.153   1.780
 9989SOL    HW230867   6.438   4.162   1.831
 9990SOL     OW30868   0.627   6.724   2.972
 9990SOL    HW130869   0.635   6.628   2.999
 9990SOL    HW230870   0.649   6.732   2.874
 9991SOL     OW30871   1.897   3.877   3.911
 9991SOL    HW130872   1.855   3.875   4.002
 9991SOL    HW230873   1.946   3.963   3.899
 9992SOL     OW30874   3.375   4.525   0.927
 9992SOL    HW130875   3.409   4.510   0.834
 9992SOL    HW230876   3.362   4.622   0.942
 9993SOL     OW30877   3.697   6.457   3.995
 9993SOL    HW130878   3.786   6.414   4.004
 9993SOL    HW230879   3.626   6.395   4.029
 9994SOL     OW30880   0.152   3.889   4.577
 9994SOL    HW130881   0.092   3.899   4.656
 9994SOL    HW230882   0.113   3.937   4.499
 9995SOL     OW30883   2.821   0.810   4.682
 9995SOL    HW130884   2.759   0.731   4.676
 9995SOL    HW230885   2.771   0.889   4.716
 9996SOL     OW30886   2.425   3.964   0.636
 9996SOL    HW130887   2.338   3.973   0.685
 9996SOL    HW230888   2.432   4.036   0.567
 9997SOL     OW30889   5.884   1.754   4.092
 9997SOL    HW130890   5.815   1.813   4.052
 9997SOL    HW230891   5.912   1.685   4.025
 9998SOL     OW30892   4.849   3.671   3.051
 9998SOL    HW130893   4.908   3.612   2.998
 9998SOL    HW230894   4.809   3.619   3.127
 9999SOL     OW30895   0.731   6.797   3.722
 9999SOL    HW130896   0.647   6.750   3.749
 9999SOL    HW230897   0.803   6.778   3.790
10000SOL     OW30898   5.349   1.840   1.463
10000SOL    HW130899   5.288   1.791   1.526
10000SOL    HW230900   5.440   1.798   1.465
10001SOL     OW30901   2.913   6.617   2.725
10001SOL    HW130902   2.864   6.666   2.798
10001SOL    HW230903   3.011   6.629   2.738
10002SOL     OW30904   2.305   1.196   0.631
10002SOL    HW130905   2.291   1.204   0.532
10002SOL    HW230906   2.278   1.105   0.660
10003SOL     OW30907   2.335   2.156   2.657
10003SOL    HW130908   2.416   2.172   2.602
10003SOL    HW230909   2.269   2.229   2.640
10004SOL     OW30910   5.161   4.546   4.913
10004SOL    HW130911   5.093   4.591   4.971
10004SOL    HW230912   5.166   4.593   4.825
10005SOL     OW30913   2.709   5.666   3.761
10005SOL    HW130914   2.776   5.656   3.834
10005SOL    HW230915   2.701   5.580   3.710
10006SOL     OW30916   5.545   7.012   5.551
10006SOL    HW130917   5.513   7.013   5.646
10006SOL    HW230918   5.644   0.002   5.549
10007SOL     OW30919   0.609   4.187   4.667
10007SOL    HW130920   0.654   4.169   4.580
10007SOL    HW230921   0.645   4.271   4.707
10008SOL     OW30922   3.180   1.610   3.885
10008SOL    HW130923   3.212   1.702   3.910
10008SOL    HW230924   3.176   1.553   3.967
10009SOL     OW30925   2.219   3.918   2.147
10009SOL    HW130926   2.229   4.000   2.090
10009SOL    HW230927   2.252   3.838   2.096
10010SOL     OW30928   2.452   4.607   6.470
10010SOL    HW130929   2.537   4.617   6.418
10010SOL    HW230930   2.379   4.576   6.409
10011SOL     OW30931   0.250   4.179   0.840
10011SOL    HW130932   0.268   4.201   0.744
10011SOL    HW230933   0.329   4.131   0.879
10012SOL     OW30934   4.979   0.841   2.209
10012SOL    HW130935   4.991   0.858   2.111
10012SOL    HW230936   5.066   0.859   2.256
10013SOL     OW30937   1.491   5.356   5.010
10013SOL    HW130938   1.587   5.358   4.982
10013SOL    HW230939   1.482   5.392   5.103
10014SOL     OW30940   0.866   6.444   2.490
10014SOL    HW130941   0.916   6.371   2.442
10014SOL    HW230942   0.838   6.514   2.424
10015SOL     OW30943   4.194   5.242   6.665
10015SOL    HW130944   4.157   5.223   6.756
10015SOL    HW230945   4.191   5.340   6.648
10016SOL     OW30946   1.632   0.773   4.554
10016SOL    HW130947   1.534   0.780   4.536
10016SOL    HW230948   1.680   0.752   4.468
10017SOL     OW30949   2.573   2.065   2.807
10017SOL    HW130950   2.488   2.088   2.761
10017SOL    HW230951   2.636   2.142   2.802
10018SOL     OW30952   6.955   4.321   5.427
10018SOL    HW130953   6.981   4.237   5.380
10018SOL    HW230954   6.899   4.300   5.507
10019SOL     OW30955   6.779   1.475   3.308
10019SOL    HW130956   6.800   1.404   3.241
10019SOL    HW230957   6.680   1.485   3.317
10020SOL     OW30958   6.886   1.027   1.658
10020SOL    HW130959   6.895   0.936   1.698
10020SOL    HW230960   6.842   1.019   1.568
10021SOL     OW30961   1.669   2.926   1.559
10021SOL    HW130962   1.598   2.991   1.582
10021SOL    HW230963   1.715   2.955   1.475
10022SOL     OW30964   2.121   6.159   6.922
10022SOL    HW130965   2.209   6.177   6.965
10022SOL    HW230966   2.092   6.240   6.871
10023SOL     OW30967   2.652   6.143   5.838
10023SOL    HW130968   2.681   6.233   5.805
10023SOL    HW230969   2.576   6.110   5.782
10024SOL     OW30970   1.469   4.934   2.880
10024SOL    HW130971   1.539   4.929   2.952
10024SOL    HW230972   1.475   4.852   2.823
10025SOL     OW30973   1.675   3.184   1.938
10025SOL    HW130974   1.728   3.172   2.022
10025SOL    HW230975   1.594   3.239   1.957
10026SOL     OW30976   5.033   1.480   2.889
10026SOL    HW130977   5.063   1.418   2.961
10026SOL    HW230978   5.022   1.429   2.803
10027SOL     OW30979   1.183   2.640   5.318
10027SOL    HW130980   1.089   2.606   5.311
10027SOL    HW230981   1.190   2.728   5.271
10028SOL     OW30982   3.640   0.762   1.082
10028SOL    HW130983   3.547   0.737   1.109
10028SOL    HW230984   3.705   0.717   1.144
10029SOL     OW30985   0.118   2.539   4.501
10029SOL    HW130986   0.188   2.471   4.478
10029SOL    HW230987   0.123   2.614   4.436
10030SOL     OW30988   2.912   0.076   4.857
10030SOL    HW130989   2.875   0.029   4.778
10030SOL    HW230990   2.903   0.175   4.845
10031SOL     OW30991   4.816   5.123   4.825
10031SOL    HW130992   4.903   5.158   4.791
10031SOL    HW230993   4.833   5.047   4.888
10032SOL     OW30994   3.627   0.021   5.824
10032SOL    HW130995   3.636   0.098   5.761
10032SOL    HW230996   3.680   6.962   5.789
10033SOL     OW30997   4.741   1.370   3.893
10033SOL    HW130998   4.727   1.306   3.817
10033SOL    HW230999   4.829   1.415   3.883
10034SOL     OW31000   2.045   0.895   3.777
10034SOL    HW131001   2.074   0.961   3.846
10034SOL    HW231002   1.976   0.936   3.718
10035SOL     OW31003   6.020   3.899   6.982
10035SOL    HW131004   6.047   3.892   6.886
10035SOL    HW231005   6.094   3.864   0.021
10036SOL     OW31006   6.285   0.933   6.898
10036SOL    HW131007   6.353   0.860   6.896
10036SOL    HW231008   6.307   1.002   6.828
10037SOL     OW31009   6.410   0.056   6.090
10037SOL    HW131010   6.359   0.122   6.036
10037SOL    HW231011   6.423   6.990   6.037
10038SOL     OW31012   4.270   6.581   6.481
10038SOL    HW131013   4.260   6.486   6.452
10038SOL    HW231014   4.197   6.636   6.442
10039SOL     OW31015   5.026   5.961   4.720
10039SOL    HW131016   4.985   5.995   4.635
10039SOL    HW231017   4.963   5.974   4.796
10040SOL     OW31018   4.187   5.938   0.303
10040SOL    HW131019   4.145   5.944   0.394
10040SOL    HW231020   4.147   6.007   0.243
10041SOL     OW31021   6.403   5.243   4.982
10041SOL    HW131022   6.409   5.291   4.894
10041SOL    HW231023   6.388   5.310   5.055
10042SOL     OW31024   0.645   1.033   5.285
10042SOL    HW131025   0.693   1.086   5.355
10042SOL    HW231026   0.711   0.979   5.233
10043SOL     OW31027   0.676   0.386   2.708
10043SOL    HW131028   0.715   0.425   2.625
10043SOL    HW231029   0.598   0.441   2.737
10044SOL     OW31030   2.545   1.938   4.235
10044SOL    HW131031   2.476   1.865   4.239
10044SOL    HW231032   2.593   1.944   4.323
10045SOL     OW31033   4.871   0.294   4.234
10045SOL    HW131034   4.781   0.250   4.236
10045SOL    HW231035   4.877   0.355   4.155
10046SOL     OW31036   0.288   1.277   1.566
10046SOL    HW131037   0.297   1.222   1.649
10046SOL    HW231038   0.194   1.273   1.533
10047SOL     OW31039   6.385   3.245   5.180
10047SOL    HW131040   6.405   3.147   5.178
10047SOL    HW231041   6.294   3.260   5.218
10048SOL     OW31042   3.417   1.850   1.848
10048SOL    HW131043   3.481   1.806   1.911
10048SOL    HW231044   3.454   1.849   1.756
10049SOL     OW31045   0.636   1.172   6.618
10049SOL    HW131046   0.660   1.269   6.627
10049SOL    HW231047   0.627   1.148   6.521
10050SOL     OW31048   5.819   2.931   4.947
10050SOL    HW131049   5.736   2.917   5.000
10050SOL    HW231050   5.795   2.971   4.858
10051SOL     OW31051   6.892   2.936   4.863
10051SOL    HW131052   6.814   2.969   4.917
10051SOL    HW231053   6.875   2.841   4.837
10052SOL     OW31054   2.008   2.650   2.343
10052SOL    HW131055   1.985   2.714   2.269
10052SOL    HW231056   1.924   2.613   2.382
10053SOL     OW31057   3.902   5.079   2.169
10053SOL    HW131058   3.921   5.038   2.258
10053SOL    HW231059   3.919   5.178   2.173
10054SOL     OW31060   4.238   6.132   6.240
10054SOL    HW131061   4.209   6.129   6.145
10054SOL    HW231062   4.337   6.122   6.246
10055SOL     OW31063   6.051   2.374   4.899
10055SOL    HW131064   5.985   2.324   4.842
10055SOL    HW231065   6.003   2.448   4.947
10056SOL     OW31066   6.052   4.917   0.967
10056SOL    HW131067   5.960   4.931   1.005
10056SOL    HW231068   6.064   4.976   0.887
10057SOL     OW31069   3.066   1.426   4.093
10057SOL    HW131070   2.990   1.480   4.056
10057SOL    HW231071   3.032   1.365   4.164
10058SOL     OW31072   6.983   3.993   4.992
10058SOL    HW131073   0.035   3.933   4.954
10058SOL    HW231074   0.002   4.086   5.001
10059SOL     OW31075   4.936   6.376   0.980
10059SOL    HW131076   4.917   6.315   1.057
10059SOL    HW231077   5.031   6.408   0.986
10060SOL     OW31078   2.265   1.902   2.591
10060SOL    HW131079   2.218   1.858   2.515
10060SOL    HW231080   2.257   2.002   2.583
10061SOL     OW31081   5.192   1.129   4.189
10061SOL    HW131082   5.150   1.196   4.251
10061SOL    HW231083   5.290   1.125   4.207
10062SOL     OW31084   6.239   6.876   4.890
10062SOL    HW131085   6.166   6.942   4.909
10062SOL    HW231086   6.223   6.792   4.942
10063SOL     OW31087   1.399   1.806   3.305
10063SOL    HW131088   1.455   1.887   3.322
10063SOL    HW231089   1.390   1.791   3.207
10064SOL     OW31090   5.666   5.552   5.945
10064SOL    HW131091   5.728   5.584   6.016
10064SOL    HW231092   5.651   5.454   5.955
10065SOL     OW31093   1.857   0.449   1.597
10065SOL    HW131094   1.956   0.437   1.608
10065SOL    HW231095   1.815   0.462   1.687
10066SOL     OW31096   1.567   0.974   4.297
10066SOL    HW131097   1.649   1.030   4.307
10066SOL    HW231098   1.507   1.014   4.228
10067SOL     OW31099   5.051   4.573   5.724
10067SOL    HW131100   5.058   4.573   5.624
10067SOL    HW231101   4.957   4.554   5.751
10068SOL     OW31102   5.245   2.818   3.840
10068SOL    HW131103   5.194   2.744   3.883
10068SOL    HW231104   5.211   2.832   3.747
10069SOL     OW31105   1.864   6.232   3.572
10069SOL    HW131106   1.854   6.273   3.663
10069SOL    HW231107   1.905   6.299   3.510
10070SOL     OW31108   0.440   6.864   5.027
10070SOL    HW131109   0.402   6.956   5.030
10070SOL    HW231110   0.468   6.843   4.934
10071SOL     OW31111   4.690   5.065   4.286
10071SOL    HW131112   4.744   5.052   4.369
10071SOL    HW231113   4.654   4.977   4.255
10072SOL     OW31114   1.170   6.563   4.359
10072SOL    HW131115   1.083   6.517   4.340
10072SOL    HW231116   1.191   6.628   4.286
10073SOL     OW31117   6.543   3.723   4.914
10073SOL    HW131118   6.601   3.805   4.912
10073SOL    HW231119   6.471   3.732   4.846
10074SOL     OW31120   0.301   0.552   5.776
10074SOL    HW131121   0.397   0.526   5.767
10074SOL    HW231122   0.245   0.470   5.785
10075SOL     OW31123   1.510   2.020   2.676
10075SOL    HW131124   1.485   1.957   2.749
10075SOL    HW231125   1.432   2.077   2.652
10076SOL     OW31126   5.811   0.204   3.915
10076SOL    HW131127   5.724   0.198   3.866
10076SOL    HW231128   5.881   0.151   3.866
10077SOL     OW31129   3.689   2.347   6.838
10077SOL    HW131130   3.750   2.343   6.759
10077SOL    HW231131   3.598   2.374   6.808
10078SOL     OW31132   6.543   6.392   4.005
10078SOL    HW131133   6.569   6.426   4.095
10078SOL    HW231134   6.451   6.426   3.982
10079SOL     OW31135   1.288   2.859   2.097
10079SOL    HW131136   1.386   2.842   2.092
10079SOL    HW231137   1.247   2.801   2.168
10080SOL     OW31138   3.172   2.074   6.576
10080SOL    HW131139   3.172   2.092   6.477
10080SOL    HW231140   3.260   2.102   6.615
10081SOL     OW31141   0.019   6.977   6.476
10081SOL    HW131142   0.060   0.043   6.511
10081SOL    HW231143   0.022   6.977   6.376
10082SOL     OW31144   0.115   3.045   2.571
10082SOL    HW131145   0.102   2.967   2.633
10082SOL    HW231146   0.034   3.057   2.514
10083SOL     OW31147   5.252   1.276   3.544
10083SOL    HW131148   5.260   1.375   3.559
10083SOL    HW231149   5.294   1.228   3.621
10084SOL     OW31150   3.981   0.817   6.380
10084SOL    HW131151   3.958   0.861   6.467
10084SOL    HW231152   3.993   0.887   6.310
10085SOL     OW31153   0.222   5.271   2.687
10085SOL    HW131154   0.288   5.213   2.640
10085SOL    HW231155   0.268   5.324   2.758
10086SOL     OW31156   5.712   5.245   2.383
10086SOL    HW131157   5.645   5.182   2.422
10086SOL    HW231158   5.784   5.194   2.338
10087SOL     OW31159   0.587   0.806   3.972
10087SOL    HW131160   0.530   0.738   4.017
10087SOL    HW231161   0.548   0.897   3.987
10088SOL     OW31162   6.753   7.012   6.329
10088SOL    HW131163   6.683   0.045   6.280
10088SOL    HW231164   6.712   6.967   6.408
10089SOL     OW31165   2.265   2.238   2.917
10089SOL    HW131166   2.322   2.214   2.838
10089SOL    HW231167   2.198   2.307   2.889
10090SOL     OW31168   0.339   4.775   0.946
10090SOL    HW131169   0.429   4.785   0.903
10090SOL    HW231170   0.320   4.855   1.003
10091SOL     OW31171   1.275   3.343   5.039
10091SOL    HW131172   1.253   3.245   5.044
10091SOL    HW231173   1.229   3.383   4.960
10092SOL     OW31174   1.448   3.721   5.058
10092SOL    HW131175   1.542   3.756   5.056
10092SOL    HW231176   1.450   3.623   5.077
10093SOL     OW31177   1.179   4.312   4.623
10093SOL    HW131178   1.257   4.372   4.609
10093SOL    HW231179   1.180   4.239   4.553
10094SOL     OW31180   2.782   6.528   1.823
10094SOL    HW131181   2.792   6.480   1.910
10094SOL    HW231182   2.830   6.477   1.751
10095SOL     OW31183   6.137   1.831   5.256
10095SOL    HW131184   6.139   1.752   5.195
10095SOL    HW231185   6.167   1.803   5.347
10096SOL     OW31186   6.182   4.958   2.821
10096SOL    HW131187   6.262   4.968   2.880
10096SOL    HW231188   6.170   4.862   2.798
10097SOL     OW31189   0.789   1.438   6.589
10097SOL    HW131190   0.869   1.391   6.629
10097SOL    HW231191   0.758   1.509   6.652
10098SOL     OW31192   2.343   6.673   5.692
10098SOL    HW131193   2.299   6.737   5.754
10098SOL    HW231194   2.439   6.661   5.719
10099SOL     OW31195   6.913   5.161   6.750
10099SOL    HW131196   6.829   5.110   6.733
10099SOL    HW231197   6.979   5.143   6.677
10100SOL     OW31198   5.211   6.717   4.749
10100SOL    HW131199   5.174   6.803   4.714
10100SOL    HW231200   5.271   6.676   4.680
10101SOL     OW31201   5.689   4.828   1.729
10101SOL    HW131202   5.648   4.914   1.760
10101SOL    HW231203   5.617   4.769   1.692
10102SOL     OW31204   2.225   0.587   2.897
10102SOL    HW131205   2.175   0.666   2.862
10102SOL    HW231206   2.303   0.567   2.837
10103SOL     OW31207   2.709   1.246   4.768
10103SOL    HW131208   2.697   1.149   4.748
10103SOL    HW231209   2.804   1.263   4.794
10104SOL     OW31210   1.488   3.522   4.794
10104SOL    HW131211   1.389   3.532   4.806
10104SOL    HW231212   1.527   3.480   4.876
10105SOL     OW31213   1.121   1.553   6.514
10105SOL    HW131214   1.063   1.475   6.537
10105SOL    HW231215   1.171   1.534   6.430
10106SOL     OW31216   5.189   5.123   0.788
10106SOL    HW131217   5.278   5.129   0.743
10106SOL    HW231218   5.144   5.038   0.762
10107SOL     OW31219   6.842   1.764   6.594
10107SOL    HW131220   6.928   1.716   6.576
10107SOL    HW231221   6.778   1.703   6.641
10108SOL     OW31222   6.687   6.095   6.815
10108SOL    HW131223   6.734   6.172   6.858
10108SOL    HW231224   6.602   6.127   6.774
10109SOL     OW31225   3.601   6.474   2.584
10109SOL    HW131226   3.593   6.381   2.550
10109SOL    HW231227   3.692   6.487   2.624
10110SOL     OW31228   4.035   6.567   5.202
10110SOL    HW131229   3.970   6.632   5.240
10110SOL    HW231230   4.033   6.572   5.102
10111SOL     OW31231   6.485   3.181   3.975
10111SOL    HW131232   6.583   3.189   3.958
10111SOL    HW231233   6.460   3.084   3.980
10112SOL     OW31234   5.665   4.035   5.002
10112SOL    HW131235   5.665   3.963   4.932
10112SOL    HW231236   5.758   4.045   5.040
10113SOL     OW31237   3.945   1.248   6.369
10113SOL    HW131238   3.956   1.165   6.314
10113SOL    HW231239   3.850   1.277   6.367
10114SOL     OW31240   5.379   0.223   1.053
10114SOL    HW131241   5.293   0.188   1.015
10114SOL    HW231242   5.364   0.259   1.145
10115SOL     OW31243   3.179   2.129   3.368
10115SOL    HW131244   3.216   2.141   3.276
10115SOL    HW231245   3.083   2.158   3.370
10116SOL     OW31246   1.010   6.216   0.072
10116SOL    HW131247   1.082   6.173   0.126
10116SOL    HW231248   1.050   6.263   7.012
10117SOL     OW31249   6.604   0.116   4.369
10117SOL    HW131250   6.509   0.098   4.392
10117SOL    HW231251   6.651   0.157   4.448
10118SOL     OW31252   0.040   5.429   3.044
10118SOL    HW131253   6.976   5.418   3.100
10118SOL    HW231254   0.121   5.408   3.100
10119SOL     OW31255   1.636   6.571   5.076
10119SOL    HW131256   1.598   6.593   4.987
10119SOL    HW231257   1.736   6.570   5.071
10120SOL     OW31258   1.033   3.599   4.189
10120SOL    HW131259   1.123   3.600   4.232
10120SOL    HW231260   0.963   3.582   4.259
10121SOL     OW31261   6.342   5.113   5.508
10121SOL    HW131262   6.262   5.064   5.542
10121SOL    HW231263   6.414   5.113   5.578
10122SOL     OW31264   5.277   2.716   0.388
10122SOL    HW131265   5.341   2.776   0.435
10122SOL    HW231266   5.192   2.709   0.441
10123SOL     OW31267   6.660   6.448   0.505
10123SOL    HW131268   6.742   6.501   0.529
10123SOL    HW231269   6.657   6.365   0.561
10124SOL     OW31270   1.554   3.742   6.406
10124SOL    HW131271   1.534   3.717   6.500
10124SOL    HW231272   1.555   3.660   6.349
10125SOL     OW31273   1.439   1.016   2.693
10125SOL    HW131274   1.473   1.018   2.786
10125SOL    HW231275   1.423   1.109   2.661
10126SOL     OW31276   0.353   6.544   6.485
10126SOL    HW131277   0.328   6.455   6.446
10126SOL    HW231278   0.288   6.614   6.453
10127SOL     OW31279   2.885   4.790   5.808
10127SOL    HW131280   2.844   4.715   5.860
10127SOL    HW231281   2.965   4.756   5.758
10128SOL     OW31282   1.111   1.721   1.437
10128SOL    HW131283   1.015   1.694   1.450
10128SOL    HW231284   1.132   1.798   1.497
10129SOL     OW31285   4.862   2.679   4.227
10129SOL    HW131286   4.914   2.683   4.313
10129SOL    HW231287   4.788   2.611   4.236
10130SOL     OW31288   2.231   4.192   2.414
10130SOL    HW131289   2.258   4.096   2.410
10130SOL    HW231290   2.165   4.204   2.488
10131SOL     OW31291   0.315   1.113   3.401
10131SOL    HW131292   0.295   1.194   3.456
10131SOL    HW231293   0.354   1.042   3.460
10132SOL     OW31294   2.192   6.834   3.503
10132SOL    HW131295   2.280   6.791   3.524
10132SOL    HW231296   2.124   6.807   3.571
10133SOL     OW31297   4.347   6.113   2.125
10133SOL    HW131298   4.352   6.031   2.183
10133SOL    HW231299   4.431   6.167   2.137
10134SOL     OW31300   6.722   0.213   3.694
10134SOL    HW131301   6.798   0.278   3.699
10134SOL    HW231302   6.734   0.154   3.614
10135SOL     OW31303   5.510   3.381   3.440
10135SOL    HW131304   5.560   3.374   3.354
10135SOL    HW231305   5.533   3.303   3.498
10136SOL     OW31306   5.489   0.367   2.533
10136SOL    HW131307   5.579   0.331   2.509
10136SOL    HW231308   5.497   0.428   2.612
10137SOL     OW31309   6.357   4.861   3.961
10137SOL    HW131310   6.409   4.797   3.904
10137SOL    HW231311   6.300   4.918   3.903
10138SOL     OW31312   4.529   2.349   0.918
10138SOL    HW131313   4.538   2.367   1.016
10138SOL    HW231314   4.433   2.356   0.891
10139SOL     OW31315   3.541   3.512   3.074
10139SOL    HW131316   3.577   3.454   3.148
10139SOL    HW231317   3.449   3.480   3.049
10140SOL     OW31318   6.726   5.930   5.794
10140SOL    HW131319   6.791   5.860   5.765
10140SOL    HW231320   6.692   5.979   5.714
10141SOL     OW31321   2.706   1.100   3.805
10141SOL    HW131322   2.616   1.057   3.814
10141SOL    HW231323   2.695   1.196   3.779
10142SOL     OW31324   6.241   6.830   4.609
10142SOL    HW131325   6.160   6.798   4.560
10142SOL    HW231326   6.214   6.866   4.698
10143SOL     OW31327   4.532   0.574   0.551
10143SOL    HW131328   4.440   0.545   0.576
10143SOL    HW231329   4.574   0.622   0.628
10144SOL     OW31330   4.423   6.855   6.556
10144SOL    HW131331   4.365   6.780   6.523
10144SOL    HW231332   4.367   6.923   6.602
10145SOL     OW31333   3.972   5.742   6.267
10145SOL    HW131334   3.936   5.652   6.244
10145SOL    HW231335   3.966   5.802   6.187
10146SOL     OW31336   3.999   4.940   5.110
10146SOL    HW131337   3.905   4.912   5.089
10146SOL    HW231338   4.001   5.038   5.130
10147SOL     OW31339   5.011   4.715   4.745
10147SOL    HW131340   5.018   4.628   4.695
10147SOL    HW231341   4.933   4.767   4.710
10148SOL     OW31342   6.075   4.971   6.581
10148SOL    HW131343   6.086   5.047   6.645
10148SOL    HW231344   6.046   4.889   6.630
10149SOL     OW31345   5.646   1.626   1.253
10149SOL    HW131346   5.549   1.647   1.237
10149SOL    HW231347   5.670   1.649   1.348
10150SOL     OW31348   4.468   3.551   0.745
10150SOL    HW131349   4.505   3.599   0.666
10150SOL    HW231350   4.506   3.590   0.829
10151SOL     OW31351   0.750   6.480   6.760
10151SOL    HW131352   0.714   6.541   6.690
10151SOL    HW231353   0.686   6.404   6.775
10152SOL     OW31354   1.285   6.478   4.609
10152SOL    HW131355   1.231   6.529   4.676
10152SOL    HW231356   1.274   6.520   4.519
10153SOL     OW31357   5.013   5.904   4.139
10153SOL    HW131358   4.943   5.880   4.207
10153SOL    HW231359   5.099   5.922   4.186
10154SOL     OW31360   6.023   0.039   4.872
10154SOL    HW131361   5.946   6.997   4.892
10154SOL    HW231362   6.007   0.087   4.785
10155SOL     OW31363   4.010   2.199   5.644
10155SOL    HW131364   4.042   2.148   5.724
10155SOL    HW231365   3.911   2.191   5.636
10156SOL     OW31366   6.465   0.716   2.271
10156SOL    HW131367   6.542   0.657   2.296
10156SOL    HW231368   6.499   0.808   2.252
10157SOL     OW31369   6.193   3.067   6.259
10157SOL    HW131370   6.202   2.968   6.245
10157SOL    HW231371   6.269   3.099   6.316
10158SOL     OW31372   5.193   3.500   0.409
10158SOL    HW131373   5.225   3.468   0.320
10158SOL    HW231374   5.103   3.542   0.399
10159SOL     OW31375   2.853   3.632   6.210
10159SOL    HW131376   2.932   3.664   6.262
10159SOL    HW231377   2.881   3.561   6.146
10160SOL     OW31378   2.028   3.374   2.400
10160SOL    HW131379   1.970   3.455   2.412
10160SOL    HW231380   2.000   3.303   2.465
10161SOL     OW31381   3.489   3.521   6.785
10161SOL    HW131382   3.452   3.576   6.860
10161SOL    HW231383   3.520   3.582   6.712
10162SOL     OW31384   2.990   5.003   0.617
10162SOL    HW131385   2.939   4.997   0.702
10162SOL    HW231386   3.082   5.040   0.635
10163SOL     OW31387   5.335   5.421   6.532
10163SOL    HW131388   5.348   5.482   6.454
10163SOL    HW231389   5.245   5.378   6.525
10164SOL     OW31390   5.809   3.156   4.564
10164SOL    HW131391   5.759   3.098   4.629
10164SOL    HW231392   5.871   3.216   4.615
10165SOL     OW31393   0.492   1.382   3.534
10165SOL    HW131394   0.393   1.380   3.527
10165SOL    HW231395   0.521   1.327   3.614
10166SOL     OW31396   3.609   1.349   2.489
10166SOL    HW131397   3.631   1.419   2.422
10166SOL    HW231398   3.553   1.278   2.446
10167SOL     OW31399   3.330   2.338   6.254
10167SOL    HW131400   3.253   2.277   6.274
10167SOL    HW231401   3.334   2.354   6.155
10168SOL     OW31402   6.110   4.249   5.409
10168SOL    HW131403   6.115   4.348   5.395
10168SOL    HW231404   6.015   4.224   5.430
10169SOL     OW31405   6.133   3.978   3.251
10169SOL    HW131406   6.067   4.037   3.297
10169SOL    HW231407   6.084   3.912   3.194
10170SOL     OW31408   1.081   4.720   6.128
10170SOL    HW131409   1.157   4.671   6.170
10170SOL    HW231410   1.113   4.811   6.099
10171SOL     OW31411   6.497   3.316   5.493
10171SOL    HW131412   6.405   3.321   5.456
10171SOL    HW231413   6.495   3.270   5.582
10172SOL     OW31414   6.442   6.755   4.323
10172SOL    HW131415   6.411   6.798   4.409
10172SOL    HW231416   6.409   6.810   4.246
10173SOL     OW31417   1.117   2.760   1.301
10173SOL    HW131418   1.024   2.733   1.323
10173SOL    HW231419   1.133   2.854   1.334
10174SOL     OW31420   5.336   5.286   2.462
10174SOL    HW131421   5.253   5.240   2.431
10174SOL    HW231422   5.413   5.261   2.402
10175SOL     OW31423   6.443   2.629   3.738
10175SOL    HW131424   6.507   2.681   3.794
10175SOL    HW231425   6.493   2.580   3.666
10176SOL     OW31426   1.500   3.221   5.734
10176SOL    HW131427   1.513   3.137   5.682
10176SOL    HW231428   1.577   3.282   5.717
10177SOL     OW31429   1.927   1.384   0.220
10177SOL    HW131430   1.848   1.400   0.279
10177SOL    HW231431   1.940   1.286   0.206
10178SOL     OW31432   0.185   1.899   5.376
10178SOL    HW131433   0.099   1.945   5.399
10178SOL    HW231434   0.187   1.878   5.278
10179SOL     OW31435   0.842   1.939   5.963
10179SOL    HW131436   0.791   1.896   6.038
10179SOL    HW231437   0.934   1.901   5.958
10180SOL     OW31438   3.466   0.381   0.123
10180SOL    HW131439   3.524   0.405   0.045
10180SOL    HW231440   3.520   0.333   0.192
10181SOL     OW31441   5.211   3.062   2.161
10181SOL    HW131442   5.299   3.015   2.156
10181SOL    HW231443   5.154   3.035   2.083
10182SOL     OW31444   5.474   0.836   1.850
10182SOL    HW131445   5.559   0.888   1.837
10182SOL    HW231446   5.426   0.829   1.762
10183SOL     OW31447   0.178   2.204   6.612
10183SOL    HW131448   0.087   2.186   6.648
10183SOL    HW231449   0.243   2.213   6.688
10184SOL     OW31450   3.757   0.908   6.816
10184SOL    HW131451   3.846   0.945   6.842
10184SOL    HW231452   3.689   0.932   6.885
10185SOL     OW31453   5.422   5.769   1.746
10185SOL    HW131454   5.344   5.728   1.795
10185SOL    HW231455   5.471   5.697   1.697
10186SOL     OW31456   6.108   3.733   3.493
10186SOL    HW131457   6.173   3.718   3.567
10186SOL    HW231458   6.045   3.806   3.517
10187SOL     OW31459   1.044   2.709   1.028
10187SOL    HW131460   0.962   2.656   1.050
10187SOL    HW231461   1.072   2.762   1.108
10188SOL     OW31462   3.665   5.332   0.719
10188SOL    HW131463   3.609   5.263   0.674
10188SOL    HW231464   3.712   5.388   0.650
10189SOL     OW31465   1.303   0.444   6.153
10189SOL    HW131466   1.234   0.487   6.095
10189SOL    HW231467   1.285   0.346   6.160
10190SOL     OW31468   4.846   3.166   1.641
10190SOL    HW131469   4.799   3.091   1.688
10190SOL    HW231470   4.933   3.134   1.604
10191SOL     OW31471   5.184   5.079   5.901
10191SOL    HW131472   5.198   5.002   5.839
10191SOL    HW231473   5.261   5.085   5.965
10192SOL     OW31474   4.734   1.896   6.017
10192SOL    HW131475   4.710   1.837   6.094
10192SOL    HW231476   4.828   1.927   6.027
10193SOL     OW31477   4.047   3.630   1.791
10193SOL    HW131478   3.999   3.542   1.782
10193SOL    HW231479   4.085   3.637   1.883
10194SOL     OW31480   5.782   4.580   4.862
10194SOL    HW131481   5.876   4.555   4.883
10194SOL    HW231482   5.746   4.638   4.935
10195SOL     OW31483   6.210   5.001   1.190
10195SOL    HW131484   6.162   4.966   1.110
10195SOL    HW231485   6.293   4.947   1.206
10196SOL     OW31486   4.278   1.493   3.747
10196SOL    HW131487   4.211   1.564   3.723
10196SOL    HW231488   4.350   1.534   3.804
10197SOL     OW31489   6.642   2.404   5.160
10197SOL    HW131490   6.723   2.348   5.147
10197SOL    HW231491   6.572   2.352   5.209
10198SOL     OW31492   3.307   0.831   1.705
10198SOL    HW131493   3.381   0.767   1.687
10198SOL    HW231494   3.272   0.816   1.798
10199SOL     OW31495   2.556   2.817   6.132
10199SOL    HW131496   2.517   2.764   6.207
10199SOL    HW231497   2.536   2.771   6.045
10200SOL     OW31498   5.085   1.645   0.980
10200SOL    HW131499   5.036   1.643   1.067
10200SOL    HW231500   5.025   1.613   0.907
10201SOL     OW31501   1.399   4.252   0.681
10201SOL    HW131502   1.430   4.158   0.664
10201SOL    HW231503   1.330   4.276   0.612
10202SOL     OW31504   3.934   3.053   0.072
10202SOL    HW131505   3.875   3.093   0.143
10202SOL    HW231506   3.882   2.986   0.019
10203SOL     OW31507   6.330   3.233   3.732
10203SOL    HW131508   6.379   3.201   3.812
10203SOL    HW231509   6.353   3.329   3.715
10204SOL     OW31510   5.132   6.619   6.716
10204SOL    HW131511   5.225   6.598   6.687
10204SOL    HW231512   5.130   6.632   6.815
10205SOL     OW31513   1.913   1.062   1.113
10205SOL    HW131514   1.968   0.983   1.142
10205SOL    HW231515   1.816   1.037   1.115
10206SOL     OW31516   0.142   1.211   6.727
10206SOL    HW131517   0.186   1.123   6.743
10206SOL    HW231518   0.113   1.250   6.814
10207SOL     OW31519   1.390   1.829   6.798
10207SOL    HW131520   1.396   1.798   6.703
10207SOL    HW231521   1.422   1.923   6.804
10208SOL     OW31522   5.794   4.903   4.052
10208SOL    HW131523   5.763   4.842   4.125
10208SOL    HW231524   5.894   4.905   4.050
10209SOL     OW31525   6.461   6.813   5.956
10209SOL    HW131526   6.553   6.837   5.926
10209SOL    HW231527   6.468   6.755   6.038
10210SOL     OW31528   5.111   6.494   1.830
10210SOL    HW131529   5.060   6.438   1.895
10210SOL    HW231530   5.105   6.590   1.856
10211SOL     OW31531   3.900   6.294   4.292
10211SOL    HW131532   3.949   6.380   4.276
10211SOL    HW231533   3.924   6.229   4.220
10212SOL     OW31534   1.122   0.227   5.277
10212SOL    HW131535   1.151   0.152   5.337
10212SOL    HW231536   1.024   0.220   5.261
10213SOL     OW31537   4.607   2.846   1.418
10213SOL    HW131538   4.513   2.878   1.432
10213SOL    HW231539   4.653   2.836   1.506
10214SOL     OW31540   1.168   1.301   1.645
10214SOL    HW131541   1.179   1.343   1.735
10214SOL    HW231542   1.140   1.206   1.655
10215SOL     OW31543   3.837   3.115   3.680
10215SOL    HW131544   3.823   3.028   3.726
10215SOL    HW231545   3.817   3.190   3.743
10216SOL     OW31546   6.588   0.656   0.652
10216SOL    HW131547   6.622   0.565   0.628
10216SOL    HW231548   6.663   0.721   0.648
10217SOL     OW31549   2.945   1.489   3.024
10217SOL    HW131550   2.973   1.444   3.109
10217SOL    HW231551   2.961   1.428   2.947
10218SOL     OW31552   1.244   1.929   2.024
10218SOL    HW131553   1.270   1.848   1.972
10218SOL    HW231554   1.305   2.005   2.001
10219SOL     OW31555   0.033   1.946   2.622
10219SOL    HW131556   0.012   1.855   2.655
10219SOL    HW231557   6.985   2.012   2.658
10220SOL     OW31558   4.232   2.436   1.194
10220SOL    HW131559   4.148   2.486   1.214
10220SOL    HW231560   4.257   2.449   1.098
10221SOL     OW31561   0.508   5.615   3.141
10221SOL    HW131562   0.602   5.579   3.138
10221SOL    HW231563   0.468   5.596   3.231
10222SOL     OW31564   2.977   3.108   5.199
10222SOL    HW131565   2.882   3.123   5.227
10222SOL    HW231566   3.014   3.192   5.160
10223SOL     OW31567   0.631   4.314   1.328
10223SOL    HW131568   0.675   4.401   1.347
10223SOL    HW231569   0.578   4.321   1.243
10224SOL     OW31570   6.623   2.834   3.828
10224SOL    HW131571   6.598   2.834   3.925
10224SOL    HW231572   6.561   2.894   3.778
10225SOL     OW31573   2.040   4.715   5.891
10225SOL    HW131574   2.056   4.727   5.793
10225SOL    HW231575   2.028   4.804   5.934
10226SOL     OW31576   3.058   1.042   6.898
10226SOL    HW131577   3.141   1.094   6.916
10226SOL    HW231578   3.064   0.952   6.941
10227SOL     OW31579   4.939   4.073   0.219
10227SOL    HW131580   4.906   4.138   0.151
10227SOL    HW231581   5.034   4.095   0.242
10228SOL     OW31582   6.572   0.061   0.981
10228SOL    HW131583   6.557   0.104   1.070
10228SOL    HW231584   6.514   6.998   0.974
10229SOL     OW31585   1.120   2.638   4.883
10229SOL    HW131586   1.157   2.708   4.945
10229SOL    HW231587   1.044   2.591   4.928
10230SOL     OW31588   6.204   5.674   2.899
10230SOL    HW131589   6.203   5.741   2.972
10230SOL    HW231590   6.135   5.604   2.917
10231SOL     OW31591   1.238   5.503   4.924
10231SOL    HW131592   1.277   5.416   4.954
10231SOL    HW231593   1.139   5.497   4.923
10232SOL     OW31594   2.700   0.886   3.367
10232SOL    HW131595   2.621   0.841   3.325
10232SOL    HW231596   2.769   0.905   3.297
10233SOL     OW31597   3.967   3.949   4.959
10233SOL    HW131598   3.947   3.881   5.029
10233SOL    HW231599   4.021   3.906   4.886
10234SOL     OW31600   6.141   7.012   1.044
10234SOL    HW131601   6.097   0.005   0.955
10234SOL    HW231602   6.224   6.958   1.033
10235SOL     OW31603   1.870   1.978   1.996
10235SOL    HW131604   1.963   1.945   2.013
10235SOL    HW231605   1.809   1.900   1.983
10236SOL     OW31606   2.355   6.484   0.519
10236SOL    HW131607   2.429   6.432   0.562
10236SOL    HW231608   2.372   6.582   0.531
10237SOL     OW31609   6.673   3.455   0.282
10237SOL    HW131610   6.767   3.485   0.299
10237SOL    HW231611   6.610   3.526   0.314
10238SOL     OW31612   4.163   4.556   1.517
10238SOL    HW131613   4.188   4.495   1.592
10238SOL    HW231614   4.243   4.608   1.487
10239SOL     OW31615   1.212   2.796   5.075
10239SOL    HW131616   1.298   2.753   5.049
10239SOL    HW231617   1.221   2.895   5.073
10240SOL     OW31618   2.738   6.058   2.424
10240SOL    HW131619   2.746   5.966   2.464
10240SOL    HW231620   2.819   6.078   2.370
10241SOL     OW31621   5.326   1.153   2.080
10241SOL    HW131622   5.341   1.245   2.044
10241SOL    HW231623   5.355   1.149   2.175
10242SOL     OW31624   6.716   1.273   0.692
10242SOL    HW131625   6.732   1.280   0.594
10242SOL    HW231626   6.756   1.187   0.726
10243SOL     OW31627   2.638   4.436   1.490
10243SOL    HW131628   2.613   4.347   1.528
10243SOL    HW231629   2.566   4.502   1.509
10244SOL     OW31630   2.336   4.152   0.418
10244SOL    HW131631   2.292   4.221   0.361
10244SOL    HW231632   2.350   4.069   0.365
10245SOL     OW31633   3.587   4.326   1.112
10245SOL    HW131634   3.574   4.227   1.104
10245SOL    HW231635   3.675   4.351   1.070
10246SOL     OW31636   2.914   3.818   4.349
10246SOL    HW131637   2.929   3.864   4.437
10246SOL    HW231638   2.816   3.815   4.329
10247SOL     OW31639   0.570   4.077   6.399
10247SOL    HW131640   0.602   4.160   6.445
10247SOL    HW231641   0.470   4.077   6.398
10248SOL     OW31642   0.988   0.713   2.442
10248SOL    HW131643   0.917   0.780   2.419
10248SOL    HW231644   1.054   0.756   2.504
10249SOL     OW31645   2.565   4.978   0.035
10249SOL    HW131646   2.559   5.013   0.129
10249SOL    HW231647   2.616   4.892   0.034
10250SOL     OW31648   6.918   3.740   0.812
10250SOL    HW131649   6.954   3.825   0.849
10250SOL    HW231650   6.958   3.723   0.722
10251SOL     OW31651   2.071   1.206   4.287
10251SOL    HW131652   2.090   1.108   4.294
10251SOL    HW231653   2.080   1.235   4.192
10252SOL     OW31654   4.348   3.793   6.119
10252SOL    HW131655   4.385   3.710   6.078
10252SOL    HW231656   4.365   3.791   6.218
10253SOL     OW31657   3.289   6.390   0.734
10253SOL    HW131658   3.225   6.318   0.761
10253SOL    HW231659   3.248   6.448   0.664
10254SOL     OW31660   4.502   1.633   5.557
10254SOL    HW131661   4.430   1.575   5.520
10254SOL    HW231662   4.467   1.726   5.567
10255SOL     OW31663   2.271   6.921   0.791
10255SOL    HW131664   2.220   6.967   0.864
10255SOL    HW231665   2.302   6.832   0.823
10256SOL     OW31666   4.739   0.941   2.292
10256SOL    HW131667   4.726   1.004   2.215
10256SOL    HW231668   4.833   0.909   2.293
10257SOL     OW31669   1.854   5.119   4.287
10257SOL    HW131670   1.893   5.030   4.311
10257SOL    HW231671   1.876   5.140   4.191
10258SOL     OW31672   3.718   1.981   3.660
10258SOL    HW131673   3.725   1.994   3.759
10258SOL    HW231674   3.711   2.070   3.615
10259SOL     OW31675   0.847   4.167   3.327
10259SOL    HW131676   0.832   4.240   3.394
10259SOL    HW231677   0.799   4.085   3.357
10260SOL     OW31678   0.687   1.248   3.733
10260SOL    HW131679   0.764   1.215   3.677
10260SOL    HW231680   0.722   1.308   3.805
10261SOL     OW31681   6.623   4.710   0.257
10261SOL    HW131682   6.606   4.615   0.233
10261SOL    HW231683   6.563   4.736   0.333
10262SOL     OW31684   3.273   6.934   6.370
10262SOL    HW131685   3.206   6.861   6.377
10262SOL    HW231686   3.273   6.988   6.454
10263SOL     OW31687   5.806   0.486   0.523
10263SOL    HW131688   5.816   0.386   0.528
10263SOL    HW231689   5.829   0.517   0.431
10264SOL     OW31690   6.264   5.327   6.542
10264SOL    HW131691   6.330   5.387   6.587
10264SOL    HW231692   6.182   5.319   6.599
10265SOL     OW31693   3.348   2.406   0.016
10265SOL    HW131694   3.357   2.324   0.073
10265SOL    HW231695   3.307   2.480   0.070
10266SOL     OW31696   3.815   3.182   2.865
10266SOL    HW131697   3.738   3.118   2.867
10266SOL    HW231698   3.786   3.270   2.901
10267SOL     OW31699   5.250   1.165   0.875
10267SOL    HW131700   5.264   1.156   0.974
10267SOL    HW231701   5.321   1.224   0.837
10268SOL     OW31702   5.491   6.082   2.229
10268SOL    HW131703   5.575   6.134   2.213
10268SOL    HW231704   5.412   6.137   2.204
10269SOL     OW31705   1.448   2.576   6.279
10269SOL    HW131706   1.518   2.647   6.285
10269SOL    HW231707   1.492   2.487   6.270
10270SOL     OW31708   3.039   5.611   3.073
10270SOL    HW131709   3.090   5.603   3.158
10270SOL    HW231710   3.074   5.546   3.006
10271SOL     OW31711   2.770   3.243   0.044
10271SOL    HW131712   2.820   3.299   0.112
10271SOL    HW231713   2.770   3.291   6.975
10272SOL     OW31714   1.254   0.555   3.751
10272SOL    HW131715   1.340   0.530   3.706
10272SOL    HW231716   1.207   0.625   3.698
10273SOL     OW31717   2.839   5.116   4.318
10273SOL    HW131718   2.903   5.117   4.395
10273SOL    HW231719   2.804   5.023   4.305
10274SOL     OW31720   1.115   4.492   5.940
10274SOL    HW131721   1.118   4.592   5.946
10274SOL    HW231722   1.203   4.454   5.969
10275SOL     OW31723   0.008   0.545   1.969
10275SOL    HW131724   0.077   0.474   1.984
10275SOL    HW231725   6.962   0.547   2.045
10276SOL     OW31726   4.374   5.846   6.056
10276SOL    HW131727   4.443   5.807   6.116
10276SOL    HW231728   4.330   5.772   6.004
10277SOL     OW31729   1.187   6.786   4.737
10277SOL    HW131730   1.205   6.878   4.773
10277SOL    HW231731   1.135   6.794   4.652
10278SOL     OW31732   0.927   0.728   3.900
10278SOL    HW131733   0.965   0.645   3.941
10278SOL    HW231734   0.855   0.765   3.958
10279SOL     OW31735   2.460   5.345   4.118
10279SOL    HW131736   2.502   5.303   4.198
10279SOL    HW231737   2.528   5.351   4.044
10280SOL     OW31738   5.630   3.496   0.055
10280SOL    HW131739   5.539   3.482   0.015
10280SOL    HW231740   5.675   3.572   0.009
10281SOL     OW31741   6.830   2.138   3.780
10281SOL    HW131742   6.920   2.177   3.800
10281SOL    HW231743   6.840   2.062   3.716
10282SOL     OW31744   5.490   3.182   3.869
10282SOL    HW131745   5.418   3.214   3.807
10282SOL    HW231746   5.579   3.215   3.838
10283SOL     OW31747   1.385   2.790   1.023
10283SOL    HW131748   1.456   2.752   1.082
10283SOL    HW231749   1.330   2.855   1.076
10284SOL     OW31750   6.060   1.703   4.828
10284SOL    HW131751   6.058   1.751   4.740
10284SOL    HW231752   6.110   1.617   4.817
10285SOL     OW31753   4.041   6.589   3.050
10285SOL    HW131754   3.984   6.531   2.992
10285SOL    HW231755   4.104   6.533   3.104
10286SOL     OW31756   3.020   0.173   4.030
10286SOL    HW131757   3.104   0.225   4.045
10286SOL    HW231758   3.007   0.157   3.932
10287SOL     OW31759   2.120   5.668   2.309
10287SOL    HW131760   2.088   5.722   2.386
10287SOL    HW231761   2.220   5.666   2.309
10288SOL     OW31762   4.043   6.991   4.247
10288SOL    HW131763   4.088   6.950   4.167
10288SOL    HW231764   4.017   0.067   4.226
10289SOL     OW31765   2.776   6.143   0.575
10289SOL    HW131766   2.777   6.043   0.564
10289SOL    HW231767   2.682   6.175   0.578
10290SOL     OW31768   3.326   2.852   2.807
10290SOL    HW131769   3.338   2.866   2.709
10290SOL    HW231770   3.334   2.754   2.828
10291SOL     OW31771   3.783   1.803   3.226
10291SOL    HW131772   3.814   1.891   3.263
10291SOL    HW231773   3.796   1.802   3.127
10292SOL     OW31774   0.684   1.520   5.705
10292SOL    HW131775   0.775   1.542   5.671
10292SOL    HW231776   0.685   1.521   5.805
10293SOL     OW31777   0.558   3.143   3.739
10293SOL    HW131778   0.642   3.197   3.739
10293SOL    HW231779   0.484   3.196   3.781
10294SOL     OW31780   4.637   1.472   2.819
10294SOL    HW131781   4.679   1.561   2.835
10294SOL    HW231782   4.569   1.454   2.890
10295SOL     OW31783   1.207   3.211   5.373
10295SOL    HW131784   1.281   3.277   5.365
10295SOL    HW231785   1.241   3.129   5.418
10296SOL     OW31786   5.601   1.840   5.730
10296SOL    HW131787   5.698   1.833   5.754
10296SOL    HW231788   5.581   1.933   5.699
10297SOL     OW31789   2.424   1.285   6.724
10297SOL    HW131790   2.524   1.292   6.729
10297SOL    HW231791   2.385   1.375   6.706
10298SOL     OW31792   1.537   4.661   1.298
10298SOL    HW131793   1.525   4.754   1.331
10298SOL    HW231794   1.618   4.620   1.341
10299SOL     OW31795   3.865   5.867   2.891
10299SOL    HW131796   3.765   5.861   2.890
10299SOL    HW231797   3.903   5.778   2.915
10300SOL     OW31798   1.531   4.419   1.723
10300SOL    HW131799   1.542   4.445   1.819
10300SOL    HW231800   1.614   4.374   1.691
10301SOL     OW31801   4.478   2.129   5.463
10301SOL    HW131802   4.430   2.194   5.521
10301SOL    HW231803   4.454   2.036   5.491
10302SOL     OW31804   1.977   6.144   4.634
10302SOL    HW131805   2.011   6.070   4.575
10302SOL    HW231806   2.054   6.200   4.663
10303SOL     OW31807   0.921   5.510   3.468
10303SOL    HW131808   0.895   5.469   3.555
10303SOL    HW231809   0.976   5.445   3.415
10304SOL     OW31810   5.615   0.295   0.939
10304SOL    HW131811   5.687   0.301   1.009
10304SOL    HW231812   5.531   0.260   0.981
10305SOL     OW31813   2.038   4.402   5.861
10305SOL    HW131814   2.020   4.373   5.767
10305SOL    HW231815   2.054   4.500   5.863
10306SOL     OW31816   5.758   5.916   0.372
10306SOL    HW131817   5.708   6.000   0.392
10306SOL    HW231818   5.841   5.938   0.320
10307SOL     OW31819   2.872   1.780   4.697
10307SOL    HW131820   2.948   1.729   4.657
10307SOL    HW231821   2.897   1.876   4.706
10308SOL     OW31822   1.545   4.003   1.776
10308SOL    HW131823   1.585   3.925   1.824
10308SOL    HW231824   1.553   3.990   1.677
10309SOL     OW31825   6.650   1.596   6.771
10309SOL    HW131826   6.637   1.497   6.778
10309SOL    HW231827   6.649   1.637   6.862
10310SOL     OW31828   2.962   4.158   0.530
10310SOL    HW131829   3.005   4.248   0.527
10310SOL    HW231830   2.936   4.136   0.624
10311SOL     OW31831   6.545   5.974   0.269
10311SOL    HW131832   6.643   5.956   0.260
10311SOL    HW231833   6.501   5.967   0.180
10312SOL     OW31834   4.835   6.464   2.328
10312SOL    HW131835   4.898   6.490   2.401
10312SOL    HW231836   4.742   6.491   2.353
10313SOL     OW31837   3.564   5.829   2.187
10313SOL    HW131838   3.474   5.874   2.176
10313SOL    HW231839   3.568   5.783   2.275
10314SOL     OW31840   6.579   0.061   0.318
10314SOL    HW131841   6.550   0.151   0.352
10314SOL    HW231842   6.534   7.008   0.372
10315SOL     OW31843   5.873   6.338   4.504
10315SOL    HW131844   5.779   6.320   4.474
10315SOL    HW231845   5.937   6.285   4.449
10316SOL     OW31846   6.672   3.009   6.129
10316SOL    HW131847   6.755   2.970   6.091
10316SOL    HW231848   6.695   3.078   6.198
10317SOL     OW31849   4.064   6.326   6.360
10317SOL    HW131850   4.011   6.245   6.337
10317SOL    HW231851   4.143   6.333   6.300
10318SOL     OW31852   4.760   0.999   6.315
10318SOL    HW131853   4.820   0.983   6.394
10318SOL    HW231854   4.770   1.094   6.285
10319SOL     OW31855   0.866   3.795   5.493
10319SOL    HW131856   0.798   3.868   5.503
10319SOL    HW231857   0.833   3.712   5.538
10320SOL     OW31858   0.672   6.214   2.950
10320SOL    HW131859   0.662   6.130   2.897
10320SOL    HW231860   0.719   6.283   2.894
10321SOL     OW31861   6.017   1.796   1.709
10321SOL    HW131862   5.954   1.758   1.777
10321SOL    HW231863   5.969   1.810   1.623
10322SOL     OW31864   4.384   4.770   4.379
10322SOL    HW131865   4.451   4.778   4.306
10322SOL    HW231866   4.293   4.792   4.344
10323SOL     OW31867   5.774   4.941   5.192
10323SOL    HW131868   5.781   4.963   5.290
10323SOL    HW231869   5.765   5.025   5.139
10324SOL     OW31870   3.870   2.948   2.289
10324SOL    HW131871   3.882   2.934   2.387
10324SOL    HW231872   3.899   3.041   2.266
10325SOL     OW31873   6.848   4.236   2.181
10325SOL    HW131874   6.781   4.195   2.243
10325SOL    HW231875   6.840   4.194   2.090
10326SOL     OW31876   5.822   4.216   6.421
10326SOL    HW131877   5.913   4.255   6.402
10326SOL    HW231878   5.768   4.216   6.336
10327SOL     OW31879   2.406   2.810   1.485
10327SOL    HW131880   2.422   2.850   1.395
10327SOL    HW231881   2.379   2.883   1.549
10328SOL     OW31882   6.372   3.070   0.350
10328SOL    HW131883   6.316   3.017   0.287
10328SOL    HW231884   6.416   3.009   0.416
10329SOL     OW31885   2.305   0.735   3.549
10329SOL    HW131886   2.287   0.776   3.460
10329SOL    HW231887   2.397   0.762   3.579
10330SOL     OW31888   4.221   1.319   2.045
10330SOL    HW131889   4.177   1.281   2.126
10330SOL    HW231890   4.273   1.400   2.070
10331SOL     OW31891   6.597   6.357   5.970
10331SOL    HW131892   6.669   6.290   5.985
10331SOL    HW231893   6.622   6.415   5.892
10332SOL     OW31894   6.849   0.088   0.295
10332SOL    HW131895   6.749   0.080   0.299
10332SOL    HW231896   6.886   0.012   0.241
10333SOL     OW31897   0.958   4.865   4.803
10333SOL    HW131898   1.004   4.951   4.825
10333SOL    HW231899   0.860   4.875   4.816
10334SOL     OW31900   3.346   0.930   4.437
10334SOL    HW131901   3.383   1.004   4.493
10334SOL    HW231902   3.260   0.898   4.477
10335SOL     OW31903   1.702   3.986   6.952
10335SOL    HW131904   1.711   3.887   6.943
10335SOL    HW231905   1.718   4.013   0.028
10336SOL     OW31906   5.997   0.255   2.085
10336SOL    HW131907   5.916   0.257   2.026
10336SOL    HW231908   6.069   0.310   2.044
10337SOL     OW31909   0.654   6.055   6.285
10337SOL    HW131910   0.728   5.989   6.297
10337SOL    HW231911   0.677   6.117   6.209
10338SOL     OW31912   1.853   6.426   2.294
10338SOL    HW131913   1.784   6.374   2.344
10338SOL    HW231914   1.814   6.462   2.209
10339SOL     OW31915   5.743   3.661   6.272
10339SOL    HW131916   5.671   3.592   6.275
10339SOL    HW231917   5.807   3.646   6.348
10340SOL     OW31918   1.573   3.581   0.017
10340SOL    HW131919   1.531   3.512   6.976
10340SOL    HW231920   1.622   3.535   0.091
10341SOL     OW31921   2.062   3.617   2.170
10341SOL    HW131922   2.122   3.555   2.119
10341SOL    HW231923   2.101   3.635   2.260
10342SOL     OW31924   2.227   0.064   4.365
10342SOL    HW131925   2.317   0.105   4.350
10342SOL    HW231926   2.232   0.000   4.442
10343SOL     OW31927   3.073   4.935   6.975
10343SOL    HW131928   3.112   5.018   6.936
10343SOL    HW231929   2.986   4.915   6.929
10344SOL     OW31930   4.054   3.465   0.532
10344SOL    HW131931   4.046   3.563   0.513
10344SOL    HW231932   4.085   3.451   0.626
10345SOL     OW31933   1.563   2.339   6.269
10345SOL    HW131934   1.548   2.314   6.174
10345SOL    HW231935   1.559   2.258   6.327
10346SOL     OW31936   0.282   5.362   1.307
10346SOL    HW131937   0.355   5.400   1.250
10346SOL    HW231938   0.242   5.435   1.363
10347SOL     OW31939   3.978   1.258   3.338
10347SOL    HW131940   3.989   1.177   3.281
10347SOL    HW231941   4.031   1.333   3.299
10348SOL     OW31942   6.441   2.596   0.389
10348SOL    HW131943   6.432   2.555   0.298
10348SOL    HW231944   6.538   2.610   0.409
10349SOL     OW31945   1.459   0.948   0.042
10349SOL    HW131946   1.546   0.900   0.046
10349SOL    HW231947   1.399   0.915   0.116
10350SOL     OW31948   2.962   5.418   5.149
10350SOL    HW131949   2.977   5.434   5.247
10350SOL    HW231950   3.039   5.453   5.097
10351SOL     OW31951   4.522   5.047   0.050
10351SOL    HW131952   4.547   5.044   6.972
10351SOL    HW231953   4.493   4.956   0.080
10352SOL     OW31954   3.553   0.914   6.404
10352SOL    HW131955   3.498   0.873   6.477
10352SOL    HW231956   3.558   0.850   6.327
10353SOL     OW31957   6.689   3.037   5.040
10353SOL    HW131958   6.648   3.125   5.016
10353SOL    HW231959   6.625   2.963   5.017
10354SOL     OW31960   6.022   2.028   2.353
10354SOL    HW131961   6.044   2.112   2.403
10354SOL    HW231962   5.979   1.962   2.415
10355SOL     OW31963   2.602   6.677   1.697
10355SOL    HW131964   2.661   6.672   1.616
10355SOL    HW231965   2.648   6.631   1.773
10356SOL     OW31966   0.195   5.193   5.213
10356SOL    HW131967   0.137   5.274   5.202
10356SOL    HW231968   0.291   5.219   5.204
10357SOL     OW31969   1.901   2.785   6.428
10357SOL    HW131970   1.953   2.855   6.477
10357SOL    HW231971   1.881   2.818   6.335
10358SOL     OW31972   0.371   2.454   3.378
10358SOL    HW131973   0.423   2.440   3.294
10358SOL    HW231974   0.390   2.380   3.442
10359SOL     OW31975   1.050   1.773   0.769
10359SOL    HW131976   1.046   1.697   0.834
10359SOL    HW231977   1.144   1.781   0.735
10360SOL     OW31978   4.774   5.128   3.293
10360SOL    HW131979   4.827   5.045   3.275
10360SOL    HW231980   4.696   5.105   3.352
10361SOL     OW31981   2.487   6.470   2.612
10361SOL    HW131982   2.576   6.453   2.570
10361SOL    HW231983   2.488   6.435   2.706
10362SOL     OW31984   1.638   4.888   4.998
10362SOL    HW131985   1.728   4.855   5.027
10362SOL    HW231986   1.649   4.956   4.926
10363SOL     OW31987   4.919   0.711   2.847
10363SOL    HW131988   4.932   0.725   2.749
10363SOL    HW231989   4.947   0.794   2.896
10364SOL     OW31990   2.997   3.394   1.630
10364SOL    HW131991   2.943   3.413   1.712
10364SOL    HW231992   3.066   3.465   1.618
10365SOL     OW31993   3.841   5.119   0.036
10365SOL    HW131994   3.853   5.027   0.000
10365SOL    HW231995   3.869   5.121   0.132
10366SOL     OW31996   2.520   0.326   4.052
10366SOL    HW131997   2.545   0.248   3.995
10366SOL    HW231998   2.458   0.297   4.124
10367SOL     OW31999   5.797   2.707   2.464
10367SOL    HW132000   5.844   2.634   2.513
10367SOL    HW232001   5.864   2.775   2.435
10368SOL     OW32002   2.489   1.514   0.975
10368SOL    HW132003   2.472   1.460   0.893
10368SOL    HW232004   2.567   1.475   1.025
10369SOL     OW32005   4.183   1.162   6.671
10369SOL    HW132006   4.214   1.174   6.577
10369SOL    HW232007   4.115   1.232   6.693
10370SOL     OW32008   4.875   1.659   4.878
10370SOL    HW132009   4.940   1.644   4.803
10370SOL    HW232010   4.837   1.751   4.871
10371SOL     OW32011   3.741   5.676   5.149
10371SOL    HW132012   3.810   5.744   5.173
10371SOL    HW232013   3.661   5.688   5.208
10372SOL     OW32014   1.907   1.156   5.447
10372SOL    HW132015   1.959   1.076   5.479
10372SOL    HW232016   1.965   1.237   5.449
10373SOL     OW32017   1.915   6.543   5.025
10373SOL    HW132018   1.873   6.472   4.969
10373SOL    HW232019   1.914   6.630   4.974
10374SOL     OW32020   3.411   1.661   3.029
10374SOL    HW132021   3.392   1.689   3.123
10374SOL    HW232022   3.416   1.742   2.971
10375SOL     OW32023   4.747   1.907   6.839
10375SOL    HW132024   4.763   1.996   6.882
10375SOL    HW232025   4.736   1.837   6.910
10376SOL     OW32026   1.137   6.660   3.865
10376SOL    HW132027   1.135   6.595   3.941
10376SOL    HW232028   1.219   6.646   3.810
10377SOL     OW32029   6.348   0.845   3.653
10377SOL    HW132030   6.363   0.823   3.750
10377SOL    HW232031   6.404   0.925   3.629
10378SOL     OW32032   6.827   0.823   5.500
10378SOL    HW132033   6.730   0.840   5.514
10378SOL    HW232034   6.877   0.910   5.498
10379SOL     OW32035   4.665   0.528   4.844
10379SOL    HW132036   4.760   0.558   4.846
10379SOL    HW232037   4.661   0.429   4.859
10380SOL     OW32038   5.627   0.565   2.831
10380SOL    HW132039   5.701   0.515   2.787
10380SOL    HW232040   5.653   0.586   2.926
10381SOL     OW32041   5.062   5.993   6.019
10381SOL    HW132042   5.105   5.935   5.950
10381SOL    HW232043   4.983   5.946   6.059
10382SOL     OW32044   2.449   4.909   6.334
10382SOL    HW132045   2.420   4.938   6.243
10382SOL    HW232046   2.507   4.828   6.327
10383SOL     OW32047   0.768   3.431   0.890
10383SOL    HW132048   0.695   3.476   0.839
10383SOL    HW232049   0.798   3.349   0.841
10384SOL     OW32050   0.148   6.960   0.532
10384SOL    HW132051   0.086   6.907   0.590
10384SOL    HW232052   0.102   0.025   0.501
10385SOL     OW32053   4.977   6.946   6.068
10385SOL    HW132054   5.028   6.879   6.014
10385SOL    HW232055   5.036   0.003   6.094
10386SOL     OW32056   6.757   3.689   5.210
10386SOL    HW132057   6.695   3.760   5.179
10386SOL    HW232058   6.704   3.611   5.244
10387SOL     OW32059   2.833   1.970   2.699
10387SOL    HW132060   2.742   1.996   2.730
10387SOL    HW232061   2.866   2.037   2.633
10388SOL     OW32062   1.335   5.637   4.155
10388SOL    HW132063   1.348   5.603   4.062
10388SOL    HW232064   1.393   5.584   4.218
10389SOL     OW32065   0.413   5.119   2.558
10389SOL    HW132066   0.502   5.164   2.552
10389SOL    HW232067   0.413   5.054   2.633
10390SOL     OW32068   1.358   3.684   2.732
10390SOL    HW132069   1.330   3.767   2.684
10390SOL    HW232070   1.453   3.663   2.711
10391SOL     OW32071   1.380   5.951   6.608
10391SOL    HW132072   1.283   5.967   6.591
10391SOL    HW232073   1.420   5.904   6.529
10392SOL     OW32074   6.631   4.016   0.644
10392SOL    HW132075   6.700   3.985   0.579
10392SOL    HW232076   6.554   4.057   0.594
10393SOL     OW32077   0.779   1.449   3.913
10393SOL    HW132078   0.856   1.487   3.862
10393SOL    HW232079   0.769   1.499   3.999
10394SOL     OW32080   2.391   6.942   6.628
10394SOL    HW132081   2.343   6.949   6.716
10394SOL    HW232082   2.347   6.873   6.572
10395SOL     OW32083   6.805   0.882   4.104
10395SOL    HW132084   6.756   0.798   4.081
10395SOL    HW232085   6.748   0.939   4.162
10396SOL     OW32086   1.367   0.688   3.310
10396SOL    HW132087   1.272   0.672   3.282
10396SOL    HW232088   1.414   0.601   3.321
10397SOL     OW32089   3.534   0.929   3.285
10397SOL    HW132090   3.474   0.944   3.207
10397SOL    HW232091   3.486   0.955   3.369
10398SOL     OW32092   6.478   2.872   0.511
10398SOL    HW132093   6.531   2.847   0.593
10398SOL    HW232094   6.436   2.790   0.473
10399SOL     OW32095   4.640   2.188   5.798
10399SOL    HW132096   4.541   2.198   5.810
10399SOL    HW232097   4.660   2.095   5.767
10400SOL     OW32098   2.472   5.783   2.801
10400SOL    HW132099   2.424   5.808   2.885
10400SOL    HW232100   2.565   5.820   2.803
10401SOL     OW32101   6.611   5.984   2.226
10401SOL    HW132102   6.704   5.963   2.254
10401SOL    HW232103   6.606   5.984   2.126
10402SOL     OW32104   0.230   2.786   5.469
10402SOL    HW132105   0.287   2.708   5.443
10402SOL    HW232106   0.254   2.814   5.563
10403SOL     OW32107   5.428   1.479   2.470
10403SOL    HW132108   5.503   1.520   2.520
10403SOL    HW232109   5.381   1.412   2.529
10404SOL     OW32110   0.771   6.718   4.257
10404SOL    HW132111   0.824   6.802   4.244
10404SOL    HW232112   0.832   6.645   4.286
10405SOL     OW32113   1.162   5.652   5.161
10405SOL    HW132114   1.212   5.726   5.206
10405SOL    HW232115   1.208   5.628   5.075
10406SOL     OW32116   1.909   4.672   5.608
10406SOL    HW132117   1.844   4.739   5.572
10406SOL    HW232118   1.952   4.623   5.532
10407SOL     OW32119   1.249   1.100   5.961
10407SOL    HW132120   1.316   1.034   5.994
10407SOL    HW232121   1.296   1.182   5.927
10408SOL     OW32122   4.535   5.010   3.037
10408SOL    HW132123   4.495   5.086   3.087
10408SOL    HW232124   4.617   5.040   2.989
10409SOL     OW32125   6.991   3.767   1.778
10409SOL    HW132126   0.051   3.708   1.760
10409SOL    HW232127   6.954   3.748   1.869
10410SOL     OW32128   4.698   1.109   1.285
10410SOL    HW132129   4.773   1.143   1.343
10410SOL    HW232130   4.729   1.108   1.189
10411SOL     OW32131   2.030   4.907   3.291
10411SOL    HW132132   1.970   4.905   3.211
10411SOL    HW232133   2.125   4.905   3.260
10412SOL     OW32134   0.813   2.414   6.687
10412SOL    HW132135   0.726   2.405   6.734
10412SOL    HW232136   0.875   2.342   6.717
10413SOL     OW32137   0.555   1.654   0.205
10413SOL    HW132138   0.602   1.698   0.281
10413SOL    HW232139   0.460   1.684   0.203
10414SOL     OW32140   4.853   6.363   6.758
10414SOL    HW132141   4.777   6.341   6.819
10414SOL    HW232142   4.874   6.461   6.764
10415SOL     OW32143   0.417   5.166   3.298
10415SOL    HW132144   0.428   5.086   3.239
10415SOL    HW232145   0.504   5.213   3.307
10416SOL     OW32146   6.386   2.569   5.564
10416SOL    HW132147   6.302   2.572   5.509
10416SOL    HW232148   6.446   2.644   5.537
10417SOL     OW32149   3.895   5.301   2.715
10417SOL    HW132150   3.849   5.242   2.782
10417SOL    HW232151   3.973   5.253   2.677
10418SOL     OW32152   6.920   4.047   5.688
10418SOL    HW132153   6.872   4.133   5.704
10418SOL    HW232154   6.881   3.976   5.748
10419SOL     OW32155   3.564   0.761   5.272
10419SOL    HW132156   3.522   0.851   5.284
10419SOL    HW232157   3.638   0.769   5.204
10420SOL     OW32158   6.520   3.255   2.972
10420SOL    HW132159   6.591   3.320   2.945
10420SOL    HW232160   6.559   3.189   3.037
10421SOL     OW32161   0.830   4.535   3.203
10421SOL    HW132162   0.883   4.467   3.153
10421SOL    HW232163   0.733   4.511   3.200
10422SOL     OW32164   6.997   3.597   4.804
10422SOL    HW132165   6.903   3.564   4.813
10422SOL    HW232166   0.008   3.637   4.891
10423SOL     OW32167   3.543   5.207   4.232
10423SOL    HW132168   3.487   5.258   4.298
10423SOL    HW232169   3.545   5.256   4.145
10424SOL     OW32170   4.021   0.989   6.848
10424SOL    HW132171   4.075   1.065   6.811
10424SOL    HW232172   4.077   0.937   6.914
10425SOL     OW32173   2.129   0.356   1.002
10425SOL    HW132174   2.038   0.363   1.042
10425SOL    HW232175   2.197   0.381   1.071
10426SOL     OW32176   5.012   2.890   5.572
10426SOL    HW132177   5.050   2.975   5.536
10426SOL    HW232178   4.963   2.842   5.500
10427SOL     OW32179   4.987   6.016   5.038
10427SOL    HW132180   5.062   5.960   5.075
10427SOL    HW232181   4.911   6.017   5.104
10428SOL     OW32182   1.546   1.603   3.422
10428SOL    HW132183   1.616   1.610   3.493
10428SOL    HW232184   1.506   1.694   3.406
10429SOL     OW32185   1.048   3.382   2.535
10429SOL    HW132186   1.071   3.470   2.492
10429SOL    HW232187   1.068   3.387   2.633
10430SOL     OW32188   3.862   6.937   3.743
10430SOL    HW132189   3.957   6.922   3.717
10430SOL    HW232190   3.832   0.008   3.709
10431SOL     OW32191   2.941   2.242   3.847
10431SOL    HW132192   3.028   2.255   3.801
10431SOL    HW232193   2.869   2.226   3.779
10432SOL     OW32194   6.723   6.918   5.902
10432SOL    HW132195   6.782   6.971   5.841
10432SOL    HW232196   6.736   6.949   5.996
10433SOL     OW32197   2.130   6.712   1.658
10433SOL    HW132198   2.098   6.765   1.737
10433SOL    HW232199   2.082   6.624   1.657
10434SOL     OW32200   4.997   0.200   5.922
10434SOL    HW132201   5.005   0.282   5.980
10434SOL    HW232202   5.050   0.126   5.963
10435SOL     OW32203   0.809   2.129   6.317
10435SOL    HW132204   0.816   2.103   6.413
10435SOL    HW232205   0.756   2.214   6.309
10436SOL     OW32206   0.839   4.178   5.112
10436SOL    HW132207   0.776   4.139   5.045
10436SOL    HW232208   0.932   4.176   5.077
10437SOL     OW32209   5.562   4.894   5.449
10437SOL    HW132210   5.564   4.899   5.549
10437SOL    HW232211   5.528   4.804   5.421
10438SOL     OW32212   6.859   6.139   6.251
10438SOL    HW132213   6.949   6.181   6.241
10438SOL    HW232214   6.818   6.166   6.338
10439SOL     OW32215   0.331   0.036   4.631
10439SOL    HW132216   0.290   7.010   4.551
10439SOL    HW232217   0.259   0.064   4.695
10440SOL     OW32218   0.127   1.857   6.546
10440SOL    HW132219   0.188   1.916   6.599
10440SOL    HW232220   0.108   1.900   6.458
10441SOL     OW32221   3.667   1.792   0.692
10441SOL    HW132222   3.761   1.778   0.723
10441SOL    HW232223   3.619   1.705   0.689
10442SOL     OW32224   2.891   1.471   5.339
10442SOL    HW132225   2.951   1.432   5.409
10442SOL    HW232226   2.945   1.496   5.259
10443SOL     OW32227   6.556   1.127   3.307
10443SOL    HW132228   6.513   1.107   3.219
10443SOL    HW232229   6.510   1.206   3.349
10444SOL     OW32230   3.778   5.854   3.887
10444SOL    HW132231   3.782   5.790   3.964
10444SOL    HW232232   3.870   5.872   3.853
10445SOL     OW32233   1.502   4.131   2.578
10445SOL    HW132234   1.585   4.109   2.628
10445SOL    HW232235   1.487   4.064   2.505
10446SOL     OW32236   2.039   4.413   4.881
10446SOL    HW132237   1.970   4.372   4.940
10446SOL    HW232238   1.997   4.484   4.824
10447SOL     OW32239   6.891   1.738   2.778
10447SOL    HW132240   6.810   1.749   2.835
10447SOL    HW232241   6.889   1.650   2.732
10448SOL     OW32242   2.222   6.610   2.948
10448SOL    HW132243   2.177   6.697   2.968
10448SOL    HW232244   2.321   6.621   2.956
10449SOL     OW32245   3.518   5.817   6.603
10449SOL    HW132246   3.601   5.824   6.548
10449SOL    HW232247   3.477   5.907   6.614
10450SOL     OW32248   5.980   0.198   5.603
10450SOL    HW132249   5.954   0.240   5.689
10450SOL    HW232250   5.946   0.253   5.527
10451SOL     OW32251   1.905   0.348   4.245
10451SOL    HW132252   1.865   0.428   4.203
10451SOL    HW232253   1.999   0.336   4.212
10452SOL     OW32254   0.085   3.749   4.013
10452SOL    HW132255   0.004   3.746   3.956
10452SOL    HW232256   0.119   3.656   4.027
10453SOL     OW32257   4.153   5.813   3.562
10453SOL    HW132258   4.102   5.758   3.495
10453SOL    HW232259   4.201   5.886   3.515
10454SOL     OW32260   6.751   1.536   6.073
10454SOL    HW132261   6.706   1.598   6.009
10454SOL    HW232262   6.850   1.537   6.056
10455SOL     OW32263   6.228   6.580   4.398
10455SOL    HW132264   6.317   6.625   4.403
10455SOL    HW232265   6.229   6.511   4.325
10456SOL     OW32266   6.960   5.705   0.009
10456SOL    HW132267   0.000   5.634   6.988
10456SOL    HW232268   6.995   5.795   7.003
10457SOL     OW32269   4.049   2.592   0.177
10457SOL    HW132270   3.962   2.640   0.177
10457SOL    HW232271   4.121   2.651   0.214
10458SOL     OW32272   6.568   6.641   6.133
10458SOL    HW132273   6.664   6.618   6.117
10458SOL    HW232274   6.551   6.648   6.232
10459SOL     OW32275   0.216   5.621   0.581
10459SOL    HW132276   0.251   5.560   0.510
10459SOL    HW232277   0.117   5.632   0.571
10460SOL     OW32278   0.044   3.980   0.915
10460SOL    HW132279   0.046   3.988   1.015
10460SOL    HW232280   0.107   4.047   0.876
10461SOL     OW32281   0.034   4.819   5.277
10461SOL    HW132282   0.117   4.763   5.269
10461SOL    HW232283   6.974   4.760   5.296
10462SOL     OW32284   4.679   1.613   1.385
10462SOL    HW132285   4.616   1.588   1.311
10462SOL    HW232286   4.628   1.630   1.469
10463SOL     OW32287   4.550   2.825   6.259
10463SOL    HW132288   4.494   2.794   6.182
10463SOL    HW232289   4.526   2.919   6.283
10464SOL     OW32290   5.424   5.490   2.933
10464SOL    HW132291   5.385   5.455   3.018
10464SOL    HW232292   5.369   5.567   2.901
10465SOL     OW32293   5.610   3.457   2.076
10465SOL    HW132294   5.571   3.367   2.097
10465SOL    HW232295   5.612   3.470   1.976
10466SOL     OW32296   5.489   5.073   6.400
10466SOL    HW132297   5.510   5.126   6.482
10466SOL    HW232298   5.412   5.012   6.419
10467SOL     OW32299   2.119   2.828   6.867
10467SOL    HW132300   2.167   2.915   6.873
10467SOL    HW232301   2.155   2.776   6.790
10468SOL     OW32302   2.486   4.499   3.700
10468SOL    HW132303   2.398   4.462   3.669
10468SOL    HW232304   2.486   4.505   3.800
10469SOL     OW32305   5.778   2.246   5.301
10469SOL    HW132306   5.843   2.234   5.377
10469SOL    HW232307   5.756   2.157   5.262
10470SOL     OW32308   2.205   2.393   4.010
10470SOL    HW132309   2.270   2.317   4.004
10470SOL    HW232310   2.130   2.378   3.946
10471SOL     OW32311   2.772   0.826   0.491
10471SOL    HW132312   2.788   0.735   0.528
10471SOL    HW232313   2.677   0.833   0.460
10472SOL     OW32314   3.776   5.119   0.401
10472SOL    HW132315   3.799   5.065   0.482
10472SOL    HW232316   3.859   5.142   0.351
10473SOL     OW32317   5.590   5.741   6.457
10473SOL    HW132318   5.642   5.689   6.390
10473SOL    HW232319   5.492   5.736   6.435
10474SOL     OW32320   5.286   0.945   3.823
10474SOL    HW132321   5.299   0.899   3.735
10474SOL    HW232322   5.320   0.886   3.897
10475SOL     OW32323   1.872   6.139   1.949
10475SOL    HW132324   1.818   6.194   1.885
10475SOL    HW232325   1.966   6.134   1.916
10476SOL     OW32326   4.054   6.135   0.151
10476SOL    HW132327   4.064   6.172   0.243
10476SOL    HW232328   3.958   6.115   0.134
10477SOL     OW32329   6.800   6.399   3.817
10477SOL    HW132330   6.708   6.385   3.853
10477SOL    HW232331   6.866   6.348   3.872
10478SOL     OW32332   5.768   6.819   0.384
10478SOL    HW132333   5.674   6.832   0.353
10478SOL    HW232334   5.788   6.882   0.459
10479SOL     OW32335   6.738   2.455   2.967
10479SOL    HW132336   6.683   2.460   3.050
10479SOL    HW232337   6.679   2.463   2.887
10480SOL     OW32338   1.626   6.888   2.132
10480SOL    HW132339   1.653   6.981   2.156
10480SOL    HW232340   1.528   6.886   2.114
10481SOL     OW32341   1.082   0.019   3.046
10481SOL    HW132342   1.095   0.043   2.950
10481SOL    HW232343   1.007   6.972   3.054
10482SOL     OW32344   5.897   4.243   4.266
10482SOL    HW132345   5.926   4.235   4.171
10482SOL    HW232346   5.828   4.173   4.286
10483SOL     OW32347   5.995   5.175   0.045
10483SOL    HW132348   5.924   5.168   0.115
10483SOL    HW232349   6.083   5.147   0.084
10484SOL     OW32350   5.716   1.131   0.803
10484SOL    HW132351   5.701   1.190   0.882
10484SOL    HW232352   5.777   1.176   0.738
10485SOL     OW32353   4.092   4.150   6.271
10485SOL    HW132354   4.164   4.219   6.265
10485SOL    HW232355   4.134   4.059   6.270
10486SOL     OW32356   6.704   2.954   0.383
10486SOL    HW132357   6.616   2.937   0.427
10486SOL    HW232358   6.733   3.048   0.399
10487SOL     OW32359   5.757   6.330   1.581
10487SOL    HW132360   5.681   6.372   1.533
10487SOL    HW232361   5.843   6.373   1.551
10488SOL     OW32362   2.902   2.893   6.272
10488SOL    HW132363   2.958   2.968   6.236
10488SOL    HW232364   2.935   2.806   6.235
10489SOL     OW32365   0.564   6.407   6.060
10489SOL    HW132366   0.560   6.406   5.960
10489SOL    HW232367   0.651   6.367   6.090
10490SOL     OW32368   6.291   1.242   3.417
10490SOL    HW132369   6.254   1.245   3.510
10490SOL    HW232370   6.229   1.290   3.355
10491SOL     OW32371   1.809   3.742   5.927
10491SOL    HW132372   1.807   3.750   5.828
10491SOL    HW232373   1.885   3.796   5.963
10492SOL     OW32374   4.891   3.774   5.222
10492SOL    HW132375   4.848   3.706   5.163
10492SOL    HW232376   4.970   3.814   5.176
10493SOL     OW32377   3.411   0.917   1.446
10493SOL    HW132378   3.395   0.864   1.363
10493SOL    HW232379   3.379   0.865   1.525
10494SOL     OW32380   5.696   2.555   4.347
10494SOL    HW132381   5.617   2.549   4.407
10494SOL    HW232382   5.780   2.551   4.402
10495SOL     OW32383   1.904   6.666   0.821
10495SOL    HW132384   1.920   6.582   0.768
10495SOL    HW232385   1.946   6.657   0.911
10496SOL     OW32386   0.083   6.635   0.412
10496SOL    HW132387   0.090   6.536   0.400
10496SOL    HW232388   0.175   6.674   0.420
10497SOL     OW32389   1.541   0.354   0.797
10497SOL    HW132390   1.604   0.424   0.829
10497SOL    HW232391   1.447   0.379   0.822
10498SOL     OW32392   2.439   0.282   0.163
10498SOL    HW132393   2.363   0.228   0.201
10498SOL    HW232394   2.521   0.268   0.218
10499SOL     OW32395   2.658   6.351   3.085
10499SOL    HW132396   2.683   6.435   3.134
10499SOL    HW232397   2.739   6.292   3.076
10500SOL     OW32398   0.186   1.960   5.766
10500SOL    HW132399   0.118   1.888   5.783
10500SOL    HW232400   0.255   1.958   5.839
10501SOL     OW32401   2.185   5.245   2.832
10501SOL    HW132402   2.194   5.163   2.889
10501SOL    HW232403   2.144   5.220   2.744
10502SOL     OW32404   2.942   6.872   0.816
10502SOL    HW132405   2.852   6.850   0.852
10502SOL    HW232406   2.991   6.787   0.794
10503SOL     OW32407   4.050   3.109   0.541
10503SOL    HW132408   4.130   3.051   0.529
10503SOL    HW232409   4.055   3.187   0.478
10504SOL     OW32410   1.616   2.824   0.244
10504SOL    HW132411   1.567   2.903   0.282
10504SOL    HW232412   1.714   2.845   0.241
10505SOL     OW32413   6.021   6.008   0.863
10505SOL    HW132414   6.004   5.911   0.844
10505SOL    HW232415   6.088   6.016   0.937
10506SOL     OW32416   0.119   4.423   6.392
10506SOL    HW132417   0.116   4.480   6.475
10506SOL    HW232418   0.030   4.380   6.379
10507SOL     OW32419   1.959   0.431   6.878
10507SOL    HW132420   2.050   0.402   6.850
10507SOL    HW232421   1.944   0.526   6.849
10508SOL     OW32422   5.516   5.497   3.409
10508SOL    HW132423   5.578   5.423   3.382
10508SOL    HW232424   5.501   5.557   3.331
10509SOL     OW32425   0.955   6.722   6.739
10509SOL    HW132426   1.046   6.760   6.724
10509SOL    HW232427   0.931   6.729   6.836
10510SOL     OW32428   6.214   4.898   6.337
10510SOL    HW132429   6.191   4.902   6.434
10510SOL    HW232430   6.276   4.973   6.315
10511SOL     OW32431   4.329   3.018   0.844
10511SOL    HW132432   4.371   2.937   0.804
10511SOL    HW232433   4.377   3.044   0.928
10512SOL     OW32434   4.216   0.596   6.635
10512SOL    HW132435   4.124   0.587   6.596
10512SOL    HW232436   4.264   0.672   6.590
10513SOL     OW32437   6.955   2.214   6.291
10513SOL    HW132438   0.036   2.223   6.304
10513SOL    HW232439   6.909   2.228   6.378
10514SOL     OW32440   6.275   4.006   0.969
10514SOL    HW132441   6.216   4.077   0.930
10514SOL    HW232442   6.369   4.024   0.941
10515SOL     OW32443   6.668   1.798   2.913
10515SOL    HW132444   6.614   1.863   2.859
10515SOL    HW232445   6.609   1.750   2.977
10516SOL     OW32446   4.735   0.738   6.350
10516SOL    HW132447   4.830   0.709   6.349
10516SOL    HW232448   4.728   0.831   6.314
10517SOL     OW32449   0.117   2.092   2.271
10517SOL    HW132450   0.145   2.157   2.343
10517SOL    HW232451   0.130   1.999   2.304
10518SOL     OW32452   1.081   5.060   0.214
10518SOL    HW132453   0.986   5.031   0.221
10518SOL    HW232454   1.134   4.991   0.165
10519SOL     OW32455   3.212   2.946   5.516
10519SOL    HW132456   3.189   2.893   5.597
10519SOL    HW232457   3.196   2.891   5.434
10520SOL     OW32458   2.821   2.883   6.664
10520SOL    HW132459   2.741   2.929   6.702
10520SOL    HW232460   2.881   2.950   6.622
10521SOL     OW32461   6.581   6.361   1.053
10521SOL    HW132462   6.678   6.372   1.030
10521SOL    HW232463   6.542   6.288   0.997
10522SOL     OW32464   6.597   0.565   0.141
10522SOL    HW132465   6.538   0.574   0.062
10522SOL    HW232466   6.586   0.645   0.201
10523SOL     OW32467   0.125   6.056   4.644
10523SOL    HW132468   0.074   5.970   4.649
10523SOL    HW232469   0.197   6.056   4.714
10524SOL     OW32470   1.775   0.334   5.001
10524SOL    HW132471   1.794   0.295   4.911
10524SOL    HW232472   1.681   0.368   5.003
10525SOL     OW32473   3.184   6.289   5.406
10525SOL    HW132474   3.248   6.366   5.400
10525SOL    HW232475   3.200   6.239   5.491
10526SOL     OW32476   0.511   0.661   2.712
10526SOL    HW132477   0.564   0.727   2.766
10526SOL    HW232478   0.420   0.699   2.692
10527SOL     OW32479   1.254   2.599   4.499
10527SOL    HW132480   1.242   2.637   4.407
10527SOL    HW232481   1.314   2.519   4.495
10528SOL     OW32482   1.425   4.360   5.022
10528SOL    HW132483   1.428   4.395   5.116
10528SOL    HW232484   1.411   4.261   5.024
10529SOL     OW32485   0.974   5.868   2.678
10529SOL    HW132486   0.883   5.889   2.713
10529SOL    HW232487   0.968   5.849   2.580
10530SOL     OW32488   2.313   1.872   6.155
10530SOL    HW132489   2.254   1.935   6.105
10530SOL    HW232490   2.358   1.922   6.230
10531SOL     OW32491   2.124   3.741   4.313
10531SOL    HW132492   2.107   3.644   4.296
10531SOL    HW232493   2.158   3.784   4.229
10532SOL     OW32494   2.091   2.994   0.349
10532SOL    HW132495   2.001   2.986   0.306
10532SOL    HW232496   2.162   2.996   0.279
10533SOL     OW32497   2.920   1.284   4.287
10533SOL    HW132498   2.954   1.194   4.259
10533SOL    HW232499   2.833   1.302   4.241
10534SOL     OW32500   0.018   5.835   0.887
10534SOL    HW132501   0.094   5.813   0.947
10534SOL    HW232502   0.053   5.875   0.802
10535SOL     OW32503   6.976   1.590   2.231
10535SOL    HW132504   6.978   1.633   2.321
10535SOL    HW232505   0.025   1.633   2.171
10536SOL     OW32506   4.141   0.390   2.940
10536SOL    HW132507   4.175   0.305   2.901
10536SOL    HW232508   4.124   0.378   3.038
10537SOL     OW32509   3.415   5.527   3.204
10537SOL    HW132510   3.445   5.499   3.294
10537SOL    HW232511   3.382   5.622   3.208
10538SOL     OW32512   4.486   3.519   6.413
10538SOL    HW132513   4.559   3.454   6.430
10538SOL    HW232514   4.418   3.478   6.352
10539SOL     OW32515   0.636   3.882   6.565
10539SOL    HW132516   0.611   3.954   6.500
10539SOL    HW232517   0.641   3.921   6.657
10540SOL     OW32518   1.343   0.569   5.861
10540SOL    HW132519   1.316   0.475   5.839
10540SOL    HW232520   1.414   0.567   5.931
10541SOL     OW32521   3.656   3.782   1.504
10541SOL    HW132522   3.602   3.847   1.450
10541SOL    HW232523   3.641   3.799   1.601
10542SOL     OW32524   0.025   1.637   0.703
10542SOL    HW132525   6.955   1.683   0.703
10542SOL    HW232526   0.022   1.557   0.643
10543SOL     OW32527   0.041   1.481   5.712
10543SOL    HW132528   7.015   1.394   5.735
10543SOL    HW232529   0.100   1.468   5.633
10544SOL     OW32530   2.485   1.704   2.517
10544SOL    HW132531   2.414   1.769   2.543
10544SOL    HW232532   2.444   1.626   2.470
10545SOL     OW32533   6.956   6.779   2.210
10545SOL    HW132534   6.992   6.799   2.301
10545SOL    HW232535   6.877   6.717   2.218
10546SOL     OW32536   1.522   0.279   5.285
10546SOL    HW132537   1.468   0.197   5.303
10546SOL    HW232538   1.507   0.309   5.191
10547SOL     OW32539   4.891   1.124   2.673
10547SOL    HW132540   4.797   1.157   2.664
10547SOL    HW232541   4.954   1.198   2.650
10548SOL     OW32542   5.400   3.819   4.685
10548SOL    HW132543   5.348   3.876   4.750
10548SOL    HW232544   5.351   3.734   4.669
10549SOL     OW32545   6.972   0.481   2.482
10549SOL    HW132546   6.971   0.579   2.462
10549SOL    HW232547   6.924   0.431   2.410
10550SOL     OW32548   4.700   6.668   4.131
10550SOL    HW132549   4.764   6.707   4.065
10550SOL    HW232550   4.609   6.662   4.091
10551SOL     OW32551   1.666   2.374   5.143
10551SOL    HW132552   1.627   2.380   5.051
10551SOL    HW232553   1.695   2.465   5.173
10552SOL     OW32554   4.131   1.865   5.266
10552SOL    HW132555   4.072   1.820   5.200
10552SOL    HW232556   4.094   1.855   5.358
10553SOL     OW32557   0.605   4.870   1.290
10553SOL    HW132558   0.530   4.915   1.242
10553SOL    HW232559   0.691   4.889   1.243
10554SOL     OW32560   6.086   4.766   6.799
10554SOL    HW132561   5.988   4.775   6.817
10554SOL    HW232562   6.138   4.797   6.879
10555SOL     OW32563   3.197   2.123   1.612
10555SOL    HW132564   3.252   2.118   1.696
10555SOL    HW232565   3.100   2.124   1.635
10556SOL     OW32566   2.048   3.140   4.805
10556SOL    HW132567   2.113   3.067   4.782
10556SOL    HW232568   2.093   3.229   4.795
10557SOL     OW32569   0.481   2.272   3.611
10557SOL    HW132570   0.436   2.351   3.654
10557SOL    HW232571   0.580   2.284   3.617
10558SOL     OW32572   4.399   0.259   5.111
10558SOL    HW132573   4.320   0.225   5.161
10558SOL    HW232574   4.435   0.340   5.157
10559SOL     OW32575   4.262   1.338   1.188
10559SOL    HW132576   4.201   1.374   1.118
10559SOL    HW232577   4.251   1.391   1.272
10560SOL     OW32578   1.959   5.320   5.017
10560SOL    HW132579   2.056   5.326   4.992
10560SOL    HW232580   1.902   5.341   4.937
10561SOL     OW32581   2.055   4.986   0.393
10561SOL    HW132582   2.084   4.960   0.301
10561SOL    HW232583   2.028   4.903   0.443
10562SOL     OW32584   4.870   6.822   0.803
10562SOL    HW132585   4.808   6.746   0.819
10562SOL    HW232586   4.907   6.855   0.890
10563SOL     OW32587   1.938   0.729   4.445
10563SOL    HW132588   2.002   0.694   4.514
10563SOL    HW232589   1.970   0.818   4.411
10564SOL     OW32590   5.588   6.987   1.431
10564SOL    HW132591   5.627   6.941   1.351
10564SOL    HW232592   5.594   0.068   1.419
10565SOL     OW32593   0.339   1.340   5.603
10565SOL    HW132594   0.399   1.300   5.671
10565SOL    HW232595   0.273   1.271   5.572
10566SOL     OW32596   3.799   3.919   6.839
10566SOL    HW132597   3.879   3.873   6.800
10566SOL    HW232598   3.727   3.925   6.771
10567SOL     OW32599   2.044   3.496   4.253
10567SOL    HW132600   2.089   3.469   4.168
10567SOL    HW232601   1.946   3.478   4.245
10568SOL     OW32602   5.603   1.174   2.633
10568SOL    HW132603   5.518   1.215   2.601
10568SOL    HW232604   5.665   1.246   2.664
10569SOL     OW32605   6.443   3.626   2.322
10569SOL    HW132606   6.454   3.722   2.297
10569SOL    HW232607   6.457   3.569   2.241
10570SOL     OW32608   1.417   4.383   2.464
10570SOL    HW132609   1.375   4.417   2.548
10570SOL    HW232610   1.429   4.284   2.470
10571SOL     OW32611   6.579   5.391   3.381
10571SOL    HW132612   6.574   5.481   3.336
10571SOL    HW232613   6.587   5.403   3.480
10572SOL     OW32614   6.017   3.840   3.021
10572SOL    HW132615   5.945   3.884   2.969
10572SOL    HW232616   6.019   3.742   3.001
10573SOL     OW32617   5.892   6.474   3.044
10573SOL    HW132618   5.942   6.387   3.048
10573SOL    HW232619   5.878   6.499   2.949
10574SOL     OW32620   1.742   1.987   3.529
10574SOL    HW132621   1.806   1.957   3.600
10574SOL    HW232622   1.787   1.982   3.440
10575SOL     OW32623   0.286   0.422   3.803
10575SOL    HW132624   0.235   0.465   3.877
10575SOL    HW232625   0.377   0.463   3.796
10576SOL     OW32626   0.776   6.922   4.860
10576SOL    HW132627   0.777   6.826   4.833
10576SOL    HW232628   0.769   6.979   4.778
10577SOL     OW32629   1.811   3.189   6.498
10577SOL    HW132630   1.727   3.147   6.463
10577SOL    HW232631   1.875   3.117   6.524
10578SOL     OW32632   6.261   0.975   5.100
10578SOL    HW132633   6.290   0.939   5.188
10578SOL    HW232634   6.200   0.910   5.055
10579SOL     OW32635   4.295   1.075   1.277
10579SOL    HW132636   4.288   1.172   1.252
10579SOL    HW232637   4.329   1.067   1.370
10580SOL     OW32638   6.789   0.009   6.628
10580SOL    HW132639   6.744   0.096   6.605
10580SOL    HW232640   6.865   7.012   6.566
10581SOL     OW32641   6.275   0.225   2.731
10581SOL    HW132642   6.268   0.126   2.735
10581SOL    HW232643   6.363   0.254   2.769
10582SOL     OW32644   3.756   4.657   0.126
10582SOL    HW132645   3.759   4.704   0.215
10582SOL    HW232646   3.825   4.584   0.125
10583SOL     OW32647   4.230   0.605   6.924
10583SOL    HW132648   4.216   0.604   6.825
10583SOL    HW232649   4.211   0.514   6.961
10584SOL     OW32650   4.977   6.180   1.168
10584SOL    HW132651   5.001   6.214   1.259
10584SOL    HW232652   5.025   6.094   1.151
10585SOL     OW32653   1.641   3.017   5.628
10585SOL    HW132654   1.667   2.976   5.715
10585SOL    HW232655   1.656   2.952   5.554
10586SOL     OW32656   2.118   5.964   5.969
10586SOL    HW132657   2.179   5.889   5.943
10586SOL    HW232658   2.025   5.943   5.940
10587SOL     OW32659   5.688   3.136   0.421
10587SOL    HW132660   5.602   3.098   0.388
10587SOL    HW232661   5.682   3.236   0.422
10588SOL     OW32662   1.298   4.119   1.717
10588SOL    HW132663   1.265   4.174   1.793
10588SOL    HW232664   1.392   4.090   1.735
10589SOL     OW32665   5.793   2.018   4.254
10589SOL    HW132666   5.891   2.002   4.237
10589SOL    HW232667   5.757   1.942   4.308
10590SOL     OW32668   1.371   6.878   2.084
10590SOL    HW132669   1.312   6.846   2.010
10590SOL    HW232670   1.316   6.907   2.161
10591SOL     OW32671   1.872   1.857   6.127
10591SOL    HW132672   1.847   1.767   6.089
10591SOL    HW232673   1.858   1.856   6.226
10592SOL     OW32674   5.344   1.767   0.061
10592SOL    HW132675   5.303   1.808   6.997
10592SOL    HW232676   5.277   1.769   0.135
10593SOL     OW32677   2.882   6.248   0.783
10593SOL    HW132678   2.845   6.192   0.709
10593SOL    HW232679   2.837   6.337   0.785
10594SOL     OW32680   6.272   1.757   4.143
10594SOL    HW132681   6.299   1.782   4.050
10594SOL    HW232682   6.330   1.803   4.209
10595SOL     OW32683   3.313   6.944   6.017
10595SOL    HW132684   3.271   7.000   6.088
10595SOL    HW232685   3.402   6.911   6.048
10596SOL     OW32686   3.745   6.923   1.679
10596SOL    HW132687   3.650   6.945   1.660
10596SOL    HW232688   3.792   7.004   1.715
10597SOL     OW32689   2.610   1.081   4.402
10597SOL    HW132690   2.636   1.156   4.342
10597SOL    HW232691   2.636   0.994   4.360
10598SOL     OW32692   2.274   2.413   6.745
10598SOL    HW132693   2.351   2.447   6.800
10598SOL    HW232694   2.197   2.393   6.805
10599SOL     OW32695   5.664   1.393   0.039
10599SOL    HW132696   5.740   1.406   6.993
10599SOL    HW232697   5.582   1.438   0.005
10600SOL     OW32698   2.264   3.522   6.770
10600SOL    HW132699   2.230   3.478   6.854
10600SOL    HW232700   2.357   3.491   6.752
10601SOL     OW32701   3.168   5.566   6.056
10601SOL    HW132702   3.224   5.499   6.007
10601SOL    HW232703   3.198   5.659   6.032
10602SOL     OW32704   5.315   1.413   1.965
10602SOL    HW132705   5.253   1.476   2.012
10602SOL    HW232706   5.285   1.401   1.871
10603SOL     OW32707   1.153   6.278   3.594
10603SOL    HW132708   1.167   6.212   3.668
10603SOL    HW232709   1.214   6.257   3.518
10604SOL     OW32710   5.810   4.424   4.590
10604SOL    HW132711   5.715   4.399   4.607
10604SOL    HW232712   5.852   4.457   4.674
10605SOL     OW32713   0.811   4.976   0.250
10605SOL    HW132714   0.767   5.026   0.325
10605SOL    HW232715   0.761   4.892   0.232
10606SOL     OW32716   6.730   0.953   1.417
10606SOL    HW132717   6.642   0.998   1.428
10606SOL    HW232718   6.719   0.871   1.361
10607SOL     OW32719   3.917   4.786   6.184
10607SOL    HW132720   3.865   4.872   6.185
10607SOL    HW232721   3.899   4.736   6.269
10608SOL     OW32722   5.976   1.428   4.741
10608SOL    HW132723   5.969   1.337   4.782
10608SOL    HW232724   6.062   1.436   4.690
10609SOL     OW32725   3.608   5.920   1.418
10609SOL    HW132726   3.579   5.825   1.404
10609SOL    HW232727   3.558   5.959   1.495
10610SOL     OW32728   0.884   4.099   6.536
10610SOL    HW132729   0.958   4.041   6.503
10610SOL    HW232730   0.797   4.051   6.526
10611SOL     OW32731   5.757   3.316   6.860
10611SOL    HW132732   5.827   3.368   6.811
10611SOL    HW232733   5.795   3.282   6.946
10612SOL     OW32734   2.330   0.184   6.562
10612SOL    HW132735   2.417   0.225   6.532
10612SOL    HW232736   2.345   0.089   6.588
10613SOL     OW32737   6.373   0.321   5.959
10613SOL    HW132738   6.429   0.301   5.878
10613SOL    HW232739   6.431   0.357   6.032
10614SOL     OW32740   6.934   0.447   4.209
10614SOL    HW132741   6.951   0.525   4.269
10614SOL    HW232742   6.836   0.438   4.193
10615SOL     OW32743   4.262   5.494   5.393
10615SOL    HW132744   4.214   5.504   5.307
10615SOL    HW232745   4.336   5.428   5.383
10616SOL     OW32746   2.940   6.486   0.238
10616SOL    HW132747   2.944   6.413   0.306
10616SOL    HW232748   2.993   6.459   0.158
10617SOL     OW32749   1.983   2.340   0.484
10617SOL    HW132750   2.041   2.417   0.509
10617SOL    HW232751   2.004   2.262   0.542
10618SOL     OW32752   6.148   2.694   0.306
10618SOL    HW132753   6.245   2.671   0.313
10618SOL    HW232754   6.120   2.742   0.389
10619SOL     OW32755   0.924   3.970   3.130
10619SOL    HW132756   0.966   3.889   3.169
10619SOL    HW232757   0.925   4.045   3.196
10620SOL     OW32758   1.302   6.052   5.507
10620SOL    HW132759   1.254   6.029   5.423
10620SOL    HW232760   1.359   5.975   5.536
10621SOL     OW32761   1.436   5.649   0.039
10621SOL    HW132762   1.468   5.687   0.126
10621SOL    HW232763   1.511   5.647   6.992
10622SOL     OW32764   4.613   0.840   1.966
10622SOL    HW132765   4.622   0.938   1.987
10622SOL    HW232766   4.702   0.805   1.937
10623SOL     OW32767   5.548   2.653   3.716
10623SOL    HW132768   5.617   2.699   3.661
10623SOL    HW232769   5.480   2.720   3.748
10624SOL     OW32770   1.195   1.452   5.417
10624SOL    HW132771   1.150   1.496   5.340
10624SOL    HW232772   1.186   1.509   5.498
10625SOL     OW32773   0.496   4.255   6.862
10625SOL    HW132774   0.439   4.334   6.884
10625SOL    HW232775   0.557   4.235   6.939
10626SOL     OW32776   1.470   2.084   1.568
10626SOL    HW132777   1.447   2.095   1.472
10626SOL    HW232778   1.431   1.998   1.602
10627SOL     OW32779   6.323   6.382   2.534
10627SOL    HW132780   6.345   6.351   2.626
10627SOL    HW232781   6.226   6.407   2.530
10628SOL     OW32782   6.070   5.377   5.426
10628SOL    HW132783   6.042   5.287   5.393
10628SOL    HW232784   6.017   5.401   5.507
10629SOL     OW32785   2.377   4.631   6.061
10629SOL    HW132786   2.431   4.703   6.018
10629SOL    HW232787   2.412   4.541   6.034
10630SOL     OW32788   6.251   0.399   3.778
10630SOL    HW132789   6.194   0.318   3.790
10630SOL    HW232790   6.218   0.473   3.837
10631SOL     OW32791   1.151   6.733   4.147
10631SOL    HW132792   1.250   6.749   4.151
10631SOL    HW232793   1.113   6.781   4.068
10632SOL     OW32794   6.398   2.261   4.677
10632SOL    HW132795   6.383   2.183   4.738
10632SOL    HW232796   6.341   2.337   4.707
10633SOL     OW32797   2.420   4.972   1.026
10633SOL    HW132798   2.324   4.942   1.025
10633SOL    HW232799   2.427   5.059   1.075
10634SOL     OW32800   2.813   5.859   0.507
10634SOL    HW132801   2.785   5.881   0.414
10634SOL    HW232802   2.779   5.767   0.531
10635SOL     OW32803   3.396   1.161   1.031
10635SOL    HW132804   3.424   1.201   1.118
10635SOL    HW232805   3.339   1.226   0.981
10636SOL     OW32806   0.519   1.821   1.076
10636SOL    HW132807   0.455   1.856   1.007
10636SOL    HW232808   0.556   1.898   1.128
10637SOL     OW32809   3.041   3.928   5.390
10637SOL    HW132810   3.005   3.838   5.416
10637SOL    HW232811   2.984   3.967   5.317
10638SOL     OW32812   0.414   6.497   4.240
10638SOL    HW132813   0.494   6.541   4.200
10638SOL    HW232814   0.342   6.488   4.171
10639SOL     OW32815   0.789   1.416   4.528
10639SOL    HW132816   0.733   1.498   4.518
10639SOL    HW232817   0.874   1.438   4.577
10640SOL     OW32818   4.459   0.206   0.054
10640SOL    HW132819   4.506   0.160   0.130
10640SOL    HW232820   4.482   0.303   0.055
10641SOL     OW32821   4.983   1.738   0.017
10641SOL    HW132822   4.903   1.690   0.052
10641SOL    HW232823   5.019   1.689   6.956
10642SOL     OW32824   0.383   2.330   1.629
10642SOL    HW132825   0.307   2.280   1.669
10642SOL    HW232826   0.353   2.422   1.604
10643SOL     OW32827   2.348   3.729   5.520
10643SOL    HW132828   2.394   3.811   5.554
10643SOL    HW232829   2.302   3.750   5.433
10644SOL     OW32830   4.749   1.708   3.928
10644SOL    HW132831   4.654   1.713   3.898
10644SOL    HW232832   4.802   1.653   3.863
10645SOL     OW32833   0.921   0.781   4.605
10645SOL    HW132834   0.917   0.813   4.510
10645SOL    HW232835   1.016   0.770   4.632
10646SOL     OW32836   0.259   2.726   6.001
10646SOL    HW132837   0.259   2.632   6.034
10646SOL    HW232838   0.341   2.773   6.034
10647SOL     OW32839   6.251   5.091   0.106
10647SOL    HW132840   6.226   5.027   0.178
10647SOL    HW232841   6.313   5.161   0.142
10648SOL     OW32842   4.943   3.608   6.883
10648SOL    HW132843   5.023   3.611   6.823
10648SOL    HW232844   4.897   3.520   6.873
10649SOL     OW32845   6.921   5.016   4.843
10649SOL    HW132846   6.844   4.970   4.886
10649SOL    HW232847   7.002   5.008   4.901
10650SOL     OW32848   2.175   6.505   4.019
10650SOL    HW132849   2.075   6.495   4.016
10650SOL    HW232850   2.211   6.455   4.097
10651SOL     OW32851   4.482   0.044   5.673
10651SOL    HW132852   4.541   0.009   5.600
10651SOL    HW232853   4.510   0.005   5.761
10652SOL     OW32854   3.146   0.101   6.161
10652SOL    HW132855   3.069   0.157   6.130
10652SOL    HW232856   3.212   0.158   6.211
10653SOL     OW32857   4.997   4.484   4.624
10653SOL    HW132858   4.906   4.443   4.635
10653SOL    HW232859   5.065   4.412   4.610
10654SOL     OW32860   2.629   0.409   1.511
10654SOL    HW132861   2.599   0.315   1.524
10654SOL    HW232862   2.569   0.455   1.445
10655SOL     OW32863   2.892   5.407   2.144
10655SOL    HW132864   2.928   5.317   2.166
10655SOL    HW232865   2.959   5.456   2.087
10656SOL     OW32866   6.059   2.388   7.016
10656SOL    HW132867   6.055   2.344   6.925
10656SOL    HW232868   6.024   2.481   7.009
10657SOL     OW32869   5.949   6.941   0.868
10657SOL    HW132870   5.896   7.008   0.922
10657SOL    HW232871   5.888   6.897   0.802
10658SOL     OW32872   1.338   4.530   4.600
10658SOL    HW132873   1.284   4.533   4.684
10658SOL    HW232874   1.384   4.618   4.586
10659SOL     OW32875   5.625   6.901   0.779
10659SOL    HW132876   5.606   6.933   0.873
10659SOL    HW232877   5.672   6.813   0.783
10660SOL     OW32878   4.519   3.698   5.765
10660SOL    HW132879   4.594   3.753   5.729
10660SOL    HW232880   4.434   3.724   5.720
10661SOL     OW32881   0.350   6.744   1.778
10661SOL    HW132882   0.348   6.775   1.873
10661SOL    HW232883   0.304   6.655   1.771
10662SOL     OW32884   0.167   1.220   0.622
10662SOL    HW132885   0.167   1.224   0.722
10662SOL    HW232886   0.137   1.307   0.585
10663SOL     OW32887   0.581   0.394   1.810
10663SOL    HW132888   0.501   0.440   1.773
10663SOL    HW232889   0.664   0.444   1.785
10664SOL     OW32890   2.117   4.150   0.156
10664SOL    HW132891   2.195   4.163   0.095
10664SOL    HW232892   2.032   4.173   0.107
10665SOL     OW32893   0.293   1.766   0.213
10665SOL    HW132894   0.271   1.747   0.309
10665SOL    HW232895   0.209   1.765   0.159
10666SOL     OW32896   3.500   5.560   6.700
10666SOL    HW132897   3.416   5.508   6.688
10666SOL    HW232898   3.487   5.653   6.667
10667SOL     OW32899   3.941   1.821   5.448
10667SOL    HW132900   3.881   1.862   5.517
10667SOL    HW232901   3.967   1.729   5.476
10668SOL     OW32902   1.553   2.099   6.424
10668SOL    HW132903   1.630   2.038   6.410
10668SOL    HW232904   1.527   2.100   6.520
10669SOL     OW32905   1.140   6.909   0.471
10669SOL    HW132906   1.192   6.943   0.549
10669SOL    HW232907   1.163   6.814   0.453
10670SOL     OW32908   5.432   4.623   5.757
10670SOL    HW132909   5.405   4.582   5.670
10670SOL    HW232910   5.366   4.694   5.783
10671SOL     OW32911   2.363   2.583   2.906
10671SOL    HW132912   2.287   2.519   2.892
10671SOL    HW232913   2.406   2.564   2.994
10672SOL     OW32914   0.363   2.375   0.394
10672SOL    HW132915   0.317   2.358   0.307
10672SOL    HW232916   0.386   2.288   0.436
10673SOL     OW32917   2.736   3.056   5.324
10673SOL    HW132918   2.757   2.984   5.391
10673SOL    HW232919   2.670   3.022   5.258
10674SOL     OW32920   3.817   3.937   1.031
10674SOL    HW132921   3.840   3.845   1.064
10674SOL    HW232922   3.846   3.946   0.936
10675SOL     OW32923   6.935   0.149   6.030
10675SOL    HW132924   6.885   0.145   5.944
10675SOL    HW232925   6.901   0.226   6.084
10676SOL     OW32926   6.020   0.547   6.192
10676SOL    HW132927   5.924   0.565   6.212
10676SOL    HW232928   6.027   0.471   6.127
10677SOL     OW32929   0.391   0.627   1.979
10677SOL    HW132930   0.303   0.585   2.000
10677SOL    HW232931   0.464   0.574   2.022
10678SOL     OW32932   2.823   5.392   2.566
10678SOL    HW132933   2.893   5.334   2.607
10678SOL    HW232934   2.736   5.342   2.563
10679SOL     OW32935   6.123   5.585   4.240
10679SOL    HW132936   6.051   5.582   4.309
10679SOL    HW232937   6.087   5.552   4.153
10680SOL     OW32938   1.214   3.108   2.357
10680SOL    HW132939   1.308   3.075   2.349
10680SOL    HW232940   1.168   3.060   2.433
10681SOL     OW32941   6.135   3.404   6.219
10681SOL    HW132942   6.054   3.421   6.276
10681SOL    HW232943   6.200   3.349   6.270
10682SOL     OW32944   0.701   1.606   2.521
10682SOL    HW132945   0.688   1.563   2.610
10682SOL    HW232946   0.778   1.562   2.473
10683SOL     OW32947   1.619   2.047   4.468
10683SOL    HW132948   1.668   1.974   4.516
10683SOL    HW232949   1.674   2.080   4.392
10684SOL     OW32950   6.208   3.980   0.708
10684SOL    HW132951   6.153   3.907   0.667
10684SOL    HW232952   6.259   3.943   0.786
10685SOL     OW32953   0.566   3.728   3.349
10685SOL    HW132954   0.495   3.763   3.409
10685SOL    HW232955   0.525   3.695   3.264
10686SOL     OW32956   3.396   6.187   0.199
10686SOL    HW132957   3.390   6.244   0.281
10686SOL    HW232958   3.332   6.110   0.206
10687SOL     OW32959   6.904   4.896   2.859
10687SOL    HW132960   6.954   4.979   2.836
10687SOL    HW232961   6.807   4.909   2.839
10688SOL     OW32962   6.899   4.717   2.079
10688SOL    HW132963   6.872   4.760   1.993
10688SOL    HW232964   6.869   4.621   2.079
10689SOL     OW32965   0.262   0.737   2.794
10689SOL    HW132966   0.219   0.807   2.851
10689SOL    HW232967   0.226   0.648   2.818
10690SOL     OW32968   4.388   5.379   2.452
10690SOL    HW132969   4.425   5.458   2.403
10690SOL    HW232970   4.428   5.295   2.415
10691SOL     OW32971   0.017   1.207   1.498
10691SOL    HW132972   7.004   1.157   1.579
10691SOL    HW232973   6.991   1.296   1.495
10692SOL     OW32974   3.785   6.192   3.783
10692SOL    HW132975   3.759   6.095   3.789
10692SOL    HW232976   3.734   6.235   3.709
10693SOL     OW32977   0.419   1.382   1.352
10693SOL    HW132978   0.375   1.334   1.427
10693SOL    HW232979   0.519   1.380   1.365
10694SOL     OW32980   3.976   5.821   1.648
10694SOL    HW132981   4.052   5.780   1.598
10694SOL    HW232982   3.915   5.867   1.584
10695SOL     OW32983   0.314   2.410   4.270
10695SOL    HW132984   0.287   2.448   4.182
10695SOL    HW232985   0.369   2.477   4.320
10696SOL     OW32986   0.188   6.057   1.138
10696SOL    HW132987   0.213   6.136   1.195
10696SOL    HW232988   0.179   6.086   1.043
10697SOL     OW32989   0.785   6.032   4.070
10697SOL    HW132990   0.695   6.072   4.058
10697SOL    HW232991   0.776   5.945   4.121
10698SOL     OW32992   2.904   0.044   3.267
10698SOL    HW132993   2.940   0.132   3.298
10698SOL    HW232994   2.867   7.012   3.345
10699SOL     OW32995   4.092   1.675   2.776
10699SOL    HW132996   4.029   1.708   2.707
10699SOL    HW232997   4.180   1.722   2.767
10700SOL     OW32998   0.004   6.636   1.089
10700SOL    HW132999   0.096   6.642   1.127
10700SOL    HW233000   0.010   6.614   0.991
10701SOL     OW33001   3.642   6.264   0.113
10701SOL    HW133002   3.693   6.178   0.106
10701SOL    HW233003   3.546   6.244   0.134
10702SOL     OW33004   5.977   2.677   0.058
10702SOL    HW133005   5.958   2.770   0.027
10702SOL    HW233006   6.011   2.680   0.152
10703SOL     OW33007   3.810   3.952   3.534
10703SOL    HW133008   3.739   4.020   3.514
10703SOL    HW233009   3.848   3.970   3.625
10704SOL     OW33010   5.131   0.207   2.135
10704SOL    HW133011   5.162   0.187   2.228
10704SOL    HW233012   5.096   0.300   2.131
10705SOL     OW33013   1.240   3.027   6.133
10705SOL    HW133014   1.164   2.980   6.089
10705SOL    HW233015   1.205   3.082   6.209
10706SOL     OW33016   3.813   0.855   1.657
10706SOL    HW133017   3.776   0.921   1.591
10706SOL    HW233018   3.861   0.905   1.729
10707SOL     OW33019   6.150   6.583   5.637
10707SOL    HW133020   6.142   6.647   5.713
10707SOL    HW233021   6.078   6.514   5.644
10708SOL     OW33022   4.785   0.991   1.020
10708SOL    HW133023   4.803   0.917   1.085
10708SOL    HW233024   4.687   1.014   1.022
10709SOL     OW33025   6.139   6.851   5.213
10709SOL    HW133026   6.079   6.833   5.135
10709SOL    HW233027   6.097   6.815   5.296
10710SOL     OW33028   5.994   5.730   3.821
10710SOL    HW133029   6.014   5.769   3.731
10710SOL    HW233030   5.895   5.725   3.835
10711SOL     OW33031   1.354   0.117   4.243
10711SOL    HW133032   1.435   0.162   4.207
10711SOL    HW233033   1.363   0.018   4.233
10712SOL     OW33034   3.454   1.136   4.574
10712SOL    HW133035   3.482   1.230   4.559
10712SOL    HW233036   3.490   1.103   4.661
10713SOL     OW33037   1.924   5.853   1.808
10713SOL    HW133038   1.984   5.931   1.823
10713SOL    HW233039   1.974   5.768   1.823
10714SOL     OW33040   0.451   5.280   5.196
10714SOL    HW133041   0.524   5.323   5.248
10714SOL    HW233042   0.484   5.255   5.105
10715SOL     OW33043   4.673   1.970   3.987
10715SOL    HW133044   4.703   2.039   3.921
10715SOL    HW233045   4.700   1.879   3.954
10716SOL     OW33046   6.649   0.471   4.114
10716SOL    HW133047   6.628   0.559   4.072
10716SOL    HW233048   6.575   0.445   4.175
10717SOL     OW33049   6.845   0.508   1.606
10717SOL    HW133050   6.892   0.574   1.665
10717SOL    HW233051   6.866   0.415   1.638
10718SOL     OW33052   6.917   5.041   6.303
10718SOL    HW133053   6.881   5.133   6.319
10718SOL    HW233054   6.951   5.003   6.388
10719SOL     OW33055   5.679   1.031   1.742
10719SOL    HW133056   5.740   0.954   1.724
10719SOL    HW233057   5.726   1.098   1.799
10720SOL     OW33058   0.346   3.497   6.687
10720SOL    HW133059   0.379   3.419   6.740
10720SOL    HW233060   0.324   3.467   6.594
10721SOL     OW33061   6.000   2.290   4.374
10721SOL    HW133062   5.946   2.325   4.450
10721SOL    HW233063   6.077   2.236   4.409
10722SOL     OW33064   6.517   3.651   0.381
10722SOL    HW133065   6.539   3.729   0.439
10722SOL    HW233066   6.446   3.596   0.424
10723SOL     OW33067   5.523   4.292   6.667
10723SOL    HW133068   5.497   4.307   6.571
10723SOL    HW233069   5.606   4.237   6.670
10724SOL     OW33070   4.276   6.419   6.227
10724SOL    HW133071   4.226   6.503   6.203
10724SOL    HW233072   4.254   6.348   6.161
10725SOL     OW33073   0.475   5.897   4.294
10725SOL    HW133074   0.558   5.866   4.248
10725SOL    HW233075   0.495   5.913   4.391
10726SOL     OW33076   5.701   0.256   4.752
10726SOL    HW133077   5.605   0.245   4.778
10726SOL    HW233078   5.758   0.259   4.834
10727SOL     OW33079   2.266   5.738   5.903
10727SOL    HW133080   2.355   5.705   5.872
10727SOL    HW233081   2.244   5.694   5.990
10728SOL     OW33082   4.652   6.656   2.840
10728SOL    HW133083   4.571   6.632   2.893
10728SOL    HW233084   4.730   6.604   2.873
10729SOL     OW33085   6.128   2.671   2.957
10729SOL    HW133086   6.068   2.727   2.899
10729SOL    HW233087   6.091   2.667   3.050
10730SOL     OW33088   1.696   6.991   2.516
10730SOL    HW133089   1.783   6.989   2.564
10730SOL    HW233090   1.647   6.905   2.530
10731SOL     OW33091   3.459   6.600   6.856
10731SOL    HW133092   3.381   6.577   6.915
10731SOL    HW233093   3.542   6.599   6.911
10732SOL     OW33094   5.934   5.925   3.137
10732SOL    HW133095   5.882   5.865   3.076
10732SOL    HW233096   5.901   6.019   3.127
10733SOL     OW33097   6.307   1.228   5.840
10733SOL    HW133098   6.394   1.179   5.846
10733SOL    HW233099   6.292   1.278   5.925
10734SOL     OW33100   1.685   1.147   5.890
10734SOL    HW133101   1.612   1.085   5.919
10734SOL    HW233102   1.773   1.107   5.912
10735SOL     OW33103   1.451   5.012   1.741
10735SOL    HW133104   1.507   4.954   1.681
10735SOL    HW233105   1.509   5.073   1.794
10736SOL     OW33106   6.796   0.070   3.456
10736SOL    HW133107   6.789   0.142   3.387
10736SOL    HW233108   6.880   0.017   3.441
10737SOL     OW33109   6.868   1.400   1.404
10737SOL    HW133110   6.905   1.402   1.310
10737SOL    HW233111   6.844   1.493   1.431
10738SOL     OW33112   2.671   0.735   2.826
10738SOL    HW133113   2.663   0.717   2.728
10738SOL    HW233114   2.758   0.698   2.860
10739SOL     OW33115   6.200   1.844   2.599
10739SOL    HW133116   6.262   1.799   2.535
10739SOL    HW233117   6.106   1.825   2.573
10740SOL     OW33118   1.697   6.858   5.912
10740SOL    HW133119   1.745   6.935   5.871
10740SOL    HW233120   1.717   6.775   5.861
10741SOL     OW33121   1.795   2.535   3.065
10741SOL    HW133122   1.700   2.558   3.086
10741SOL    HW233123   1.800   2.492   2.975
10742SOL     OW33124   6.326   5.543   2.513
10742SOL    HW133125   6.264   5.621   2.524
10742SOL    HW233126   6.272   5.460   2.498
10743SOL     OW33127   3.553   1.048   5.233
10743SOL    HW133128   3.652   1.033   5.228
10743SOL    HW233129   3.513   1.034   5.143
10744SOL     OW33130   2.355   0.452   0.814
10744SOL    HW133131   2.334   0.434   0.910
10744SOL    HW233132   2.277   0.426   0.757
10745SOL     OW33133   2.172   4.628   1.061
10745SOL    HW133134   2.175   4.608   1.159
10745SOL    HW233135   2.179   4.542   1.010
10746SOL     OW33136   2.062   6.396   6.754
10746SOL    HW133137   1.999   6.432   6.823
10746SOL    HW233138   2.099   6.472   6.700
10747SOL     OW33139   6.626   1.944   4.289
10747SOL    HW133140   6.716   1.951   4.332
10747SOL    HW233141   6.637   1.938   4.190
10748SOL     OW33142   4.057   5.385   1.221
10748SOL    HW133143   4.110   5.303   1.244
10748SOL    HW233144   4.023   5.376   1.127
10749SOL     OW33145   6.390   5.032   2.982
10749SOL    HW133146   6.397   5.088   3.065
10749SOL    HW233147   6.447   5.072   2.910
10750SOL     OW33148   4.657   2.766   4.054
10750SOL    HW133149   4.606   2.689   4.017
10750SOL    HW233150   4.736   2.732   4.104
10751SOL     OW33151   1.233   4.173   5.440
10751SOL    HW133152   1.134   4.171   5.428
10751SOL    HW233153   1.255   4.171   5.537
10752SOL     OW33154   5.864   6.071   0.642
10752SOL    HW133155   5.879   6.024   0.729
10752SOL    HW233156   5.920   6.029   0.571
10753SOL     OW33157   5.162   6.185   3.752
10753SOL    HW133158   5.127   6.112   3.694
10753SOL    HW233159   5.125   6.175   3.845
10754SOL     OW33160   1.563   2.934   2.034
10754SOL    HW133161   1.594   3.024   2.002
10754SOL    HW233162   1.634   2.866   2.016
10755SOL     OW33163   6.560   3.083   0.816
10755SOL    HW133164   6.506   3.111   0.737
10755SOL    HW233165   6.572   3.161   0.877
10756SOL     OW33166   0.372   2.901   0.618
10756SOL    HW133167   0.425   2.981   0.590
10756SOL    HW233168   0.284   2.930   0.657
10757SOL     OW33169   6.263   4.208   1.312
10757SOL    HW133170   6.180   4.242   1.266
10757SOL    HW233171   6.303   4.134   1.257
10758SOL     OW33172   0.663   6.808   6.792
10758SOL    HW133173   0.575   6.775   6.827
10758SOL    HW233174   0.684   6.762   6.705
10759SOL     OW33175   2.195   1.989   6.487
10759SOL    HW133176   2.129   2.041   6.432
10759SOL    HW233177   2.150   1.957   6.570
10760SOL     OW33178   0.253   5.548   0.195
10760SOL    HW133179   0.285   5.623   0.137
10760SOL    HW233180   0.172   5.507   0.154
10761SOL     OW33181   0.607   1.587   6.195
10761SOL    HW133182   0.515   1.563   6.166
10761SOL    HW233183   0.602   1.660   6.264
10762SOL     OW33184   3.998   0.205   5.594
10762SOL    HW133185   3.939   0.207   5.674
10762SOL    HW233186   4.085   0.162   5.618
10763SOL     OW33187   5.519   0.084   2.962
10763SOL    HW133188   5.476   0.019   2.900
10763SOL    HW233189   5.490   0.065   3.056
10764SOL     OW33190   4.440   1.269   5.335
10764SOL    HW133191   4.510   1.334   5.307
10764SOL    HW233192   4.434   1.195   5.268
10765SOL     OW33193   6.515   2.396   2.747
10765SOL    HW133194   6.415   2.388   2.748
10765SOL    HW233195   6.554   2.318   2.698
10766SOL     OW33196   1.321   4.662   6.633
10766SOL    HW133197   1.296   4.593   6.564
10766SOL    HW233198   1.269   4.646   6.717
10767SOL     OW33199   1.548   5.986   1.046
10767SOL    HW133200   1.544   6.058   0.978
10767SOL    HW233201   1.527   5.898   1.003
10768SOL     OW33202   6.039   6.335   0.326
10768SOL    HW133203   5.991   6.284   0.255
10768SOL    HW233204   6.033   6.286   0.413
10769SOL     OW33205   3.055   3.569   5.056
10769SOL    HW133206   3.129   3.637   5.058
10769SOL    HW233207   3.014   3.567   4.965
10770SOL     OW33208   5.480   6.855   4.164
10770SOL    HW133209   5.536   6.938   4.157
10770SOL    HW233210   5.484   6.820   4.258
10771SOL     OW33211   5.338   6.071   5.817
10771SOL    HW133212   5.373   6.067   5.724
10771SOL    HW233213   5.267   6.001   5.829
10772SOL     OW33214   5.657   5.100   2.953
10772SOL    HW133215   5.680   5.195   2.929
10772SOL    HW233216   5.713   5.071   3.031
10773SOL     OW33217   6.512   4.458   0.977
10773SOL    HW133218   6.498   4.440   0.879
10773SOL    HW233219   6.610   4.469   0.995
10774SOL     OW33220   1.003   2.340   1.105
10774SOL    HW133221   1.078   2.401   1.078
10774SOL    HW233222   0.982   2.278   1.030
10775SOL     OW33223   1.246   4.185   0.916
10775SOL    HW133224   1.292   4.215   0.833
10775SOL    HW233225   1.213   4.265   0.966
10776SOL     OW33226   0.074   1.088   3.230
10776SOL    HW133227   0.162   1.082   3.278
10776SOL    HW233228   0.054   1.184   3.210
10777SOL     OW33229   3.045   1.046   2.837
10777SOL    HW133230   3.083   0.954   2.839
10777SOL    HW233231   2.948   1.043   2.862
10778SOL     OW33232   6.294   6.478   3.903
10778SOL    HW133233   6.233   6.538   3.956
10778SOL    HW233234   6.239   6.417   3.846
10779SOL     OW33235   5.694   4.055   4.278
10779SOL    HW133236   5.663   3.960   4.274
10779SOL    HW233237   5.631   4.109   4.333
10780SOL     OW33238   1.463   5.714   4.973
10780SOL    HW133239   1.432   5.621   4.953
10780SOL    HW233240   1.420   5.746   5.058
10781SOL     OW33241   5.836   2.647   4.886
10781SOL    HW133242   5.871   2.600   4.967
10781SOL    HW233243   5.845   2.745   4.897
10782SOL     OW33244   0.990   3.330   5.226
10782SOL    HW133245   1.070   3.294   5.274
10782SOL    HW233246   0.913   3.268   5.237
10783SOL     OW33247   0.762   2.084   2.568
10783SOL    HW133248   0.834   2.064   2.502
10783SOL    HW233249   0.697   2.149   2.529
10784SOL     OW33250   3.420   6.096   2.366
10784SOL    HW133251   3.375   6.136   2.286
10784SOL    HW233252   3.383   6.005   2.383
10785SOL     OW33253   1.780   5.707   2.504
10785SOL    HW133254   1.837   5.752   2.573
10785SOL    HW233255   1.749   5.775   2.438
10786SOL     OW33256   5.065   1.725   2.343
10786SOL    HW133257   5.104   1.702   2.433
10786SOL    HW233258   5.095   1.657   2.276
10787SOL     OW33259   3.422   1.213   3.454
10787SOL    HW133260   3.340   1.258   3.418
10787SOL    HW233261   3.500   1.236   3.395
10788SOL     OW33262   0.501   4.299   0.285
10788SOL    HW133263   0.550   4.235   0.344
10788SOL    HW233264   0.485   4.384   0.334
10789SOL     OW33265   6.069   1.223   0.142
10789SOL    HW133266   6.166   1.206   0.122
10789SOL    HW233267   6.015   1.208   0.060
10790SOL     OW33268   0.536   2.317   4.512
10790SOL    HW133269   0.453   2.302   4.459
10790SOL    HW233270   0.521   2.394   4.575
10791SOL     OW33271   2.051   1.549   2.766
10791SOL    HW133272   1.985   1.591   2.704
10791SOL    HW233273   2.139   1.595   2.757
10792SOL     OW33274   3.803   2.261   1.103
10792SOL    HW133275   3.811   2.353   1.141
10792SOL    HW233276   3.733   2.210   1.154
10793SOL     OW33277   4.882   1.965   5.131
10793SOL    HW133278   4.870   1.929   5.223
10793SOL    HW233279   4.891   2.064   5.134
10794SOL     OW33280   4.479   3.212   1.577
10794SOL    HW133281   4.456   3.157   1.657
10794SOL    HW233282   4.505   3.304   1.606
10795SOL     OW33283   0.001   3.492   3.219
10795SOL    HW133284   6.929   3.451   3.234
10795SOL    HW233285   7.008   3.590   3.201
10796SOL     OW33286   6.630   6.634   6.604
10796SOL    HW133287   6.653   6.537   6.609
10796SOL    HW233288   6.557   6.655   6.670
10797SOL     OW33289   4.210   3.499   0.764
10797SOL    HW133290   4.206   3.411   0.812
10797SOL    HW233291   4.306   3.528   0.756
10798SOL     OW33292   2.743   7.015   6.266
10798SOL    HW133293   2.682   6.955   6.318
10798SOL    HW233294   2.813   0.035   6.327
10799SOL     OW33295   3.195   1.586   2.826
10799SOL    HW133296   3.269   1.589   2.892
10799SOL    HW233297   3.181   1.492   2.796
10800SOL     OW33298   1.561   0.497   6.077
10800SOL    HW133299   1.620   0.454   6.144
10800SOL    HW233300   1.466   0.472   6.095
10801SOL     OW33301   2.433   5.996   6.209
10801SOL    HW133302   2.512   6.050   6.181
10801SOL    HW233303   2.463   5.902   6.229
10802SOL     OW33304   0.730   3.562   4.603
10802SOL    HW133305   0.741   3.661   4.598
10802SOL    HW233306   0.636   3.540   4.629
10803SOL     OW33307   6.376   4.736   5.146
10803SOL    HW133308   6.457   4.713   5.200
10803SOL    HW233309   6.390   4.825   5.103
10804SOL     OW33310   5.511   4.792   2.096
10804SOL    HW133311   5.463   4.792   2.008
10804SOL    HW233312   5.487   4.710   2.147
10805SOL     OW33313   4.299   6.821   0.768
10805SOL    HW133314   4.218   6.767   0.749
10805SOL    HW233315   4.286   6.874   0.853
10806SOL     OW33316   5.265   4.088   0.060
10806SOL    HW133317   5.265   4.006   0.003
10806SOL    HW233318   5.298   4.166   0.007
10807SOL     OW33319   4.124   6.143   3.536
10807SOL    HW133320   4.033   6.173   3.507
10807SOL    HW233321   4.169   6.098   3.459
10808SOL     OW33322   6.887   3.126   5.760
10808SOL    HW133323   6.945   3.105   5.839
10808SOL    HW233324   6.854   3.220   5.767
10809SOL     OW33325   2.477   0.266   3.332
10809SOL    HW133326   2.407   0.199   3.356
10809SOL    HW233327   2.469   0.345   3.393
10810SOL     OW33328   0.134   1.487   5.341
10810SOL    HW133329   0.150   1.546   5.420
10810SOL    HW233330   0.088   1.540   5.269
10811SOL     OW33331   4.773   4.568   5.084
10811SOL    HW133332   4.759   4.478   5.044
10811SOL    HW233333   4.696   4.592   5.142
10812SOL     OW33334   6.317   2.804   2.731
10812SOL    HW133335   6.245   2.867   2.761
10812SOL    HW233336   6.275   2.722   2.693
10813SOL     OW33337   2.829   6.182   1.816
10813SOL    HW133338   2.754   6.185   1.882
10813SOL    HW233339   2.915   6.202   1.862
10814SOL     OW33340   1.868   0.138   5.256
10814SOL    HW133341   1.819   0.171   5.336
10814SOL    HW233342   1.844   0.195   5.177
10815SOL     OW33343   5.117   3.739   3.117
10815SOL    HW133344   5.017   3.741   3.114
10815SOL    HW233345   5.153   3.741   3.024
10816SOL     OW33346   1.730   0.897   2.181
10816SOL    HW133347   1.830   0.895   2.193
10816SOL    HW233348   1.686   0.916   2.268
10817SOL     OW33349   4.753   6.829   2.497
10817SOL    HW133350   4.748   6.925   2.467
10817SOL    HW233351   4.672   6.808   2.551
10818SOL     OW33352   4.619   2.883   6.897
10818SOL    HW133353   4.544   2.917   6.953
10818SOL    HW233354   4.619   2.783   6.900
10819SOL     OW33355   0.022   4.495   6.729
10819SOL    HW133356   6.963   4.558   6.724
10819SOL    HW233357   0.107   4.543   6.707
10820SOL     OW33358   0.288   6.551   4.481
10820SOL    HW133359   0.348   6.547   4.402
10820SOL    HW233360   0.248   6.461   4.497
10821SOL     OW33361   6.771   0.396   1.052
10821SOL    HW133362   6.684   0.419   1.009
10821SOL    HW233363   6.760   0.396   1.152
10822SOL     OW33364   0.535   4.063   2.187
10822SOL    HW133365   0.459   4.011   2.147
10822SOL    HW233366   0.620   4.039   2.140
10823SOL     OW33367   2.141   6.256   1.228
10823SOL    HW133368   2.240   6.266   1.231
10823SOL    HW233369   2.112   6.186   1.293
10824SOL     OW33370   5.309   0.592   2.486
10824SOL    HW133371   5.378   0.527   2.455
10824SOL    HW233372   5.336   0.631   2.573
10825SOL     OW33373   3.690   0.984   0.936
10825SOL    HW133374   3.682   1.062   0.998
10825SOL    HW233375   3.675   0.899   0.986
10826SOL     OW33376   0.212   3.405   2.359
10826SOL    HW133377   0.299   3.371   2.393
10826SOL    HW233378   0.192   3.493   2.402
10827SOL     OW33379   6.878   3.047   4.156
10827SOL    HW133380   6.864   3.109   4.234
10827SOL    HW233381   6.812   2.972   4.162
10828SOL     OW33382   1.219   5.474   0.749
10828SOL    HW133383   1.182   5.409   0.682
10828SOL    HW233384   1.316   5.456   0.763
10829SOL     OW33385   3.244   3.907   2.179
10829SOL    HW133386   3.156   3.861   2.167
10829SOL    HW233387   3.230   3.994   2.227
10830SOL     OW33388   5.164   2.781   4.547
10830SOL    HW133389   5.227   2.716   4.590
10830SOL    HW233390   5.215   2.841   4.486
10831SOL     OW33391   5.101   1.314   3.129
10831SOL    HW133392   5.023   1.286   3.185
10831SOL    HW233393   5.181   1.258   3.153
10832SOL     OW33394   0.791   1.845   0.695
10832SOL    HW133395   0.889   1.835   0.709
10832SOL    HW233396   0.769   1.942   0.683
10833SOL     OW33397   2.659   0.559   4.400
10833SOL    HW133398   2.682   0.515   4.313
10833SOL    HW233399   2.738   0.556   4.461
10834SOL     OW33400   1.221   1.643   5.581
10834SOL    HW133401   1.147   1.701   5.614
10834SOL    HW233402   1.279   1.694   5.518
10835SOL     OW33403   5.821   1.718   2.330
10835SOL    HW133404   5.747   1.777   2.300
10835SOL    HW233405   5.861   1.672   2.251
10836SOL     OW33406   1.785   1.944   6.381
10836SOL    HW133407   1.811   1.896   6.465
10836SOL    HW233408   1.846   2.021   6.366
10837SOL     OW33409   6.730   4.687   0.587
10837SOL    HW133410   6.694   4.621   0.653
10837SOL    HW233411   6.787   4.640   0.520
10838SOL     OW33412   5.992   6.885   6.221
10838SOL    HW133413   6.066   6.817   6.222
10838SOL    HW233414   5.909   6.846   6.260
10839SOL     OW33415   2.072   2.383   0.165
10839SOL    HW133416   2.125   2.321   0.223
10839SOL    HW233417   1.994   2.418   0.215
10840SOL     OW33418   3.660   5.263   1.839
10840SOL    HW133419   3.604   5.342   1.865
10840SOL    HW233420   3.617   5.179   1.873
10841SOL     OW33421   4.077   5.437   5.594
10841SOL    HW133422   4.094   5.481   5.682
10841SOL    HW233423   4.151   5.459   5.530
10842SOL     OW33424   6.472   3.098   1.570
10842SOL    HW133425   6.390   3.134   1.615
10842SOL    HW233426   6.465   3.112   1.471
10843SOL     OW33427   0.415   1.565   2.284
10843SOL    HW133428   0.434   1.641   2.346
10843SOL    HW233429   0.496   1.545   2.229
10844SOL     OW33430   4.913   0.364   3.590
10844SOL    HW133431   4.996   0.393   3.637
10844SOL    HW233432   4.844   0.339   3.658
10845SOL     OW33433   1.254   1.487   1.475
10845SOL    HW133434   1.185   1.559   1.471
10845SOL    HW233435   1.221   1.413   1.534
10846SOL     OW33436   4.193   1.858   1.108
10846SOL    HW133437   4.210   1.954   1.086
10846SOL    HW233438   4.211   1.841   1.205
10847SOL     OW33439   3.945   2.495   6.377
10847SOL    HW133440   4.037   2.499   6.339
10847SOL    HW233441   3.879   2.519   6.305
10848SOL     OW33442   0.935   0.977   6.865
10848SOL    HW133443   0.839   1.007   6.867
10848SOL    HW233444   0.948   0.912   6.790
10849SOL     OW33445   3.230   5.300   4.298
10849SOL    HW133446   3.163   5.296   4.224
10849SOL    HW233447   3.204   5.237   4.371
10850SOL     OW33448   5.210   6.243   0.701
10850SOL    HW133449   5.271   6.186   0.647
10850SOL    HW233450   5.255   6.330   0.722
10851SOL     OW33451   3.555   2.079   6.480
10851SOL    HW133452   3.648   2.076   6.514
10851SOL    HW233453   3.501   2.142   6.536
10852SOL     OW33454   0.507   0.795   6.545
10852SOL    HW133455   0.411   0.823   6.545
10852SOL    HW233456   0.560   0.856   6.604
10853SOL     OW33457   2.458   1.398   4.760
10853SOL    HW133458   2.501   1.308   4.752
10853SOL    HW233459   2.529   1.469   4.759
10854SOL     OW33460   6.753   6.687   6.856
10854SOL    HW133461   6.708   6.674   6.768
10854SOL    HW233462   6.805   6.773   6.855
10855SOL     OW33463   1.543   6.280   1.595
10855SOL    HW133464   1.501   6.190   1.587
10855SOL    HW233465   1.579   6.308   1.505
10856SOL     OW33466   6.159   6.996   0.047
10856SOL    HW133467   6.194   6.905   0.070
10856SOL    HW233468   6.096   6.988   6.988
10857SOL     OW33469   5.994   1.505   4.001
10857SOL    HW133470   6.082   1.520   3.955
10857SOL    HW233471   5.934   1.450   3.942
10858SOL     OW33472   1.623   3.073   6.950
10858SOL    HW133473   1.650   3.130   0.009
10858SOL    HW233474   1.573   3.128   6.884
10859SOL     OW33475   0.932   4.387   2.356
10859SOL    HW133476   0.902   4.463   2.414
10859SOL    HW233477   0.878   4.386   2.272
10860SOL     OW33478   6.086   1.987   7.013
10860SOL    HW133479   6.073   1.945   0.085
10860SOL    HW233480   6.129   2.076   0.006
10861SOL     OW33481   3.454   2.884   1.746
10861SOL    HW133482   3.496   2.926   1.827
10861SOL    HW233483   3.370   2.933   1.723
10862SOL     OW33484   3.465   2.983   5.381
10862SOL    HW133485   3.527   2.920   5.426
10862SOL    HW233486   3.384   2.997   5.438
10863SOL     OW33487   2.263   1.230   2.948
10863SOL    HW133488   2.166   1.251   2.936
10863SOL    HW233489   2.307   1.303   3.001
10864SOL     OW33490   2.615   4.636   2.145
10864SOL    HW133491   2.701   4.614   2.100
10864SOL    HW233492   2.564   4.701   2.089
10865SOL     OW33493   4.235   1.728   3.238
10865SOL    HW133494   4.166   1.724   3.166
10865SOL    HW233495   4.212   1.663   3.310
10866SOL     OW33496   0.140   4.020   3.077
10866SOL    HW133497   0.197   4.032   3.158
10866SOL    HW233498   0.156   4.095   3.013
10867SOL     OW33499   3.641   3.272   0.858
10867SOL    HW133500   3.670   3.367   0.847
10867SOL    HW233501   3.557   3.257   0.805
10868SOL     OW33502   1.258   1.753   4.027
10868SOL    HW133503   1.195   1.714   4.093
10868SOL    HW233504   1.207   1.786   3.947
10869NA      NA33505   7.008   2.413   5.700
10870NA      NA33506   4.174   4.575   5.241
10871NA      NA33507   0.975   5.183   2.373
10872NA      NA33508   5.412   4.198   3.767
10873NA      NA33509   4.277   2.371   5.269
10874NA      NA33510   2.318   5.306   0.901
10875NA      NA33511   1.141   5.364   6.630
10876NA      NA33512   3.360   4.405   1.110
10877NA      NA33513   4.353   5.249   1.060
10878NA      NA33514   3.516   1.177   6.434
10879NA      NA33515   5.417   5.973   1.878
10880NA      NA33516   1.701   6.787   5.537
10881NA      NA33517   4.333   5.049   1.909
10882NA      NA33518   3.365   3.146   6.678
   7.01829   7.01829   7.01829
