Generated by trjconv : CNT in water t= 229.00000
33518
    1C        C    1   2.848   2.768   4.744
    1C        C    2   2.901   2.717   4.865
    1C        C    3   2.842   2.768   4.981
    1C        C    4   2.850   2.776   4.258
    1C        C    5   2.898   2.725   4.381
    1C        C    6   2.842   2.770   4.502
    1C        C    7   3.012   2.636   4.622
    1C        C    8   2.897   2.718   4.622
    1C        C    9   3.077   2.601   4.742
    1C        C   10   3.014   2.632   4.864
    1C        C   11   3.186   2.490   4.974
    1C        C   12   3.064   2.560   4.973
    1C        C   13   2.845   2.767   3.771
    1C        C   14   2.898   2.719   3.893
    1C        C   15   2.848   2.771   4.014
    1C        C   16   3.015   2.642   4.138
    1C        C   17   2.901   2.725   4.137
    1C        C   18   3.082   2.617   4.260
    1C        C   19   3.019   2.652   4.381
    1C        C   20   3.212   2.562   4.502
    1C        C   21   3.077   2.603   4.501
    1C        C   22   3.281   2.540   4.623
    1C        C   23   3.208   2.545   4.743
    1C        C   24   3.415   2.481   4.862
    1C        C   25   3.272   2.496   4.860
    1C        C   26   3.493   2.487   4.979
    1C        C   27   2.852   2.769   3.281
    1C        C   28   2.900   2.724   3.406
    1C        C   29   2.847   2.771   3.529
    1C        C   30   3.012   2.634   3.649
    1C        C   31   2.897   2.716   3.649
    1C        C   32   3.074   2.600   3.771
    1C        C   33   3.013   2.637   3.893
    1C        C   34   3.208   2.554   4.015
    1C        C   35   3.076   2.605   4.016
    1C        C   36   3.278   2.534   4.135
    1C        C   37   3.212   2.562   4.257
    1C        C   38   3.417   2.508   4.379
    1C        C   39   3.280   2.541   4.379
    1C        C   40   3.489   2.505   4.501
    1C        C   41   3.419   2.508   4.624
    1C        C   42   3.632   2.489   4.744
    1C        C   43   3.491   2.480   4.742
    1C        C   44   3.707   2.485   4.863
    1C        C   45   3.631   2.480   4.981
    1C        C   46   2.839   2.753   2.792
    1C        C   47   2.891   2.706   2.914
    1C        C   48   2.844   2.761   3.035
    1C        C   49   3.010   2.631   3.163
    1C        C   50   2.896   2.716   3.158
    1C        C   51   3.072   2.600   3.285
    1C        C   52   3.011   2.637   3.407
    1C        C   53   3.207   2.551   3.527
    1C        C   54   3.075   2.600   3.528
    1C        C   55   3.276   2.530   3.648
    1C        C   56   3.208   2.555   3.770
    1C        C   57   3.416   2.511   3.891
    1C        C   58   3.277   2.538   3.892
    1C        C   59   3.488   2.502   4.012
    1C        C   60   3.417   2.510   4.134
    1C        C   61   3.628   2.496   4.258
    1C        C   62   3.487   2.500   4.257
    1C        C   63   3.703   2.501   4.378
    1C        C   64   3.630   2.501   4.499
    1C        C   65   3.837   2.542   4.620
    1C        C   66   3.701   2.501   4.621
    1C        C   67   3.906   2.558   4.742
    1C        C   68   3.843   2.522   4.863
    1C        C   69   4.052   2.583   4.975
    1C        C   70   3.923   2.528   4.978
    1C        C   71   2.822   2.734   2.309
    1C        C   72   2.881   2.689   2.429
    1C        C   73   2.828   2.742   2.549
    1C        C   74   3.005   2.623   2.671
    1C        C   75   2.886   2.699   2.670
    1C        C   76   3.067   2.590   2.794
    1C        C   77   3.008   2.626   2.917
    1C        C   78   3.204   2.548   3.037
    1C        C   79   3.072   2.599   3.040
    1C        C   80   3.271   2.525   3.159
    1C        C   81   3.203   2.547   3.281
    1C        C   82   3.412   2.504   3.401
    1C        C   83   3.274   2.533   3.403
    1C        C   84   3.483   2.496   3.523
    1C        C   85   3.416   2.508   3.646
    1C        C   86   3.627   2.503   3.768
    1C        C   87   3.486   2.506   3.769
    1C        C   88   3.698   2.511   3.890
    1C        C   89   3.629   2.504   4.013
    1C        C   90   3.836   2.541   4.136
    1C        C   91   3.699   2.507   4.136
    1C        C   92   3.907   2.567   4.256
    1C        C   93   3.840   2.535   4.376
    1C        C   94   4.032   2.625   4.497
    1C        C   95   3.906   2.561   4.499
    1C        C   96   4.096   2.664   4.617
    1C        C   97   4.032   2.624   4.737
    1C        C   98   4.190   2.763   4.863
    1C        C   99   4.099   2.653   4.859
    1C        C  100   4.217   2.839   4.977
    1C        C  101   2.819   2.730   2.073
    1C        C  102   2.986   2.587   2.190
    1C        C  103   2.874   2.676   2.190
    1C        C  104   3.058   2.562   2.310
    1C        C  105   2.997   2.610   2.428
    1C        C  106   3.196   2.531   2.552
    1C        C  107   3.067   2.588   2.549
    1C        C  108   3.269   2.516   2.672
    1C        C  109   3.199   2.539   2.793
    1C        C  110   3.409   2.500   2.916
    1C        C  111   3.270   2.524   2.914
    1C        C  112   3.481   2.494   3.037
    1C        C  113   3.411   2.502   3.160
    1C        C  114   3.625   2.497   3.278
    1C        C  115   3.484   2.493   3.280
    1C        C  116   3.695   2.506   3.401
    1C        C  117   3.625   2.500   3.523
    1C        C  118   3.834   2.542   3.645
    1C        C  119   3.696   2.509   3.645
    1C        C  120   3.901   2.566   3.767
    1C        C  121   3.835   2.544   3.890
    1C        C  122   4.026   2.630   4.011
    1C        C  123   3.900   2.567   4.013
    1C        C  124   4.091   2.667   4.131
    1C        C  125   4.035   2.627   4.254
    1C        C  126   4.198   2.759   4.373
    1C        C  127   4.093   2.665   4.376
    1C        C  128   4.248   2.810   4.495
    1C        C  129   4.203   2.756   4.618
    1C        C  130   4.326   2.929   4.740
    1C        C  131   4.242   2.814   4.741
    1C        C  132   4.357   2.997   4.860
    1C        C  133   4.286   2.960   4.975
    1C        C  134   3.171   2.471   2.079
    1C        C  135   3.035   2.505   2.083
    1C        C  136   3.257   2.480   2.189
    1C        C  137   3.191   2.511   2.310
    1C        C  138   3.403   2.482   2.426
    1C        C  139   3.262   2.499   2.432
    1C        C  140   3.477   2.479   2.547
    1C        C  141   3.408   2.491   2.669
    1C        C  142   3.619   2.490   2.791
    1C        C  143   3.478   2.490   2.793
    1C        C  144   3.692   2.501   2.911
    1C        C  145   3.622   2.497   3.034
    1C        C  146   3.831   2.540   3.154
    1C        C  147   3.694   2.504   3.155
    1C        C  148   3.898   2.563   3.275
    1C        C  149   3.832   2.538   3.398
    1C        C  150   4.025   2.623   3.521
    1C        C  151   3.897   2.563   3.521
    1C        C  152   4.087   2.662   3.641
    1C        C  153   4.027   2.631   3.765
    1C        C  154   4.198   2.752   3.886
    1C        C  155   4.086   2.666   3.888
    1C        C  156   4.250   2.805   4.006
    1C        C  157   4.199   2.759   4.130
    1C        C  158   4.342   2.916   4.253
    1C        C  159   4.253   2.806   4.252
    1C        C  160   4.374   2.979   4.375
    1C        C  161   4.328   2.926   4.498
    1C        C  162   4.432   3.113   4.614
    1C        C  163   4.365   2.989   4.619
    1C        C  164   4.461   3.182   4.734
    1C        C  165   4.432   3.117   4.856
    1C        C  166   4.504   3.317   4.972
    1C        C  167   4.478   3.180   4.972
    1C        C  168   3.473   2.428   2.073
    1C        C  169   3.396   2.453   2.187
    1C        C  170   3.615   2.468   2.306
    1C        C  171   3.473   2.463   2.305
    1C        C  172   3.687   2.491   2.425
    1C        C  173   3.618   2.482   2.548
    1C        C  174   3.827   2.530   2.666
    1C        C  175   3.690   2.495   2.669
    1C        C  176   3.893   2.560   2.787
    1C        C  177   3.829   2.536   2.911
    1C        C  178   4.024   2.625   3.029
    1C        C  179   3.898   2.562   3.031
    1C        C  180   4.084   2.664   3.151
    1C        C  181   4.027   2.621   3.273
    1C        C  182   4.195   2.745   3.397
    1C        C  183   4.086   2.654   3.397
    1C        C  184   4.248   2.799   3.517
    1C        C  185   4.197   2.751   3.640
    1C        C  186   4.334   2.912   3.763
    1C        C  187   4.246   2.801   3.762
    1C        C  188   4.373   2.974   3.884
    1C        C  189   4.338   2.915   4.008
    1C        C  190   4.439   3.102   4.128
    1C        C  191   4.381   2.973   4.130
    1C        C  192   4.460   3.170   4.249
    1C        C  193   4.433   3.107   4.373
    1C        C  194   4.501   3.314   4.492
    1C        C  195   4.458   3.179   4.492
    1C        C  196   4.524   3.384   4.612
    1C        C  197   4.504   3.317   4.735
    1C        C  198   4.552   3.531   4.848
    1C        C  199   4.527   3.390   4.855
    1C        C  200   4.584   3.620   4.955
    1C        C  201   3.612   2.419   2.073
    1C        C  202   3.824   2.513   2.182
    1C        C  203   3.689   2.465   2.184
    1C        C  204   3.896   2.539   2.302
    1C        C  205   3.825   2.520   2.423
    1C        C  206   4.019   2.615   2.540
    1C        C  207   3.893   2.552   2.543
    1C        C  208   4.081   2.654   2.660
    1C        C  209   4.017   2.627   2.783
    1C        C  210   4.189   2.752   2.906
    1C        C  211   4.077   2.667   2.905
    1C        C  212   4.245   2.799   3.027
    1C        C  213   4.194   2.753   3.150
    1C        C  214   4.332   2.906   3.273
    1C        C  215   4.244   2.796   3.275
    1C        C  216   4.367   2.969   3.394
    1C        C  217   4.334   2.911   3.518
    1C        C  218   4.431   3.098   3.637
    1C        C  219   4.373   2.970   3.640
    1C        C  220   4.460   3.163   3.759
    1C        C  221   4.434   3.102   3.883
    1C        C  222   4.495   3.305   4.003
    1C        C  223   4.463   3.168   4.005
    1C        C  224   4.507   3.377   4.124
    1C        C  225   4.495   3.307   4.247
    1C        C  226   4.510   3.521   4.366
    1C        C  227   4.507   3.380   4.367
    1C        C  228   4.514   3.595   4.487
    1C        C  229   4.524   3.525   4.609
    1C        C  230   4.496   3.741   4.727
    1C        C  231   4.529   3.602   4.727
    1C        C  232   4.494   3.821   4.843
    1C        C  233   4.539   3.753   4.957
    1C        C  234   4.016   2.605   2.061
    1C        C  235   3.891   2.544   2.063
    1C        C  236   4.084   2.646   2.176
    1C        C  237   4.020   2.609   2.296
    1C        C  238   4.194   2.735   2.419
    1C        C  239   4.081   2.648   2.417
    1C        C  240   4.251   2.783   2.539
    1C        C  241   4.194   2.740   2.661
    1C        C  242   4.336   2.900   2.783
    1C        C  243   4.245   2.791   2.782
    1C        C  244   4.376   2.963   2.903
    1C        C  245   4.335   2.908   3.027
    1C        C  246   4.435   3.091   3.147
    1C        C  247   4.373   2.964   3.151
    1C        C  248   4.456   3.159   3.269
    1C        C  249   4.428   3.097   3.393
    1C        C  250   4.495   3.300   3.512
    1C        C  251   4.456   3.164   3.514
    1C        C  252   4.500   3.369   3.635
    1C        C  253   4.485   3.302   3.758
    1C        C  254   4.515   3.514   3.876
    1C        C  255   4.503   3.373   3.879
    1C        C  256   4.511   3.585   3.998
    1C        C  257   4.517   3.517   4.122
    1C        C  258   4.481   3.729   4.241
    1C        C  259   4.502   3.589   4.243
    1C        C  260   4.467   3.801   4.362
    1C        C  261   4.486   3.733   4.485
    1C        C  262   4.422   3.939   4.600
    1C        C  263   4.469   3.806   4.604
    1C        C  264   4.400   4.011   4.720
    1C        C  265   4.436   3.949   4.842
    1C        C  266   4.326   4.136   4.954
    1C        C  267   4.403   4.020   4.959
    1C        C  268   4.257   2.780   2.058
    1C        C  269   4.199   2.728   2.174
    1C        C  270   4.342   2.885   2.297
    1C        C  271   4.249   2.778   2.296
    1C        C  272   4.381   2.949   2.416
    1C        C  273   4.341   2.892   2.539
    1C        C  274   4.445   3.079   2.657
    1C        C  275   4.379   2.954   2.660
    1C        C  276   4.468   3.150   2.777
    1C        C  277   4.439   3.090   2.901
    1C        C  278   4.498   3.292   3.024
    1C        C  279   4.463   3.155   3.024
    1C        C  280   4.506   3.363   3.145
    1C        C  281   4.494   3.295   3.268
    1C        C  282   4.513   3.509   3.390
    1C        C  283   4.502   3.369   3.389
    1C        C  284   4.509   3.582   3.511
    1C        C  285   4.505   3.510   3.632
    1C        C  286   4.485   3.723   3.750
    1C        C  287   4.510   3.583   3.753
    1C        C  288   4.462   3.789   3.873
    1C        C  289   4.483   3.723   3.996
    1C        C  290   4.420   3.928   4.115
    1C        C  291   4.465   3.794   4.117
    1C        C  292   4.394   3.999   4.234
    1C        C  293   4.424   3.935   4.356
    1C        C  294   4.327   4.127   4.475
    1C        C  295   4.390   4.000   4.477
    1C        C  296   4.287   4.191   4.594
    1C        C  297   4.329   4.134   4.717
    1C        C  298   4.201   4.315   4.834
    1C        C  299   4.286   4.199   4.835
    1C        C  300   4.170   4.396   4.947
    1C        C  301   4.349   2.885   2.058
    1C        C  302   4.467   3.065   2.174
    1C        C  303   4.393   2.943   2.177
    1C        C  304   4.476   3.142   2.294
    1C        C  305   4.447   3.074   2.414
    1C        C  306   4.508   3.280   2.535
    1C        C  307   4.474   3.143   2.535
    1C        C  308   4.512   3.354   2.655
    1C        C  309   4.502   3.287   2.779
    1C        C  310   4.524   3.499   2.895
    1C        C  311   4.514   3.358   2.900
    1C        C  312   4.514   3.571   3.017
    1C        C  313   4.507   3.505   3.141
    1C        C  314   4.483   3.713   3.260
    1C        C  315   4.507   3.574   3.264
    1C        C  316   4.469   3.784   3.382
    1C        C  317   4.490   3.722   3.508
    1C        C  318   4.421   3.925   3.627
    1C        C  319   4.473   3.793   3.629
    1C        C  320   4.390   3.990   3.749
    1C        C  321   4.419   3.924   3.870
    1C        C  322   4.318   4.112   3.988
    1C        C  323   4.391   3.991   3.991
    1C        C  324   4.280   4.174   4.109
    1C        C  325   4.324   4.122   4.233
    1C        C  326   4.191   4.290   4.351
    1C        C  327   4.285   4.185   4.353
    1C        C  328   4.143   4.346   4.471
    1C        C  329   4.196   4.298   4.593
    1C        C  330   4.030   4.440   4.711
    1C        C  331   4.147   4.360   4.710
    1C        C  332   3.971   4.489   4.829
    1C        C  333   4.053   4.472   4.942
    1C        C  334   4.554   3.263   2.062
    1C        C  335   4.531   3.124   2.060
    1C        C  336   4.535   3.347   2.172
    1C        C  337   4.511   3.280   2.293
    1C        C  338   4.527   3.493   2.409
    1C        C  339   4.521   3.352   2.414
    1C        C  340   4.522   3.565   2.531
    1C        C  341   4.518   3.495   2.654
    1C        C  342   4.496   3.710   2.770
    1C        C  343   4.516   3.570   2.773
    1C        C  344   4.476   3.779   2.892
    1C        C  345   4.495   3.711   3.014
    1C        C  346   4.426   3.912   3.136
    1C        C  347   4.475   3.780   3.136
    1C        C  348   4.393   3.979   3.256
    1C        C  349   4.424   3.917   3.379
    1C        C  350   4.320   4.103   3.500
    1C        C  351   4.394   3.983   3.501
    1C        C  352   4.279   4.166   3.620
    1C        C  353   4.317   4.111   3.744
    1C        C  354   4.175   4.268   3.866
    1C        C  355   4.273   4.166   3.866
    1C        C  356   4.123   4.321   3.986
    1C        C  357   4.182   4.275   4.106
    1C        C  358   4.015   4.407   4.228
    1C        C  359   4.132   4.327   4.228
    1C        C  360   3.956   4.448   4.349
    1C        C  361   4.024   4.422   4.470
    1C        C  362   3.830   4.516   4.592
    1C        C  363   3.962   4.465   4.590
    1C        C  364   3.763   4.550   4.711
    1C        C  365   3.840   4.543   4.829
    1C        C  366   3.630   4.583   4.950
    1C        C  367   3.768   4.570   4.946
    1C        C  368   4.511   3.563   2.052
    1C        C  369   4.529   3.488   2.169
    1C        C  370   4.495   3.703   2.285
    1C        C  371   4.522   3.564   2.288
    1C        C  372   4.480   3.774   2.407
    1C        C  373   4.500   3.705   2.528
    1C        C  374   4.425   3.908   2.647
    1C        C  375   4.480   3.778   2.647
    1C        C  376   4.396   3.972   2.770
    1C        C  377   4.431   3.912   2.893
    1C        C  378   4.321   4.096   3.011
    1C        C  379   4.396   3.977   3.014
    1C        C  380   4.279   4.155   3.133
    1C        C  381   4.317   4.099   3.257
    1C        C  382   4.179   4.261   3.375
    1C        C  383   4.273   4.157   3.378
    1C        C  384   4.130   4.315   3.497
    1C        C  385   4.180   4.267   3.620
    1C        C  386   4.010   4.395   3.738
    1C        C  387   4.126   4.314   3.742
    1C        C  388   3.946   4.428   3.860
    1C        C  389   4.007   4.401   3.984
    1C        C  390   3.816   4.486   4.105
    1C        C  391   3.949   4.440   4.107
    1C        C  392   3.753   4.514   4.228
    1C        C  393   3.825   4.502   4.349
    1C        C  394   3.617   4.546   4.473
    1C        C  395   3.757   4.523   4.471
    1C        C  396   3.547   4.561   4.594
    1C        C  397   3.623   4.565   4.714
    1C        C  398   3.411   4.548   4.837
    1C        C  399   3.551   4.564   4.835
    1C        C  400   3.345   4.512   4.955
    1C        C  401   4.498   3.702   2.049
    1C        C  402   4.444   3.912   2.164
    1C        C  403   4.486   3.778   2.166
    1C        C  404   4.411   3.977   2.285
    1C        C  405   4.439   3.909   2.406
    1C        C  406   4.328   4.096   2.523
    1C        C  407   4.402   3.975   2.525
    1C        C  408   4.276   4.147   2.644
    1C        C  409   4.315   4.088   2.766
    1C        C  410   4.178   4.250   2.887
    1C        C  411   4.277   4.149   2.888
    1C        C  412   4.126   4.299   3.009
    1C        C  413   4.180   4.255   3.132
    1C        C  414   4.004   4.379   3.250
    1C        C  415   4.123   4.303   3.252
    1C        C  416   3.948   4.421   3.373
    1C        C  417   4.012   4.393   3.495
    1C        C  418   3.815   4.478   3.615
    1C        C  419   3.946   4.425   3.616
    1C        C  420   3.746   4.498   3.737
    1C        C  421   3.815   4.481   3.859
    1C        C  422   3.611   4.535   3.984
    1C        C  423   3.749   4.506   3.982
    1C        C  424   3.541   4.538   4.107
    1C        C  425   3.614   4.536   4.228
    1C        C  426   3.404   4.539   4.354
    1C        C  427   3.545   4.543   4.352
    1C        C  428   3.333   4.540   4.476
    1C        C  429   3.406   4.556   4.596
    1C        C  430   3.195   4.520   4.721
    1C        C  431   3.334   4.548   4.718
    1C        C  432   3.126   4.494   4.842
    1C        C  433   3.208   4.488   4.956
    1C        C  434   4.385   4.121   2.051
    1C        C  435   4.447   3.996   2.051
    1C        C  436   4.304   4.162   2.162
    1C        C  437   4.341   4.100   2.285
    1C        C  438   4.181   4.251   2.402
    1C        C  439   4.287   4.157   2.403
    1C        C  440   4.127   4.299   2.523
    1C        C  441   4.179   4.250   2.645
    1C        C  442   4.004   4.374   2.763
    1C        C  443   4.122   4.296   2.765
    1C        C  444   3.943   4.408   2.885
    1C        C  445   4.006   4.373   3.007
    1C        C  446   3.813   4.469   3.126
    1C        C  447   3.943   4.412   3.127
    1C        C  448   3.748   4.490   3.249
    1C        C  449   3.816   4.472   3.372
    1C        C  450   3.608   4.523   3.492
    1C        C  451   3.746   4.494   3.493
    1C        C  452   3.541   4.532   3.616
    1C        C  453   3.608   4.527   3.741
    1C        C  454   3.398   4.542   3.861
    1C        C  455   3.539   4.544   3.863
    1C        C  456   3.330   4.529   3.984
    1C        C  457   3.400   4.532   4.107
    1C        C  458   3.196   4.497   4.234
    1C        C  459   3.334   4.527   4.232
    1C        C  460   3.128   4.480   4.357
    1C        C  461   3.196   4.508   4.478
    1C        C  462   3.000   4.430   4.602
    1C        C  463   3.127   4.492   4.600
    1C        C  464   2.932   4.398   4.722
    1C        C  465   2.993   4.442   4.843
    1C        C  466   2.801   4.335   4.957
    1C        C  467   2.905   4.429   4.955
    1C        C  468   4.123   4.279   2.040
    1C        C  469   4.188   4.246   2.159
    1C        C  470   4.006   4.367   2.274
    1C        C  471   4.125   4.290   2.279
    1C        C  472   3.939   4.394   2.395
    1C        C  473   4.003   4.368   2.519
    1C        C  474   3.811   4.460   2.640
    1C        C  475   3.941   4.405   2.640
    1C        C  476   3.743   4.481   2.761
    1C        C  477   3.813   4.462   2.883
    1C        C  478   3.606   4.515   3.007
    1C        C  479   3.744   4.485   3.004
    1C        C  480   3.534   4.520   3.128
    1C        C  481   3.609   4.515   3.248
    1C        C  482   3.397   4.522   3.374
    1C        C  483   3.538   4.527   3.370
    1C        C  484   3.327   4.522   3.496
    1C        C  485   3.400   4.531   3.617
    1C        C  486   3.190   4.497   3.744
    1C        C  487   3.329   4.523   3.739
    1C        C  488   3.126   4.476   3.868
    1C        C  489   3.193   4.498   3.990
    1C        C  490   3.001   4.412   4.116
    1C        C  491   3.127   4.474   4.113
    1C        C  492   2.941   4.379   4.239
    1C        C  493   2.999   4.422   4.360
    1C        C  494   2.828   4.298   4.480
    1C        C  495   2.938   4.387   4.483
    1C        C  496   2.772   4.256   4.602
    1C        C  497   2.820   4.311   4.724
    1C        C  498   2.666   4.162   4.844
    1C        C  499   2.752   4.274   4.841
    1C        C  500   2.598   4.116   4.957
    1C        C  501   4.002   4.347   2.038
    1C        C  502   3.812   4.458   2.152
    1C        C  503   3.939   4.398   2.153
    1C        C  504   3.744   4.480   2.274
    1C        C  505   3.811   4.453   2.395
    1C        C  506   3.604   4.502   2.518
    1C        C  507   3.743   4.475   2.517
    1C        C  508   3.533   4.509   2.640
    1C        C  509   3.604   4.510   2.762
    1C        C  510   3.394   4.517   2.884
    1C        C  511   3.535   4.520   2.884
    1C        C  512   3.322   4.519   3.005
    1C        C  513   3.393   4.529   3.127
    1C        C  514   3.189   4.488   3.254
    1C        C  515   3.326   4.519   3.251
    1C        C  516   3.122   4.470   3.377
    1C        C  517   3.189   4.493   3.499
    1C        C  518   2.997   4.408   3.626
    1C        C  519   3.121   4.476   3.622
    1C        C  520   2.939   4.369   3.749
    1C        C  521   3.002   4.408   3.869
    1C        C  522   2.833   4.284   3.995
    1C        C  523   2.942   4.375   3.993
    1C        C  524   2.781   4.236   4.117
    1C        C  525   2.832   4.289   4.238
    1C        C  526   2.691   4.131   4.362
    1C        C  527   2.780   4.241   4.360
    1C        C  528   2.652   4.074   4.486
    1C        C  529   2.689   4.142   4.604
    1C        C  530   2.587   3.957   4.731
    1C        C  531   2.641   4.089   4.725
    1C        C  532   2.539   3.900   4.852
    1C        C  533   2.530   3.994   4.959
    1C        C  534   3.619   4.557   2.038
    1C        C  535   3.753   4.515   2.039
    1C        C  536   3.535   4.535   2.152
    1C        C  537   3.605   4.507   2.273
    1C        C  538   3.394   4.514   2.401
    1C        C  539   3.535   4.515   2.395
    1C        C  540   3.318   4.509   2.520
    1C        C  541   3.392   4.511   2.641
    1C        C  542   3.183   4.475   2.765
    1C        C  543   3.321   4.505   2.763
    1C        C  544   3.116   4.458   2.888
    1C        C  545   3.185   4.485   3.009
    1C        C  546   2.994   4.400   3.137
    1C        C  547   3.121   4.461   3.133
    1C        C  548   2.934   4.366   3.260
    1C        C  549   2.996   4.405   3.381
    1C        C  550   2.830   4.278   3.505
    1C        C  551   2.937   4.370   3.504
    1C        C  552   2.778   4.231   3.627
    1C        C  553   2.828   4.282   3.749
    1C        C  554   2.691   4.125   3.874
    1C        C  555   2.782   4.233   3.874
    1C        C  556   2.659   4.062   3.996
    1C        C  557   2.695   4.124   4.118
    1C        C  558   2.591   3.943   4.247
    1C        C  559   2.652   4.070   4.241
    1C        C  560   2.561   3.878   4.369
    1C        C  561   2.590   3.947   4.488
    1C        C  562   2.535   3.746   4.616
    1C        C  563   2.566   3.883   4.612
    1C        C  564   2.521   3.678   4.739
    1C        C  565   2.514   3.759   4.856
    1C        C  566   2.533   3.545   4.975
    1C        C  567   2.529   3.684   4.973
    1C        C  568   3.326   4.477   2.040
    1C        C  569   3.395   4.509   2.158
    1C        C  570   3.183   4.479   2.279
    1C        C  571   3.322   4.505   2.280
    1C        C  572   3.115   4.453   2.400
    1C        C  573   3.181   4.478   2.523
    1C        C  574   2.983   4.403   2.646
    1C        C  575   3.111   4.461   2.645
    1C        C  576   2.925   4.364   2.769
    1C        C  577   2.988   4.397   2.891
    1C        C  578   2.819   4.277   3.014
    1C        C  579   2.931   4.364   3.016
    1C        C  580   2.778   4.223   3.138
    1C        C  581   2.825   4.276   3.260
    1C        C  582   2.695   4.113   3.384
    1C        C  583   2.778   4.227   3.383
    1C        C  584   2.661   4.054   3.508
    1C        C  585   2.692   4.118   3.629
    1C        C  586   2.598   3.933   3.755
    1C        C  587   2.652   4.064   3.753
    1C        C  588   2.579   3.866   3.878
    1C        C  589   2.603   3.932   4.001
    1C        C  590   2.540   3.735   4.126
    1C        C  591   2.576   3.871   4.126
    1C        C  592   2.524   3.669   4.249
    1C        C  593   2.528   3.741   4.371
    1C        C  594   2.513   3.533   4.497
    1C        C  595   2.521   3.674   4.495
    1C        C  596   2.518   3.463   4.620
    1C        C  597   2.518   3.536   4.741
    1C        C  598   2.533   3.323   4.864
    1C        C  599   2.523   3.463   4.862
    1C        C  600   2.539   3.247   4.982
    1C        C  601   3.194   4.439   2.045
    1C        C  602   2.979   4.394   2.160
    1C        C  603   3.114   4.440   2.161
    1C        C  604   2.922   4.354   2.285
    1C        C  605   2.989   4.389   2.404
    1C        C  606   2.815   4.268   2.528
    1C        C  607   2.923   4.359   2.525
    1C        C  608   2.765   4.218   2.651
    1C        C  609   2.820   4.269   2.770
    1C        C  610   2.684   4.109   2.897
    1C        C  611   2.770   4.222   2.893
    1C        C  612   2.648   4.049   3.020
    1C        C  613   2.694   4.109   3.139
    1C        C  614   2.588   3.927   3.266
    1C        C  615   2.656   4.051   3.262
    1C        C  616   2.567   3.863   3.390
    1C        C  617   2.602   3.926   3.512
    1C        C  618   2.533   3.728   3.634
    1C        C  619   2.572   3.863   3.635
    1C        C  620   2.514   3.663   3.758
    1C        C  621   2.529   3.734   3.879
    1C        C  622   2.514   3.525   4.005
    1C        C  623   2.523   3.666   4.003
    1C        C  624   2.510   3.458   4.130
    1C        C  625   2.514   3.528   4.253
    1C        C  626   2.538   3.321   4.379
    1C        C  627   2.511   3.460   4.376
    1C        C  628   2.552   3.251   4.501
    1C        C  629   2.536   3.323   4.622
    1C        C  630   2.596   3.117   4.744
    1C        C  631   2.552   3.252   4.744
    1C        C  632   2.617   3.045   4.864
    1C        C  633   2.563   3.109   4.980
    1C        C  634   2.778   4.304   2.052
    1C        C  635   2.889   4.389   2.049
    1C        C  636   2.746   4.228   2.166
    1C        C  637   2.805   4.273   2.286
    1C        C  638   2.670   4.112   2.407
    1C        C  639   2.756   4.223   2.408
    1C        C  640   2.639   4.048   2.529
    1C        C  641   2.682   4.104   2.651
    1C        C  642   2.585   3.920   2.775
    1C        C  643   2.649   4.046   2.776
    1C        C  644   2.557   3.857   2.899
    1C        C  645   2.582   3.925   3.020
    1C        C  646   2.526   3.723   3.148
    1C        C  647   2.562   3.860   3.144
    1C        C  648   2.512   3.654   3.270
    1C        C  649   2.531   3.727   3.389
    1C        C  650   2.512   3.516   3.515
    1C        C  651   2.522   3.657   3.512
    1C        C  652   2.511   3.450   3.640
    1C        C  653   2.509   3.521   3.762
    1C        C  654   2.537   3.313   3.889
    1C        C  655   2.510   3.451   3.885
    1C        C  656   2.556   3.249   4.014
    1C        C  657   2.538   3.319   4.135
    1C        C  658   2.605   3.119   4.260
    1C        C  659   2.557   3.252   4.258
    1C        C  660   2.634   3.055   4.383
    1C        C  661   2.599   3.118   4.504
    1C        C  662   2.707   2.935   4.626
    1C        C  663   2.620   3.046   4.624
    1C        C  664   2.754   2.874   4.745
    1C        C  665   2.699   2.927   4.865
    1C        C  666   2.744   2.867   4.983
    1C        C  667   2.674   4.025   2.051
    1C        C  668   2.679   4.104   2.166
    1C        C  669   2.587   3.911   2.288
    1C        C  670   2.637   4.044   2.287
    1C        C  671   2.565   3.843   2.410
    1C        C  672   2.585   3.917   2.529
    1C        C  673   2.519   3.719   2.656
    1C        C  674   2.555   3.856   2.653
    1C        C  675   2.514   3.648   2.778
    1C        C  676   2.526   3.719   2.900
    1C        C  677   2.506   3.513   3.028
    1C        C  678   2.515   3.654   3.025
    1C        C  679   2.510   3.440   3.149
    1C        C  680   2.509   3.513   3.270
    1C        C  681   2.529   3.305   3.398
    1C        C  682   2.506   3.444   3.394
    1C        C  683   2.552   3.241   3.522
    1C        C  684   2.533   3.311   3.643
    1C        C  685   2.604   3.113   3.770
    1C        C  686   2.555   3.245   3.766
    1C        C  687   2.635   3.051   3.894
    1C        C  688   2.602   3.116   4.015
    1C        C  689   2.713   2.937   4.137
    1C        C  690   2.632   3.053   4.138
    1C        C  691   2.758   2.883   4.260
    1C        C  692   2.712   2.938   4.382
    1C        C  693   2.749   2.877   4.504
    1C        C  694   2.621   3.896   2.051
    1C        C  695   2.519   3.708   2.171
    1C        C  696   2.568   3.840   2.168
    1C        C  697   2.502   3.639   2.293
    1C        C  698   2.515   3.711   2.414
    1C        C  699   2.483   3.505   2.541
    1C        C  700   2.500   3.645   2.538
    1C        C  701   2.501   3.435   2.663
    1C        C  702   2.508   3.507   2.784
    1C        C  703   2.524   3.299   2.906
    1C        C  704   2.506   3.439   2.908
    1C        C  705   2.546   3.232   3.029
    1C        C  706   2.536   3.301   3.152
    1C        C  707   2.600   3.103   3.278
    1C        C  708   2.552   3.237   3.277
    1C        C  709   2.630   3.043   3.402
    1C        C  710   2.608   3.111   3.524
    1C        C  711   2.706   2.927   3.650
    1C        C  712   2.632   3.048   3.648
    1C        C  713   2.751   2.872   3.772
    1C        C  714   2.711   2.933   3.893
    1C        C  715   2.756   2.878   4.016
    1C        C  716   2.451   3.498   2.061
    1C        C  717   2.493   3.632   2.056
    1C        C  718   2.465   3.421   2.180
    1C        C  719   2.481   3.498   2.299
    1C        C  720   2.502   3.289   2.424
    1C        C  721   2.481   3.429   2.422
    1C        C  722   2.528   3.221   2.545
    1C        C  723   2.514   3.294   2.665
    1C        C  724   2.573   3.089   2.789
    1C        C  725   2.535   3.224   2.787
    1C        C  726   2.615   3.032   2.912
    1C        C  727   2.592   3.099   3.034
    1C        C  728   2.710   2.923   3.156
    1C        C  729   2.628   3.038   3.156
    1C        C  730   2.756   2.873   3.280
    1C        C  731   2.710   2.926   3.402
    1C        C  732   2.749   2.872   3.527
    1C        C  733   2.498   3.202   2.066
    1C        C  734   2.488   3.280   2.182
    1C        C  735   2.587   3.090   2.304
    1C        C  736   2.524   3.217   2.304
    1C        C  737   2.617   3.027   2.427
    1C        C  738   2.583   3.090   2.548
    1C        C  739   2.693   2.908   2.669
    1C        C  740   2.612   3.024   2.670
    1C        C  741   2.742   2.856   2.791
    1C        C  742   2.701   2.920   2.911
    1C        C  743   2.753   2.870   3.032
    1C        C  744   2.548   3.073   2.073
    1C        C  745   2.678   2.893   2.188
    1C        C  746   2.611   3.018   2.185
    1C        C  747   2.723   2.837   2.309
    1C        C  748   2.684   2.903   2.428
    1C        C  749   2.737   2.850   2.548
    1C        C  750   2.734   2.840   2.071
    1C        C  751   3.670   2.326   1.973
    1C        O  752   3.690   2.203   1.993
    1C        O  753   3.706   2.355   1.841
    1C        C  754   4.597   3.053   1.949
    1C        O  755   4.558   3.073   1.830
    1C        O  756   4.706   2.967   1.971
    1C        C  757   4.443   4.211   1.949
    1C        O  758   4.496   4.321   1.980
    1C        O  759   4.382   4.200   1.824
    1C        C  760   3.582   4.644   1.925
    1C        O  761   3.629   4.761   1.925
    1C        O  762   3.590   4.591   1.796
    1C        C  763   2.855   4.511   1.972
    1C        O  764   2.880   4.504   1.848
    1C        O  765   2.767   4.613   2.009
    1C        C  766   2.346   3.470   1.960
    1C        O  767   2.363   3.469   1.835
    1C        O  768   2.218   3.450   2.013
    1C        C  769   4.690   3.585   5.053
    1C        O  770   4.663   3.524   5.160
    1C        O  771   4.824   3.614   5.027
    1C        C  772   4.281   4.467   5.016
    1C        O  773   4.311   4.439   5.135
    1C        O  774   4.356   4.581   4.984
    1C        C  775   4.148   2.524   5.071
    1C        O  776   4.197   2.414   5.033
    1C        O  777   4.126   2.554   5.206
    1C        C  778   2.906   4.531   5.063
    1C        O  779   2.869   4.651   5.059
    1C        O  780   2.960   4.507   5.189
    1C        C  781   2.449   3.045   5.049
    1C        O  782   2.332   3.029   5.003
    1C        O  783   2.452   3.022   5.186
    1C        C  784   2.437   3.973   5.073
    1C        O  785   2.318   4.012   5.058
    1C        O  786   2.467   3.964   5.209
    1C        C  787   2.946   2.399   2.029
    1C        O  788   2.921   2.395   1.906
    1C        O  789   2.885   2.302   2.107
    1C        C  790   3.180   2.376   5.068
    1C        O  791   3.174   2.253   5.041
    1C        O  792   3.230   2.398   5.197
    1C        H  793   4.273   3.029   5.055
    1C        H  794   4.155   2.826   5.064
    1C        H  795   4.518   3.115   5.047
    1C        H  796   4.483   3.370   5.063
    1C        H  797   4.548   3.804   5.051
    1C        H  798   4.450   3.998   5.052
    1C        H  799   4.277   4.159   5.046
    1C        H  800   4.017   4.508   5.036
    1C        H  801   3.823   4.592   5.036
    1C        H  802   3.589   4.648   5.025
    1C        H  803   3.398   4.495   5.047
    1C        H  804   3.164   4.541   5.038
    1C        H  805   3.882   2.525   5.077
    1C        H  806   3.673   2.510   5.075
    1C        H  807   3.001   2.542   5.058
    1C        H  808   3.448   2.496   5.076
    1C        H  809   2.870   2.716   5.070
    1C        H  810   2.675   2.859   5.064
    1C        H  811   2.528   3.294   5.078
    1C        H  812   2.563   3.498   5.066
    1C        H  813   2.580   3.737   5.051
    1C        H  814   2.563   4.191   5.026
    1C        H  815   2.766   4.303   5.053
    1C        H  816   2.759   2.916   2.000
    1C        H  817   2.831   2.673   1.983
    1C        H  818   3.214   2.444   1.985
    1C        H  819   3.431   2.461   1.980
    1C        H  820   3.839   2.532   1.970
    1C        H  821   4.061   2.628   1.967
    1C        H  822   4.276   2.711   1.979
    1C        H  823   4.359   2.939   1.966
    1C        H  824   4.607   3.306   1.979
    1C        H  825   4.480   3.511   1.963
    1C        H  826   4.471   3.745   1.955
    1C        H  827   3.808   4.511   1.947
    1C        H  828   3.942   4.333   1.950
    1C        H  829   4.163   4.241   1.948
    1C        H  830   4.519   3.971   1.975
    1C        H  831   2.665   3.830   1.979
    1C        H  832   2.745   4.040   1.972
    1C        H  833   2.694   4.315   1.987
    1C        H  834   3.381   4.424   1.965
    1C        H  835   3.165   4.380   1.961
    1C        H  836   2.522   3.008   1.992
    1C        H  837   2.442   3.234   1.980
    1C        H  838   2.528   3.663   1.960
    2V3OU   H29  839   2.809   3.553   2.273
    2V3OU   C27  840   2.787   3.502   2.370
    2V3OU   H27  841   2.731   3.574   2.435
    2V3OU   H28  842   2.735   3.405   2.352
    2V3OU   O11  843   2.909   3.474   2.441
    2V3OU   C15  844   2.926   3.396   2.554
    2V3OU   C13  845   3.052   3.376   2.614
    2V3OU   C14  846   3.078   3.271   2.702
    2V3OU   C16  847   2.974   3.185   2.738
    2V3OU    H6  848   2.991   3.101   2.808
    2V3OU   C12  849   3.215   3.223   2.730
    2V3OU    O2  850   3.238   3.125   2.804
    2V3OU   C10  851   3.325   3.311   2.688
    2V3OU    C8  852   3.457   3.276   2.714
    2V3OU   O10  853   3.482   3.156   2.773
    2V3OU   H26  854   3.397   3.115   2.794
    2V3OU    C6  855   3.564   3.354   2.662
    2V3OU    C5  856   3.536   3.468   2.587
    2V3OU    C4  857   3.700   3.292   2.656
    2V3OU    H4  858   3.724   3.226   2.744
    2V3OU    H5  859   3.705   3.231   2.562
    2V3OU    C2  860   3.811   3.398   2.658
    2V3OU    O6  861   3.807   3.479   2.776
    2V3OU   H21  862   3.753   3.555   2.748
    2V3OU    C3  863   3.780   3.496   2.545
    2V3OU    H2  864   3.858   3.576   2.539
    2V3OU    H3  865   3.782   3.440   2.448
    2V3OU   C25  866   3.944   3.325   2.638
    2V3OU    O7  867   3.997   3.299   2.530
    2V3OU   C26  868   4.027   3.289   2.760
    2V3OU   H22  869   4.055   3.391   2.797
    2V3OU   H23  870   4.116   3.230   2.727
    2V3OU    O8  871   3.960   3.215   2.859
    2V3OU   H24  872   3.923   3.271   2.929
    2V3OU    C1  873   3.646   3.566   2.565
    2V3OU    H1  874   3.623   3.620   2.468
    2V3OU    O3  875   3.660   3.652   2.679
    2V3OU   C19  876   3.618   3.789   2.669
    2V3OU    H9  877   3.524   3.803   2.609
    2V3OU    O4  878   3.712   3.855   2.587
    2V3OU   C20  879   3.845   3.875   2.635
    2V3OU   H10  880   3.892   3.773   2.633
    2V3OU   C24  881   3.609   3.849   2.810
    2V3OU   H16  882   3.539   3.782   2.866
    2V3OU   H17  883   3.560   3.949   2.803
    2V3OU   C23  884   3.747   3.876   2.869
    2V3OU   H15  885   3.794   3.773   2.887
    2V3OU    N1  886   3.736   3.959   2.987
    2V3OU   H19  887   3.807   3.925   3.049
    2V3OU   H20  888   3.645   3.943   3.026
    2V3OU   C21  889   3.848   3.944   2.771
    2V3OU   H11  890   3.952   3.929   2.815
    2V3OU    O5  891   3.830   4.085   2.769
    2V3OU   H18  892   3.781   4.104   2.851
    2V3OU   C22  893   3.913   3.948   2.519
    2V3OU   H12  894   3.860   4.045   2.500
    2V3OU   H13  895   3.905   3.888   2.425
    2V3OU   H14  896   4.020   3.966   2.543
    2V3OU   C11  897   3.157   3.476   2.590
    2V3OU    O1  898   3.130   3.593   2.557
    2V3OU    C9  899   3.294   3.422   2.605
    2V3OU    C7  900   3.399   3.502   2.563
    2V3OU    O9  901   3.385   3.612   2.481
    2V3OU   H25  902   3.292   3.638   2.493
    2V3OU   C17  903   2.822   3.315   2.603
    2V3OU    H7  904   2.727   3.341   2.556
    2V3OU   C18  905   2.846   3.212   2.693
    2V3OU    H8  906   2.772   3.170   2.763
    3SOL     OW  907   2.981   5.096   0.619
    3SOL    HW1  908   3.074   5.132   0.608
    3SOL    HW2  909   2.948   5.118   0.711
    4SOL     OW  910   0.241   6.388   2.341
    4SOL    HW1  911   0.326   6.398   2.288
    4SOL    HW2  912   0.227   6.470   2.396
    5SOL     OW  913   4.106   0.841   2.860
    5SOL    HW1  914   4.059   0.763   2.818
    5SOL    HW2  915   4.039   0.903   2.901
    6SOL     OW  916   4.096   0.853   1.545
    6SOL    HW1  917   4.041   0.883   1.623
    6SOL    HW2  918   4.086   0.920   1.471
    7SOL     OW  919   6.858   3.325   2.291
    7SOL    HW1  920   6.804   3.290   2.214
    7SOL    HW2  921   6.943   3.273   2.298
    8SOL     OW  922   3.139   0.432   0.000
    8SOL    HW1  923   3.049   0.393   6.999
    8SOL    HW2  924   3.168   0.400   0.090
    9SOL     OW  925   5.664   0.171   6.317
    9SOL    HW1  926   5.747   0.211   6.276
    9SOL    HW2  927   5.605   0.136   6.245
   10SOL     OW  928   1.502   5.031   6.227
   10SOL    HW1  929   1.543   5.106   6.280
   10SOL    HW2  930   1.450   4.972   6.289
   11SOL     OW  931   2.753   0.054   6.014
   11SOL    HW1  932   2.698   0.022   6.092
   11SOL    HW2  933   2.843   0.011   6.017
   12SOL     OW  934   3.684   5.897   3.122
   12SOL    HW1  935   3.708   5.901   3.219
   12SOL    HW2  936   3.587   5.871   3.113
   13SOL     OW  937   4.320   6.366   3.862
   13SOL    HW1  938   4.237   6.417   3.842
   13SOL    HW2  939   4.297   6.285   3.917
   14SOL     OW  940   3.421   6.088   5.706
   14SOL    HW1  941   3.455   6.167   5.655
   14SOL    HW2  942   3.486   6.066   5.780
   15SOL     OW  943   1.867   6.543   1.807
   15SOL    HW1  944   1.905   6.516   1.895
   15SOL    HW2  945   1.890   6.639   1.789
   16SOL     OW  946   5.062   3.008   5.721
   16SOL    HW1  947   5.154   2.969   5.712
   16SOL    HW2  948   4.999   2.955   5.664
   17SOL     OW  949   5.075   5.949   5.889
   17SOL    HW1  950   5.126   5.869   5.918
   17SOL    HW2  951   5.118   6.031   5.926
   18SOL     OW  952   3.140   1.356   5.896
   18SOL    HW1  953   3.189   1.427   5.844
   18SOL    HW2  954   3.134   1.273   5.840
   19SOL     OW  955   0.426   1.207   3.335
   19SOL    HW1  956   0.399   1.156   3.253
   19SOL    HW2  957   0.457   1.298   3.308
   20SOL     OW  958   5.636   2.624   4.475
   20SOL    HW1  959   5.705   2.561   4.439
   20SOL    HW2  960   5.624   2.607   4.573
   21SOL     OW  961   3.692   1.926   2.427
   21SOL    HW1  962   3.722   2.008   2.379
   21SOL    HW2  963   3.599   1.903   2.398
   22SOL     OW  964   2.218   6.560   0.381
   22SOL    HW1  965   2.161   6.527   0.456
   22SOL    HW2  966   2.297   6.609   0.417
   23SOL     OW  967   5.348   6.040   3.237
   23SOL    HW1  968   5.319   5.998   3.151
   23SOL    HW2  969   5.410   6.117   3.218
   24SOL     OW  970   4.613   0.558   3.352
   24SOL    HW1  971   4.648   0.648   3.377
   24SOL    HW2  972   4.550   0.525   3.422
   25SOL     OW  973   3.091   0.418   4.805
   25SOL    HW1  974   3.121   0.466   4.723
   25SOL    HW2  975   3.124   0.324   4.804
   26SOL     OW  976   0.075   1.040   0.142
   26SOL    HW1  977   0.124   1.122   0.170
   26SOL    HW2  978   0.055   1.045   0.044
   27SOL     OW  979   0.838   2.355   2.402
   27SOL    HW1  980   0.893   2.434   2.374
   27SOL    HW2  981   0.872   2.321   2.490
   28SOL     OW  982   2.972   2.023   5.501
   28SOL    HW1  983   3.010   2.069   5.421
   28SOL    HW2  984   2.985   2.082   5.582
   29SOL     OW  985   5.992   1.544   2.082
   29SOL    HW1  986   6.069   1.529   2.145
   29SOL    HW2  987   6.028   1.575   1.993
   30SOL     OW  988   4.212   0.984   4.182
   30SOL    HW1  989   4.229   0.907   4.243
   30SOL    HW2  990   4.114   1.006   4.182
   31SOL     OW  991   1.144   2.596   6.668
   31SOL    HW1  992   1.152   2.695   6.677
   31SOL    HW2  993   1.235   2.554   6.677
   32SOL     OW  994   0.487   1.666   2.397
   32SOL    HW1  995   0.507   1.717   2.313
   32SOL    HW2  996   0.570   1.623   2.431
   33SOL     OW  997   1.812   4.553   6.036
   33SOL    HW1  998   1.760   4.491   5.977
   33SOL    HW2  999   1.768   4.557   6.126
   34SOL     OW 1000   2.782   0.316   4.433
   34SOL    HW1 1001   2.843   0.348   4.506
   34SOL    HW2 1002   2.769   0.390   4.367
   35SOL     OW 1003   3.444   3.840   0.121
   35SOL    HW1 1004   3.477   3.841   0.026
   35SOL    HW2 1005   3.404   3.929   0.143
   36SOL     OW 1006   6.122   1.152   4.628
   36SOL    HW1 1007   6.168   1.119   4.546
   36SOL    HW2 1008   6.068   1.078   4.668
   37SOL     OW 1009   1.271   1.743   0.586
   37SOL    HW1 1010   1.177   1.776   0.600
   37SOL    HW2 1011   1.276   1.692   0.501
   38SOL     OW 1012   6.739   4.548   2.494
   38SOL    HW1 1013   6.809   4.488   2.455
   38SOL    HW2 1014   6.725   4.627   2.435
   39SOL     OW 1015   0.013   4.830   6.868
   39SOL    HW1 1016   0.055   4.754   6.918
   39SOL    HW2 1017   6.973   4.881   6.929
   40SOL     OW 1018   5.193   1.698   0.275
   40SOL    HW1 1019   5.247   1.749   0.342
   40SOL    HW2 1020   5.244   1.617   0.246
   41SOL     OW 1021   6.872   5.788   3.628
   41SOL    HW1 1022   6.778   5.818   3.612
   41SOL    HW2 1023   6.920   5.855   3.684
   42SOL     OW 1024   2.705   5.118   5.426
   42SOL    HW1 1025   2.720   5.216   5.429
   42SOL    HW2 1026   2.792   5.071   5.409
   43SOL     OW 1027   6.101   6.820   5.482
   43SOL    HW1 1028   6.201   6.817   5.483
   43SOL    HW2 1029   6.064   6.727   5.485
   44SOL     OW 1030   4.302   1.861   6.035
   44SOL    HW1 1031   4.379   1.918   6.063
   44SOL    HW2 1032   4.278   1.799   6.110
   45SOL     OW 1033   4.111   6.061   2.848
   45SOL    HW1 1034   4.084   6.090   2.756
   45SOL    HW2 1035   4.044   5.996   2.884
   46SOL     OW 1036   0.717   2.832   3.226
   46SOL    HW1 1037   0.695   2.822   3.130
   46SOL    HW2 1038   0.670   2.912   3.264
   47SOL     OW 1039   4.910   4.266   0.744
   47SOL    HW1 1040   4.950   4.321   0.670
   47SOL    HW2 1041   4.962   4.280   0.828
   48SOL     OW 1042   0.126   3.139   5.767
   48SOL    HW1 1043   0.222   3.115   5.749
   48SOL    HW2 1044   0.108   3.131   5.865
   49SOL     OW 1045   5.013   4.051   1.455
   49SOL    HW1 1046   5.065   4.089   1.378
   49SOL    HW2 1047   5.077   4.013   1.522
   50SOL     OW 1048   5.337   0.782   4.842
   50SOL    HW1 1049   5.435   0.763   4.853
   50SOL    HW2 1050   5.314   0.783   4.745
   51SOL     OW 1051   2.234   6.830   3.186
   51SOL    HW1 1052   2.325   6.802   3.217
   51SOL    HW2 1053   2.165   6.779   3.237
   52SOL     OW 1054   6.005   2.722   2.634
   52SOL    HW1 1055   6.039   2.674   2.715
   52SOL    HW2 1056   6.081   2.767   2.587
   53SOL     OW 1057   3.837   6.788   4.328
   53SOL    HW1 1058   3.784   6.777   4.244
   53SOL    HW2 1059   3.924   6.831   4.307
   54SOL     OW 1060   3.481   5.166   1.084
   54SOL    HW1 1061   3.477   5.066   1.075
   54SOL    HW2 1062   3.562   5.192   1.136
   55SOL     OW 1063   2.583   2.368   6.527
   55SOL    HW1 1064   2.544   2.376   6.435
   55SOL    HW2 1065   2.680   2.391   6.524
   56SOL     OW 1066   7.012   6.898   1.171
   56SOL    HW1 1067   0.083   6.905   1.207
   56SOL    HW2 1068   7.006   6.949   1.085
   57SOL     OW 1069   5.182   1.045   1.109
   57SOL    HW1 1070   5.241   1.016   1.033
   57SOL    HW2 1071   5.140   0.965   1.151
   58SOL     OW 1072   0.152   6.419   5.680
   58SOL    HW1 1073   0.078   6.421   5.748
   58SOL    HW2 1074   0.136   6.490   5.612
   59SOL     OW 1075   1.098   1.802   5.113
   59SOL    HW1 1076   1.057   1.861   5.183
   59SOL    HW2 1077   1.111   1.710   5.150
   60SOL     OW 1078   5.263   2.618   5.259
   60SOL    HW1 1079   5.237   2.664   5.344
   60SOL    HW2 1080   5.363   2.616   5.252
   61SOL     OW 1081   5.871   2.184   4.594
   61SOL    HW1 1082   5.878   2.084   4.596
   61SOL    HW2 1083   5.963   2.223   4.594
   62SOL     OW 1084   1.196   1.092   1.867
   62SOL    HW1 1085   1.121   1.053   1.814
   62SOL    HW2 1086   1.197   1.191   1.855
   63SOL     OW 1087   5.065   1.026   3.293
   63SOL    HW1 1088   5.123   0.956   3.251
   63SOL    HW2 1089   4.998   1.058   3.226
   64SOL     OW 1090   0.126   3.458   5.793
   64SOL    HW1 1091   0.133   3.369   5.749
   64SOL    HW2 1092   0.063   3.453   5.870
   65SOL     OW 1093   0.672   5.082   6.381
   65SOL    HW1 1094   0.692   5.037   6.468
   65SOL    HW2 1095   0.578   5.114   6.381
   66SOL     OW 1096   3.950   1.372   5.254
   66SOL    HW1 1097   3.963   1.311   5.176
   66SOL    HW2 1098   4.028   1.434   5.262
   67SOL     OW 1099   5.248   4.108   5.697
   67SOL    HW1 1100   5.252   4.137   5.602
   67SOL    HW2 1101   5.325   4.146   5.748
   68SOL     OW 1102   6.048   1.018   6.644
   68SOL    HW1 1103   6.006   1.059   6.563
   68SOL    HW2 1104   5.985   0.952   6.685
   69SOL     OW 1105   0.870   3.344   5.995
   69SOL    HW1 1106   0.830   3.295   6.072
   69SOL    HW2 1107   0.798   3.394   5.946
   70SOL     OW 1108   5.427   4.126   4.974
   70SOL    HW1 1109   5.503   4.170   5.022
   70SOL    HW2 1110   5.456   4.103   4.881
   71SOL     OW 1111   4.498   1.328   3.153
   71SOL    HW1 1112   4.481   1.237   3.190
   71SOL    HW2 1113   4.422   1.388   3.177
   72SOL     OW 1114   1.796   6.933   4.400
   72SOL    HW1 1115   1.786   0.006   4.433
   72SOL    HW2 1116   1.890   6.919   4.369
   73SOL     OW 1117   3.781   0.351   1.264
   73SOL    HW1 1118   3.854   0.360   1.332
   73SOL    HW2 1119   3.805   0.404   1.183
   74SOL     OW 1120   4.545   6.761   0.074
   74SOL    HW1 1121   4.466   6.774   0.014
   74SOL    HW2 1122   4.609   6.698   0.031
   75SOL     OW 1123   4.776   0.464   1.005
   75SOL    HW1 1124   4.826   0.419   1.080
   75SOL    HW2 1125   4.694   0.412   0.984
   76SOL     OW 1126   3.436   3.738   1.507
   76SOL    HW1 1127   3.352   3.757   1.557
   76SOL    HW2 1128   3.500   3.691   1.567
   77SOL     OW 1129   0.182   6.934   3.206
   77SOL    HW1 1130   0.187   7.017   3.262
   77SOL    HW2 1131   0.150   6.958   3.115
   78SOL     OW 1132   6.129   1.802   6.925
   78SOL    HW1 1133   6.060   1.868   6.954
   78SOL    HW2 1134   6.220   1.836   6.947
   79SOL     OW 1135   3.101   5.989   0.896
   79SOL    HW1 1136   3.119   5.921   0.967
   79SOL    HW2 1137   3.003   5.990   0.875
   80SOL     OW 1138   5.182   1.295   4.426
   80SOL    HW1 1139   5.224   1.350   4.354
   80SOL    HW2 1140   5.212   1.201   4.418
   81SOL     OW 1141   2.166   0.176   2.637
   81SOL    HW1 1142   2.143   0.226   2.553
   81SOL    HW2 1143   2.082   0.156   2.687
   82SOL     OW 1144   6.102   4.684   1.087
   82SOL    HW1 1145   6.135   4.595   1.055
   82SOL    HW2 1146   6.151   4.710   1.170
   83SOL     OW 1147   0.548   0.802   0.406
   83SOL    HW1 1148   0.610   0.731   0.440
   83SOL    HW2 1149   0.505   0.770   0.321
   84SOL     OW 1150   5.736   3.011   3.210
   84SOL    HW1 1151   5.715   2.921   3.248
   84SOL    HW2 1152   5.732   3.007   3.111
   85SOL     OW 1153   1.736   0.928   3.909
   85SOL    HW1 1154   1.641   0.901   3.925
   85SOL    HW2 1155   1.740   0.992   3.833
   86SOL     OW 1156   0.143   1.205   5.476
   86SOL    HW1 1157   0.073   1.176   5.542
   86SOL    HW2 1158   0.131   1.303   5.457
   87SOL     OW 1159   4.621   3.700   0.908
   87SOL    HW1 1160   4.713   3.705   0.870
   87SOL    HW2 1161   4.581   3.611   0.884
   88SOL     OW 1162   3.485   1.670   5.386
   88SOL    HW1 1163   3.418   1.709   5.449
   88SOL    HW2 1164   3.504   1.575   5.413
   89SOL     OW 1165   1.665   2.741   5.754
   89SOL    HW1 1166   1.665   2.709   5.849
   89SOL    HW2 1167   1.662   2.662   5.693
   90SOL     OW 1168   3.303   5.148   2.590
   90SOL    HW1 1169   3.311   5.151   2.491
   90SOL    HW2 1170   3.244   5.072   2.617
   91SOL     OW 1171   5.552   4.163   5.355
   91SOL    HW1 1172   5.563   4.140   5.259
   91SOL    HW2 1173   5.596   4.093   5.411
   92SOL     OW 1174   4.477   4.807   0.710
   92SOL    HW1 1175   4.477   4.795   0.610
   92SOL    HW2 1176   4.438   4.726   0.753
   93SOL     OW 1177   3.260   4.267   0.537
   93SOL    HW1 1178   3.278   4.240   0.443
   93SOL    HW2 1179   3.205   4.197   0.583
   94SOL     OW 1180   2.216   5.885   6.449
   94SOL    HW1 1181   2.182   5.828   6.523
   94SOL    HW2 1182   2.152   5.960   6.432
   95SOL     OW 1183   0.920   0.752   3.853
   95SOL    HW1 1184   0.959   0.758   3.761
   95SOL    HW2 1185   0.825   0.782   3.851
   96SOL     OW 1186   3.078   0.870   4.875
   96SOL    HW1 1187   3.013   0.945   4.892
   96SOL    HW2 1188   3.030   0.783   4.879
   97SOL     OW 1189   2.134   3.243   5.958
   97SOL    HW1 1190   2.094   3.299   5.886
   97SOL    HW2 1191   2.227   3.216   5.931
   98SOL     OW 1192   0.390   3.530   0.901
   98SOL    HW1 1193   0.450   3.609   0.908
   98SOL    HW2 1194   0.393   3.493   0.809
   99SOL     OW 1195   3.526   3.079   1.339
   99SOL    HW1 1196   3.494   3.174   1.338
   99SOL    HW2 1197   3.625   3.077   1.345
  100SOL     OW 1198   0.093   6.941   5.067
  100SOL    HW1 1199   0.154   6.911   5.139
  100SOL    HW2 1200   0.007   6.974   5.106
  101SOL     OW 1201   1.444   5.163   2.315
  101SOL    HW1 1202   1.453   5.262   2.300
  101SOL    HW2 1203   1.516   5.115   2.265
  102SOL     OW 1204   4.404   5.966   1.948
  102SOL    HW1 1205   4.312   5.946   1.981
  102SOL    HW2 1206   4.399   5.999   1.854
  103SOL     OW 1207   2.144   1.909   1.700
  103SOL    HW1 1208   2.179   1.986   1.753
  103SOL    HW2 1209   2.090   1.943   1.624
  104SOL     OW 1210   1.096   5.406   2.656
  104SOL    HW1 1211   1.140   5.343   2.592
  104SOL    HW2 1212   1.010   5.366   2.688
  105SOL     OW 1213   6.527   2.274   6.775
  105SOL    HW1 1214   6.565   2.194   6.822
  105SOL    HW2 1215   6.427   2.269   6.778
  106SOL     OW 1216   3.529   6.106   4.743
  106SOL    HW1 1217   3.500   6.083   4.651
  106SOL    HW2 1218   3.504   6.032   4.806
  107SOL     OW 1219   1.387   0.898   1.405
  107SOL    HW1 1220   1.415   0.958   1.331
  107SOL    HW2 1221   1.467   0.857   1.448
  108SOL     OW 1222   2.330   6.574   5.416
  108SOL    HW1 1223   2.286   6.527   5.340
  108SOL    HW2 1224   2.426   6.592   5.394
  109SOL     OW 1225   0.564   0.461   1.918
  109SOL    HW1 1226   0.622   0.448   1.838
  109SOL    HW2 1227   0.546   0.373   1.962
  110SOL     OW 1228   2.977   5.897   4.440
  110SOL    HW1 1229   2.889   5.899   4.393
  110SOL    HW2 1230   2.990   5.809   4.485
  111SOL     OW 1231   1.812   1.025   4.310
  111SOL    HW1 1232   1.847   0.933   4.294
  111SOL    HW2 1233   1.874   1.092   4.268
  112SOL     OW 1234   3.521   6.431   6.609
  112SOL    HW1 1235   3.518   6.507   6.544
  112SOL    HW2 1236   3.578   6.358   6.573
  113SOL     OW 1237   0.448   5.170   3.088
  113SOL    HW1 1238   0.460   5.073   3.068
  113SOL    HW2 1239   0.468   5.187   3.185
  114SOL     OW 1240   0.965   6.992   2.357
  114SOL    HW1 1241   0.894   6.995   2.286
  114SOL    HW2 1242   0.925   6.963   2.443
  115SOL     OW 1243   4.739   1.324   3.020
  115SOL    HW1 1244   4.651   1.341   3.064
  115SOL    HW2 1245   4.806   1.390   3.054
  116SOL     OW 1246   5.999   5.463   2.304
  116SOL    HW1 1247   6.061   5.526   2.352
  116SOL    HW2 1248   5.947   5.411   2.371
  117SOL     OW 1249   1.519   2.384   0.407
  117SOL    HW1 1250   1.610   2.399   0.368
  117SOL    HW2 1251   1.522   2.306   0.470
  118SOL     OW 1252   1.700   0.980   2.559
  118SOL    HW1 1253   1.630   0.909   2.552
  118SOL    HW2 1254   1.772   0.949   2.622
  119SOL     OW 1255   0.427   0.755   0.125
  119SOL    HW1 1256   0.490   0.777   0.051
  119SOL    HW2 1257   0.426   0.655   0.139
  120SOL     OW 1258   5.284   0.280   6.680
  120SOL    HW1 1259   5.268   0.363   6.734
  120SOL    HW2 1260   5.374   0.285   6.638
  121SOL     OW 1261   1.123   3.437   6.014
  121SOL    HW1 1262   1.054   3.370   6.040
  121SOL    HW2 1263   1.187   3.396   5.948
  122SOL     OW 1264   1.779   3.887   5.914
  122SOL    HW1 1265   1.725   3.880   5.830
  122SOL    HW2 1266   1.870   3.849   5.897
  123SOL     OW 1267   0.476   1.283   2.598
  123SOL    HW1 1268   0.407   1.214   2.616
  123SOL    HW2 1269   0.446   1.372   2.632
  124SOL     OW 1270   3.743   2.996   0.411
  124SOL    HW1 1271   3.704   2.910   0.443
  124SOL    HW2 1272   3.839   3.002   0.440
  125SOL     OW 1273   3.322   1.926   0.648
  125SOL    HW1 1274   3.367   2.014   0.633
  125SOL    HW2 1275   3.352   1.887   0.735
  126SOL     OW 1276   2.023   4.203   0.282
  126SOL    HW1 1277   2.096   4.259   0.320
  126SOL    HW2 1278   2.061   4.124   0.235
  127SOL     OW 1279   0.777   4.875   6.873
  127SOL    HW1 1280   0.836   4.956   6.878
  127SOL    HW2 1281   0.685   4.899   6.903
  128SOL     OW 1282   5.144   2.292   1.405
  128SOL    HW1 1283   5.160   2.229   1.481
  128SOL    HW2 1284   5.230   2.304   1.354
  129SOL     OW 1285   2.524   3.379   6.219
  129SOL    HW1 1286   2.498   3.321   6.296
  129SOL    HW2 1287   2.554   3.469   6.253
  130SOL     OW 1288   1.385   1.624   4.450
  130SOL    HW1 1289   1.429   1.663   4.370
  130SOL    HW2 1290   1.414   1.673   4.532
  131SOL     OW 1291   4.537   0.984   3.102
  131SOL    HW1 1292   4.602   0.995   3.177
  131SOL    HW2 1293   4.543   0.891   3.066
  132SOL     OW 1294   3.092   3.149   1.815
  132SOL    HW1 1295   3.168   3.173   1.875
  132SOL    HW2 1296   3.078   3.222   1.748
  133SOL     OW 1297   5.343   0.538   4.403
  133SOL    HW1 1298   5.244   0.548   4.400
  133SOL    HW2 1299   5.376   0.510   4.312
  134SOL     OW 1300   6.726   0.676   2.651
  134SOL    HW1 1301   6.719   0.677   2.551
  134SOL    HW2 1302   6.762   0.764   2.683
  135SOL     OW 1303   5.439   3.512   3.498
  135SOL    HW1 1304   5.522   3.534   3.447
  135SOL    HW2 1305   5.409   3.592   3.549
  136SOL     OW 1306   1.945   4.787   6.063
  136SOL    HW1 1307   2.009   4.797   5.986
  136SOL    HW2 1308   1.890   4.704   6.050
  137SOL     OW 1309   5.722   2.378   3.223
  137SOL    HW1 1310   5.632   2.413   3.249
  137SOL    HW2 1311   5.766   2.338   3.303
  138SOL     OW 1312   1.314   4.554   2.617
  138SOL    HW1 1313   1.367   4.629   2.655
  138SOL    HW2 1314   1.224   4.588   2.589
  139SOL     OW 1315   1.663   0.322   5.389
  139SOL    HW1 1316   1.566   0.302   5.376
  139SOL    HW2 1317   1.677   0.421   5.393
  140SOL     OW 1318   1.339   6.358   3.889
  140SOL    HW1 1319   1.281   6.420   3.836
  140SOL    HW2 1320   1.425   6.344   3.841
  141SOL     OW 1321   0.298   2.398   5.254
  141SOL    HW1 1322   0.297   2.343   5.338
  141SOL    HW2 1323   0.204   2.422   5.229
  142SOL     OW 1324   1.248   3.752   1.170
  142SOL    HW1 1325   1.198   3.744   1.083
  142SOL    HW2 1326   1.346   3.746   1.152
  143SOL     OW 1327   5.530   4.258   0.449
  143SOL    HW1 1328   5.561   4.274   0.543
  143SOL    HW2 1329   5.608   4.270   0.387
  144SOL     OW 1330   1.651   4.922   5.920
  144SOL    HW1 1331   1.651   5.011   5.966
  144SOL    HW2 1332   1.738   4.876   5.936
  145SOL     OW 1333   0.640   5.541   0.527
  145SOL    HW1 1334   0.645   5.443   0.546
  145SOL    HW2 1335   0.718   5.587   0.569
  146SOL     OW 1336   4.835   0.686   6.068
  146SOL    HW1 1337   4.807   0.746   6.143
  146SOL    HW2 1338   4.755   0.639   6.031
  147SOL     OW 1339   5.746   3.210   6.684
  147SOL    HW1 1340   5.838   3.247   6.679
  147SOL    HW2 1341   5.686   3.260   6.622
  148SOL     OW 1342   6.803   5.403   1.006
  148SOL    HW1 1343   6.788   5.457   0.923
  148SOL    HW2 1344   6.716   5.365   1.037
  149SOL     OW 1345   4.168   2.077   3.981
  149SOL    HW1 1346   4.117   2.019   3.918
  149SOL    HW2 1347   4.106   2.112   4.052
  150SOL     OW 1348   6.021   6.889   0.968
  150SOL    HW1 1349   6.046   6.929   1.057
  150SOL    HW2 1350   6.072   6.936   0.896
  151SOL     OW 1351   3.017   2.412   1.229
  151SOL    HW1 1352   3.095   2.446   1.282
  151SOL    HW2 1353   3.050   2.379   1.140
  152SOL     OW 1354   0.346   0.742   1.547
  152SOL    HW1 1355   0.366   0.661   1.602
  152SOL    HW2 1356   0.255   0.733   1.506
  153SOL     OW 1357   2.697   0.907   3.290
  153SOL    HW1 1358   2.631   0.918   3.365
  153SOL    HW2 1359   2.650   0.874   3.209
  154SOL     OW 1360   0.649   3.294   2.154
  154SOL    HW1 1361   0.585   3.233   2.107
  154SOL    HW2 1362   0.650   3.383   2.108
  155SOL     OW 1363   0.405   1.591   4.049
  155SOL    HW1 1364   0.478   1.528   4.078
  155SOL    HW2 1365   0.413   1.676   4.101
  156SOL     OW 1366   6.890   0.995   0.336
  156SOL    HW1 1367   6.911   1.085   0.375
  156SOL    HW2 1368   6.929   0.989   0.244
  157SOL     OW 1369   5.285   3.298   1.971
  157SOL    HW1 1370   5.227   3.236   1.918
  157SOL    HW2 1371   5.359   3.246   2.013
  158SOL     OW 1372   1.847   4.238   2.629
  158SOL    HW1 1373   1.921   4.227   2.695
  158SOL    HW2 1374   1.875   4.303   2.558
  159SOL     OW 1375   4.928   3.748   2.484
  159SOL    HW1 1376   5.024   3.737   2.456
  159SOL    HW2 1377   4.886   3.820   2.430
  160SOL     OW 1378   5.156   5.945   0.859
  160SOL    HW1 1379   5.155   5.868   0.923
  160SOL    HW2 1380   5.245   5.989   0.862
  161SOL     OW 1381   1.937   6.258   3.889
  161SOL    HW1 1382   2.035   6.254   3.910
  161SOL    HW2 1383   1.887   6.286   3.971
  162SOL     OW 1384   3.793   6.275   0.371
  162SOL    HW1 1385   3.718   6.304   0.430
  162SOL    HW2 1386   3.856   6.217   0.423
  163SOL     OW 1387   5.794   5.624   1.163
  163SOL    HW1 1388   5.836   5.592   1.078
  163SOL    HW2 1389   5.857   5.685   1.211
  164SOL     OW 1390   0.027   3.959   2.162
  164SOL    HW1 1391   0.094   3.946   2.089
  164SOL    HW2 1392   0.035   4.051   2.199
  165SOL     OW 1393   5.013   3.257   1.351
  165SOL    HW1 1394   4.960   3.263   1.267
  165SOL    HW2 1395   4.954   3.274   1.429
  166SOL     OW 1396   1.021   3.770   2.681
  166SOL    HW1 1397   1.024   3.840   2.753
  166SOL    HW2 1398   0.941   3.787   2.622
  167SOL     OW 1399   4.936   3.066   6.901
  167SOL    HW1 1400   5.029   3.046   6.932
  167SOL    HW2 1401   4.895   3.134   6.962
  168SOL     OW 1402   3.065   3.485   1.467
  168SOL    HW1 1403   3.084   3.387   1.471
  168SOL    HW2 1404   3.087   3.520   1.376
  169SOL     OW 1405   5.272   2.251   1.682
  169SOL    HW1 1406   5.247   2.154   1.673
  169SOL    HW2 1407   5.300   2.269   1.776
  170SOL     OW 1408   0.729   0.497   2.936
  170SOL    HW1 1409   0.660   0.554   2.980
  170SOL    HW2 1410   0.801   0.554   2.898
  171SOL     OW 1411   3.262   4.653   6.810
  171SOL    HW1 1412   3.225   4.715   6.879
  171SOL    HW2 1413   3.190   4.591   6.779
  172SOL     OW 1414   6.471   1.364   2.921
  172SOL    HW1 1415   6.391   1.339   2.866
  172SOL    HW2 1416   6.526   1.283   2.940
  173SOL     OW 1417   6.040   1.443   3.914
  173SOL    HW1 1418   6.028   1.485   3.824
  173SOL    HW2 1419   6.053   1.514   3.983
  174SOL     OW 1420   4.084   5.494   3.785
  174SOL    HW1 1421   4.105   5.549   3.866
  174SOL    HW2 1422   4.087   5.552   3.704
  175SOL     OW 1423   3.444   0.456   1.682
  175SOL    HW1 1424   3.417   0.422   1.592
  175SOL    HW2 1425   3.365   0.452   1.744
  176SOL     OW 1426   6.963   4.321   0.922
  176SOL    HW1 1427   0.038   4.348   0.917
  176SOL    HW2 1428   6.953   4.247   0.988
  177SOL     OW 1429   5.363   2.677   2.865
  177SOL    HW1 1430   5.276   2.696   2.821
  177SOL    HW2 1431   5.438   2.691   2.799
  178SOL     OW 1432   2.223   3.494   6.530
  178SOL    HW1 1433   2.190   3.552   6.456
  178SOL    HW2 1434   2.170   3.409   6.533
  179SOL     OW 1435   3.957   1.741   5.357
  179SOL    HW1 1436   3.966   1.655   5.408
  179SOL    HW2 1437   3.889   1.730   5.285
  180SOL     OW 1438   2.182   6.868   0.031
  180SOL    HW1 1439   2.101   6.920   0.003
  180SOL    HW2 1440   2.207   6.893   0.124
  181SOL     OW 1441   3.169   3.312   6.229
  181SOL    HW1 1442   3.163   3.360   6.142
  181SOL    HW2 1443   3.181   3.214   6.211
  182SOL     OW 1444   3.570   1.884   5.185
  182SOL    HW1 1445   3.600   1.965   5.236
  182SOL    HW2 1446   3.520   1.823   5.245
  183SOL     OW 1447   3.821   2.088   3.024
  183SOL    HW1 1448   3.845   1.994   2.999
  183SOL    HW2 1449   3.902   2.134   3.062
  184SOL     OW 1450   0.651   6.788   4.569
  184SOL    HW1 1451   0.650   6.853   4.645
  184SOL    HW2 1452   0.557   6.763   4.546
  185SOL     OW 1453   1.079   1.443   6.273
  185SOL    HW1 1454   0.987   1.413   6.246
  185SOL    HW2 1455   1.138   1.363   6.283
  186SOL     OW 1456   5.758   0.652   4.330
  186SOL    HW1 1457   5.811   0.735   4.311
  186SOL    HW2 1458   5.802   0.573   4.287
  187SOL     OW 1459   4.615   0.046   2.479
  187SOL    HW1 1460   4.703   0.044   2.527
  187SOL    HW2 1461   4.628   0.015   2.385
  188SOL     OW 1462   0.994   2.498   3.264
  188SOL    HW1 1463   1.041   2.460   3.343
  188SOL    HW2 1464   0.912   2.443   3.245
  189SOL     OW 1465   2.327   5.068   1.547
  189SOL    HW1 1466   2.360   5.072   1.642
  189SOL    HW2 1467   2.270   4.987   1.535
  190SOL     OW 1468   4.925   2.680   5.072
  190SOL    HW1 1469   5.012   2.715   5.037
  190SOL    HW2 1470   4.852   2.701   5.006
  191SOL     OW 1471   5.863   0.232   6.800
  191SOL    HW1 1472   5.819   0.317   6.769
  191SOL    HW2 1473   5.810   0.153   6.769
  192SOL     OW 1474   1.068   5.787   1.777
  192SOL    HW1 1475   1.091   5.884   1.767
  192SOL    HW2 1476   0.973   5.778   1.808
  193SOL     OW 1477   4.440   3.674   5.497
  193SOL    HW1 1478   4.383   3.646   5.419
  193SOL    HW2 1479   4.536   3.656   5.476
  194SOL     OW 1480   4.158   1.120   2.986
  194SOL    HW1 1481   4.241   1.131   2.931
  194SOL    HW2 1482   4.177   1.058   3.062
  195SOL     OW 1483   2.063   0.453   4.897
  195SOL    HW1 1484   1.977   0.460   4.847
  195SOL    HW2 1485   2.104   0.544   4.908
  196SOL     OW 1486   2.412   0.482   0.850
  196SOL    HW1 1487   2.356   0.413   0.897
  196SOL    HW2 1488   2.458   0.539   0.918
  197SOL     OW 1489   2.638   0.120   1.608
  197SOL    HW1 1490   2.542   0.123   1.635
  197SOL    HW2 1491   2.665   0.209   1.571
  198SOL     OW 1492   5.390   0.360   1.553
  198SOL    HW1 1493   5.341   0.440   1.518
  198SOL    HW2 1494   5.328   0.305   1.609
  199SOL     OW 1495   0.226   1.406   3.896
  199SOL    HW1 1496   0.237   1.471   3.971
  199SOL    HW2 1497   0.316   1.386   3.856
  200SOL     OW 1498   0.926   4.340   1.578
  200SOL    HW1 1499   0.999   4.272   1.587
  200SOL    HW2 1500   0.880   4.330   1.490
  201SOL     OW 1501   6.647   6.768   5.706
  201SOL    HW1 1502   6.616   6.859   5.679
  201SOL    HW2 1503   6.570   6.718   5.746
  202SOL     OW 1504   4.451   1.166   0.044
  202SOL    HW1 1505   4.546   1.189   0.062
  202SOL    HW2 1506   4.438   1.152   6.967
  203SOL     OW 1507   5.209   2.285   4.729
  203SOL    HW1 1508   5.260   2.370   4.714
  203SOL    HW2 1509   5.272   2.208   4.727
  204SOL     OW 1510   0.809   1.024   5.843
  204SOL    HW1 1511   0.726   1.005   5.896
  204SOL    HW2 1512   0.876   0.952   5.858
  205SOL     OW 1513   0.744   1.508   2.998
  205SOL    HW1 1514   0.806   1.502   2.920
  205SOL    HW2 1515   0.773   1.444   3.069
  206SOL     OW 1516   0.055   4.383   1.396
  206SOL    HW1 1517   0.142   4.420   1.364
  206SOL    HW2 1518   0.018   4.320   1.327
  207SOL     OW 1519   5.752   1.988   3.434
  207SOL    HW1 1520   5.818   1.913   3.425
  207SOL    HW2 1521   5.667   1.952   3.473
  208SOL     OW 1522   5.797   3.013   5.089
  208SOL    HW1 1523   5.832   2.987   4.999
  208SOL    HW2 1524   5.824   3.107   5.109
  209SOL     OW 1525   0.493   4.584   3.690
  209SOL    HW1 1526   0.557   4.638   3.636
  209SOL    HW2 1527   0.539   4.548   3.771
  210SOL     OW 1528   4.133   2.198   0.914
  210SOL    HW1 1529   4.145   2.185   0.816
  210SOL    HW2 1530   4.056   2.260   0.931
  211SOL     OW 1531   2.347   6.064   2.895
  211SOL    HW1 1532   2.296   6.017   2.823
  211SOL    HW2 1533   2.379   6.152   2.861
  212SOL     OW 1534   1.277   3.942   1.723
  212SOL    HW1 1535   1.322   3.865   1.767
  212SOL    HW2 1536   1.181   3.919   1.705
  213SOL     OW 1537   3.394   0.736   0.526
  213SOL    HW1 1538   3.425   0.826   0.556
  213SOL    HW2 1539   3.473   0.680   0.501
  214SOL     OW 1540   4.658   5.039   1.613
  214SOL    HW1 1541   4.619   4.952   1.586
  214SOL    HW2 1542   4.619   5.112   1.557
  215SOL     OW 1543   2.346   3.817   0.751
  215SOL    HW1 1544   2.281   3.854   0.817
  215SOL    HW2 1545   2.299   3.751   0.691
  216SOL     OW 1546   2.213   6.078   3.760
  216SOL    HW1 1547   2.118   6.062   3.788
  216SOL    HW2 1548   2.275   6.047   3.832
  217SOL     OW 1549   1.015   2.087   3.696
  217SOL    HW1 1550   0.977   2.154   3.760
  217SOL    HW2 1551   0.979   1.996   3.717
  218SOL     OW 1552   0.182   4.094   4.317
  218SOL    HW1 1553   0.187   4.188   4.351
  218SOL    HW2 1554   0.221   4.089   4.225
  219SOL     OW 1555   4.459   0.139   6.551
  219SOL    HW1 1556   4.506   0.058   6.587
  219SOL    HW2 1557   4.449   0.207   6.623
  220SOL     OW 1558   2.671   0.151   1.115
  220SOL    HW1 1559   2.764   0.115   1.115
  220SOL    HW2 1560   2.674   0.250   1.128
  221SOL     OW 1561   6.601   3.121   1.175
  221SOL    HW1 1562   6.591   3.025   1.203
  221SOL    HW2 1563   6.692   3.153   1.199
  222SOL     OW 1564   2.082   5.416   5.731
  222SOL    HW1 1565   1.995   5.460   5.708
  222SOL    HW2 1566   2.125   5.382   5.648
  223SOL     OW 1567   5.903   2.642   6.970
  223SOL    HW1 1568   5.871   2.711   6.905
  223SOL    HW2 1569   5.825   2.588   7.002
  224SOL     OW 1570   1.828   1.586   4.698
  224SOL    HW1 1571   1.770   1.513   4.662
  224SOL    HW2 1572   1.897   1.610   4.629
  225SOL     OW 1573   4.278   3.382   6.193
  225SOL    HW1 1574   4.362   3.421   6.154
  225SOL    HW2 1575   4.233   3.450   6.250
  226SOL     OW 1576   1.897   0.814   5.955
  226SOL    HW1 1577   1.960   0.864   5.895
  226SOL    HW2 1578   1.898   0.717   5.930
  227SOL     OW 1579   1.791   3.629   2.435
  227SOL    HW1 1580   1.776   3.686   2.354
  227SOL    HW2 1581   1.732   3.549   2.431
  228SOL     OW 1582   3.079   6.193   3.946
  228SOL    HW1 1583   3.113   6.187   3.852
  228SOL    HW2 1584   3.055   6.102   3.979
  229SOL     OW 1585   5.673   5.955   6.612
  229SOL    HW1 1586   5.624   5.868   6.620
  229SOL    HW2 1587   5.639   6.019   6.680
  230SOL     OW 1588   3.322   5.185   3.831
  230SOL    HW1 1589   3.297   5.241   3.751
  230SOL    HW2 1590   3.350   5.245   3.905
  231SOL     OW 1591   6.166   1.913   6.080
  231SOL    HW1 1592   6.066   1.918   6.075
  231SOL    HW2 1593   6.195   1.818   6.083
  232SOL     OW 1594   0.975   3.132   6.643
  232SOL    HW1 1595   1.032   3.070   6.590
  232SOL    HW2 1596   0.879   3.116   6.620
  233SOL     OW 1597   2.846   1.507   3.519
  233SOL    HW1 1598   2.811   1.470   3.433
  233SOL    HW2 1599   2.844   1.607   3.516
  234SOL     OW 1600   5.363   0.219   5.489
  234SOL    HW1 1601   5.323   0.253   5.574
  234SOL    HW2 1602   5.291   0.208   5.420
  235SOL     OW 1603   3.558   2.811   1.514
  235SOL    HW1 1604   3.591   2.764   1.596
  235SOL    HW2 1605   3.611   2.895   1.500
  236SOL     OW 1606   4.944   3.342   6.493
  236SOL    HW1 1607   4.892   3.417   6.534
  236SOL    HW2 1608   4.999   3.377   6.417
  237SOL     OW 1609   5.819   4.360   1.983
  237SOL    HW1 1610   5.778   4.449   1.964
  237SOL    HW2 1611   5.759   4.309   2.045
  238SOL     OW 1612   4.740   2.550   0.515
  238SOL    HW1 1613   4.810   2.522   0.449
  238SOL    HW2 1614   4.719   2.473   0.575
  239SOL     OW 1615   1.015   5.694   6.395
  239SOL    HW1 1616   0.965   5.780   6.393
  239SOL    HW2 1617   0.965   5.625   6.342
  240SOL     OW 1618   0.402   2.592   3.299
  240SOL    HW1 1619   0.429   2.593   3.203
  240SOL    HW2 1620   0.340   2.516   3.316
  241SOL     OW 1621   2.099   0.786   5.029
  241SOL    HW1 1622   2.154   0.707   5.057
  241SOL    HW2 1623   2.036   0.811   5.103
  242SOL     OW 1624   3.343   2.884   4.785
  242SOL    HW1 1625   3.325   2.785   4.791
  242SOL    HW2 1626   3.279   2.933   4.843
  243SOL     OW 1627   3.836   0.700   5.507
  243SOL    HW1 1628   3.827   0.798   5.526
  243SOL    HW2 1629   3.927   0.669   5.535
  244SOL     OW 1630   5.899   2.894   4.874
  244SOL    HW1 1631   5.960   2.916   4.797
  244SOL    HW2 1632   5.897   2.795   4.887
  245SOL     OW 1633   6.224   4.323   3.723
  245SOL    HW1 1634   6.269   4.237   3.748
  245SOL    HW2 1635   6.146   4.338   3.783
  246SOL     OW 1636   4.651   2.565   3.484
  246SOL    HW1 1637   4.575   2.530   3.540
  246SOL    HW2 1638   4.707   2.626   3.539
  247SOL     OW 1639   2.992   1.612   1.367
  247SOL    HW1 1640   2.962   1.555   1.291
  247SOL    HW2 1641   2.956   1.704   1.356
  248SOL     OW 1642   3.479   1.897   2.817
  248SOL    HW1 1643   3.488   1.994   2.841
  248SOL    HW2 1644   3.383   1.871   2.822
  249SOL     OW 1645   4.341   0.372   5.298
  249SOL    HW1 1646   4.325   0.359   5.200
  249SOL    HW2 1647   4.435   0.345   5.319
  250SOL     OW 1648   5.191   2.440   0.822
  250SOL    HW1 1649   5.104   2.436   0.869
  250SOL    HW2 1650   5.260   2.391   0.875
  251SOL     OW 1651   4.613   4.385   5.971
  251SOL    HW1 1652   4.669   4.304   5.955
  251SOL    HW2 1653   4.536   4.385   5.907
  252SOL     OW 1654   6.316   5.968   0.380
  252SOL    HW1 1655   6.335   6.066   0.379
  252SOL    HW2 1656   6.357   5.926   0.461
  253SOL     OW 1657   3.039   5.552   7.011
  253SOL    HW1 1658   3.004   5.462   6.985
  253SOL    HW2 1659   3.000   5.577   0.079
  254SOL     OW 1660   5.193   2.889   3.678
  254SOL    HW1 1661   5.094   2.886   3.696
  254SOL    HW2 1662   5.224   2.797   3.652
  255SOL     OW 1663   1.833   3.398   4.647
  255SOL    HW1 1664   1.856   3.470   4.582
  255SOL    HW2 1665   1.748   3.421   4.694
  256SOL     OW 1666   6.583   3.983   6.085
  256SOL    HW1 1667   6.652   3.974   6.014
  256SOL    HW2 1668   6.616   3.938   6.169
  257SOL     OW 1669   5.071   6.843   3.344
  257SOL    HW1 1670   5.053   6.886   3.256
  257SOL    HW2 1671   5.008   6.767   3.358
  258SOL     OW 1672   2.084   5.104   4.696
  258SOL    HW1 1673   2.008   5.145   4.746
  258SOL    HW2 1674   2.164   5.164   4.702
  259SOL     OW 1675   1.002   1.948   1.976
  259SOL    HW1 1676   1.092   1.905   1.964
  259SOL    HW2 1677   1.004   2.039   1.934
  260SOL     OW 1678   4.478   1.237   1.124
  260SOL    HW1 1679   4.447   1.175   1.196
  260SOL    HW2 1680   4.551   1.295   1.160
  261SOL     OW 1681   6.438   3.356   0.679
  261SOL    HW1 1682   6.497   3.276   0.690
  261SOL    HW2 1683   6.482   3.421   0.617
  262SOL     OW 1684   6.642   4.111   0.782
  262SOL    HW1 1685   6.666   4.207   0.765
  262SOL    HW2 1686   6.693   4.052   0.720
  263SOL     OW 1687   1.152   1.051   3.700
  263SOL    HW1 1688   1.155   1.023   3.604
  263SOL    HW2 1689   1.240   1.033   3.744
  264SOL     OW 1690   5.433   3.544   6.631
  264SOL    HW1 1691   5.344   3.578   6.661
  264SOL    HW2 1692   5.505   3.588   6.684
  265SOL     OW 1693   4.798   5.248   2.715
  265SOL    HW1 1694   4.746   5.207   2.639
  265SOL    HW2 1695   4.844   5.175   2.765
  266SOL     OW 1696   2.916   2.865   5.600
  266SOL    HW1 1697   2.942   2.877   5.696
  266SOL    HW2 1698   2.878   2.952   5.565
  267SOL     OW 1699   0.404   1.807   6.534
  267SOL    HW1 1700   0.395   1.880   6.465
  267SOL    HW2 1701   0.426   1.721   6.488
  268SOL     OW 1702   3.560   0.490   5.603
  268SOL    HW1 1703   3.618   0.463   5.527
  268SOL    HW2 1704   3.481   0.540   5.569
  269SOL     OW 1705   0.914   3.724   1.858
  269SOL    HW1 1706   0.965   3.789   1.801
  269SOL    HW2 1707   0.887   3.645   1.803
  270SOL     OW 1708   0.239   0.492   6.997
  270SOL    HW1 1709   0.159   0.550   7.009
  270SOL    HW2 1710   0.294   0.492   0.060
  271SOL     OW 1711   1.219   1.635   7.014
  271SOL    HW1 1712   1.318   1.649   7.015
  271SOL    HW2 1713   1.173   1.721   6.994
  272SOL     OW 1714   3.421   5.153   4.131
  272SOL    HW1 1715   3.488   5.218   4.096
  272SOL    HW2 1716   3.366   5.197   4.203
  273SOL     OW 1717   1.940   4.186   5.024
  273SOL    HW1 1718   1.990   4.104   5.051
  273SOL    HW2 1719   1.921   4.182   4.926
  274SOL     OW 1720   4.325   1.669   2.865
  274SOL    HW1 1721   4.417   1.641   2.836
  274SOL    HW2 1722   4.268   1.685   2.785
  275SOL     OW 1723   6.050   5.008   5.393
  275SOL    HW1 1724   6.140   5.041   5.420
  275SOL    HW2 1725   5.989   5.008   5.473
  276SOL     OW 1726   0.257   5.981   2.339
  276SOL    HW1 1727   0.162   5.966   2.365
  276SOL    HW2 1728   0.301   5.893   2.320
  277SOL     OW 1729   1.330   3.790   0.903
  277SOL    HW1 1730   1.346   3.878   0.949
  277SOL    HW2 1731   1.366   3.794   0.810
  278SOL     OW 1732   5.964   5.166   1.866
  278SOL    HW1 1733   5.947   5.259   1.897
  278SOL    HW2 1734   6.049   5.162   1.815
  279SOL     OW 1735   6.244   2.951   4.693
  279SOL    HW1 1736   6.264   2.853   4.704
  279SOL    HW2 1737   6.175   2.962   4.623
  280SOL     OW 1738   2.966   0.042   3.104
  280SOL    HW1 1739   3.006   0.132   3.120
  280SOL    HW2 1740   2.970   7.010   3.188
  281SOL     OW 1741   3.012   4.826   2.375
  281SOL    HW1 1742   3.020   4.925   2.379
  281SOL    HW2 1743   2.936   4.800   2.316
  282SOL     OW 1744   3.364   1.382   5.284
  282SOL    HW1 1745   3.285   1.441   5.269
  282SOL    HW2 1746   3.336   1.287   5.283
  283SOL     OW 1747   6.493   1.417   5.834
  283SOL    HW1 1748   6.557   1.396   5.761
  283SOL    HW2 1749   6.431   1.339   5.848
  284SOL     OW 1750   1.026   4.168   4.501
  284SOL    HW1 1751   1.045   4.072   4.520
  284SOL    HW2 1752   1.003   4.215   4.586
  285SOL     OW 1753   6.198   4.670   5.592
  285SOL    HW1 1754   6.219   4.704   5.500
  285SOL    HW2 1755   6.104   4.639   5.595
  286SOL     OW 1756   3.366   6.135   5.251
  286SOL    HW1 1757   3.442   6.181   5.204
  286SOL    HW2 1758   3.402   6.085   5.330
  287SOL     OW 1759   0.216   4.338   0.120
  287SOL    HW1 1760   0.307   4.378   0.108
  287SOL    HW2 1761   0.194   4.335   0.217
  288SOL     OW 1762   3.360   2.029   5.653
  288SOL    HW1 1763   3.451   2.071   5.662
  288SOL    HW2 1764   3.309   2.076   5.581
  289SOL     OW 1765   0.251   4.937   4.414
  289SOL    HW1 1766   0.249   4.906   4.509
  289SOL    HW2 1767   0.287   5.030   4.410
  290SOL     OW 1768   5.839   2.444   4.417
  290SOL    HW1 1769   5.863   2.451   4.320
  290SOL    HW2 1770   5.846   2.348   4.446
  291SOL     OW 1771   1.672   2.102   4.673
  291SOL    HW1 1772   1.604   2.149   4.729
  291SOL    HW2 1773   1.654   2.004   4.674
  292SOL     OW 1774   1.350   1.903   2.937
  292SOL    HW1 1775   1.368   2.000   2.952
  292SOL    HW2 1776   1.305   1.891   2.848
  293SOL     OW 1777   4.193   4.975   1.812
  293SOL    HW1 1778   4.125   4.945   1.880
  293SOL    HW2 1779   4.273   5.010   1.860
  294SOL     OW 1780   6.204   5.215   6.564
  294SOL    HW1 1781   6.138   5.289   6.551
  294SOL    HW2 1782   6.236   5.216   6.659
  295SOL     OW 1783   3.123   1.822   4.375
  295SOL    HW1 1784   3.083   1.859   4.459
  295SOL    HW2 1785   3.218   1.853   4.366
  296SOL     OW 1786   4.904   1.710   2.883
  296SOL    HW1 1787   4.932   1.784   2.822
  296SOL    HW2 1788   4.942   1.726   2.974
  297SOL     OW 1789   2.344   4.312   2.936
  297SOL    HW1 1790   2.321   4.339   2.843
  297SOL    HW2 1791   2.420   4.369   2.970
  298SOL     OW 1792   3.635   6.327   0.588
  298SOL    HW1 1793   3.611   6.256   0.654
  298SOL    HW2 1794   3.581   6.409   0.607
  299SOL     OW 1795   4.027   3.902   6.641
  299SOL    HW1 1796   3.936   3.865   6.661
  299SOL    HW2 1797   4.030   3.999   6.666
  300SOL     OW 1798   5.761   1.035   1.331
  300SOL    HW1 1799   5.700   0.959   1.352
  300SOL    HW2 1800   5.777   1.089   1.414
  301SOL     OW 1801   5.152   3.163   1.114
  301SOL    HW1 1802   5.235   3.110   1.102
  301SOL    HW2 1803   5.131   3.171   1.212
  302SOL     OW 1804   0.695   0.768   3.365
  302SOL    HW1 1805   0.609   0.819   3.376
  302SOL    HW2 1806   0.692   0.686   3.422
  303SOL     OW 1807   6.052   0.098   1.107
  303SOL    HW1 1808   6.145   0.125   1.082
  303SOL    HW2 1809   6.028   0.138   1.196
  304SOL     OW 1810   2.542   0.217   4.237
  304SOL    HW1 1811   2.602   0.145   4.203
  304SOL    HW2 1812   2.577   0.251   4.325
  305SOL     OW 1813   0.557   3.189   0.466
  305SOL    HW1 1814   0.607   3.105   0.448
  305SOL    HW2 1815   0.470   3.167   0.511
  306SOL     OW 1816   1.995   0.481   3.832
  306SOL    HW1 1817   2.004   0.538   3.751
  306SOL    HW2 1818   1.900   0.452   3.843
  307SOL     OW 1819   5.178   6.671   0.465
  307SOL    HW1 1820   5.115   6.744   0.440
  307SOL    HW2 1821   5.130   6.583   0.461
  308SOL     OW 1822   5.743   3.614   5.371
  308SOL    HW1 1823   5.661   3.630   5.425
  308SOL    HW2 1824   5.717   3.585   5.279
  309SOL     OW 1825   3.557   5.577   6.731
  309SOL    HW1 1826   3.472   5.630   6.736
  309SOL    HW2 1827   3.635   5.639   6.730
  310SOL     OW 1828   6.239   0.053   5.038
  310SOL    HW1 1829   6.207   0.064   5.132
  310SOL    HW2 1830   6.337   0.072   5.034
  311SOL     OW 1831   5.188   4.603   2.638
  311SOL    HW1 1832   5.216   4.628   2.545
  311SOL    HW2 1833   5.189   4.504   2.648
  312SOL     OW 1834   4.108   1.234   5.480
  312SOL    HW1 1835   4.045   1.232   5.558
  312SOL    HW2 1836   4.056   1.224   5.395
  313SOL     OW 1837   3.316   3.693   2.201
  313SOL    HW1 1838   3.313   3.782   2.245
  313SOL    HW2 1839   3.406   3.650   2.218
  314SOL     OW 1840   3.771   5.168   6.632
  314SOL    HW1 1841   3.754   5.151   6.729
  314SOL    HW2 1842   3.782   5.266   6.617
  315SOL     OW 1843   1.433   2.916   3.559
  315SOL    HW1 1844   1.524   2.897   3.522
  315SOL    HW2 1845   1.376   2.957   3.488
  316SOL     OW 1846   3.087   1.386   3.622
  316SOL    HW1 1847   3.026   1.457   3.589
  316SOL    HW2 1848   3.055   1.297   3.590
  317SOL     OW 1849   0.263   0.497   1.246
  317SOL    HW1 1850   0.341   0.444   1.212
  317SOL    HW2 1851   0.270   0.591   1.212
  318SOL     OW 1852   1.094   5.922   6.910
  318SOL    HW1 1853   1.001   5.900   6.879
  318SOL    HW2 1854   1.156   5.926   6.831
  319SOL     OW 1855   6.649   0.597   3.839
  319SOL    HW1 1856   6.614   0.549   3.919
  319SOL    HW2 1857   6.622   0.693   3.844
  320SOL     OW 1858   6.356   2.338   0.423
  320SOL    HW1 1859   6.399   2.370   0.508
  320SOL    HW2 1860   6.385   2.245   0.404
  321SOL     OW 1861   3.997   1.362   0.501
  321SOL    HW1 1862   3.914   1.417   0.513
  321SOL    HW2 1863   4.077   1.422   0.506
  322SOL     OW 1864   4.144   3.420   4.540
  322SOL    HW1 1865   4.229   3.450   4.582
  322SOL    HW2 1866   4.076   3.401   4.610
  323SOL     OW 1867   1.127   2.870   6.420
  323SOL    HW1 1868   1.174   2.846   6.505
  323SOL    HW2 1869   1.139   2.796   6.353
  324SOL     OW 1870   2.373   1.950   4.352
  324SOL    HW1 1871   2.403   1.867   4.304
  324SOL    HW2 1872   2.446   1.981   4.413
  325SOL     OW 1873   0.889   3.048   1.879
  325SOL    HW1 1874   0.869   3.125   1.940
  325SOL    HW2 1875   0.960   3.075   1.814
  326SOL     OW 1876   0.958   5.060   6.856
  326SOL    HW1 1877   0.968   5.134   6.790
  326SOL    HW2 1878   0.948   5.098   6.948
  327SOL     OW 1879   1.579   5.148   3.862
  327SOL    HW1 1880   1.501   5.110   3.813
  327SOL    HW2 1881   1.556   5.158   3.959
  328SOL     OW 1882   1.227   5.314   1.743
  328SOL    HW1 1883   1.262   5.277   1.829
  328SOL    HW2 1884   1.144   5.265   1.716
  329SOL     OW 1885   4.136   3.688   4.695
  329SOL    HW1 1886   4.075   3.610   4.678
  329SOL    HW2 1887   4.128   3.753   4.619
  330SOL     OW 1888   2.933   0.072   1.133
  330SOL    HW1 1889   2.998   0.097   1.061
  330SOL    HW2 1890   2.983   0.058   1.219
  331SOL     OW 1891   3.972   5.748   0.910
  331SOL    HW1 1892   3.876   5.751   0.938
  331SOL    HW2 1893   3.988   5.667   0.854
  332SOL     OW 1894   3.754   1.762   4.310
  332SOL    HW1 1895   3.715   1.738   4.399
  332SOL    HW2 1896   3.735   1.859   4.291
  333SOL     OW 1897   3.482   6.896   5.878
  333SOL    HW1 1898   3.536   6.896   5.963
  333SOL    HW2 1899   3.462   6.990   5.852
  334SOL     OW 1900   2.762   0.921   1.399
  334SOL    HW1 1901   2.681   0.971   1.427
  334SOL    HW2 1902   2.761   0.829   1.439
  335SOL     OW 1903   3.821   6.817   4.841
  335SOL    HW1 1904   3.895   6.807   4.775
  335SOL    HW2 1905   3.743   6.761   4.812
  336SOL     OW 1906   1.859   0.651   3.978
  336SOL    HW1 1907   1.939   0.603   3.941
  336SOL    HW2 1908   1.843   0.735   3.925
  337SOL     OW 1909   0.173   3.109   0.059
  337SOL    HW1 1910   0.206   3.179   0.124
  337SOL    HW2 1911   0.139   3.154   6.998
  338SOL     OW 1912   2.896   2.951   1.754
  338SOL    HW1 1913   2.965   3.021   1.736
  338SOL    HW2 1914   2.855   2.967   1.844
  339SOL     OW 1915   2.809   6.731   4.389
  339SOL    HW1 1916   2.881   6.713   4.323
  339SOL    HW2 1917   2.805   6.829   4.409
  340SOL     OW 1918   4.983   4.505   5.655
  340SOL    HW1 1919   4.907   4.549   5.607
  340SOL    HW2 1920   4.956   4.413   5.682
  341SOL     OW 1921   6.485   1.858   4.649
  341SOL    HW1 1922   6.581   1.832   4.658
  341SOL    HW2 1923   6.480   1.950   4.608
  342SOL     OW 1924   6.019   4.027   6.981
  342SOL    HW1 1925   6.003   4.035   6.883
  342SOL    HW2 1926   6.051   4.115   7.017
  343SOL     OW 1927   1.702   4.731   0.663
  343SOL    HW1 1928   1.781   4.728   0.724
  343SOL    HW2 1929   1.699   4.821   0.618
  344SOL     OW 1930   0.850   5.263   1.853
  344SOL    HW1 1931   0.889   5.210   1.928
  344SOL    HW2 1932   0.753   5.240   1.843
  345SOL     OW 1933   5.585   1.481   3.783
  345SOL    HW1 1934   5.630   1.425   3.714
  345SOL    HW2 1935   5.635   1.567   3.795
  346SOL     OW 1936   1.966   0.668   2.505
  346SOL    HW1 1937   2.014   0.668   2.593
  346SOL    HW2 1938   1.968   0.760   2.466
  347SOL     OW 1939   3.192   5.821   6.166
  347SOL    HW1 1940   3.278   5.786   6.205
  347SOL    HW2 1941   3.210   5.907   6.119
  348SOL     OW 1942   5.324   4.313   1.552
  348SOL    HW1 1943   5.265   4.298   1.632
  348SOL    HW2 1944   5.419   4.320   1.581
  349SOL     OW 1945   6.720   4.360   0.740
  349SOL    HW1 1946   6.723   4.459   0.727
  349SOL    HW2 1947   6.804   4.330   0.786
  350SOL     OW 1948   3.482   3.044   0.894
  350SOL    HW1 1949   3.453   2.991   0.974
  350SOL    HW2 1950   3.451   2.998   0.810
  351SOL     OW 1951   1.957   2.373   0.121
  351SOL    HW1 1952   1.972   2.442   0.192
  351SOL    HW2 1953   1.946   2.418   0.033
  352SOL     OW 1954   3.232   0.909   4.548
  352SOL    HW1 1955   3.274   0.914   4.639
  352SOL    HW2 1956   3.304   0.909   4.478
  353SOL     OW 1957   2.497   6.226   0.989
  353SOL    HW1 1958   2.495   6.140   0.938
  353SOL    HW2 1959   2.406   6.267   0.990
  354SOL     OW 1960   3.415   2.766   0.259
  354SOL    HW1 1961   3.327   2.727   0.283
  354SOL    HW2 1962   3.405   2.865   0.243
  355SOL     OW 1963   0.555   3.141   3.067
  355SOL    HW1 1964   0.511   3.109   3.151
  355SOL    HW2 1965   0.521   3.088   2.989
  356SOL     OW 1966   3.298   6.405   5.115
  356SOL    HW1 1967   3.262   6.461   5.041
  356SOL    HW2 1968   3.388   6.369   5.089
  357SOL     OW 1969   6.368   6.805   5.502
  357SOL    HW1 1970   6.403   6.747   5.575
  357SOL    HW2 1971   6.418   6.785   5.417
  358SOL     OW 1972   5.223   0.167   1.676
  358SOL    HW1 1973   5.205   0.162   1.774
  358SOL    HW2 1974   5.169   0.097   1.629
  359SOL     OW 1975   1.258   2.092   2.174
  359SOL    HW1 1976   1.281   2.184   2.206
  359SOL    HW2 1977   1.262   2.089   2.075
  360SOL     OW 1978   1.279   5.804   6.460
  360SOL    HW1 1979   1.189   5.767   6.437
  360SOL    HW2 1980   1.307   5.869   6.389
  361SOL     OW 1981   5.883   5.732   3.340
  361SOL    HW1 1982   5.833   5.810   3.377
  361SOL    HW2 1983   5.981   5.753   3.336
  362SOL     OW 1984   3.894   4.125   1.315
  362SOL    HW1 1985   3.812   4.163   1.357
  362SOL    HW2 1986   3.912   4.034   1.352
  363SOL     OW 1987   5.050   4.694   3.655
  363SOL    HW1 1988   4.970   4.664   3.603
  363SOL    HW2 1989   5.028   4.776   3.708
  364SOL     OW 1990   6.459   5.943   6.179
  364SOL    HW1 1991   6.463   5.950   6.079
  364SOL    HW2 1992   6.535   5.993   6.219
  365SOL     OW 1993   5.612   5.678   2.207
  365SOL    HW1 1994   5.711   5.678   2.194
  365SOL    HW2 1995   5.571   5.603   2.155
  366SOL     OW 1996   6.333   0.373   6.731
  366SOL    HW1 1997   6.425   0.361   6.770
  366SOL    HW2 1998   6.267   0.320   6.784
  367SOL     OW 1999   4.790   3.054   1.440
  367SOL    HW1 2000   4.811   3.101   1.354
  367SOL    HW2 2001   4.789   2.955   1.425
  368SOL     OW 2002   0.161   3.525   4.867
  368SOL    HW1 2003   0.115   3.607   4.834
  368SOL    HW2 2004   0.130   3.505   4.960
  369SOL     OW 2005   6.277   5.669   1.839
  369SOL    HW1 2006   6.249   5.586   1.887
  369SOL    HW2 2007   6.232   5.674   1.750
  370SOL     OW 2008   2.583   2.121   5.335
  370SOL    HW1 2009   2.540   2.156   5.252
  370SOL    HW2 2010   2.563   2.183   5.412
  371SOL     OW 2011   2.506   3.395   6.869
  371SOL    HW1 2012   2.450   3.475   6.848
  371SOL    HW2 2013   2.602   3.421   6.874
  372SOL     OW 2014   0.611   0.100   5.771
  372SOL    HW1 2015   0.705   0.088   5.740
  372SOL    HW2 2016   0.576   0.012   5.806
  373SOL     OW 2017   6.110   6.001   5.105
  373SOL    HW1 2018   6.102   6.101   5.108
  373SOL    HW2 2019   6.065   5.967   5.023
  374SOL     OW 2020   2.960   1.796   2.716
  374SOL    HW1 2021   2.863   1.814   2.696
  374SOL    HW2 2022   2.967   1.738   2.797
  375SOL     OW 2023   0.899   4.315   3.814
  375SOL    HW1 2024   0.980   4.334   3.869
  375SOL    HW2 2025   0.908   4.358   3.724
  376SOL     OW 2026   2.036   1.913   4.670
  376SOL    HW1 2027   2.086   1.827   4.674
  376SOL    HW2 2028   1.979   1.923   4.751
  377SOL     OW 2029   0.504   2.565   1.809
  377SOL    HW1 2030   0.501   2.491   1.877
  377SOL    HW2 2031   0.429   2.554   1.745
  378SOL     OW 2032   3.171   2.578   5.766
  378SOL    HW1 2033   3.102   2.531   5.710
  378SOL    HW2 2034   3.148   2.675   5.773
  379SOL     OW 2035   5.926   3.793   1.421
  379SOL    HW1 2036   5.944   3.863   1.491
  379SOL    HW2 2037   5.904   3.838   1.334
  380SOL     OW 2038   3.097   1.294   1.568
  380SOL    HW1 2039   3.144   1.313   1.482
  380SOL    HW2 2040   3.079   1.196   1.576
  381SOL     OW 2041   1.393   4.313   3.023
  381SOL    HW1 2042   1.323   4.361   2.971
  381SOL    HW2 2043   1.456   4.380   3.063
  382SOL     OW 2044   5.212   6.427   5.645
  382SOL    HW1 2045   5.263   6.480   5.577
  382SOL    HW2 2046   5.272   6.408   5.723
  383SOL     OW 2047   5.312   3.356   5.922
  383SOL    HW1 2048   5.212   3.349   5.917
  383SOL    HW2 2049   5.341   3.446   5.890
  384SOL     OW 2050   6.349   5.129   4.427
  384SOL    HW1 2051   6.340   5.039   4.385
  384SOL    HW2 2052   6.308   5.199   4.368
  385SOL     OW 2053   4.607   5.945   5.681
  385SOL    HW1 2054   4.652   5.952   5.770
  385SOL    HW2 2055   4.675   5.921   5.612
  386SOL     OW 2056   2.858   5.948   5.048
  386SOL    HW1 2057   2.791   5.929   5.120
  386SOL    HW2 2058   2.918   6.023   5.077
  387SOL     OW 2059   0.803   6.449   2.870
  387SOL    HW1 2060   0.773   6.514   2.939
  387SOL    HW2 2061   0.732   6.439   2.800
  388SOL     OW 2062   1.757   2.125   3.619
  388SOL    HW1 2063   1.814   2.106   3.699
  388SOL    HW2 2064   1.660   2.111   3.643
  389SOL     OW 2065   4.188   4.179   1.659
  389SOL    HW1 2066   4.159   4.090   1.696
  389SOL    HW2 2067   4.260   4.217   1.717
  390SOL     OW 2068   3.556   1.026   6.970
  390SOL    HW1 2069   3.583   1.057   6.878
  390SOL    HW2 2070   3.617   1.067   0.017
  391SOL     OW 2071   2.229   4.177   5.256
  391SOL    HW1 2072   2.295   4.177   5.331
  391SOL    HW2 2073   2.266   4.124   5.179
  392SOL     OW 2074   1.938   3.838   1.558
  392SOL    HW1 2075   1.916   3.845   1.460
  392SOL    HW2 2076   1.908   3.921   1.604
  393SOL     OW 2077   1.069   4.812   6.926
  393SOL    HW1 2078   0.995   4.747   6.943
  393SOL    HW2 2079   1.030   4.898   6.893
  394SOL     OW 2080   0.425   2.632   0.041
  394SOL    HW1 2081   0.451   2.616   6.967
  394SOL    HW2 2082   0.377   2.719   0.049
  395SOL     OW 2083   4.881   4.614   3.472
  395SOL    HW1 2084   4.940   4.649   3.400
  395SOL    HW2 2085   4.874   4.514   3.464
  396SOL     OW 2086   2.828   3.285   1.863
  396SOL    HW1 2087   2.854   3.229   1.785
  396SOL    HW2 2088   2.736   3.321   1.850
  397SOL     OW 2089   5.391   2.153   6.175
  397SOL    HW1 2090   5.417   2.113   6.263
  397SOL    HW2 2091   5.351   2.082   6.117
  398SOL     OW 2092   1.805   6.775   3.381
  398SOL    HW1 2093   1.820   6.732   3.470
  398SOL    HW2 2094   1.868   6.737   3.314
  399SOL     OW 2095   5.687   6.434   4.510
  399SOL    HW1 2096   5.751   6.470   4.442
  399SOL    HW2 2097   5.634   6.510   4.549
  400SOL     OW 2098   5.785   6.249   6.084
  400SOL    HW1 2099   5.730   6.241   6.000
  400SOL    HW2 2100   5.736   6.306   6.150
  401SOL     OW 2101   4.780   6.874   5.979
  401SOL    HW1 2102   4.704   6.939   5.983
  401SOL    HW2 2103   4.846   6.897   6.050
  402SOL     OW 2104   6.497   0.802   3.016
  402SOL    HW1 2105   6.554   0.872   2.973
  402SOL    HW2 2106   6.442   0.845   3.088
  403SOL     OW 2107   3.701   0.553   5.339
  403SOL    HW1 2108   3.760   0.619   5.385
  403SOL    HW2 2109   3.697   0.574   5.241
  404SOL     OW 2110   1.856   4.758   5.085
  404SOL    HW1 2111   1.842   4.856   5.099
  404SOL    HW2 2112   1.944   4.742   5.041
  405SOL     OW 2113   2.048   3.510   2.737
  405SOL    HW1 2114   2.096   3.530   2.822
  405SOL    HW2 2115   1.955   3.546   2.742
  406SOL     OW 2116   0.266   4.858   4.677
  406SOL    HW1 2117   0.281   4.896   4.769
  406SOL    HW2 2118   0.325   4.777   4.665
  407SOL     OW 2119   1.950   2.467   5.075
  407SOL    HW1 2120   1.897   2.424   5.002
  407SOL    HW2 2121   1.917   2.560   5.091
  408SOL     OW 2122   3.293   2.115   3.132
  408SOL    HW1 2123   3.390   2.121   3.108
  408SOL    HW2 2124   3.237   2.131   3.051
  409SOL     OW 2125   6.481   3.168   1.617
  409SOL    HW1 2126   6.542   3.146   1.694
  409SOL    HW2 2127   6.452   3.263   1.624
  410SOL     OW 2128   1.330   1.842   1.180
  410SOL    HW1 2129   1.343   1.813   1.085
  410SOL    HW2 2130   1.364   1.771   1.242
  411SOL     OW 2131   6.022   0.937   1.323
  411SOL    HW1 2132   6.048   0.890   1.407
  411SOL    HW2 2133   5.925   0.961   1.327
  412SOL     OW 2134   3.376   4.947   3.429
  412SOL    HW1 2135   3.468   4.936   3.465
  412SOL    HW2 2136   3.372   4.914   3.335
  413SOL     OW 2137   4.625   4.508   1.494
  413SOL    HW1 2138   4.558   4.443   1.458
  413SOL    HW2 2139   4.596   4.539   1.585
  414SOL     OW 2140   3.032   6.593   4.182
  414SOL    HW1 2141   2.952   6.574   4.125
  414SOL    HW2 2142   3.105   6.527   4.161
  415SOL     OW 2143   0.651   0.487   6.772
  415SOL    HW1 2144   0.699   0.505   6.857
  415SOL    HW2 2145   0.558   0.523   6.778
  416SOL     OW 2146   5.120   5.111   5.018
  416SOL    HW1 2147   5.132   5.209   5.006
  416SOL    HW2 2148   5.159   5.063   4.939
  417SOL     OW 2149   2.014   0.697   6.207
  417SOL    HW1 2150   1.984   0.646   6.288
  417SOL    HW2 2151   1.999   0.641   6.126
  418SOL     OW 2152   2.706   6.752   5.787
  418SOL    HW1 2153   2.717   6.745   5.688
  418SOL    HW2 2154   2.796   6.760   5.830
  419SOL     OW 2155   0.754   0.122   2.856
  419SOL    HW1 2156   0.824   0.187   2.884
  419SOL    HW2 2157   0.706   0.087   2.936
  420SOL     OW 2158   5.821   1.467   6.270
  420SOL    HW1 2159   5.799   1.417   6.185
  420SOL    HW2 2160   5.881   1.544   6.248
  421SOL     OW 2161   5.719   3.692   4.922
  421SOL    HW1 2162   5.705   3.716   4.826
  421SOL    HW2 2163   5.720   3.775   4.978
  422SOL     OW 2164   4.929   3.039   0.736
  422SOL    HW1 2165   4.931   2.992   0.824
  422SOL    HW2 2166   4.847   3.096   0.730
  423SOL     OW 2167   2.502   1.503   6.812
  423SOL    HW1 2168   2.595   1.536   6.826
  423SOL    HW2 2169   2.504   1.417   6.762
  424SOL     OW 2170   1.495   4.782   2.715
  424SOL    HW1 2171   1.454   4.872   2.704
  424SOL    HW2 2172   1.482   4.752   2.810
  425SOL     OW 2173   5.233   1.715   4.699
  425SOL    HW1 2174   5.248   1.638   4.761
  425SOL    HW2 2175   5.141   1.710   4.660
  426SOL     OW 2176   2.366   2.678   4.656
  426SOL    HW1 2177   2.463   2.665   4.640
  426SOL    HW2 2178   2.349   2.682   4.755
  427SOL     OW 2179   6.092   0.314   3.924
  427SOL    HW1 2180   6.000   0.333   3.956
  427SOL    HW2 2181   6.108   0.215   3.925
  428SOL     OW 2182   3.712   0.504   2.901
  428SOL    HW1 2183   3.716   0.410   2.867
  428SOL    HW2 2184   3.635   0.551   2.859
  429SOL     OW 2185   1.092   5.169   3.733
  429SOL    HW1 2186   1.055   5.262   3.728
  429SOL    HW2 2187   1.067   5.128   3.821
  430SOL     OW 2188   1.138   6.934   4.280
  430SOL    HW1 2189   1.236   6.949   4.265
  430SOL    HW2 2190   1.108   6.856   4.226
  431SOL     OW 2191   2.673   2.103   1.020
  431SOL    HW1 2192   2.753   2.053   0.988
  431SOL    HW2 2193   2.604   2.039   1.053
  432SOL     OW 2194   6.159   1.973   0.668
  432SOL    HW1 2195   6.246   1.927   0.657
  432SOL    HW2 2196   6.167   2.044   0.739
  433SOL     OW 2197   2.407   6.162   6.176
  433SOL    HW1 2198   2.318   6.151   6.132
  433SOL    HW2 2199   2.477   6.178   6.107
  434SOL     OW 2200   4.093   5.847   3.514
  434SOL    HW1 2201   4.007   5.814   3.554
  434SOL    HW2 2202   4.109   5.941   3.544
  435SOL     OW 2203   3.782   2.138   5.190
  435SOL    HW1 2204   3.776   2.126   5.091
  435SOL    HW2 2205   3.828   2.225   5.210
  436SOL     OW 2206   3.407   5.729   2.439
  436SOL    HW1 2207   3.363   5.707   2.353
  436SOL    HW2 2208   3.348   5.790   2.493
  437SOL     OW 2209   0.418   1.127   5.504
  437SOL    HW1 2210   0.442   1.032   5.486
  437SOL    HW2 2211   0.318   1.137   5.504
  438SOL     OW 2212   1.550   3.446   4.035
  438SOL    HW1 2213   1.491   3.527   4.026
  438SOL    HW2 2214   1.627   3.454   3.973
  439SOL     OW 2215   6.239   6.435   2.280
  439SOL    HW1 2216   6.184   6.513   2.307
  439SOL    HW2 2217   6.180   6.363   2.243
  440SOL     OW 2218   3.647   1.336   6.533
  440SOL    HW1 2219   3.691   1.316   6.621
  440SOL    HW2 2220   3.681   1.424   6.499
  441SOL     OW 2221   5.861   4.249   3.430
  441SOL    HW1 2222   5.939   4.194   3.462
  441SOL    HW2 2223   5.892   4.312   3.359
  442SOL     OW 2224   4.894   5.397   5.602
  442SOL    HW1 2225   4.908   5.468   5.532
  442SOL    HW2 2226   4.824   5.333   5.570
  443SOL     OW 2227   5.944   4.173   4.336
  443SOL    HW1 2228   5.942   4.253   4.276
  443SOL    HW2 2229   5.966   4.202   4.429
  444SOL     OW 2230   4.469   0.992   6.716
  444SOL    HW1 2231   4.534   1.023   6.647
  444SOL    HW2 2232   4.513   0.925   6.776
  445SOL     OW 2233   2.288   5.965   3.304
  445SOL    HW1 2234   2.301   5.984   3.402
  445SOL    HW2 2235   2.348   6.025   3.251
  446SOL     OW 2236   3.882   5.914   2.937
  446SOL    HW1 2237   3.829   5.949   2.859
  446SOL    HW2 2238   3.825   5.914   3.019
  447SOL     OW 2239   6.610   3.174   4.858
  447SOL    HW1 2240   6.565   3.261   4.838
  447SOL    HW2 2241   6.581   3.141   4.949
  448SOL     OW 2242   2.170   1.027   2.908
  448SOL    HW1 2243   2.224   0.943   2.918
  448SOL    HW2 2244   2.215   1.101   2.957
  449SOL     OW 2245   2.586   1.819   3.397
  449SOL    HW1 2246   2.576   1.723   3.420
  449SOL    HW2 2247   2.499   1.866   3.410
  450SOL     OW 2248   1.877   4.609   3.571
  450SOL    HW1 2249   1.811   4.592   3.644
  450SOL    HW2 2250   1.882   4.708   3.554
  451SOL     OW 2251   1.716   2.407   3.991
  451SOL    HW1 2252   1.796   2.348   3.986
  451SOL    HW2 2253   1.633   2.351   3.991
  452SOL     OW 2254   4.502   0.172   1.477
  452SOL    HW1 2255   4.402   0.179   1.480
  452SOL    HW2 2256   4.530   0.082   1.508
  453SOL     OW 2257   3.196   6.652   6.208
  453SOL    HW1 2258   3.220   6.676   6.302
  453SOL    HW2 2259   3.156   6.560   6.206
  454SOL     OW 2260   6.783   4.102   6.678
  454SOL    HW1 2261   6.697   4.074   6.635
  454SOL    HW2 2262   6.771   4.105   6.777
  455SOL     OW 2263   6.393   3.146   5.390
  455SOL    HW1 2264   6.303   3.161   5.348
  455SOL    HW2 2265   6.446   3.084   5.332
  456SOL     OW 2266   2.009   0.770   4.242
  456SOL    HW1 2267   1.918   0.739   4.216
  456SOL    HW2 2268   2.068   0.690   4.258
  457SOL     OW 2269   1.285   4.676   4.448
  457SOL    HW1 2270   1.320   4.636   4.534
  457SOL    HW2 2271   1.301   4.612   4.373
  458SOL     OW 2272   3.579   0.438   3.177
  458SOL    HW1 2273   3.661   0.487   3.146
  458SOL    HW2 2274   3.516   0.502   3.220
  459SOL     OW 2275   2.044   0.421   5.559
  459SOL    HW1 2276   2.139   0.451   5.566
  459SOL    HW2 2277   1.986   0.497   5.533
  460SOL     OW 2278   1.307   0.849   5.096
  460SOL    HW1 2279   1.373   0.883   5.029
  460SOL    HW2 2280   1.250   0.924   5.129
  461SOL     OW 2281   6.496   5.248   5.687
  461SOL    HW1 2282   6.497   5.185   5.765
  461SOL    HW2 2283   6.585   5.245   5.640
  462SOL     OW 2284   4.002   3.604   5.172
  462SOL    HW1 2285   4.051   3.579   5.088
  462SOL    HW2 2286   3.948   3.686   5.155
  463SOL     OW 2287   0.018   0.367   3.053
  463SOL    HW1 2288   0.109   0.401   3.077
  463SOL    HW2 2289   6.973   0.396   3.122
  464SOL     OW 2290   2.863   0.306   5.648
  464SOL    HW1 2291   2.934   0.282   5.714
  464SOL    HW2 2292   2.777   0.261   5.674
  465SOL     OW 2293   0.667   2.459   0.122
  465SOL    HW1 2294   0.652   2.557   0.133
  465SOL    HW2 2295   0.700   2.440   0.030
  466SOL     OW 2296   2.841   6.337   3.842
  466SOL    HW1 2297   2.852   6.425   3.889
  466SOL    HW2 2298   2.922   6.280   3.858
  467SOL     OW 2299   1.210   1.872   2.680
  467SOL    HW1 2300   1.189   1.969   2.691
  467SOL    HW2 2301   1.177   1.840   2.590
  468SOL     OW 2302   4.214   5.850   5.805
  468SOL    HW1 2303   4.170   5.928   5.849
  468SOL    HW2 2304   4.291   5.819   5.861
  469SOL     OW 2305   3.203   4.431   5.553
  469SOL    HW1 2306   3.121   4.483   5.577
  469SOL    HW2 2307   3.240   4.466   5.467
  470SOL     OW 2308   4.089   5.513   2.663
  470SOL    HW1 2309   4.035   5.548   2.586
  470SOL    HW2 2310   4.158   5.580   2.689
  471SOL     OW 2311   3.018   2.239   4.194
  471SOL    HW1 2312   3.045   2.145   4.176
  471SOL    HW2 2313   2.966   2.275   4.117
  472SOL     OW 2314   5.583   4.957   0.007
  472SOL    HW1 2315   5.599   4.860   7.007
  472SOL    HW2 2316   5.572   5.008   6.942
  473SOL     OW 2317   0.319   2.128   2.736
  473SOL    HW1 2318   0.295   2.203   2.674
  473SOL    HW2 2319   0.366   2.056   2.685
  474SOL     OW 2320   6.099   5.279   5.845
  474SOL    HW1 2321   6.117   5.215   5.920
  474SOL    HW2 2322   6.000   5.286   5.832
  475SOL     OW 2323   5.977   3.581   6.989
  475SOL    HW1 2324   5.963   3.669   0.014
  475SOL    HW2 2325   5.968   3.507   0.034
  476SOL     OW 2326   0.248   3.945   1.939
  476SOL    HW1 2327   0.234   3.847   1.932
  476SOL    HW2 2328   0.243   3.987   1.849
  477SOL     OW 2329   2.059   5.749   3.517
  477SOL    HW1 2330   2.139   5.741   3.577
  477SOL    HW2 2331   1.979   5.710   3.563
  478SOL     OW 2332   3.857   6.253   3.688
  478SOL    HW1 2333   3.853   6.218   3.781
  478SOL    HW2 2334   3.938   6.310   3.677
  479SOL     OW 2335   3.482   3.358   5.022
  479SOL    HW1 2336   3.466   3.305   5.105
  479SOL    HW2 2337   3.511   3.297   4.949
  480SOL     OW 2338   2.117   0.375   2.029
  480SOL    HW1 2339   2.057   0.452   2.048
  480SOL    HW2 2340   2.127   0.364   1.930
  481SOL     OW 2341   0.787   6.827   1.707
  481SOL    HW1 2342   0.830   6.808   1.619
  481SOL    HW2 2343   0.829   6.908   1.748
  482SOL     OW 2344   4.652   4.989   2.815
  482SOL    HW1 2345   4.744   4.991   2.854
  482SOL    HW2 2346   4.653   4.937   2.730
  483SOL     OW 2347   6.407   2.064   2.327
  483SOL    HW1 2348   6.407   2.141   2.391
  483SOL    HW2 2349   6.476   2.080   2.256
  484SOL     OW 2350   1.403   4.451   5.062
  484SOL    HW1 2351   1.315   4.497   5.075
  484SOL    HW2 2352   1.464   4.472   5.138
  485SOL     OW 2353   5.467   3.836   2.480
  485SOL    HW1 2354   5.423   3.809   2.566
  485SOL    HW2 2355   5.561   3.801   2.478
  486SOL     OW 2356   5.864   1.313   6.521
  486SOL    HW1 2357   5.837   1.379   6.450
  486SOL    HW2 2358   5.915   1.238   6.479
  487SOL     OW 2359   0.808   0.353   3.142
  487SOL    HW1 2360   0.896   0.316   3.114
  487SOL    HW2 2361   0.758   0.384   3.062
  488SOL     OW 2362   1.557   6.804   2.840
  488SOL    HW1 2363   1.654   6.816   2.864
  488SOL    HW2 2364   1.520   6.724   2.887
  489SOL     OW 2365   5.749   5.523   5.042
  489SOL    HW1 2366   5.652   5.550   5.041
  489SOL    HW2 2367   5.805   5.603   5.062
  490SOL     OW 2368   1.727   6.157   4.531
  490SOL    HW1 2369   1.688   6.154   4.439
  490SOL    HW2 2370   1.665   6.207   4.591
  491SOL     OW 2371   0.741   3.351   0.097
  491SOL    HW1 2372   0.657   3.400   0.076
  491SOL    HW2 2373   0.759   3.357   0.196
  492SOL     OW 2374   1.693   0.865   5.474
  492SOL    HW1 2375   1.742   0.899   5.394
  492SOL    HW2 2376   1.601   0.903   5.476
  493SOL     OW 2377   2.542   6.851   5.419
  493SOL    HW1 2378   2.467   6.890   5.473
  493SOL    HW2 2379   2.504   6.791   5.348
  494SOL     OW 2380   2.182   1.540   6.226
  494SOL    HW1 2381   2.096   1.566   6.271
  494SOL    HW2 2382   2.196   1.596   6.145
  495SOL     OW 2383   3.540   6.287   5.098
  495SOL    HW1 2384   3.548   6.323   5.005
  495SOL    HW2 2385   3.630   6.260   5.132
  496SOL     OW 2386   6.257   1.498   2.191
  496SOL    HW1 2387   6.306   1.432   2.134
  496SOL    HW2 2388   6.292   1.493   2.285
  497SOL     OW 2389   3.790   0.743   4.549
  497SOL    HW1 2390   3.725   0.774   4.619
  497SOL    HW2 2391   3.742   0.729   4.462
  498SOL     OW 2392   0.724   4.835   1.861
  498SOL    HW1 2393   0.690   4.856   1.769
  498SOL    HW2 2394   0.704   4.911   1.923
  499SOL     OW 2395   2.268   5.887   5.236
  499SOL    HW1 2396   2.268   5.975   5.285
  499SOL    HW2 2397   2.358   5.872   5.196
  500SOL     OW 2398   5.467   3.152   5.548
  500SOL    HW1 2399   5.381   3.198   5.525
  500SOL    HW2 2400   5.484   3.079   5.482
  501SOL     OW 2401   3.212   0.389   1.840
  501SOL    HW1 2402   3.145   0.406   1.912
  501SOL    HW2 2403   3.168   0.341   1.765
  502SOL     OW 2404   1.021   4.612   6.584
  502SOL    HW1 2405   0.922   4.627   6.586
  502SOL    HW2 2406   1.043   4.528   6.635
  503SOL     OW 2407   1.833   5.001   6.167
  503SOL    HW1 2408   1.830   5.083   6.110
  503SOL    HW2 2409   1.896   4.935   6.127
  504SOL     OW 2410   0.557   5.754   1.685
  504SOL    HW1 2411   0.526   5.726   1.594
  504SOL    HW2 2412   0.493   5.719   1.754
  505SOL     OW 2413   4.079   0.552   5.042
  505SOL    HW1 2414   4.015   0.518   5.111
  505SOL    HW2 2415   4.158   0.492   5.037
  506SOL     OW 2416   2.950   5.919   2.263
  506SOL    HW1 2417   2.870   5.949   2.213
  506SOL    HW2 2418   3.029   5.976   2.239
  507SOL     OW 2419   3.920   0.460   2.213
  507SOL    HW1 2420   3.851   0.531   2.200
  507SOL    HW2 2421   3.883   0.372   2.185
  508SOL     OW 2422   6.807   2.372   2.858
  508SOL    HW1 2423   6.789   2.282   2.818
  508SOL    HW2 2424   6.875   2.363   2.930
  509SOL     OW 2425   4.399   1.079   0.525
  509SOL    HW1 2426   4.388   1.003   0.589
  509SOL    HW2 2427   4.483   1.067   0.472
  510SOL     OW 2428   6.891   4.818   5.789
  510SOL    HW1 2429   6.857   4.727   5.810
  510SOL    HW2 2430   6.946   4.852   5.865
  511SOL     OW 2431   1.157   1.943   6.746
  511SOL    HW1 2432   1.222   2.017   6.764
  511SOL    HW2 2433   1.128   1.903   6.833
  512SOL     OW 2434   6.146   2.844   6.899
  512SOL    HW1 2435   6.049   2.838   6.874
  512SOL    HW2 2436   6.156   2.820   6.996
  513SOL     OW 2437   5.457   6.553   2.438
  513SOL    HW1 2438   5.375   6.507   2.405
  513SOL    HW2 2439   5.506   6.494   2.502
  514SOL     OW 2440   0.455   0.296   4.462
  514SOL    HW1 2441   0.466   0.366   4.392
  514SOL    HW2 2442   0.480   0.207   4.425
  515SOL     OW 2443   2.273   0.384   6.669
  515SOL    HW1 2444   2.211   0.350   6.599
  515SOL    HW2 2445   2.221   0.409   6.751
  516SOL     OW 2446   2.417   4.455   2.212
  516SOL    HW1 2447   2.345   4.511   2.255
  516SOL    HW2 2448   2.506   4.481   2.250
  517SOL     OW 2449   3.443   5.003   2.293
  517SOL    HW1 2450   3.413   5.098   2.290
  517SOL    HW2 2451   3.467   4.972   2.201
  518SOL     OW 2452   2.618   2.073   3.800
  518SOL    HW1 2453   2.651   2.167   3.802
  518SOL    HW2 2454   2.550   2.060   3.872
  519SOL     OW 2455   0.580   6.424   3.273
  519SOL    HW1 2456   0.594   6.326   3.286
  519SOL    HW2 2457   0.488   6.440   3.235
  520SOL     OW 2458   0.972   3.989   6.702
  520SOL    HW1 2459   0.942   3.894   6.699
  520SOL    HW2 2460   1.070   3.992   6.721
  521SOL     OW 2461   4.420   5.665   4.847
  521SOL    HW1 2462   4.342   5.726   4.833
  521SOL    HW2 2463   4.394   5.572   4.821
  522SOL     OW 2464   4.085   3.645   2.086
  522SOL    HW1 2465   4.052   3.595   2.166
  522SOL    HW2 2466   4.180   3.620   2.068
  523SOL     OW 2467   6.880   5.811   2.241
  523SOL    HW1 2468   6.910   5.902   2.270
  523SOL    HW2 2469   6.872   5.809   2.141
  524SOL     OW 2470   1.095   3.101   2.592
  524SOL    HW1 2471   1.020   3.105   2.658
  524SOL    HW2 2472   1.166   3.040   2.626
  525SOL     OW 2473   2.228   4.289   6.609
  525SOL    HW1 2474   2.206   4.380   6.574
  525SOL    HW2 2475   2.156   4.224   6.583
  526SOL     OW 2476   2.960   6.685   3.718
  526SOL    HW1 2477   2.934   6.682   3.622
  526SOL    HW2 2478   3.022   6.609   3.738
  527SOL     OW 2479   0.428   2.297   6.981
  527SOL    HW1 2480   0.426   2.286   0.060
  527SOL    HW2 2481   0.516   2.336   6.954
  528SOL     OW 2482   1.331   2.648   3.873
  528SOL    HW1 2483   1.323   2.659   3.774
  528SOL    HW2 2484   1.268   2.712   3.918
  529SOL     OW 2485   1.979   0.246   5.252
  529SOL    HW1 2486   1.981   0.292   5.341
  529SOL    HW2 2487   1.889   0.261   5.209
  530SOL     OW 2488   3.858   2.964   2.561
  530SOL    HW1 2489   3.900   2.931   2.646
  530SOL    HW2 2490   3.763   2.932   2.556
  531SOL     OW 2491   1.178   0.808   2.617
  531SOL    HW1 2492   1.079   0.794   2.613
  531SOL    HW2 2493   1.199   0.886   2.676
  532SOL     OW 2494   1.649   3.410   0.394
  532SOL    HW1 2495   1.602   3.345   0.453
  532SOL    HW2 2496   1.583   3.470   0.350
  533SOL     OW 2497   4.748   0.055   4.017
  533SOL    HW1 2498   4.684   0.008   4.078
  533SOL    HW2 2499   4.698   0.122   3.962
  534SOL     OW 2500   6.590   6.030   2.154
  534SOL    HW1 2501   6.541   5.993   2.233
  534SOL    HW2 2502   6.681   6.059   2.182
  535SOL     OW 2503   0.322   4.438   2.886
  535SOL    HW1 2504   0.383   4.360   2.901
  535SOL    HW2 2505   0.350   4.487   2.804
  536SOL     OW 2506   6.548   5.078   2.773
  536SOL    HW1 2507   6.494   5.028   2.841
  536SOL    HW2 2508   6.612   5.015   2.729
  537SOL     OW 2509   3.647   0.069   4.525
  537SOL    HW1 2510   3.730   0.034   4.567
  537SOL    HW2 2511   3.671   0.138   4.456
  538SOL     OW 2512   0.970   4.282   4.733
  538SOL    HW1 2513   0.990   4.376   4.760
  538SOL    HW2 2514   1.000   4.220   4.805
  539SOL     OW 2515   1.567   5.368   2.106
  539SOL    HW1 2516   1.532   5.378   2.013
  539SOL    HW2 2517   1.511   5.423   2.169
  540SOL     OW 2518   1.507   0.507   3.889
  540SOL    HW1 2519   1.490   0.590   3.836
  540SOL    HW2 2520   1.439   0.438   3.865
  541SOL     OW 2521   4.634   5.766   3.849
  541SOL    HW1 2522   4.710   5.779   3.914
  541SOL    HW2 2523   4.550   5.802   3.889
  542SOL     OW 2524   4.156   6.108   6.357
  542SOL    HW1 2525   4.207   6.079   6.438
  542SOL    HW2 2526   4.214   6.099   6.276
  543SOL     OW 2527   5.884   3.467   3.192
  543SOL    HW1 2528   5.890   3.371   3.216
  543SOL    HW2 2529   5.832   3.478   3.108
  544SOL     OW 2530   0.446   5.235   0.410
  544SOL    HW1 2531   0.367   5.223   0.350
  544SOL    HW2 2532   0.448   5.161   0.478
  545SOL     OW 2533   4.196   1.057   0.828
  545SOL    HW1 2534   4.272   0.999   0.856
  545SOL    HW2 2535   4.170   1.036   0.734
  546SOL     OW 2536   1.509   3.834   2.159
  546SOL    HW1 2537   1.538   3.787   2.076
  546SOL    HW2 2538   1.410   3.849   2.157
  547SOL     OW 2539   3.211   2.923   0.975
  547SOL    HW1 2540   3.281   2.931   1.045
  547SOL    HW2 2541   3.221   2.836   0.927
  548SOL     OW 2542   3.819   3.699   1.494
  548SOL    HW1 2543   3.873   3.634   1.547
  548SOL    HW2 2544   3.870   3.784   1.482
  549SOL     OW 2545   5.317   2.598   1.747
  549SOL    HW1 2546   5.385   2.636   1.685
  549SOL    HW2 2547   5.246   2.550   1.695
  550SOL     OW 2548   1.001   5.339   3.147
  550SOL    HW1 2549   1.021   5.437   3.147
  550SOL    HW2 2550   1.020   5.301   3.056
  551SOL     OW 2551   6.781   0.347   1.791
  551SOL    HW1 2552   6.757   0.413   1.720
  551SOL    HW2 2553   6.845   0.390   1.855
  552SOL     OW 2554   5.673   3.979   5.537
  552SOL    HW1 2555   5.734   3.900   5.529
  552SOL    HW2 2556   5.722   4.055   5.579
  553SOL     OW 2557   3.026   6.730   3.441
  553SOL    HW1 2558   3.005   6.670   3.363
  553SOL    HW2 2559   2.998   6.823   3.420
  554SOL     OW 2560   5.606   6.820   0.117
  554SOL    HW1 2561   5.592   6.744   0.180
  554SOL    HW2 2562   5.639   6.899   0.167
  555SOL     OW 2563   2.841   5.032   4.937
  555SOL    HW1 2564   2.922   5.083   4.966
  555SOL    HW2 2565   2.771   5.036   5.008
  556SOL     OW 2566   4.909   1.532   4.309
  556SOL    HW1 2567   4.965   1.495   4.234
  556SOL    HW2 2568   4.861   1.457   4.355
  557SOL     OW 2569   6.875   4.888   6.385
  557SOL    HW1 2570   6.952   4.848   6.335
  557SOL    HW2 2571   6.793   4.833   6.369
  558SOL     OW 2572   3.145   3.095   4.085
  558SOL    HW1 2573   3.224   3.069   4.142
  558SOL    HW2 2574   3.162   3.065   3.991
  559SOL     OW 2575   6.782   5.413   5.303
  559SOL    HW1 2576   6.719   5.336   5.301
  559SOL    HW2 2577   6.755   5.482   5.235
  560SOL     OW 2578   6.849   3.979   3.144
  560SOL    HW1 2579   6.858   4.070   3.103
  560SOL    HW2 2580   6.765   3.936   3.112
  561SOL     OW 2581   0.188   2.321   0.553
  561SOL    HW1 2582   0.133   2.295   0.474
  561SOL    HW2 2583   0.128   2.350   0.628
  562SOL     OW 2584   3.890   0.964   5.788
  562SOL    HW1 2585   3.982   0.950   5.825
  562SOL    HW2 2586   3.889   0.937   5.691
  563SOL     OW 2587   1.974   1.524   3.484
  563SOL    HW1 2588   2.021   1.579   3.553
  563SOL    HW2 2589   1.944   1.584   3.409
  564SOL     OW 2590   1.123   2.696   0.210
  564SOL    HW1 2591   1.132   2.785   0.254
  564SOL    HW2 2592   1.148   2.624   0.275
  565SOL     OW 2593   3.180   3.395   3.736
  565SOL    HW1 2594   3.200   3.427   3.829
  565SOL    HW2 2595   3.102   3.333   3.739
  566SOL     OW 2596   1.219   3.458   3.829
  566SOL    HW1 2597   1.124   3.490   3.823
  566SOL    HW2 2598   1.268   3.510   3.898
  567SOL     OW 2599   3.217   2.520   1.395
  567SOL    HW1 2600   3.213   2.620   1.404
  567SOL    HW2 2601   3.211   2.478   1.486
  568SOL     OW 2602   4.620   6.840   0.354
  568SOL    HW1 2603   4.563   6.761   0.332
  568SOL    HW2 2604   4.609   6.909   0.283
  569SOL     OW 2605   1.011   3.032   0.557
  569SOL    HW1 2606   0.942   3.069   0.495
  569SOL    HW2 2607   1.019   3.091   0.638
  570SOL     OW 2608   3.029   0.272   6.480
  570SOL    HW1 2609   2.992   0.308   6.565
  570SOL    HW2 2610   3.035   0.172   6.486
  571SOL     OW 2611   2.910   5.344   4.079
  571SOL    HW1 2612   2.888   5.298   3.993
  571SOL    HW2 2613   2.865   5.434   4.081
  572SOL     OW 2614   1.985   5.047   5.304
  572SOL    HW1 2615   1.944   5.091   5.224
  572SOL    HW2 2616   2.085   5.049   5.296
  573SOL     OW 2617   5.874   1.018   5.983
  573SOL    HW1 2618   5.849   1.115   5.985
  573SOL    HW2 2619   5.967   1.007   6.018
  574SOL     OW 2620   3.690   0.328   4.746
  574SOL    HW1 2621   3.659   0.263   4.815
  574SOL    HW2 2622   3.790   0.335   4.750
  575SOL     OW 2623   4.162   2.849   1.689
  575SOL    HW1 2624   4.089   2.904   1.729
  575SOL    HW2 2625   4.132   2.754   1.682
  576SOL     OW 2626   1.093   3.301   3.476
  576SOL    HW1 2627   1.096   3.202   3.489
  576SOL    HW2 2628   1.172   3.344   3.520
  577SOL     OW 2629   1.644   1.145   2.350
  577SOL    HW1 2630   1.644   1.109   2.257
  577SOL    HW2 2631   1.670   1.073   2.414
  578SOL     OW 2632   0.349   5.191   4.838
  578SOL    HW1 2633   0.349   5.094   4.860
  578SOL    HW2 2634   0.256   5.228   4.850
  579SOL     OW 2635   1.831   4.107   2.938
  579SOL    HW1 2636   1.864   4.030   2.883
  579SOL    HW2 2637   1.794   4.073   3.024
  580SOL     OW 2638   4.318   5.017   5.579
  580SOL    HW1 2639   4.231   5.031   5.625
  580SOL    HW2 2640   4.377   4.958   5.634
  581SOL     OW 2641   2.132   3.028   2.011
  581SOL    HW1 2642   2.214   2.994   1.965
  581SOL    HW2 2643   2.146   3.124   2.036
  582SOL     OW 2644   4.381   5.278   2.479
  582SOL    HW1 2645   4.299   5.231   2.511
  582SOL    HW2 2646   4.399   5.357   2.538
  583SOL     OW 2647   2.526   6.296   5.244
  583SOL    HW1 2648   2.558   6.312   5.151
  583SOL    HW2 2649   2.460   6.221   5.244
  584SOL     OW 2650   3.212   6.545   6.613
  584SOL    HW1 2651   3.268   6.548   6.695
  584SOL    HW2 2652   3.260   6.591   6.538
  585SOL     OW 2653   4.246   0.770   0.107
  585SOL    HW1 2654   4.206   0.768   0.015
  585SOL    HW2 2655   4.343   0.791   0.100
  586SOL     OW 2656   3.484   0.441   0.319
  586SOL    HW1 2657   3.545   0.498   0.373
  586SOL    HW2 2658   3.504   0.453   0.221
  587SOL     OW 2659   4.336   2.427   3.202
  587SOL    HW1 2660   4.399   2.357   3.169
  587SOL    HW2 2661   4.265   2.443   3.133
  588SOL     OW 2662   2.150   4.868   1.544
  588SOL    HW1 2663   2.160   4.823   1.455
  588SOL    HW2 2664   2.150   4.799   1.617
  589SOL     OW 2665   3.455   5.662   1.940
  589SOL    HW1 2666   3.536   5.648   1.996
  589SOL    HW2 2667   3.476   5.727   1.867
  590SOL     OW 2668   5.583   1.793   1.153
  590SOL    HW1 2669   5.496   1.746   1.134
  590SOL    HW2 2670   5.618   1.762   1.242
  591SOL     OW 2671   3.547   6.493   3.549
  591SOL    HW1 2672   3.473   6.554   3.521
  591SOL    HW2 2673   3.579   6.520   3.640
  592SOL     OW 2674   4.383   0.670   2.156
  592SOL    HW1 2675   4.319   0.609   2.204
  592SOL    HW2 2676   4.470   0.622   2.142
  593SOL     OW 2677   4.657   2.234   3.679
  593SOL    HW1 2678   4.660   2.214   3.777
  593SOL    HW2 2679   4.750   2.243   3.644
  594SOL     OW 2680   6.166   0.349   0.815
  594SOL    HW1 2681   6.196   0.439   0.782
  594SOL    HW2 2682   6.068   0.339   0.797
  595SOL     OW 2683   5.435   6.762   3.312
  595SOL    HW1 2684   5.384   6.817   3.247
  595SOL    HW2 2685   5.398   6.775   3.404
  596SOL     OW 2686   0.013   5.300   2.860
  596SOL    HW1 2687   6.967   5.261   2.925
  596SOL    HW2 2688   0.105   5.273   2.887
  597SOL     OW 2689   2.668   0.006   6.648
  597SOL    HW1 2690   2.667   6.928   6.666
  597SOL    HW2 2691   2.600   0.051   6.706
  598SOL     OW 2692   3.787   3.943   4.605
  598SOL    HW1 2693   3.744   4.017   4.553
  598SOL    HW2 2694   3.879   3.926   4.569
  599SOL     OW 2695   2.231   5.685   2.655
  599SOL    HW1 2696   2.242   5.656   2.560
  599SOL    HW2 2697   2.168   5.623   2.702
  600SOL     OW 2698   6.052   2.086   6.486
  600SOL    HW1 2699   6.093   2.049   6.570
  600SOL    HW2 2700   6.124   2.102   6.419
  601SOL     OW 2701   1.421   0.863   4.054
  601SOL    HW1 2702   1.388   0.850   3.960
  601SOL    HW2 2703   1.392   0.786   4.110
  602SOL     OW 2704   2.166   0.232   6.470
  602SOL    HW1 2705   2.073   0.267   6.478
  602SOL    HW2 2706   2.186   0.210   6.374
  603SOL     OW 2707   3.053   2.472   5.365
  603SOL    HW1 2708   3.129   2.442   5.307
  603SOL    HW2 2709   3.006   2.548   5.321
  604SOL     OW 2710   1.093   1.608   1.396
  604SOL    HW1 2711   1.150   1.574   1.322
  604SOL    HW2 2712   0.997   1.607   1.367
  605SOL     OW 2713   6.562   4.781   0.813
  605SOL    HW1 2714   6.662   4.780   0.816
  605SOL    HW2 2715   6.527   4.692   0.842
  606SOL     OW 2716   4.857   6.396   5.426
  606SOL    HW1 2717   4.899   6.316   5.470
  606SOL    HW2 2718   4.887   6.402   5.331
  607SOL     OW 2719   6.350   4.743   4.992
  607SOL    HW1 2720   6.372   4.830   5.035
  607SOL    HW2 2721   6.336   4.673   5.062
  608SOL     OW 2722   4.036   6.241   6.752
  608SOL    HW1 2723   4.038   6.193   6.840
  608SOL    HW2 2724   4.098   6.196   6.688
  609SOL     OW 2725   3.556   2.914   2.302
  609SOL    HW1 2726   3.467   2.950   2.329
  609SOL    HW2 2727   3.605   2.880   2.383
  610SOL     OW 2728   5.642   3.232   0.437
  610SOL    HW1 2729   5.737   3.203   0.428
  610SOL    HW2 2730   5.581   3.153   0.431
  611SOL     OW 2731   4.664   0.176   1.952
  611SOL    HW1 2732   4.665   0.076   1.957
  611SOL    HW2 2733   4.603   0.205   1.879
  612SOL     OW 2734   3.422   5.569   4.083
  612SOL    HW1 2735   3.383   5.646   4.133
  612SOL    HW2 2736   3.348   5.514   4.043
  613SOL     OW 2737   4.394   5.220   5.414
  613SOL    HW1 2738   4.307   5.236   5.368
  613SOL    HW2 2739   4.384   5.143   5.477
  614SOL     OW 2740   4.717   4.978   5.599
  614SOL    HW1 2741   4.688   5.023   5.684
  614SOL    HW2 2742   4.682   4.884   5.598
  615SOL     OW 2743   6.827   1.943   1.104
  615SOL    HW1 2744   6.889   2.021   1.111
  615SOL    HW2 2745   6.733   1.976   1.106
  616SOL     OW 2746   0.116   2.144   2.137
  616SOL    HW1 2747   0.036   2.204   2.147
  616SOL    HW2 2748   0.196   2.200   2.113
  617SOL     OW 2749   0.291   4.531   5.793
  617SOL    HW1 2750   0.385   4.565   5.798
  617SOL    HW2 2751   0.265   4.520   5.697
  618SOL     OW 2752   1.081   2.501   0.797
  618SOL    HW1 2753   1.059   2.506   0.894
  618SOL    HW2 2754   1.070   2.591   0.755
  619SOL     OW 2755   3.472   1.474   0.898
  619SOL    HW1 2756   3.549   1.526   0.934
  619SOL    HW2 2757   3.465   1.387   0.947
  620SOL     OW 2758   4.580   1.987   0.933
  620SOL    HW1 2759   4.680   1.987   0.932
  620SOL    HW2 2760   4.546   1.987   0.839
  621SOL     OW 2761   3.307   6.076   6.947
  621SOL    HW1 2762   3.229   6.104   6.891
  621SOL    HW2 2763   3.276   6.061   0.020
  622SOL     OW 2764   0.963   1.097   6.166
  622SOL    HW1 2765   0.918   1.186   6.157
  622SOL    HW2 2766   1.021   1.080   6.086
  623SOL     OW 2767   1.243   5.729   5.767
  623SOL    HW1 2768   1.297   5.650   5.798
  623SOL    HW2 2769   1.147   5.702   5.759
  624SOL     OW 2770   0.184   2.321   1.180
  624SOL    HW1 2771   0.187   2.323   1.080
  624SOL    HW2 2772   0.260   2.376   1.216
  625SOL     OW 2773   2.543   1.797   1.589
  625SOL    HW1 2774   2.465   1.740   1.566
  625SOL    HW2 2775   2.526   1.846   1.674
  626SOL     OW 2776   2.820   5.674   3.831
  626SOL    HW1 2777   2.867   5.613   3.767
  626SOL    HW2 2778   2.797   5.623   3.914
  627SOL     OW 2779   5.146   0.081   0.624
  627SOL    HW1 2780   5.238   0.075   0.586
  627SOL    HW2 2781   5.104   7.011   0.626
  628SOL     OW 2782   5.836   5.275   5.768
  628SOL    HW1 2783   5.809   5.369   5.747
  628SOL    HW2 2784   5.766   5.212   5.736
  629SOL     OW 2785   6.925   6.630   0.402
  629SOL    HW1 2786   6.951   6.723   0.427
  629SOL    HW2 2787   6.982   6.599   0.326
  630SOL     OW 2788   6.449   1.444   2.437
  630SOL    HW1 2789   6.476   1.490   2.521
  630SOL    HW2 2790   6.420   1.351   2.457
  631SOL     OW 2791   3.199   6.793   5.000
  631SOL    HW1 2792   3.238   6.718   4.947
  631SOL    HW2 2793   3.249   6.804   5.086
  632SOL     OW 2794   2.922   1.885   0.387
  632SOL    HW1 2795   2.948   1.811   0.326
  632SOL    HW2 2796   2.953   1.973   0.349
  633SOL     OW 2797   4.815   4.268   0.415
  633SOL    HW1 2798   4.900   4.320   0.421
  633SOL    HW2 2799   4.758   4.306   0.343
  634SOL     OW 2800   4.638   4.532   1.896
  634SOL    HW1 2801   4.575   4.462   1.930
  634SOL    HW2 2802   4.732   4.498   1.903
  635SOL     OW 2803   4.595   5.243   1.441
  635SOL    HW1 2804   4.516   5.257   1.501
  635SOL    HW2 2805   4.574   5.279   1.350
  636SOL     OW 2806   4.657   6.125   6.906
  636SOL    HW1 2807   4.749   6.162   6.911
  636SOL    HW2 2808   4.661   6.025   6.898
  637SOL     OW 2809   6.590   3.422   1.867
  637SOL    HW1 2810   6.509   3.468   1.831
  637SOL    HW2 2811   6.617   3.348   1.805
  638SOL     OW 2812   5.292   2.161   2.182
  638SOL    HW1 2813   5.235   2.079   2.179
  638SOL    HW2 2814   5.247   2.231   2.237
  639SOL     OW 2815   5.473   4.346   2.746
  639SOL    HW1 2816   5.523   4.412   2.803
  639SOL    HW2 2817   5.452   4.388   2.658
  640SOL     OW 2818   0.570   5.031   4.772
  640SOL    HW1 2819   0.565   5.022   4.673
  640SOL    HW2 2820   0.488   5.079   4.805
  641SOL     OW 2821   6.957   5.569   4.317
  641SOL    HW1 2822   6.955   5.634   4.242
  641SOL    HW2 2823   0.026   5.573   4.362
  642SOL     OW 2824   6.743   4.208   4.179
  642SOL    HW1 2825   6.723   4.134   4.114
  642SOL    HW2 2826   6.708   4.182   4.269
  643SOL     OW 2827   5.634   4.580   5.150
  643SOL    HW1 2828   5.617   4.670   5.190
  643SOL    HW2 2829   5.733   4.563   5.149
  644SOL     OW 2830   1.092   6.429   4.212
  644SOL    HW1 2831   1.177   6.482   4.210
  644SOL    HW2 2832   1.108   6.338   4.174
  645SOL     OW 2833   5.458   2.671   4.277
  645SOL    HW1 2834   5.516   2.644   4.353
  645SOL    HW2 2835   5.454   2.598   4.209
  646SOL     OW 2836   2.402   1.334   3.568
  646SOL    HW1 2837   2.334   1.374   3.629
  646SOL    HW2 2838   2.445   1.255   3.612
  647SOL     OW 2839   5.425   1.905   5.612
  647SOL    HW1 2840   5.395   1.930   5.520
  647SOL    HW2 2841   5.524   1.915   5.619
  648SOL     OW 2842   0.162   4.231   3.191
  648SOL    HW1 2843   0.129   4.305   3.131
  648SOL    HW2 2844   0.090   4.206   3.256
  649SOL     OW 2845   4.215   4.245   0.908
  649SOL    HW1 2846   4.151   4.266   0.983
  649SOL    HW2 2847   4.166   4.198   0.835
  650SOL     OW 2848   5.302   4.289   0.840
  650SOL    HW1 2849   5.301   4.189   0.832
  650SOL    HW2 2850   5.222   4.318   0.893
  651SOL     OW 2851   6.866   6.539   6.492
  651SOL    HW1 2852   6.946   6.552   6.551
  651SOL    HW2 2853   6.784   6.531   6.549
  652SOL     OW 2854   5.558   6.274   3.487
  652SOL    HW1 2855   5.492   6.214   3.532
  652SOL    HW2 2856   5.651   6.244   3.509
  653SOL     OW 2857   3.449   5.901   4.921
  653SOL    HW1 2858   3.350   5.907   4.931
  653SOL    HW2 2859   3.476   5.805   4.915
  654SOL     OW 2860   0.016   3.882   5.779
  654SOL    HW1 2861   6.946   3.878   5.820
  654SOL    HW2 2862   0.085   3.884   5.852
  655SOL     OW 2863   0.742   6.741   2.332
  655SOL    HW1 2864   0.773   6.752   2.427
  655SOL    HW2 2865   0.804   6.789   2.271
  656SOL     OW 2866   1.940   5.352   1.523
  656SOL    HW1 2867   1.976   5.291   1.594
  656SOL    HW2 2868   1.953   5.447   1.550
  657SOL     OW 2869   1.669   1.769   1.676
  657SOL    HW1 2870   1.745   1.766   1.739
  657SOL    HW2 2871   1.622   1.680   1.675
  658SOL     OW 2872   2.783   4.033   6.141
  658SOL    HW1 2873   2.868   4.045   6.193
  658SOL    HW2 2874   2.717   4.104   6.168
  659SOL     OW 2875   2.194   6.150   6.001
  659SOL    HW1 2876   2.198   6.096   5.918
  659SOL    HW2 2877   2.164   6.243   5.979
  660SOL     OW 2878   5.337   4.002   1.927
  660SOL    HW1 2879   5.250   3.975   1.967
  660SOL    HW2 2880   5.349   3.956   1.839
  661SOL     OW 2881   4.510   6.754   3.488
  661SOL    HW1 2882   4.594   6.734   3.538
  661SOL    HW2 2883   4.466   6.834   3.528
  662SOL     OW 2884   4.358   1.255   5.394
  662SOL    HW1 2885   4.395   1.338   5.436
  662SOL    HW2 2886   4.271   1.232   5.437
  663SOL     OW 2887   2.547   4.128   6.355
  663SOL    HW1 2888   2.542   4.198   6.283
  663SOL    HW2 2889   2.467   4.068   6.349
  664SOL     OW 2890   0.026   5.995   6.325
  664SOL    HW1 2891   0.023   6.071   6.260
  664SOL    HW2 2892   6.966   5.937   6.313
  665SOL     OW 2893   4.442   5.333   1.895
  665SOL    HW1 2894   4.542   5.328   1.892
  665SOL    HW2 2895   4.410   5.301   1.984
  666SOL     OW 2896   5.284   1.577   1.840
  666SOL    HW1 2897   5.337   1.521   1.775
  666SOL    HW2 2898   5.347   1.625   1.901
  667SOL     OW 2899   0.727   4.695   2.569
  667SOL    HW1 2900   0.739   4.676   2.471
  667SOL    HW2 2901   0.713   4.793   2.582
  668SOL     OW 2902   4.798   6.271   5.959
  668SOL    HW1 2903   4.724   6.303   5.900
  668SOL    HW2 2904   4.784   6.304   6.052
  669SOL     OW 2905   5.284   6.880   3.121
  669SOL    HW1 2906   5.341   6.947   3.072
  669SOL    HW2 2907   5.194   6.920   3.138
  670SOL     OW 2908   3.118   2.379   1.722
  670SOL    HW1 2909   3.194   2.441   1.737
  670SOL    HW2 2910   3.062   2.374   1.805
  671SOL     OW 2911   2.990   6.630   0.884
  671SOL    HW1 2912   2.999   6.730   0.885
  671SOL    HW2 2913   2.936   6.602   0.805
  672SOL     OW 2914   6.876   5.746   1.949
  672SOL    HW1 2915   6.970   5.715   1.952
  672SOL    HW2 2916   6.818   5.676   1.908
  673SOL     OW 2917   6.389   0.404   1.679
  673SOL    HW1 2918   6.416   0.493   1.644
  673SOL    HW2 2919   6.471   0.354   1.710
  674SOL     OW 2920   0.400   1.163   4.927
  674SOL    HW1 2921   0.444   1.098   4.866
  674SOL    HW2 2922   0.319   1.201   4.883
  675SOL     OW 2923   6.762   2.071   1.760
  675SOL    HW1 2924   6.669   2.050   1.729
  675SOL    HW2 2925   6.780   2.168   1.748
  676SOL     OW 2926   3.266   5.351   3.388
  676SOL    HW1 2927   3.309   5.273   3.341
  676SOL    HW2 2928   3.321   5.433   3.375
  677SOL     OW 2929   5.558   1.624   0.183
  677SOL    HW1 2930   5.480   1.656   0.130
  677SOL    HW2 2931   5.642   1.659   0.143
  678SOL     OW 2932   2.525   6.668   4.846
  678SOL    HW1 2933   2.551   6.584   4.797
  678SOL    HW2 2934   2.602   6.697   4.904
  679SOL     OW 2935   4.670   2.155   3.925
  679SOL    HW1 2936   4.739   2.152   3.996
  679SOL    HW2 2937   4.581   2.129   3.963
  680SOL     OW 2938   5.095   5.537   4.897
  680SOL    HW1 2939   5.129   5.461   4.953
  680SOL    HW2 2940   5.036   5.596   4.953
  681SOL     OW 2941   4.398   5.330   1.624
  681SOL    HW1 2942   4.302   5.347   1.600
  681SOL    HW2 2943   4.406   5.319   1.723
  682SOL     OW 2944   6.443   0.685   1.230
  682SOL    HW1 2945   6.489   0.642   1.152
  682SOL    HW2 2946   6.423   0.781   1.208
  683SOL     OW 2947   5.177   2.746   0.823
  683SOL    HW1 2948   5.225   2.658   0.817
  683SOL    HW2 2949   5.079   2.730   0.818
  684SOL     OW 2950   6.526   1.147   0.272
  684SOL    HW1 2951   6.476   1.070   0.312
  684SOL    HW2 2952   6.553   1.210   0.344
  685SOL     OW 2953   3.869   1.832   3.936
  685SOL    HW1 2954   3.875   1.797   4.030
  685SOL    HW2 2955   3.775   1.826   3.905
  686SOL     OW 2956   4.831   2.721   4.115
  686SOL    HW1 2957   4.814   2.774   4.199
  686SOL    HW2 2958   4.828   2.624   4.137
  687SOL     OW 2959   0.879   2.079   3.955
  687SOL    HW1 2960   0.904   1.991   3.914
  687SOL    HW2 2961   0.934   2.094   4.038
  688SOL     OW 2962   0.499   1.958   6.740
  688SOL    HW1 2963   0.429   2.020   6.775
  688SOL    HW2 2964   0.457   1.886   6.685
  689SOL     OW 2965   1.095   4.979   6.389
  689SOL    HW1 2966   1.111   4.924   6.470
  689SOL    HW2 2967   1.023   4.937   6.333
  690SOL     OW 2968   0.179   2.894   3.307
  690SOL    HW1 2969   0.205   2.801   3.333
  690SOL    HW2 2970   0.262   2.947   3.287
  691SOL     OW 2971   3.023   0.989   0.044
  691SOL    HW1 2972   2.967   0.909   0.064
  691SOL    HW2 2973   3.075   0.973   6.981
  692SOL     OW 2974   3.988   1.206   3.613
  692SOL    HW1 2975   3.898   1.225   3.574
  692SOL    HW2 2976   4.058   1.254   3.559
  693SOL     OW 2977   5.891   0.211   4.074
  693SOL    HW1 2978   5.839   0.187   3.992
  693SOL    HW2 2979   5.829   0.224   4.151
  694SOL     OW 2980   4.617   6.946   4.433
  694SOL    HW1 2981   4.657   6.996   4.511
  694SOL    HW2 2982   4.520   6.930   4.450
  695SOL     OW 2983   4.425   6.975   3.883
  695SOL    HW1 2984   4.437   6.944   3.977
  695SOL    HW2 2985   4.503   0.011   3.857
  696SOL     OW 2986   4.535   4.949   3.656
  696SOL    HW1 2987   4.442   4.944   3.693
  696SOL    HW2 2988   4.554   4.865   3.604
  697SOL     OW 2989   1.541   4.154   2.848
  697SOL    HW1 2990   1.634   4.148   2.885
  697SOL    HW2 2991   1.484   4.208   2.910
  698SOL     OW 2992   4.930   6.411   0.971
  698SOL    HW1 2993   5.028   6.393   0.956
  698SOL    HW2 2994   4.884   6.326   0.994
  699SOL     OW 2995   1.955   3.940   6.849
  699SOL    HW1 2996   2.052   3.943   6.824
  699SOL    HW2 2997   1.929   3.845   6.869
  700SOL     OW 2998   3.358   1.254   2.242
  700SOL    HW1 2999   3.382   1.281   2.335
  700SOL    HW2 3000   3.313   1.330   2.196
  701SOL     OW 3001   6.534   3.645   6.808
  701SOL    HW1 3002   6.543   3.556   6.762
  701SOL    HW2 3003   6.501   3.713   6.743
  702SOL     OW 3004   1.421   6.258   4.924
  702SOL    HW1 3005   1.482   6.265   4.845
  702SOL    HW2 3006   1.465   6.297   5.005
  703SOL     OW 3007   3.492   3.115   6.134
  703SOL    HW1 3008   3.439   3.052   6.078
  703SOL    HW2 3009   3.450   3.122   6.225
  704SOL     OW 3010   1.804   2.750   6.382
  704SOL    HW1 3011   1.709   2.764   6.410
  704SOL    HW2 3012   1.833   2.824   6.322
  705SOL     OW 3013   6.210   4.755   2.906
  705SOL    HW1 3014   6.199   4.665   2.948
  705SOL    HW2 3015   6.121   4.800   2.899
  706SOL     OW 3016   3.936   1.620   4.736
  706SOL    HW1 3017   3.878   1.581   4.808
  706SOL    HW2 3018   4.032   1.605   4.759
  707SOL     OW 3019   4.493   4.907   3.356
  707SOL    HW1 3020   4.470   4.997   3.319
  707SOL    HW2 3021   4.421   4.878   3.419
  708SOL     OW 3022   2.884   0.770   2.559
  708SOL    HW1 3023   2.829   0.693   2.528
  708SOL    HW2 3024   2.959   0.736   2.615
  709SOL     OW 3025   0.556   5.796   0.451
  709SOL    HW1 3026   0.607   5.715   0.480
  709SOL    HW2 3027   0.608   5.845   0.381
  710SOL     OW 3028   4.342   2.195   1.345
  710SOL    HW1 3029   4.315   2.291   1.356
  710SOL    HW2 3030   4.300   2.158   1.262
  711SOL     OW 3031   0.052   3.086   6.042
  711SOL    HW1 3032   7.017   3.116   6.119
  711SOL    HW2 3033   0.122   3.022   6.075
  712SOL     OW 3034   4.584   2.262   1.448
  712SOL    HW1 3035   4.670   2.253   1.397
  712SOL    HW2 3036   4.508   2.231   1.391
  713SOL     OW 3037   3.490   3.521   6.056
  713SOL    HW1 3038   3.445   3.465   5.987
  713SOL    HW2 3039   3.484   3.477   6.145
  714SOL     OW 3040   0.244   5.048   3.561
  714SOL    HW1 3041   0.259   4.950   3.545
  714SOL    HW2 3042   0.223   5.063   3.657
  715SOL     OW 3043   5.359   6.045   6.725
  715SOL    HW1 3044   5.398   5.967   6.675
  715SOL    HW2 3045   5.261   6.030   6.738
  716SOL     OW 3046   0.857   0.982   1.739
  716SOL    HW1 3047   0.893   1.073   1.718
  716SOL    HW2 3048   0.887   0.918   1.668
  717SOL     OW 3049   6.817   4.958   4.067
  717SOL    HW1 3050   6.869   4.913   4.140
  717SOL    HW2 3051   6.841   5.055   4.065
  718SOL     OW 3052   4.665   3.597   5.915
  718SOL    HW1 3053   4.670   3.697   5.922
  718SOL    HW2 3054   4.754   3.558   5.941
  719SOL     OW 3055   6.366   6.998   2.841
  719SOL    HW1 3056   6.379   6.978   2.938
  719SOL    HW2 3057   6.386   0.073   2.823
  720SOL     OW 3058   2.349   6.938   6.177
  720SOL    HW1 3059   2.394   6.936   6.087
  720SOL    HW2 3060   2.418   6.925   6.249
  721SOL     OW 3061   2.441   1.900   2.168
  721SOL    HW1 3062   2.539   1.910   2.184
  721SOL    HW2 3063   2.419   1.803   2.154
  722SOL     OW 3064   2.421   0.872   5.518
  722SOL    HW1 3065   2.405   0.956   5.570
  722SOL    HW2 3066   2.495   0.820   5.562
  723SOL     OW 3067   2.146   4.537   3.484
  723SOL    HW1 3068   2.185   4.494   3.565
  723SOL    HW2 3069   2.064   4.588   3.509
  724SOL     OW 3070   0.495   1.324   3.848
  724SOL    HW1 3071   0.519   1.324   3.945
  724SOL    HW2 3072   0.576   1.302   3.794
  725SOL     OW 3073   1.669   5.467   2.418
  725SOL    HW1 3074   1.571   5.468   2.394
  725SOL    HW2 3075   1.680   5.496   2.513
  726SOL     OW 3076   3.127   4.985   1.633
  726SOL    HW1 3077   3.200   5.020   1.693
  726SOL    HW2 3078   3.092   5.059   1.576
  727SOL     OW 3079   6.273   4.494   5.786
  727SOL    HW1 3080   6.237   4.552   5.713
  727SOL    HW2 3081   6.348   4.542   5.832
  728SOL     OW 3082   6.471   3.259   3.789
  728SOL    HW1 3083   6.483   3.170   3.745
  728SOL    HW2 3084   6.548   3.276   3.851
  729SOL     OW 3085   0.509   2.019   0.959
  729SOL    HW1 3086   0.410   2.008   0.948
  729SOL    HW2 3087   0.546   1.938   1.005
  730SOL     OW 3088   6.746   0.233   4.349
  730SOL    HW1 3089   6.795   0.296   4.289
  730SOL    HW2 3090   6.806   0.157   4.375
  731SOL     OW 3091   4.278   5.329   6.268
  731SOL    HW1 3092   4.194   5.318   6.215
  731SOL    HW2 3093   4.257   5.376   6.354
  732SOL     OW 3094   6.006   2.777   1.662
  732SOL    HW1 3095   5.932   2.785   1.728
  732SOL    HW2 3096   6.075   2.713   1.697
  733SOL     OW 3097   5.573   0.206   4.657
  733SOL    HW1 3098   5.587   0.125   4.600
  733SOL    HW2 3099   5.601   0.287   4.606
  734SOL     OW 3100   5.923   4.758   2.931
  734SOL    HW1 3101   5.919   4.798   3.023
  734SOL    HW2 3102   5.876   4.670   2.931
  735SOL     OW 3103   3.980   1.708   0.629
  735SOL    HW1 3104   3.968   1.712   0.530
  735SOL    HW2 3105   3.896   1.740   0.673
  736SOL     OW 3106   0.964   1.268   3.697
  736SOL    HW1 3107   0.978   1.354   3.745
  736SOL    HW2 3108   1.043   1.208   3.712
  737SOL     OW 3109   4.837   1.735   5.596
  737SOL    HW1 3110   4.741   1.757   5.578
  737SOL    HW2 3111   4.849   1.713   5.693
  738SOL     OW 3112   2.993   3.865   1.682
  738SOL    HW1 3113   3.074   3.806   1.681
  738SOL    HW2 3114   2.945   3.858   1.595
  739SOL     OW 3115   5.024   0.806   4.477
  739SOL    HW1 3116   4.986   0.791   4.568
  739SOL    HW2 3117   4.969   0.759   4.409
  740SOL     OW 3118   5.921   1.165   2.505
  740SOL    HW1 3119   5.855   1.091   2.520
  740SOL    HW2 3120   5.895   1.244   2.561
  741SOL     OW 3121   1.705   0.156   3.346
  741SOL    HW1 3122   1.703   0.206   3.259
  741SOL    HW2 3123   1.662   0.067   3.333
  742SOL     OW 3124   2.353   0.184   1.945
  742SOL    HW1 3125   2.433   0.222   1.992
  742SOL    HW2 3126   2.373   0.090   1.917
  743SOL     OW 3127   0.688   5.338   3.023
  743SOL    HW1 3128   0.656   5.279   2.949
  743SOL    HW2 3129   0.691   5.286   3.108
  744SOL     OW 3130   5.884   1.295   0.877
  744SOL    HW1 3131   5.873   1.198   0.902
  744SOL    HW2 3132   5.899   1.349   0.960
  745SOL     OW 3133   1.483   5.721   4.971
  745SOL    HW1 3134   1.551   5.681   5.033
  745SOL    HW2 3135   1.437   5.797   5.018
  746SOL     OW 3136   6.359   3.813   6.039
  746SOL    HW1 3137   6.261   3.830   6.029
  746SOL    HW2 3138   6.410   3.896   6.014
  747SOL     OW 3139   3.825   5.868   4.657
  747SOL    HW1 3140   3.848   5.962   4.680
  747SOL    HW2 3141   3.741   5.866   4.603
  748SOL     OW 3142   4.104   5.005   2.773
  748SOL    HW1 3143   4.194   5.020   2.815
  748SOL    HW2 3144   4.095   4.909   2.748
  749SOL     OW 3145   6.242   3.855   4.647
  749SOL    HW1 3146   6.155   3.873   4.601
  749SOL    HW2 3147   6.291   3.781   4.600
  750SOL     OW 3148   2.951   1.001   0.957
  750SOL    HW1 3149   2.920   0.916   0.913
  750SOL    HW2 3150   2.876   1.067   0.957
  751SOL     OW 3151   4.630   1.971   0.151
  751SOL    HW1 3152   4.670   1.924   0.230
  751SOL    HW2 3153   4.619   1.905   0.076
  752SOL     OW 3154   2.554   2.823   1.118
  752SOL    HW1 3155   2.581   2.757   1.187
  752SOL    HW2 3156   2.607   2.908   1.130
  753SOL     OW 3157   0.803   3.724   5.925
  753SOL    HW1 3158   0.879   3.782   5.954
  753SOL    HW2 3159   0.717   3.768   5.949
  754SOL     OW 3160   4.464   1.152   6.425
  754SOL    HW1 3161   4.438   1.248   6.416
  754SOL    HW2 3162   4.564   1.145   6.427
  755SOL     OW 3163   1.501   4.507   5.345
  755SOL    HW1 3164   1.542   4.502   5.437
  755SOL    HW2 3165   1.442   4.427   5.331
  756SOL     OW 3166   2.401   5.803   0.071
  756SOL    HW1 3167   2.380   5.845   0.160
  756SOL    HW2 3168   2.362   5.712   0.068
  757SOL     OW 3169   0.336   6.464   4.200
  757SOL    HW1 3170   0.378   6.398   4.261
  757SOL    HW2 3171   0.389   6.469   4.115
  758SOL     OW 3172   4.470   0.459   3.553
  758SOL    HW1 3173   4.391   0.463   3.614
  758SOL    HW2 3174   4.496   0.363   3.539
  759SOL     OW 3175   0.412   2.991   2.318
  759SOL    HW1 3176   0.376   2.899   2.302
  759SOL    HW2 3177   0.421   3.038   2.230
  760SOL     OW 3178   6.004   0.045   3.554
  760SOL    HW1 3179   6.086   0.101   3.549
  760SOL    HW2 3180   5.961   0.039   3.463
  761SOL     OW 3181   5.400   4.193   6.418
  761SOL    HW1 3182   5.322   4.234   6.466
  761SOL    HW2 3183   5.450   4.134   6.481
  762SOL     OW 3184   3.005   6.980   5.552
  762SOL    HW1 3185   3.093   6.953   5.590
  762SOL    HW2 3186   3.009   0.054   5.522
  763SOL     OW 3187   3.969   5.891   6.262
  763SOL    HW1 3188   4.026   5.872   6.341
  763SOL    HW2 3189   4.016   5.955   6.201
  764SOL     OW 3190   5.568   0.904   5.707
  764SOL    HW1 3191   5.504   0.884   5.633
  764SOL    HW2 3192   5.653   0.941   5.669
  765SOL     OW 3193   1.430   5.808   0.927
  765SOL    HW1 3194   1.413   5.904   0.946
  765SOL    HW2 3195   1.418   5.790   0.830
  766SOL     OW 3196   2.802   2.257   5.252
  766SOL    HW1 3197   2.758   2.347   5.254
  766SOL    HW2 3198   2.739   2.189   5.288
  767SOL     OW 3199   6.421   6.317   3.757
  767SOL    HW1 3200   6.498   6.322   3.820
  767SOL    HW2 3201   6.388   6.222   3.753
  768SOL     OW 3202   1.779   5.118   3.143
  768SOL    HW1 3203   1.695   5.113   3.197
  768SOL    HW2 3204   1.852   5.071   3.192
  769SOL     OW 3205   2.432   1.189   5.004
  769SOL    HW1 3206   2.447   1.203   5.102
  769SOL    HW2 3207   2.351   1.132   4.990
  770SOL     OW 3208   1.564   5.474   3.972
  770SOL    HW1 3209   1.629   5.399   3.959
  770SOL    HW2 3210   1.471   5.439   3.962
  771SOL     OW 3211   0.844   5.043   2.868
  771SOL    HW1 3212   0.897   4.974   2.820
  771SOL    HW2 3213   0.819   5.010   2.959
  772SOL     OW 3214   5.982   4.541   6.991
  772SOL    HW1 3215   5.947   4.469   6.931
  772SOL    HW2 3216   6.017   4.500   0.054
  773SOL     OW 3217   0.575   4.239   3.305
  773SOL    HW1 3218   0.620   4.288   3.230
  773SOL    HW2 3219   0.637   4.234   3.383
  774SOL     OW 3220   1.703   1.482   1.748
  774SOL    HW1 3221   1.610   1.461   1.778
  774SOL    HW2 3222   1.725   1.427   1.667
  775SOL     OW 3223   2.123   1.807   4.025
  775SOL    HW1 3224   2.115   1.766   3.934
  775SOL    HW2 3225   2.216   1.793   4.060
  776SOL     OW 3226   6.987   0.435   6.281
  776SOL    HW1 3227   6.935   0.409   6.199
  776SOL    HW2 3228   6.972   0.532   6.300
  777SOL     OW 3229   1.706   4.154   1.276
  777SOL    HW1 3230   1.779   4.198   1.224
  777SOL    HW2 3231   1.617   4.185   1.241
  778SOL     OW 3232   2.358   0.680   1.286
  778SOL    HW1 3233   2.264   0.671   1.253
  778SOL    HW2 3234   2.422   0.675   1.209
  779SOL     OW 3235   6.975   2.311   2.509
  779SOL    HW1 3236   0.049   2.319   2.540
  779SOL    HW2 3237   6.963   2.360   2.423
  780SOL     OW 3238   0.665   2.602   4.196
  780SOL    HW1 3239   0.751   2.645   4.166
  780SOL    HW2 3240   0.678   2.504   4.204
  781SOL     OW 3241   5.317   6.341   0.695
  781SOL    HW1 3242   5.336   6.284   0.775
  781SOL    HW2 3243   5.371   6.308   0.617
  782SOL     OW 3244   1.642   3.483   5.809
  782SOL    HW1 3245   1.676   3.505   5.718
  782SOL    HW2 3246   1.711   3.509   5.877
  783SOL     OW 3247   4.873   4.790   1.918
  783SOL    HW1 3248   4.780   4.798   1.953
  783SOL    HW2 3249   4.886   4.701   1.876
  784SOL     OW 3250   3.822   5.229   1.633
  784SOL    HW1 3251   3.802   5.155   1.697
  784SOL    HW2 3252   3.895   5.200   1.570
  785SOL     OW 3253   0.716   1.646   3.321
  785SOL    HW1 3254   0.802   1.636   3.271
  785SOL    HW2 3255   0.660   1.718   3.279
  786SOL     OW 3256   0.082   0.263   2.631
  786SOL    HW1 3257   0.049   0.324   2.703
  786SOL    HW2 3258   0.132   0.187   2.671
  787SOL     OW 3259   1.532   0.694   6.875
  787SOL    HW1 3260   1.543   0.604   6.834
  787SOL    HW2 3261   1.437   0.724   6.864
  788SOL     OW 3262   4.541   1.774   1.104
  788SOL    HW1 3263   4.548   1.852   1.042
  788SOL    HW2 3264   4.542   1.806   1.199
  789SOL     OW 3265   4.131   4.779   2.009
  789SOL    HW1 3266   4.220   4.787   2.053
  789SOL    HW2 3267   4.059   4.788   2.078
  790SOL     OW 3268   2.976   1.746   3.002
  790SOL    HW1 3269   2.935   1.656   3.013
  790SOL    HW2 3270   3.010   1.779   3.090
  791SOL     OW 3271   1.969   6.421   4.749
  791SOL    HW1 3272   2.037   6.475   4.798
  791SOL    HW2 3273   1.879   6.463   4.761
  792SOL     OW 3274   0.903   0.635   2.090
  792SOL    HW1 3275   0.935   0.573   2.162
  792SOL    HW2 3276   0.953   0.721   2.095
  793SOL     OW 3277   4.725   5.667   4.427
  793SOL    HW1 3278   4.767   5.577   4.420
  793SOL    HW2 3279   4.673   5.686   4.343
  794SOL     OW 3280   3.074   4.081   5.945
  794SOL    HW1 3281   3.024   4.167   5.960
  794SOL    HW2 3282   3.134   4.091   5.865
  795SOL     OW 3283   4.083   0.538   5.456
  795SOL    HW1 3284   4.168   0.582   5.426
  795SOL    HW2 3285   4.036   0.499   5.377
  796SOL     OW 3286   0.837   2.932   6.824
  796SOL    HW1 3287   0.920   2.903   6.871
  796SOL    HW2 3288   0.826   3.031   6.831
  797SOL     OW 3289   4.745   0.616   0.724
  797SOL    HW1 3290   4.777   0.524   0.701
  797SOL    HW2 3291   4.720   0.620   0.820
  798SOL     OW 3292   3.500   6.646   2.311
  798SOL    HW1 3293   3.501   6.716   2.382
  798SOL    HW2 3294   3.428   6.668   2.244
  799SOL     OW 3295   0.397   0.193   6.498
  799SOL    HW1 3296   0.328   0.262   6.519
  799SOL    HW2 3297   0.469   0.196   6.567
  800SOL     OW 3298   6.164   0.685   2.331
  800SOL    HW1 3299   6.112   0.767   2.354
  800SOL    HW2 3300   6.259   0.695   2.363
  801SOL     OW 3301   2.192   4.728   5.106
  801SOL    HW1 3302   2.190   4.632   5.134
  801SOL    HW2 3303   2.156   4.736   5.013
  802SOL     OW 3304   3.174   2.650   0.268
  802SOL    HW1 3305   3.128   2.695   0.344
  802SOL    HW2 3306   3.134   2.559   0.254
  803SOL     OW 3307   1.351   0.500   5.872
  803SOL    HW1 3308   1.278   0.538   5.815
  803SOL    HW2 3309   1.381   0.569   5.937
  804SOL     OW 3310   6.288   6.445   1.158
  804SOL    HW1 3311   6.206   6.444   1.101
  804SOL    HW2 3312   6.321   6.539   1.167
  805SOL     OW 3313   2.209   1.289   4.238
  805SOL    HW1 3314   2.241   1.194   4.246
  805SOL    HW2 3315   2.253   1.344   4.308
  806SOL     OW 3316   5.375   0.582   5.669
  806SOL    HW1 3317   5.352   0.677   5.646
  806SOL    HW2 3318   5.429   0.542   5.594
  807SOL     OW 3319   0.648   0.314   4.683
  807SOL    HW1 3320   0.589   0.247   4.728
  807SOL    HW2 3321   0.604   0.346   4.599
  808SOL     OW 3322   4.442   3.361   0.015
  808SOL    HW1 3323   4.521   3.373   0.076
  808SOL    HW2 3324   4.373   3.430   0.037
  809SOL     OW 3325   0.545   4.786   1.001
  809SOL    HW1 3326   0.458   4.819   0.963
  809SOL    HW2 3327   0.552   4.813   1.097
  810SOL     OW 3328   3.367   4.717   0.370
  810SOL    HW1 3329   3.354   4.619   0.386
  810SOL    HW2 3330   3.463   4.740   0.383
  811SOL     OW 3331   5.219   5.833   4.114
  811SOL    HW1 3332   5.236   5.819   4.016
  811SOL    HW2 3333   5.239   5.928   4.138
  812SOL     OW 3334   0.002   1.538   2.272
  812SOL    HW1 3335   0.087   1.571   2.232
  812SOL    HW2 3336   6.963   1.616   2.293
  813SOL     OW 3337   3.753   0.218   4.335
  813SOL    HW1 3338   3.844   0.176   4.333
  813SOL    HW2 3339   3.708   0.206   4.246
  814SOL     OW 3340   6.385   5.313   2.462
  814SOL    HW1 3341   6.474   5.286   2.500
  814SOL    HW2 3342   6.381   5.290   2.365
  815SOL     OW 3343   6.069   3.183   3.525
  815SOL    HW1 3344   6.053   3.199   3.427
  815SOL    HW2 3345   6.143   3.243   3.556
  816SOL     OW 3346   5.740   5.110   0.603
  816SOL    HW1 3347   5.708   5.024   0.642
  816SOL    HW2 3348   5.663   5.172   0.590
  817SOL     OW 3349   1.007   5.448   1.014
  817SOL    HW1 3350   1.070   5.418   1.086
  817SOL    HW2 3351   0.927   5.490   1.056
  818SOL     OW 3352   6.411   3.644   3.565
  818SOL    HW1 3353   6.412   3.550   3.531
  818SOL    HW2 3354   6.379   3.645   3.659
  819SOL     OW 3355   6.330   3.011   1.457
  819SOL    HW1 3356   6.391   3.078   1.500
  819SOL    HW2 3357   6.380   2.927   1.439
  820SOL     OW 3358   2.733   2.176   4.860
  820SOL    HW1 3359   2.795   2.152   4.935
  820SOL    HW2 3360   2.685   2.094   4.828
  821SOL     OW 3361   6.439   4.842   6.267
  821SOL    HW1 3362   6.510   4.775   6.288
  821SOL    HW2 3363   6.421   4.898   6.348
  822SOL     OW 3364   6.826   3.198   3.229
  822SOL    HW1 3365   6.886   3.184   3.150
  822SOL    HW2 3366   6.882   3.218   3.310
  823SOL     OW 3367   6.245   4.512   6.064
  823SOL    HW1 3368   6.172   4.579   6.082
  823SOL    HW2 3369   6.239   4.481   5.969
  824SOL     OW 3370   4.365   1.004   6.241
  824SOL    HW1 3371   4.403   1.058   6.316
  824SOL    HW2 3372   4.280   0.960   6.270
  825SOL     OW 3373   6.224   5.257   1.493
  825SOL    HW1 3374   6.151   5.260   1.424
  825SOL    HW2 3375   6.241   5.349   1.528
  826SOL     OW 3376   3.956   2.555   5.586
  826SOL    HW1 3377   3.964   2.601   5.497
  826SOL    HW2 3378   4.046   2.522   5.614
  827SOL     OW 3379   2.608   4.323   5.378
  827SOL    HW1 3380   2.548   4.244   5.383
  827SOL    HW2 3381   2.601   4.364   5.286
  828SOL     OW 3382   5.721   6.497   6.509
  828SOL    HW1 3383   5.771   6.583   6.504
  828SOL    HW2 3384   5.742   6.441   6.429
  829SOL     OW 3385   3.985   3.359   1.961
  829SOL    HW1 3386   3.929   3.277   1.954
  829SOL    HW2 3387   3.925   3.439   1.972
  830SOL     OW 3388   5.319   4.811   6.568
  830SOL    HW1 3389   5.406   4.781   6.528
  830SOL    HW2 3390   5.263   4.731   6.590
  831SOL     OW 3391   5.880   7.014   0.458
  831SOL    HW1 3392   5.933   6.976   0.533
  831SOL    HW2 3393   5.932   0.067   0.415
  832SOL     OW 3394   4.300   2.275   3.810
  832SOL    HW1 3395   4.372   2.287   3.879
  832SOL    HW2 3396   4.230   2.214   3.846
  833SOL     OW 3397   2.045   3.670   6.409
  833SOL    HW1 3398   1.955   3.633   6.433
  833SOL    HW2 3399   2.056   3.667   6.309
  834SOL     OW 3400   5.251   3.412   1.291
  834SOL    HW1 3401   5.170   3.359   1.312
  834SOL    HW2 3402   5.275   3.469   1.369
  835SOL     OW 3403   2.973   6.821   4.847
  835SOL    HW1 3404   3.066   6.827   4.882
  835SOL    HW2 3405   2.933   6.732   4.873
  836SOL     OW 3406   4.426   0.003   5.156
  836SOL    HW1 3407   4.371   0.032   5.077
  836SOL    HW2 3408   4.374   0.018   5.240
  837SOL     OW 3409   0.080   0.770   1.248
  837SOL    HW1 3410   0.002   0.810   1.198
  837SOL    HW2 3411   0.159   0.831   1.240
  838SOL     OW 3412   2.665   6.508   4.463
  838SOL    HW1 3413   2.595   6.498   4.392
  838SOL    HW2 3414   2.697   6.603   4.465
  839SOL     OW 3415   2.341   1.202   2.059
  839SOL    HW1 3416   2.427   1.239   2.022
  839SOL    HW2 3417   2.284   1.171   1.983
  840SOL     OW 3418   6.428   5.676   0.134
  840SOL    HW1 3419   6.469   5.707   0.219
  840SOL    HW2 3420   6.405   5.755   0.077
  841SOL     OW 3421   3.212   5.681   5.822
  841SOL    HW1 3422   3.286   5.695   5.757
  841SOL    HW2 3423   3.228   5.596   5.872
  842SOL     OW 3424   3.769   0.573   5.797
  842SOL    HW1 3425   3.768   0.672   5.811
  842SOL    HW2 3426   3.694   0.547   5.736
  843SOL     OW 3427   1.183   1.629   1.688
  843SOL    HW1 3428   1.236   1.711   1.708
  843SOL    HW2 3429   1.157   1.628   1.592
  844SOL     OW 3430   6.966   6.865   0.520
  844SOL    HW1 3431   6.976   6.960   0.489
  844SOL    HW2 3432   6.892   6.860   0.588
  845SOL     OW 3433   5.062   4.045   3.270
  845SOL    HW1 3434   4.974   4.001   3.284
  845SOL    HW2 3435   5.084   4.102   3.350
  846SOL     OW 3436   2.044   0.549   5.968
  846SOL    HW1 3437   2.016   0.476   5.905
  846SOL    HW2 3438   2.132   0.586   5.938
  847SOL     OW 3439   1.047   3.279   1.492
  847SOL    HW1 3440   1.041   3.191   1.539
  847SOL    HW2 3441   0.987   3.277   1.411
  848SOL     OW 3442   6.927   6.768   5.840
  848SOL    HW1 3443   6.832   6.763   5.809
  848SOL    HW2 3444   6.976   6.838   5.788
  849SOL     OW 3445   6.129   4.333   6.570
  849SOL    HW1 3446   6.105   4.377   6.483
  849SOL    HW2 3447   6.220   4.365   6.599
  850SOL     OW 3448   5.719   0.324   4.893
  850SOL    HW1 3449   5.711   0.225   4.881
  850SOL    HW2 3450   5.680   0.351   4.981
  851SOL     OW 3451   6.823   2.705   0.449
  851SOL    HW1 3452   6.752   2.637   0.429
  851SOL    HW2 3453   6.875   2.677   0.529
  852SOL     OW 3454   1.122   4.253   0.446
  852SOL    HW1 3455   1.158   4.339   0.483
  852SOL    HW2 3456   1.138   4.249   0.348
  853SOL     OW 3457   0.925   4.746   0.327
  853SOL    HW1 3458   0.833   4.712   0.303
  853SOL    HW2 3459   0.929   4.764   0.425
  854SOL     OW 3460   4.869   5.738   0.600
  854SOL    HW1 3461   4.830   5.771   0.687
  854SOL    HW2 3462   4.901   5.816   0.547
  855SOL     OW 3463   6.377   6.950   1.168
  855SOL    HW1 3464   6.476   6.946   1.187
  855SOL    HW2 3465   6.330   6.987   1.248
  856SOL     OW 3466   1.517   1.362   6.871
  856SOL    HW1 3467   1.583   1.320   6.809
  856SOL    HW2 3468   1.565   1.409   6.945
  857SOL     OW 3469   5.995   5.032   2.101
  857SOL    HW1 3470   5.970   5.089   2.023
  857SOL    HW2 3471   6.070   4.972   2.075
  858SOL     OW 3472   3.060   4.208   1.234
  858SOL    HW1 3473   2.986   4.184   1.298
  858SOL    HW2 3474   3.030   4.188   1.141
  859SOL     OW 3475   5.651   6.563   5.159
  859SOL    HW1 3476   5.727   6.500   5.176
  859SOL    HW2 3477   5.663   6.645   5.214
  860SOL     OW 3478   6.661   2.686   6.890
  860SOL    HW1 3479   6.582   2.654   6.838
  860SOL    HW2 3480   6.630   2.730   6.974
  861SOL     OW 3481   2.134   4.649   3.783
  861SOL    HW1 3482   2.045   4.694   3.774
  861SOL    HW2 3483   2.133   4.589   3.863
  862SOL     OW 3484   1.988   3.850   2.869
  862SOL    HW1 3485   1.950   3.843   2.777
  862SOL    HW2 3486   1.937   3.790   2.932
  863SOL     OW 3487   5.726   0.926   6.316
  863SOL    HW1 3488   5.641   0.970   6.286
  863SOL    HW2 3489   5.754   0.857   6.250
  864SOL     OW 3490   3.977   6.150   4.012
  864SOL    HW1 3491   4.069   6.161   3.974
  864SOL    HW2 3492   3.959   6.053   4.029
  865SOL     OW 3493   1.473   6.838   5.966
  865SOL    HW1 3494   1.534   6.827   5.887
  865SOL    HW2 3495   1.473   6.754   6.020
  866SOL     OW 3496   3.117   0.732   0.553
  866SOL    HW1 3497   3.216   0.734   0.541
  866SOL    HW2 3498   3.087   0.818   0.595
  867SOL     OW 3499   5.292   3.569   0.331
  867SOL    HW1 3500   5.283   3.493   0.395
  867SOL    HW2 3501   5.322   3.651   0.380
  868SOL     OW 3502   6.757   0.883   1.314
  868SOL    HW1 3503   6.740   0.799   1.262
  868SOL    HW2 3504   6.680   0.900   1.375
  869SOL     OW 3505   0.463   4.215   2.915
  869SOL    HW1 3506   0.411   4.152   2.973
  869SOL    HW2 3507   0.560   4.189   2.917
  870SOL     OW 3508   4.183   3.911   0.463
  870SOL    HW1 3509   4.247   3.853   0.412
  870SOL    HW2 3510   4.233   3.988   0.503
  871SOL     OW 3511   5.041   2.088   3.507
  871SOL    HW1 3512   5.105   2.144   3.454
  871SOL    HW2 3513   5.018   2.006   3.454
  872SOL     OW 3514   5.580   3.135   3.668
  872SOL    HW1 3515   5.666   3.121   3.716
  872SOL    HW2 3516   5.598   3.157   3.572
  873SOL     OW 3517   5.057   5.360   5.292
  873SOL    HW1 3518   4.965   5.332   5.266
  873SOL    HW2 3519   5.054   5.415   5.375
  874SOL     OW 3520   6.101   3.721   6.358
  874SOL    HW1 3521   6.159   3.664   6.418
  874SOL    HW2 3522   6.152   3.803   6.332
  875SOL     OW 3523   4.793   5.196   1.035
  875SOL    HW1 3524   4.823   5.185   1.130
  875SOL    HW2 3525   4.850   5.264   0.990
  876SOL     OW 3526   0.193   5.044   2.273
  876SOL    HW1 3527   0.156   5.085   2.190
  876SOL    HW2 3528   0.291   5.030   2.262
  877SOL     OW 3529   3.812   4.996   5.712
  877SOL    HW1 3530   3.756   5.041   5.642
  877SOL    HW2 3531   3.846   4.909   5.677
  878SOL     OW 3532   5.037   6.628   4.431
  878SOL    HW1 3533   5.029   6.667   4.523
  878SOL    HW2 3534   5.000   6.694   4.365
  879SOL     OW 3535   4.287   1.097   1.734
  879SOL    HW1 3536   4.261   1.062   1.823
  879SOL    HW2 3537   4.206   1.110   1.677
  880SOL     OW 3538   3.154   3.818   4.044
  880SOL    HW1 3539   3.221   3.764   4.095
  880SOL    HW2 3540   3.073   3.761   4.026
  881SOL     OW 3541   4.902   3.945   5.732
  881SOL    HW1 3542   4.945   4.029   5.701
  881SOL    HW2 3543   4.971   3.875   5.747
  882SOL     OW 3544   1.278   2.246   3.639
  882SOL    HW1 3545   1.202   2.212   3.695
  882SOL    HW2 3546   1.241   2.283   3.554
  883SOL     OW 3547   3.435   0.199   0.664
  883SOL    HW1 3548   3.396   0.290   0.651
  883SOL    HW2 3549   3.377   0.146   0.726
  884SOL     OW 3550   6.959   4.281   6.816
  884SOL    HW1 3551   7.000   4.354   6.761
  884SOL    HW2 3552   6.919   4.212   6.755
  885SOL     OW 3553   4.668   0.321   4.876
  885SOL    HW1 3554   4.615   0.405   4.887
  885SOL    HW2 3555   4.662   0.266   4.960
  886SOL     OW 3556   3.695   0.229   0.549
  886SOL    HW1 3557   3.626   0.234   0.622
  886SOL    HW2 3558   3.689   0.141   0.503
  887SOL     OW 3559   3.689   6.552   3.792
  887SOL    HW1 3560   3.754   6.541   3.868
  887SOL    HW2 3561   3.739   6.555   3.706
  888SOL     OW 3562   0.694   6.135   3.326
  888SOL    HW1 3563   0.728   6.198   3.396
  888SOL    HW2 3564   0.756   6.057   3.318
  889SOL     OW 3565   0.199   1.525   6.381
  889SOL    HW1 3566   0.152   1.552   6.297
  889SOL    HW2 3567   0.278   1.584   6.396
  890SOL     OW 3568   2.446   4.785   2.856
  890SOL    HW1 3569   2.452   4.885   2.850
  890SOL    HW2 3570   2.351   4.757   2.848
  891SOL     OW 3571   6.769   4.024   1.039
  891SOL    HW1 3572   6.752   3.927   1.027
  891SOL    HW2 3573   6.707   4.077   0.980
  892SOL     OW 3574   3.191   3.777   4.954
  892SOL    HW1 3575   3.125   3.834   4.905
  892SOL    HW2 3576   3.143   3.717   5.017
  893SOL     OW 3577   1.996   6.841   3.684
  893SOL    HW1 3578   1.973   6.745   3.698
  893SOL    HW2 3579   1.916   6.898   3.707
  894SOL     OW 3580   1.279   2.958   2.714
  894SOL    HW1 3581   1.243   2.865   2.725
  894SOL    HW2 3582   1.379   2.957   2.725
  895SOL     OW 3583   1.187   5.082   4.326
  895SOL    HW1 3584   1.111   5.017   4.333
  895SOL    HW2 3585   1.215   5.110   4.418
  896SOL     OW 3586   5.587   4.892   1.661
  896SOL    HW1 3587   5.629   4.917   1.748
  896SOL    HW2 3588   5.648   4.831   1.611
  897SOL     OW 3589   4.172   1.127   6.482
  897SOL    HW1 3590   4.175   1.171   6.571
  897SOL    HW2 3591   4.243   1.056   6.477
  898SOL     OW 3592   4.031   6.629   2.813
  898SOL    HW1 3593   4.110   6.682   2.783
  898SOL    HW2 3594   3.994   6.670   2.897
  899SOL     OW 3595   0.288   6.306   0.026
  899SOL    HW1 3596   0.203   6.296   0.078
  899SOL    HW2 3597   0.349   6.230   0.047
  900SOL     OW 3598   5.494   6.803   6.643
  900SOL    HW1 3599   5.555   6.814   6.721
  900SOL    HW2 3600   5.413   6.860   6.656
  901SOL     OW 3601   1.482   0.750   3.721
  901SOL    HW1 3602   1.419   0.717   3.651
  901SOL    HW2 3603   1.465   0.847   3.738
  902SOL     OW 3604   1.087   3.027   1.629
  902SOL    HW1 3605   1.078   2.951   1.564
  902SOL    HW2 3606   1.166   3.010   1.688
  903SOL     OW 3607   1.153   3.174   6.837
  903SOL    HW1 3608   1.088   3.160   6.763
  903SOL    HW2 3609   1.105   3.207   6.918
  904SOL     OW 3610   2.006   2.431   2.284
  904SOL    HW1 3611   1.986   2.421   2.186
  904SOL    HW2 3612   1.929   2.474   2.329
  905SOL     OW 3613   4.885   3.970   6.679
  905SOL    HW1 3614   4.822   4.030   6.630
  905SOL    HW2 3615   4.836   3.923   6.752
  906SOL     OW 3616   0.724   2.072   6.644
  906SOL    HW1 3617   0.679   2.144   6.589
  906SOL    HW2 3618   0.656   2.029   6.703
  907SOL     OW 3619   4.882   2.522   0.815
  907SOL    HW1 3620   4.904   2.580   0.893
  907SOL    HW2 3621   4.869   2.578   0.734
  908SOL     OW 3622   2.442   4.414   3.231
  908SOL    HW1 3623   2.488   4.330   3.260
  908SOL    HW2 3624   2.485   4.449   3.147
  909SOL     OW 3625   3.864   6.177   2.197
  909SOL    HW1 3626   3.938   6.148   2.136
  909SOL    HW2 3627   3.895   6.253   2.254
  910SOL     OW 3628   3.258   1.690   1.432
  910SOL    HW1 3629   3.167   1.706   1.394
  910SOL    HW2 3630   3.275   1.755   1.506
  911SOL     OW 3631   1.311   6.260   6.934
  911SOL    HW1 3632   1.271   6.218   7.015
  911SOL    HW2 3633   1.270   6.349   6.918
  912SOL     OW 3634   6.044   0.980   3.021
  912SOL    HW1 3635   6.012   0.921   2.947
  912SOL    HW2 3636   5.999   1.069   3.015
  913SOL     OW 3637   3.382   0.599   4.183
  913SOL    HW1 3638   3.333   0.543   4.116
  913SOL    HW2 3639   3.438   0.540   4.242
  914SOL     OW 3640   2.066   6.822   5.384
  914SOL    HW1 3641   1.996   6.891   5.368
  914SOL    HW2 3642   2.127   6.852   5.457
  915SOL     OW 3643   0.128   3.182   0.339
  915SOL    HW1 3644   0.087   3.094   0.317
  915SOL    HW2 3645   0.056   3.248   0.360
  916SOL     OW 3646   1.927   3.124   2.612
  916SOL    HW1 3647   1.936   3.208   2.559
  916SOL    HW2 3648   1.979   3.051   2.569
  917SOL     OW 3649   0.871   6.754   2.085
  917SOL    HW1 3650   0.966   6.773   2.063
  917SOL    HW2 3651   0.825   6.839   2.109
  918SOL     OW 3652   3.694   0.199   0.961
  918SOL    HW1 3653   3.791   0.219   0.972
  918SOL    HW2 3654   3.646   0.280   0.927
  919SOL     OW 3655   6.812   6.658   3.303
  919SOL    HW1 3656   6.860   6.687   3.220
  919SOL    HW2 3657   6.716   6.684   3.296
  920SOL     OW 3658   2.343   4.462   2.673
  920SOL    HW1 3659   2.435   4.485   2.642
  920SOL    HW2 3660   2.310   4.382   2.624
  921SOL     OW 3661   4.219   5.642   4.208
  921SOL    HW1 3662   4.135   5.597   4.178
  921SOL    HW2 3663   4.244   5.608   4.299
  922SOL     OW 3664   2.928   3.701   4.224
  922SOL    HW1 3665   2.881   3.785   4.253
  922SOL    HW2 3666   2.949   3.645   4.304
  923SOL     OW 3667   2.587   3.794   6.290
  923SOL    HW1 3668   2.615   3.720   6.351
  923SOL    HW2 3669   2.665   3.854   6.272
  924SOL     OW 3670   6.240   3.515   2.157
  924SOL    HW1 3671   6.189   3.429   2.148
  924SOL    HW2 3672   6.182   3.584   2.201
  925SOL     OW 3673   0.035   2.197   6.938
  925SOL    HW1 3674   0.077   2.254   6.868
  925SOL    HW2 3675   0.058   2.233   0.007
  926SOL     OW 3676   6.429   0.607   1.490
  926SOL    HW1 3677   6.473   0.630   1.403
  926SOL    HW2 3678   6.330   0.605   1.477
  927SOL     OW 3679   5.581   4.279   3.132
  927SOL    HW1 3680   5.482   4.261   3.128
  927SOL    HW2 3681   5.629   4.197   3.161
  928SOL     OW 3682   1.742   6.522   0.216
  928SOL    HW1 3683   1.739   6.422   0.203
  928SOL    HW2 3684   1.669   6.549   0.278
  929SOL     OW 3685   0.657   0.784   6.612
  929SOL    HW1 3686   0.566   0.744   6.597
  929SOL    HW2 3687   0.656   0.880   6.587
  930SOL     OW 3688   5.361   6.407   5.883
  930SOL    HW1 3689   5.324   6.451   5.964
  930SOL    HW2 3690   5.452   6.371   5.903
  931SOL     OW 3691   6.532   1.421   5.120
  931SOL    HW1 3692   6.626   1.390   5.107
  931SOL    HW2 3693   6.510   1.490   5.051
  932SOL     OW 3694   3.254   0.419   3.315
  932SOL    HW1 3695   3.323   0.351   3.291
  932SOL    HW2 3696   3.195   0.383   3.388
  933SOL     OW 3697   1.787   6.342   3.392
  933SOL    HW1 3698   1.707   6.284   3.377
  933SOL    HW2 3699   1.853   6.294   3.451
  934SOL     OW 3700   2.365   6.242   6.944
  934SOL    HW1 3701   2.463   6.258   6.940
  934SOL    HW2 3702   2.339   6.218   0.016
  935SOL     OW 3703   5.180   4.075   4.420
  935SOL    HW1 3704   5.096   4.128   4.407
  935SOL    HW2 3705   5.167   4.012   4.497
  936SOL     OW 3706   6.888   0.308   6.013
  936SOL    HW1 3707   6.889   0.304   5.913
  936SOL    HW2 3708   6.972   0.269   6.049
  937SOL     OW 3709   5.222   1.891   6.329
  937SOL    HW1 3710   5.269   1.965   6.377
  937SOL    HW2 3711   5.186   1.825   6.395
  938SOL     OW 3712   5.676   4.840   6.576
  938SOL    HW1 3713   5.755   4.799   6.529
  938SOL    HW2 3714   5.630   4.769   6.630
  939SOL     OW 3715   0.152   0.135   4.068
  939SOL    HW1 3716   0.217   0.211   4.078
  939SOL    HW2 3717   0.108   0.117   4.156
  940SOL     OW 3718   0.558   4.205   1.527
  940SOL    HW1 3719   0.585   4.213   1.623
  940SOL    HW2 3720   0.617   4.262   1.471
  941SOL     OW 3721   5.931   1.973   6.936
  941SOL    HW1 3722   5.956   2.066   6.906
  941SOL    HW2 3723   5.855   1.979   7.001
  942SOL     OW 3724   5.910   6.764   2.855
  942SOL    HW1 3725   5.891   6.726   2.946
  942SOL    HW2 3726   6.006   6.790   2.849
  943SOL     OW 3727   1.680   3.951   3.132
  943SOL    HW1 3728   1.649   4.004   3.211
  943SOL    HW2 3729   1.605   3.892   3.101
  944SOL     OW 3730   0.039   5.082   5.766
  944SOL    HW1 3731   0.073   5.039   5.850
  944SOL    HW2 3732   7.003   5.017   5.716
  945SOL     OW 3733   0.164   3.921   5.998
  945SOL    HW1 3734   0.212   3.841   6.034
  945SOL    HW2 3735   0.225   3.999   5.998
  946SOL     OW 3736   5.249   4.133   5.169
  946SOL    HW1 3737   5.291   4.122   5.079
  946SOL    HW2 3738   5.240   4.231   5.189
  947SOL     OW 3739   3.764   3.463   3.554
  947SOL    HW1 3740   3.716   3.384   3.592
  947SOL    HW2 3741   3.841   3.487   3.614
  948SOL     OW 3742   5.004   0.938   2.885
  948SOL    HW1 3743   5.085   0.888   2.915
  948SOL    HW2 3744   4.937   0.874   2.847
  949SOL     OW 3745   1.984   5.830   0.975
  949SOL    HW1 3746   1.899   5.880   0.986
  949SOL    HW2 3747   2.036   5.832   1.061
  950SOL     OW 3748   5.126   5.731   2.428
  950SOL    HW1 3749   5.113   5.632   2.435
  950SOL    HW2 3750   5.135   5.770   2.520
  951SOL     OW 3751   1.286   0.388   4.139
  951SOL    HW1 3752   1.256   0.323   4.069
  951SOL    HW2 3753   1.371   0.356   4.180
  952SOL     OW 3754   4.250   2.313   3.444
  952SOL    HW1 3755   4.268   2.369   3.363
  952SOL    HW2 3756   4.301   2.350   3.521
  953SOL     OW 3757   5.307   5.871   4.607
  953SOL    HW1 3758   5.284   5.789   4.660
  953SOL    HW2 3759   5.338   5.844   4.516
  954SOL     OW 3760   3.791   5.864   1.933
  954SOL    HW1 3761   3.873   5.889   1.882
  954SOL    HW2 3762   3.716   5.923   1.906
  955SOL     OW 3763   0.570   3.736   0.909
  955SOL    HW1 3764   0.566   3.784   0.997
  955SOL    HW2 3765   0.561   3.803   0.835
  956SOL     OW 3766   6.150   0.284   1.603
  956SOL    HW1 3767   6.206   0.324   1.675
  956SOL    HW2 3768   6.177   0.189   1.587
  957SOL     OW 3769   5.656   2.893   2.935
  957SOL    HW1 3770   5.610   2.886   2.846
  957SOL    HW2 3771   5.722   2.819   2.944
  958SOL     OW 3772   4.471   0.887   1.497
  958SOL    HW1 3773   4.447   0.890   1.594
  958SOL    HW2 3774   4.569   0.901   1.486
  959SOL     OW 3775   3.505   6.466   4.313
  959SOL    HW1 3776   3.469   6.435   4.401
  959SOL    HW2 3777   3.478   6.401   4.242
  960SOL     OW 3778   0.710   0.369   2.472
  960SOL    HW1 3779   0.772   0.307   2.520
  960SOL    HW2 3780   0.622   0.370   2.520
  961SOL     OW 3781   4.182   6.537   3.199
  961SOL    HW1 3782   4.083   6.541   3.201
  961SOL    HW2 3783   4.212   6.450   3.161
  962SOL     OW 3784   0.026   1.282   5.120
  962SOL    HW1 3785   0.092   1.355   5.102
  962SOL    HW2 3786   0.060   1.196   5.084
  963SOL     OW 3787   5.153   1.393   6.223
  963SOL    HW1 3788   5.166   1.481   6.176
  963SOL    HW2 3789   5.233   1.372   6.278
  964SOL     OW 3790   5.364   4.967   0.363
  964SOL    HW1 3791   5.376   4.868   0.356
  964SOL    HW2 3792   5.280   4.987   0.413
  965SOL     OW 3793   5.732   1.447   2.040
  965SOL    HW1 3794   5.820   1.478   2.078
  965SOL    HW2 3795   5.747   1.410   1.949
  966SOL     OW 3796   5.794   2.793   2.399
  966SOL    HW1 3797   5.870   2.747   2.354
  966SOL    HW2 3798   5.735   2.835   2.330
  967SOL     OW 3799   2.840   4.112   1.396
  967SOL    HW1 3800   2.816   4.018   1.420
  967SOL    HW2 3801   2.795   4.175   1.459
  968SOL     OW 3802   4.406   0.560   1.763
  968SOL    HW1 3803   4.388   0.653   1.731
  968SOL    HW2 3804   4.466   0.563   1.843
  969SOL     OW 3805   2.938   4.577   5.660
  969SOL    HW1 3806   2.873   4.578   5.735
  969SOL    HW2 3807   2.897   4.530   5.581
  970SOL     OW 3808   5.680   0.932   6.602
  970SOL    HW1 3809   5.604   0.876   6.635
  970SOL    HW2 3810   5.683   0.929   6.502
  971SOL     OW 3811   7.007   3.095   2.056
  971SOL    HW1 3812   0.035   3.010   2.075
  971SOL    HW2 3813   6.994   3.146   2.141
  972SOL     OW 3814   6.050   1.841   1.373
  972SOL    HW1 3815   5.994   1.906   1.321
  972SOL    HW2 3816   5.994   1.796   1.442
  973SOL     OW 3817   0.881   5.789   6.781
  973SOL    HW1 3818   0.913   5.718   6.719
  973SOL    HW2 3819   0.829   5.747   6.856
  974SOL     OW 3820   5.859   6.293   2.252
  974SOL    HW1 3821   5.801   6.290   2.171
  974SOL    HW2 3822   5.946   6.248   2.232
  975SOL     OW 3823   1.868   0.431   0.486
  975SOL    HW1 3824   1.937   0.489   0.528
  975SOL    HW2 3825   1.897   0.335   0.491
  976SOL     OW 3826   0.172   3.491   1.750
  976SOL    HW1 3827   0.198   3.516   1.843
  976SOL    HW2 3828   0.104   3.417   1.754
  977SOL     OW 3829   0.281   0.480   1.972
  977SOL    HW1 3830   0.230   0.546   1.918
  977SOL    HW2 3831   0.379   0.491   1.955
  978SOL     OW 3832   5.781   2.666   6.438
  978SOL    HW1 3833   5.855   2.733   6.440
  978SOL    HW2 3834   5.713   2.694   6.370
  979SOL     OW 3835   0.645   2.972   0.007
  979SOL    HW1 3836   0.660   3.070   0.018
  979SOL    HW2 3837   0.689   2.941   6.944
  980SOL     OW 3838   5.303   2.166   3.863
  980SOL    HW1 3839   5.224   2.185   3.921
  980SOL    HW2 3840   5.291   2.077   3.819
  981SOL     OW 3841   6.975   1.768   4.727
  981SOL    HW1 3842   6.903   1.698   4.726
  981SOL    HW2 3843   6.944   1.848   4.675
  982SOL     OW 3844   0.923   1.138   4.754
  982SOL    HW1 3845   0.834   1.169   4.722
  982SOL    HW2 3846   0.955   1.062   4.697
  983SOL     OW 3847   6.337   2.471   3.361
  983SOL    HW1 3848   6.398   2.540   3.400
  983SOL    HW2 3849   6.391   2.406   3.307
  984SOL     OW 3850   2.643   2.301   4.149
  984SOL    HW1 3851   2.586   2.234   4.103
  984SOL    HW2 3852   2.602   2.392   4.141
  985SOL     OW 3853   6.625   3.148   5.139
  985SOL    HW1 3854   6.651   3.243   5.157
  985SOL    HW2 3855   6.700   3.088   5.166
  986SOL     OW 3856   4.706   4.901   1.060
  986SOL    HW1 3857   4.623   4.953   1.037
  986SOL    HW2 3858   4.782   4.935   1.005
  987SOL     OW 3859   4.834   6.541   2.587
  987SOL    HW1 3860   4.813   6.482   2.509
  987SOL    HW2 3861   4.928   6.522   2.617
  988SOL     OW 3862   3.274   4.533   1.339
  988SOL    HW1 3863   3.330   4.458   1.372
  988SOL    HW2 3864   3.177   4.510   1.348
  989SOL     OW 3865   6.671   2.387   6.566
  989SOL    HW1 3866   6.639   2.329   6.491
  989SOL    HW2 3867   6.624   2.363   6.650
  990SOL     OW 3868   3.603   1.309   1.896
  990SOL    HW1 3869   3.595   1.228   1.954
  990SOL    HW2 3870   3.527   1.371   1.916
  991SOL     OW 3871   0.928   3.476   3.918
  991SOL    HW1 3872   0.841   3.451   3.960
  991SOL    HW2 3873   0.912   3.538   3.842
  992SOL     OW 3874   0.728   3.508   1.989
  992SOL    HW1 3875   0.804   3.465   1.940
  992SOL    HW2 3876   0.661   3.542   1.924
  993SOL     OW 3877   6.838   4.646   0.720
  993SOL    HW1 3878   6.920   4.639   0.663
  993SOL    HW2 3879   6.862   4.631   0.815
  994SOL     OW 3880   3.830   5.104   2.030
  994SOL    HW1 3881   3.874   5.174   2.088
  994SOL    HW2 3882   3.788   5.035   2.088
  995SOL     OW 3883   3.686   3.277   5.790
  995SOL    HW1 3884   3.700   3.322   5.702
  995SOL    HW2 3885   3.750   3.202   5.800
  996SOL     OW 3886   3.335   5.393   5.010
  996SOL    HW1 3887   3.319   5.316   5.072
  996SOL    HW2 3888   3.418   5.441   5.037
  997SOL     OW 3889   1.010   6.704   3.040
  997SOL    HW1 3890   0.988   6.796   3.007
  997SOL    HW2 3891   0.927   6.648   3.041
  998SOL     OW 3892   5.668   0.402   6.013
  998SOL    HW1 3893   5.665   0.306   6.039
  998SOL    HW2 3894   5.647   0.411   5.916
  999SOL     OW 3895   5.626   3.920   2.035
  999SOL    HW1 3896   5.527   3.924   2.023
  999SOL    HW2 3897   5.648   3.852   2.106
 1000SOL     OW 3898   3.979   1.696   1.457
 1000SOL    HW1 3899   3.986   1.787   1.498
 1000SOL    HW2 3900   3.889   1.657   1.478
 1001SOL     OW 3901   4.712   6.003   1.262
 1001SOL    HW1 3902   4.651   6.004   1.342
 1001SOL    HW2 3903   4.804   5.979   1.291
 1002SOL     OW 3904   5.871   1.932   0.872
 1002SOL    HW1 3905   5.896   1.848   0.921
 1002SOL    HW2 3906   5.772   1.944   0.875
 1003SOL     OW 3907   1.806   5.888   3.023
 1003SOL    HW1 3908   1.827   5.827   3.099
 1003SOL    HW2 3909   1.717   5.864   2.984
 1004SOL     OW 3910   0.601   0.944   2.118
 1004SOL    HW1 3911   0.618   0.846   2.122
 1004SOL    HW2 3912   0.598   0.973   2.022
 1005SOL     OW 3913   1.976   2.468   4.249
 1005SOL    HW1 3914   1.877   2.475   4.238
 1005SOL    HW2 3915   2.007   2.539   4.313
 1006SOL     OW 3916   1.292   4.467   0.387
 1006SOL    HW1 3917   1.364   4.402   0.359
 1006SOL    HW2 3918   1.334   4.544   0.434
 1007SOL     OW 3919   4.647   0.925   5.275
 1007SOL    HW1 3920   4.618   0.900   5.182
 1007SOL    HW2 3921   4.567   0.928   5.334
 1008SOL     OW 3922   0.625   2.327   6.053
 1008SOL    HW1 3923   0.720   2.296   6.057
 1008SOL    HW2 3924   0.584   2.300   5.965
 1009SOL     OW 3925   0.095   5.365   5.559
 1009SOL    HW1 3926   0.083   5.268   5.580
 1009SOL    HW2 3927   0.161   5.375   5.485
 1010SOL     OW 3928   2.213   1.992   1.101
 1010SOL    HW1 3929   2.281   1.941   1.049
 1010SOL    HW2 3930   2.255   2.074   1.141
 1011SOL     OW 3931   1.289   5.630   3.328
 1011SOL    HW1 3932   1.362   5.562   3.317
 1011SOL    HW2 3933   1.208   5.600   3.278
 1012SOL     OW 3934   0.448   6.748   2.431
 1012SOL    HW1 3935   0.545   6.751   2.406
 1012SOL    HW2 3936   0.395   6.713   2.354
 1013SOL     OW 3937   0.681   1.058   6.483
 1013SOL    HW1 3938   0.780   1.048   6.497
 1013SOL    HW2 3939   0.655   1.010   6.399
 1014SOL     OW 3940   0.440   4.047   5.355
 1014SOL    HW1 3941   0.385   4.008   5.429
 1014SOL    HW2 3942   0.528   4.000   5.350
 1015SOL     OW 3943   2.503   6.950   5.936
 1015SOL    HW1 3944   2.524   6.878   5.869
 1015SOL    HW2 3945   2.551   0.013   5.910
 1016SOL     OW 3946   4.076   3.691   0.587
 1016SOL    HW1 3947   4.104   3.774   0.539
 1016SOL    HW2 3948   4.157   3.639   0.615
 1017SOL     OW 3949   4.264   2.088   1.120
 1017SOL    HW1 3950   4.218   2.143   1.050
 1017SOL    HW2 3951   4.349   2.051   1.081
 1018SOL     OW 3952   0.992   3.959   4.087
 1018SOL    HW1 3953   0.912   3.926   4.137
 1018SOL    HW2 3954   1.025   4.044   4.130
 1019SOL     OW 3955   0.282   5.973   1.081
 1019SOL    HW1 3956   0.236   5.885   1.097
 1019SOL    HW2 3957   0.228   6.047   1.122
 1020SOL     OW 3958   6.371   0.947   1.465
 1020SOL    HW1 3959   6.462   0.964   1.503
 1020SOL    HW2 3960   6.327   0.873   1.516
 1021SOL     OW 3961   5.832   6.815   1.826
 1021SOL    HW1 3962   5.748   6.762   1.809
 1021SOL    HW2 3963   5.811   6.913   1.818
 1022SOL     OW 3964   2.979   4.725   5.350
 1022SOL    HW1 3965   2.966   4.650   5.286
 1022SOL    HW2 3966   2.944   4.700   5.440
 1023SOL     OW 3967   0.475   0.777   2.653
 1023SOL    HW1 3968   0.489   0.806   2.558
 1023SOL    HW2 3969   0.386   0.732   2.661
 1024SOL     OW 3970   0.137   2.391   3.901
 1024SOL    HW1 3971   0.116   2.464   3.836
 1024SOL    HW2 3972   0.232   2.362   3.889
 1025SOL     OW 3973   3.676   3.441   1.092
 1025SOL    HW1 3974   3.715   3.350   1.104
 1025SOL    HW2 3975   3.638   3.474   1.179
 1026SOL     OW 3976   2.571   2.869   1.724
 1026SOL    HW1 3977   2.602   2.954   1.680
 1026SOL    HW2 3978   2.636   2.796   1.704
 1027SOL     OW 3979   3.269   0.482   2.137
 1027SOL    HW1 3980   3.257   0.483   2.236
 1027SOL    HW2 3981   3.190   0.439   2.094
 1028SOL     OW 3982   1.587   6.962   2.637
 1028SOL    HW1 3983   1.687   6.962   2.640
 1028SOL    HW2 3984   1.551   6.904   2.711
 1029SOL     OW 3985   1.501   1.522   6.065
 1029SOL    HW1 3986   1.411   1.559   6.045
 1029SOL    HW2 3987   1.508   1.498   6.162
 1030SOL     OW 3988   3.571   3.390   1.968
 1030SOL    HW1 3989   3.570   3.382   2.068
 1030SOL    HW2 3990   3.487   3.352   1.931
 1031SOL     OW 3991   4.785   3.455   1.437
 1031SOL    HW1 3992   4.738   3.541   1.414
 1031SOL    HW2 3993   4.743   3.380   1.386
 1032SOL     OW 3994   0.701   1.021   5.319
 1032SOL    HW1 3995   0.748   0.972   5.246
 1032SOL    HW2 3996   0.704   0.966   5.403
 1033SOL     OW 3997   1.269   5.598   1.058
 1033SOL    HW1 3998   1.332   5.673   1.038
 1033SOL    HW2 3999   1.243   5.553   0.972
 1034SOL     OW 4000   1.706   5.055   4.795
 1034SOL    HW1 4001   1.676   5.142   4.755
 1034SOL    HW2 4002   1.677   5.051   4.891
 1035SOL     OW 4003   0.019   1.557   6.167
 1035SOL    HW1 4004   7.019   1.640   6.115
 1035SOL    HW2 4005   0.065   1.492   6.107
 1036SOL     OW 4006   4.220   0.939   2.242
 1036SOL    HW1 4007   4.194   0.961   2.336
 1036SOL    HW2 4008   4.243   0.842   2.236
 1037SOL     OW 4009   1.745   1.386   2.745
 1037SOL    HW1 4010   1.759   1.484   2.759
 1037SOL    HW2 4011   1.800   1.335   2.811
 1038SOL     OW 4012   1.889   1.227   5.260
 1038SOL    HW1 4013   1.840   1.279   5.191
 1038SOL    HW2 4014   1.879   1.271   5.349
 1039SOL     OW 4015   3.941   3.702   4.306
 1039SOL    HW1 4016   3.952   3.615   4.257
 1039SOL    HW2 4017   3.844   3.720   4.320
 1040SOL     OW 4018   4.748   0.806   2.381
 1040SOL    HW1 4019   4.680   0.865   2.425
 1040SOL    HW2 4020   4.711   0.714   2.371
 1041SOL     OW 4021   7.011   6.247   3.127
 1041SOL    HW1 4022   0.088   6.233   3.139
 1041SOL    HW2 4023   6.978   6.312   3.195
 1042SOL     OW 4024   4.021   5.285   2.807
 1042SOL    HW1 4025   4.069   5.202   2.778
 1042SOL    HW2 4026   4.063   5.365   2.762
 1043SOL     OW 4027   3.491   1.952   3.731
 1043SOL    HW1 4028   3.514   1.898   3.813
 1043SOL    HW2 4029   3.532   2.043   3.739
 1044SOL     OW 4030   5.529   4.878   2.726
 1044SOL    HW1 4031   5.551   4.969   2.691
 1044SOL    HW2 4032   5.547   4.810   2.656
 1045SOL     OW 4033   4.263   0.564   2.506
 1045SOL    HW1 4034   4.240   0.662   2.510
 1045SOL    HW2 4035   4.214   0.521   2.431
 1046SOL     OW 4036   1.620   1.273   0.179
 1046SOL    HW1 4037   1.672   1.205   0.127
 1046SOL    HW2 4038   1.666   1.289   0.267
 1047SOL     OW 4039   2.260   6.830   3.814
 1047SOL    HW1 4040   2.175   6.870   3.778
 1047SOL    HW2 4041   2.248   6.809   3.911
 1048SOL     OW 4042   3.462   6.277   2.735
 1048SOL    HW1 4043   3.526   6.315   2.802
 1048SOL    HW2 4044   3.394   6.221   2.782
 1049SOL     OW 4045   6.379   6.738   3.990
 1049SOL    HW1 4046   6.309   6.694   4.046
 1049SOL    HW2 4047   6.386   6.693   3.902
 1050SOL     OW 4048   3.390   4.918   2.842
 1050SOL    HW1 4049   3.469   4.893   2.786
 1050SOL    HW2 4050   3.306   4.899   2.791
 1051SOL     OW 4051   0.345   4.920   0.905
 1051SOL    HW1 4052   0.245   4.925   0.912
 1051SOL    HW2 4053   0.384   5.008   0.933
 1052SOL     OW 4054   4.413   0.971   5.425
 1052SOL    HW1 4055   4.322   0.934   5.441
 1052SOL    HW2 4056   4.406   1.069   5.407
 1053SOL     OW 4057   6.172   3.615   2.887
 1053SOL    HW1 4058   6.112   3.690   2.914
 1053SOL    HW2 4059   6.146   3.583   2.795
 1054SOL     OW 4060   2.982   3.567   0.948
 1054SOL    HW1 4061   3.049   3.564   0.874
 1054SOL    HW2 4062   2.995   3.487   1.007
 1055SOL     OW 4063   4.169   6.796   5.117
 1055SOL    HW1 4064   4.193   6.705   5.083
 1055SOL    HW2 4065   4.213   6.810   5.206
 1056SOL     OW 4066   1.848   3.406   0.094
 1056SOL    HW1 4067   1.886   3.441   0.180
 1056SOL    HW2 4068   1.916   3.349   0.049
 1057SOL     OW 4069   3.640   3.498   1.632
 1057SOL    HW1 4070   3.703   3.462   1.564
 1057SOL    HW2 4071   3.687   3.508   1.720
 1058SOL     OW 4072   5.174   2.512   3.618
 1058SOL    HW1 4073   5.238   2.552   3.553
 1058SOL    HW2 4074   5.081   2.519   3.582
 1059SOL     OW 4075   1.929   0.603   2.196
 1059SOL    HW1 4076   1.965   0.614   2.289
 1059SOL    HW2 4077   1.922   0.693   2.153
 1060SOL     OW 4078   0.154   4.763   3.943
 1060SOL    HW1 4079   0.195   4.673   3.927
 1060SOL    HW2 4080   0.081   4.755   4.010
 1061SOL     OW 4081   6.520   3.508   6.351
 1061SOL    HW1 4082   6.550   3.596   6.386
 1061SOL    HW2 4083   6.420   3.509   6.338
 1062SOL     OW 4084   5.626   5.138   5.691
 1062SOL    HW1 4085   5.598   5.064   5.631
 1062SOL    HW2 4086   5.566   5.141   5.771
 1063SOL     OW 4087   0.977   5.541   0.502
 1063SOL    HW1 4088   0.957   5.636   0.475
 1063SOL    HW2 4089   1.026   5.541   0.589
 1064SOL     OW 4090   1.524   4.548   3.192
 1064SOL    HW1 4091   1.530   4.648   3.194
 1064SOL    HW2 4092   1.577   4.510   3.268
 1065SOL     OW 4093   4.371   0.891   2.804
 1065SOL    HW1 4094   4.273   0.894   2.823
 1065SOL    HW2 4095   4.412   0.979   2.829
 1066SOL     OW 4096   4.803   6.545   2.911
 1066SOL    HW1 4097   4.802   6.526   3.009
 1066SOL    HW2 4098   4.834   6.464   2.861
 1067SOL     OW 4099   1.091   2.871   6.975
 1067SOL    HW1 4100   1.081   2.798   0.022
 1067SOL    HW2 4101   1.087   2.960   0.000
 1068SOL     OW 4102   6.852   4.993   1.989
 1068SOL    HW1 4103   6.899   4.977   2.075
 1068SOL    HW2 4104   6.919   5.012   1.917
 1069SOL     OW 4105   4.968   5.942   0.440
 1069SOL    HW1 4106   5.064   5.955   0.466
 1069SOL    HW2 4107   4.960   5.949   0.340
 1070SOL     OW 4108   0.907   0.176   1.451
 1070SOL    HW1 4109   0.975   0.134   1.511
 1070SOL    HW2 4110   0.872   0.259   1.493
 1071SOL     OW 4111   1.414   1.014   3.737
 1071SOL    HW1 4112   1.411   1.094   3.797
 1071SOL    HW2 4113   1.466   1.036   3.655
 1072SOL     OW 4114   2.496   1.135   1.140
 1072SOL    HW1 4115   2.484   1.107   1.235
 1072SOL    HW2 4116   2.410   1.172   1.105
 1073SOL     OW 4117   4.793   0.702   3.732
 1073SOL    HW1 4118   4.858   0.626   3.733
 1073SOL    HW2 4119   4.829   0.777   3.788
 1074SOL     OW 4120   2.530   5.350   1.717
 1074SOL    HW1 4121   2.576   5.292   1.650
 1074SOL    HW2 4122   2.597   5.411   1.760
 1075SOL     OW 4123   5.477   0.005   2.968
 1075SOL    HW1 4124   5.510   0.084   2.917
 1075SOL    HW2 4125   5.511   6.942   2.925
 1076SOL     OW 4126   0.811   2.432   5.624
 1076SOL    HW1 4127   0.905   2.466   5.626
 1076SOL    HW2 4128   0.749   2.502   5.661
 1077SOL     OW 4129   6.181   0.083   0.821
 1077SOL    HW1 4130   6.193   0.182   0.811
 1077SOL    HW2 4131   6.262   0.043   0.863
 1078SOL     OW 4132   6.735   0.898   2.179
 1078SOL    HW1 4133   6.642   0.868   2.156
 1078SOL    HW2 4134   6.783   0.922   2.095
 1079SOL     OW 4135   1.601   6.215   2.495
 1079SOL    HW1 4136   1.599   6.163   2.581
 1079SOL    HW2 4137   1.673   6.179   2.436
 1080SOL     OW 4138   2.062   5.333   3.432
 1080SOL    HW1 4139   2.117   5.367   3.356
 1080SOL    HW2 4140   2.020   5.410   3.480
 1081SOL     OW 4141   6.413   5.382   5.273
 1081SOL    HW1 4142   6.487   5.314   5.268
 1081SOL    HW2 4143   6.422   5.434   5.358
 1082SOL     OW 4144   5.340   2.163   5.569
 1082SOL    HW1 4145   5.375   2.072   5.592
 1082SOL    HW2 4146   5.244   2.169   5.596
 1083SOL     OW 4147   4.376   4.048   0.246
 1083SOL    HW1 4148   4.386   4.139   0.205
 1083SOL    HW2 4149   4.442   3.986   0.202
 1084SOL     OW 4150   6.492   6.524   6.287
 1084SOL    HW1 4151   6.531   6.547   6.376
 1084SOL    HW2 4152   6.475   6.426   6.281
 1085SOL     OW 4153   1.111   3.917   4.575
 1085SOL    HW1 4154   1.211   3.916   4.584
 1085SOL    HW2 4155   1.070   3.867   4.652
 1086SOL     OW 4156   6.980   4.256   0.066
 1086SOL    HW1 4157   0.055   4.277   0.083
 1086SOL    HW2 4158   6.966   4.243   6.989
 1087SOL     OW 4159   0.180   2.165   4.845
 1087SOL    HW1 4160   0.108   2.232   4.825
 1087SOL    HW2 4161   0.234   2.195   4.923
 1088SOL     OW 4162   0.111   3.036   2.604
 1088SOL    HW1 4163   0.089   2.941   2.583
 1088SOL    HW2 4164   0.030   3.080   2.643
 1089SOL     OW 4165   6.740   5.887   4.448
 1089SOL    HW1 4166   6.703   5.794   4.455
 1089SOL    HW2 4167   6.817   5.898   4.512
 1090SOL     OW 4168   3.299   1.834   3.203
 1090SOL    HW1 4169   3.204   1.848   3.229
 1090SOL    HW2 4170   3.329   1.909   3.144
 1091SOL     OW 4171   2.467   2.292   4.479
 1091SOL    HW1 4172   2.383   2.290   4.425
 1091SOL    HW2 4173   2.490   2.199   4.508
 1092SOL     OW 4174   1.141   4.609   0.216
 1092SOL    HW1 4175   1.067   4.667   0.252
 1092SOL    HW2 4176   1.170   4.544   0.286
 1093SOL     OW 4177   2.371   0.083   1.576
 1093SOL    HW1 4178   2.411   0.010   1.521
 1093SOL    HW2 4179   2.272   0.085   1.563
 1094SOL     OW 4180   1.206   6.548   3.421
 1094SOL    HW1 4181   1.177   6.641   3.397
 1094SOL    HW2 4182   1.139   6.482   3.390
 1095SOL     OW 4183   0.782   2.734   5.976
 1095SOL    HW1 4184   0.712   2.726   6.047
 1095SOL    HW2 4185   0.807   2.831   5.965
 1096SOL     OW 4186   3.461   4.334   1.445
 1096SOL    HW1 4187   3.553   4.295   1.451
 1096SOL    HW2 4188   3.394   4.263   1.464
 1097SOL     OW 4189   2.643   4.631   3.906
 1097SOL    HW1 4190   2.645   4.648   4.005
 1097SOL    HW2 4191   2.552   4.653   3.870
 1098SOL     OW 4192   4.724   3.421   6.715
 1098SOL    HW1 4193   4.721   3.493   6.785
 1098SOL    HW2 4194   4.643   3.428   6.657
 1099SOL     OW 4195   3.494   0.811   5.731
 1099SOL    HW1 4196   3.461   0.761   5.651
 1099SOL    HW2 4197   3.519   0.746   5.803
 1100SOL     OW 4198   4.041   1.817   4.329
 1100SOL    HW1 4199   4.102   1.739   4.317
 1100SOL    HW2 4200   3.949   1.792   4.296
 1101SOL     OW 4201   5.775   3.258   5.867
 1101SOL    HW1 4202   5.860   3.243   5.816
 1101SOL    HW2 4203   5.700   3.210   5.822
 1102SOL     OW 4204   1.015   0.632   4.809
 1102SOL    HW1 4205   0.924   0.618   4.847
 1102SOL    HW2 4206   1.083   0.587   4.866
 1103SOL     OW 4207   3.716   0.966   0.370
 1103SOL    HW1 4208   3.696   0.872   0.342
 1103SOL    HW2 4209   3.721   1.024   0.288
 1104SOL     OW 4210   2.072   3.294   4.793
 1104SOL    HW1 4211   2.002   3.343   4.742
 1104SOL    HW2 4212   2.100   3.348   4.872
 1105SOL     OW 4213   5.874   3.485   5.045
 1105SOL    HW1 4214   5.974   3.479   5.040
 1105SOL    HW2 4215   5.844   3.571   5.003
 1106SOL     OW 4216   0.413   2.704   0.542
 1106SOL    HW1 4217   0.488   2.770   0.531
 1106SOL    HW2 4218   0.441   2.632   0.605
 1107SOL     OW 4219   1.258   0.337   0.044
 1107SOL    HW1 4220   1.308   0.376   0.121
 1107SOL    HW2 4221   1.322   0.315   6.991
 1108SOL     OW 4222   3.863   6.764   5.712
 1108SOL    HW1 4223   3.853   6.681   5.767
 1108SOL    HW2 4224   3.778   6.781   5.662
 1109SOL     OW 4225   5.629   0.746   4.091
 1109SOL    HW1 4226   5.701   0.692   4.135
 1109SOL    HW2 4227   5.549   0.748   4.150
 1110SOL     OW 4228   4.081   2.170   3.108
 1110SOL    HW1 4229   4.126   2.248   3.065
 1110SOL    HW2 4230   4.134   2.087   3.089
 1111SOL     OW 4231   5.562   5.495   6.843
 1111SOL    HW1 4232   5.465   5.488   6.865
 1111SOL    HW2 4233   5.573   5.509   6.745
 1112SOL     OW 4234   5.741   1.309   2.305
 1112SOL    HW1 4235   5.726   1.330   2.208
 1112SOL    HW2 4236   5.834   1.276   2.318
 1113SOL     OW 4237   5.699   4.339   1.254
 1113SOL    HW1 4238   5.789   4.338   1.211
 1113SOL    HW2 4239   5.677   4.432   1.282
 1114SOL     OW 4240   2.637   1.167   6.011
 1114SOL    HW1 4241   2.647   1.129   6.103
 1114SOL    HW2 4242   2.714   1.137   5.955
 1115SOL     OW 4243   3.718   3.655   6.009
 1115SOL    HW1 4244   3.802   3.603   6.026
 1115SOL    HW2 4245   3.639   3.601   6.039
 1116SOL     OW 4246   4.600   6.941   6.284
 1116SOL    HW1 4247   4.567   7.019   6.338
 1116SOL    HW2 4248   4.533   6.920   6.213
 1117SOL     OW 4249   1.369   2.122   1.923
 1117SOL    HW1 4250   1.432   2.199   1.931
 1117SOL    HW2 4251   1.420   2.036   1.925
 1118SOL     OW 4252   2.360   4.817   0.650
 1118SOL    HW1 4253   2.396   4.892   0.705
 1118SOL    HW2 4254   2.414   4.735   0.667
 1119SOL     OW 4255   4.059   4.667   1.772
 1119SOL    HW1 4256   3.967   4.706   1.765
 1119SOL    HW2 4257   4.102   4.699   1.856
 1120SOL     OW 4258   5.857   5.966   0.712
 1120SOL    HW1 4259   5.954   5.987   0.719
 1120SOL    HW2 4260   5.814   6.025   0.644
 1121SOL     OW 4261   0.021   4.714   4.664
 1121SOL    HW1 4262   6.988   4.770   4.602
 1121SOL    HW2 4263   0.117   4.741   4.658
 1122SOL     OW 4264   4.978   2.599   1.695
 1122SOL    HW1 4265   4.977   2.648   1.608
 1122SOL    HW2 4266   4.884   2.572   1.719
 1123SOL     OW 4267   5.109   2.215   3.119
 1123SOL    HW1 4268   5.047   2.283   3.156
 1123SOL    HW2 4269   5.187   2.261   3.076
 1124SOL     OW 4270   0.037   3.543   5.410
 1124SOL    HW1 4271   7.007   3.457   5.422
 1124SOL    HW2 4272   0.035   3.595   5.495
 1125SOL     OW 4273   2.140   1.778   3.515
 1125SOL    HW1 4274   2.211   1.752   3.450
 1125SOL    HW2 4275   2.056   1.802   3.465
 1126SOL     OW 4276   5.754   5.694   6.308
 1126SOL    HW1 4277   5.665   5.707   6.351
 1126SOL    HW2 4278   5.824   5.742   6.362
 1127SOL     OW 4279   5.197   6.411   4.594
 1127SOL    HW1 4280   5.221   6.505   4.618
 1127SOL    HW2 4281   5.111   6.411   4.543
 1128SOL     OW 4282   5.769   1.618   4.066
 1128SOL    HW1 4283   5.772   1.544   4.135
 1128SOL    HW2 4284   5.681   1.664   4.071
 1129SOL     OW 4285   1.884   0.031   0.938
 1129SOL    HW1 4286   1.845   0.074   0.857
 1129SOL    HW2 4287   1.840   0.068   1.020
 1130SOL     OW 4288   2.212   5.409   0.598
 1130SOL    HW1 4289   2.215   5.337   0.528
 1130SOL    HW2 4290   2.127   5.402   0.649
 1131SOL     OW 4291   0.998   6.882   5.792
 1131SOL    HW1 4292   0.998   6.784   5.812
 1131SOL    HW2 4293   0.972   6.933   5.874
 1132SOL     OW 4294   4.859   0.066   2.587
 1132SOL    HW1 4295   4.925   0.094   2.518
 1132SOL    HW2 4296   4.906   0.019   2.661
 1133SOL     OW 4297   1.145   1.156   0.447
 1133SOL    HW1 4298   1.170   1.061   0.427
 1133SOL    HW2 4299   1.176   1.215   0.372
 1134SOL     OW 4300   5.051   6.739   2.353
 1134SOL    HW1 4301   5.094   6.660   2.309
 1134SOL    HW2 4302   5.109   6.771   2.428
 1135SOL     OW 4303   2.577   6.758   4.161
 1135SOL    HW1 4304   2.552   6.675   4.110
 1135SOL    HW2 4305   2.554   6.746   4.258
 1136SOL     OW 4306   4.575   4.392   3.268
 1136SOL    HW1 4307   4.622   4.342   3.340
 1136SOL    HW2 4308   4.597   4.352   3.179
 1137SOL     OW 4309   1.392   6.965   0.521
 1137SOL    HW1 4310   1.294   6.982   0.524
 1137SOL    HW2 4311   1.410   6.870   0.548
 1138SOL     OW 4312   0.340   1.160   6.077
 1138SOL    HW1 4313   0.326   1.187   5.982
 1138SOL    HW2 4314   0.324   1.061   6.087
 1139SOL     OW 4315   2.773   4.735   3.181
 1139SOL    HW1 4316   2.763   4.818   3.125
 1139SOL    HW2 4317   2.863   4.736   3.225
 1140SOL     OW 4318   2.725   1.212   2.580
 1140SOL    HW1 4319   2.749   1.299   2.623
 1140SOL    HW2 4320   2.654   1.227   2.512
 1141SOL     OW 4321   0.418   6.063   0.092
 1141SOL    HW1 4322   0.350   5.999   0.129
 1141SOL    HW2 4323   0.503   6.013   0.074
 1142SOL     OW 4324   3.256   0.172   3.688
 1142SOL    HW1 4325   3.344   0.220   3.683
 1142SOL    HW2 4326   3.249   0.109   3.610
 1143SOL     OW 4327   2.344   2.565   3.508
 1143SOL    HW1 4328   2.438   2.558   3.475
 1143SOL    HW2 4329   2.311   2.659   3.497
 1144SOL     OW 4330   6.429   4.514   3.681
 1144SOL    HW1 4331   6.356   4.465   3.728
 1144SOL    HW2 4332   6.397   4.606   3.658
 1145SOL     OW 4333   6.491   3.171   0.935
 1145SOL    HW1 4334   6.551   3.184   1.014
 1145SOL    HW2 4335   6.403   3.216   0.952
 1146SOL     OW 4336   6.962   1.011   2.021
 1146SOL    HW1 4337   6.946   0.999   1.923
 1146SOL    HW2 4338   0.033   0.980   2.043
 1147SOL     OW 4339   3.161   5.679   1.929
 1147SOL    HW1 4340   3.114   5.767   1.927
 1147SOL    HW2 4341   3.249   5.689   1.975
 1148SOL     OW 4342   4.644   6.376   0.506
 1148SOL    HW1 4343   4.677   6.411   0.593
 1148SOL    HW2 4344   4.690   6.290   0.484
 1149SOL     OW 4345   5.581   2.642   2.708
 1149SOL    HW1 4346   5.628   2.555   2.719
 1149SOL    HW2 4347   5.648   2.716   2.697
 1150SOL     OW 4348   0.880   4.178   7.002
 1150SOL    HW1 4349   0.857   4.251   0.045
 1150SOL    HW2 4350   0.977   4.184   6.977
 1151SOL     OW 4351   5.950   4.549   5.658
 1151SOL    HW1 4352   5.905   4.634   5.684
 1151SOL    HW2 4353   5.881   4.478   5.643
 1152SOL     OW 4354   4.493   5.769   6.274
 1152SOL    HW1 4355   4.480   5.843   6.208
 1152SOL    HW2 4356   4.550   5.698   6.233
 1153SOL     OW 4357   0.078   6.869   2.311
 1153SOL    HW1 4358   0.144   6.927   2.358
 1153SOL    HW2 4359   0.016   6.927   2.257
 1154SOL     OW 4360   0.299   4.253   1.109
 1154SOL    HW1 4361   0.320   4.253   1.206
 1154SOL    HW2 4362   0.268   4.345   1.082
 1155SOL     OW 4363   2.740   4.824   6.067
 1155SOL    HW1 4364   2.767   4.777   6.151
 1155SOL    HW2 4365   2.640   4.825   6.060
 1156SOL     OW 4366   4.476   1.822   5.033
 1156SOL    HW1 4367   4.378   1.836   5.018
 1156SOL    HW2 4368   4.508   1.747   4.975
 1157SOL     OW 4369   5.147   1.085   6.081
 1157SOL    HW1 4370   5.160   1.180   6.111
 1157SOL    HW2 4371   5.217   1.061   6.014
 1158SOL     OW 4372   6.630   5.227   5.175
 1158SOL    HW1 4373   6.632   5.251   5.078
 1158SOL    HW2 4374   6.653   5.130   5.186
 1159SOL     OW 4375   6.740   0.124   4.015
 1159SOL    HW1 4376   6.729   0.062   3.938
 1159SOL    HW2 4377   6.727   0.074   4.100
 1160SOL     OW 4378   4.790   4.507   1.249
 1160SOL    HW1 4379   4.877   4.459   1.262
 1160SOL    HW2 4380   4.735   4.500   1.333
 1161SOL     OW 4381   6.613   5.783   5.834
 1161SOL    HW1 4382   6.590   5.688   5.856
 1161SOL    HW2 4383   6.599   5.799   5.736
 1162SOL     OW 4384   2.382   1.901   6.455
 1162SOL    HW1 4385   2.395   1.986   6.405
 1162SOL    HW2 4386   2.334   1.920   6.541
 1163SOL     OW 4387   6.444   4.093   1.942
 1163SOL    HW1 4388   6.373   4.162   1.956
 1163SOL    HW2 4389   6.534   4.132   1.964
 1164SOL     OW 4390   4.912   2.817   3.719
 1164SOL    HW1 4391   4.876   2.822   3.812
 1164SOL    HW2 4392   4.916   2.722   3.690
 1165SOL     OW 4393   4.220   5.763   3.774
 1165SOL    HW1 4394   4.250   5.768   3.679
 1165SOL    HW2 4395   4.157   5.838   3.793
 1166SOL     OW 4396   2.883   6.544   0.650
 1166SOL    HW1 4397   2.856   6.448   0.650
 1166SOL    HW2 4398   2.981   6.551   0.629
 1167SOL     OW 4399   3.981   6.845   0.950
 1167SOL    HW1 4400   3.923   6.826   0.871
 1167SOL    HW2 4401   4.012   6.758   0.990
 1168SOL     OW 4402   5.559   2.767   1.589
 1168SOL    HW1 4403   5.591   2.808   1.503
 1168SOL    HW2 4404   5.491   2.827   1.631
 1169SOL     OW 4405   4.308   2.060   5.845
 1169SOL    HW1 4406   4.224   2.057   5.791
 1169SOL    HW2 4407   4.314   1.978   5.902
 1170SOL     OW 4408   5.058   6.722   2.709
 1170SOL    HW1 4409   4.972   6.715   2.658
 1170SOL    HW2 4410   5.082   6.634   2.748
 1171SOL     OW 4411   3.019   6.503   0.066
 1171SOL    HW1 4412   2.945   6.555   0.024
 1171SOL    HW2 4413   2.983   6.444   0.138
 1172SOL     OW 4414   3.798   4.202   0.762
 1172SOL    HW1 4415   3.862   4.198   0.839
 1172SOL    HW2 4416   3.836   4.150   0.685
 1173SOL     OW 4417   3.837   1.059   0.872
 1173SOL    HW1 4418   3.818   1.155   0.890
 1173SOL    HW2 4419   3.849   1.045   0.774
 1174SOL     OW 4420   2.690   4.293   1.533
 1174SOL    HW1 4421   2.614   4.355   1.554
 1174SOL    HW2 4422   2.767   4.314   1.592
 1175SOL     OW 4423   4.118   4.501   6.257
 1175SOL    HW1 4424   4.126   4.416   6.205
 1175SOL    HW2 4425   4.030   4.544   6.238
 1176SOL     OW 4426   5.429   3.787   0.427
 1176SOL    HW1 4427   5.525   3.781   0.401
 1176SOL    HW2 4428   5.392   3.875   0.397
 1177SOL     OW 4429   6.641   3.693   4.920
 1177SOL    HW1 4430   6.660   3.781   4.875
 1177SOL    HW2 4431   6.558   3.701   4.975
 1178SOL     OW 4432   3.522   4.029   0.989
 1178SOL    HW1 4433   3.519   3.945   1.044
 1178SOL    HW2 4434   3.600   4.084   1.018
 1179SOL     OW 4435   2.786   6.015   0.950
 1179SOL    HW1 4436   2.772   6.061   1.037
 1179SOL    HW2 4437   2.736   5.928   0.950
 1180SOL     OW 4438   2.354   5.839   3.898
 1180SOL    HW1 4439   2.434   5.789   3.865
 1180SOL    HW2 4440   2.271   5.797   3.863
 1181SOL     OW 4441   0.084   5.258   4.875
 1181SOL    HW1 4442   0.007   5.196   4.890
 1181SOL    HW2 4443   0.053   5.353   4.884
 1182SOL     OW 4444   5.263   5.751   3.884
 1182SOL    HW1 4445   5.192   5.705   3.830
 1182SOL    HW2 4446   5.305   5.686   3.947
 1183SOL     OW 4447   2.659   4.697   0.823
 1183SOL    HW1 4448   2.685   4.646   0.904
 1183SOL    HW2 4449   2.612   4.781   0.850
 1184SOL     OW 4450   6.842   1.498   5.017
 1184SOL    HW1 4451   6.907   1.434   4.976
 1184SOL    HW2 4452   6.862   1.507   5.115
 1185SOL     OW 4453   0.978   0.884   1.062
 1185SOL    HW1 4454   1.048   0.949   1.092
 1185SOL    HW2 4455   0.956   0.901   0.966
 1186SOL     OW 4456   4.862   5.850   5.578
 1186SOL    HW1 4457   4.808   5.793   5.516
 1186SOL    HW2 4458   4.959   5.827   5.567
 1187SOL     OW 4459   4.647   0.249   5.754
 1187SOL    HW1 4460   4.576   0.317   5.737
 1187SOL    HW2 4461   4.731   0.295   5.784
 1188SOL     OW 4462   3.153   6.179   6.338
 1188SOL    HW1 4463   3.122   6.271   6.313
 1188SOL    HW2 4464   3.074   6.125   6.366
 1189SOL     OW 4465   6.255   1.459   1.553
 1189SOL    HW1 4466   6.348   1.445   1.588
 1189SOL    HW2 4467   6.248   1.549   1.511
 1190SOL     OW 4468   3.648   6.098   3.819
 1190SOL    HW1 4469   3.584   6.174   3.811
 1190SOL    HW2 4470   3.732   6.121   3.769
 1191SOL     OW 4471   4.053   5.389   4.712
 1191SOL    HW1 4472   4.018   5.350   4.626
 1191SOL    HW2 4473   4.043   5.489   4.710
 1192SOL     OW 4474   5.093   4.325   2.674
 1192SOL    HW1 4475   5.030   4.378   2.730
 1192SOL    HW2 4476   5.067   4.228   2.678
 1193SOL     OW 4477   6.922   2.194   5.067
 1193SOL    HW1 4478   6.925   2.097   5.095
 1193SOL    HW2 4479   6.948   2.202   4.971
 1194SOL     OW 4480   5.812   0.095   1.531
 1194SOL    HW1 4481   5.878   0.119   1.461
 1194SOL    HW2 4482   5.774   0.004   1.512
 1195SOL     OW 4483   6.931   4.200   1.181
 1195SOL    HW1 4484   6.848   4.171   1.135
 1195SOL    HW2 4485   6.995   4.123   1.186
 1196SOL     OW 4486   6.696   5.259   3.592
 1196SOL    HW1 4487   6.761   5.328   3.625
 1196SOL    HW2 4488   6.670   5.281   3.498
 1197SOL     OW 4489   4.808   6.808   4.844
 1197SOL    HW1 4490   4.742   6.883   4.835
 1197SOL    HW2 4491   4.798   6.766   4.934
 1198SOL     OW 4492   1.630   3.162   2.951
 1198SOL    HW1 4493   1.713   3.170   3.006
 1198SOL    HW2 4494   1.614   3.249   2.903
 1199SOL     OW 4495   3.503   3.878   1.235
 1199SOL    HW1 4496   3.505   3.817   1.313
 1199SOL    HW2 4497   3.443   3.956   1.254
 1200SOL     OW 4498   3.639   4.121   4.465
 1200SOL    HW1 4499   3.690   4.205   4.445
 1200SOL    HW2 4500   3.545   4.145   4.489
 1201SOL     OW 4501   1.122   1.405   4.222
 1201SOL    HW1 4502   1.087   1.346   4.295
 1201SOL    HW2 4503   1.213   1.374   4.195
 1202SOL     OW 4504   0.446   5.577   5.144
 1202SOL    HW1 4505   0.518   5.641   5.115
 1202SOL    HW2 4506   0.456   5.491   5.094
 1203SOL     OW 4507   7.015   6.025   0.082
 1203SOL    HW1 4508   6.923   6.060   0.094
 1203SOL    HW2 4509   7.011   5.937   0.035
 1204SOL     OW 4510   4.609   1.402   1.302
 1204SOL    HW1 4511   4.695   1.396   1.354
 1204SOL    HW2 4512   4.533   1.374   1.361
 1205SOL     OW 4513   3.740   3.105   0.893
 1205SOL    HW1 4514   3.646   3.076   0.875
 1205SOL    HW2 4515   3.787   3.122   0.806
 1206SOL     OW 4516   2.704   2.528   5.241
 1206SOL    HW1 4517   2.765   2.601   5.272
 1206SOL    HW2 4518   2.645   2.562   5.169
 1207SOL     OW 4519   2.179   6.759   1.373
 1207SOL    HW1 4520   2.168   6.664   1.344
 1207SOL    HW2 4521   2.269   6.772   1.413
 1208SOL     OW 4522   3.565   3.539   1.326
 1208SOL    HW1 4523   3.650   3.509   1.369
 1208SOL    HW2 4524   3.514   3.596   1.389
 1209SOL     OW 4525   4.522   0.675   3.721
 1209SOL    HW1 4526   4.515   0.600   3.655
 1209SOL    HW2 4527   4.617   0.703   3.730
 1210SOL     OW 4528   3.578   6.870   3.254
 1210SOL    HW1 4529   3.531   6.887   3.168
 1210SOL    HW2 4530   3.552   6.939   3.322
 1211SOL     OW 4531   0.839   3.791   2.946
 1211SOL    HW1 4532   0.791   3.703   2.939
 1211SOL    HW2 4533   0.780   3.864   2.911
 1212SOL     OW 4534   5.921   0.592   6.988
 1212SOL    HW1 4535   6.003   0.631   0.009
 1212SOL    HW2 4536   5.926   0.604   6.889
 1213SOL     OW 4537   5.835   2.521   0.919
 1213SOL    HW1 4538   5.781   2.592   0.874
 1213SOL    HW2 4539   5.914   2.497   0.862
 1214SOL     OW 4540   1.116   3.335   0.094
 1214SOL    HW1 4541   1.096   3.431   0.072
 1214SOL    HW2 4542   1.188   3.331   0.163
 1215SOL     OW 4543   1.151   4.691   3.632
 1215SOL    HW1 4544   1.221   4.619   3.632
 1215SOL    HW2 4545   1.169   4.754   3.557
 1216SOL     OW 4546   4.936   0.188   0.993
 1216SOL    HW1 4547   4.907   0.222   0.903
 1216SOL    HW2 4548   4.858   0.146   1.039
 1217SOL     OW 4549   2.709   4.535   1.055
 1217SOL    HW1 4550   2.659   4.448   1.055
 1217SOL    HW2 4551   2.693   4.582   1.141
 1218SOL     OW 4552   1.308   3.670   5.019
 1218SOL    HW1 4553   1.408   3.671   5.021
 1218SOL    HW2 4554   1.274   3.761   5.041
 1219SOL     OW 4555   5.145   5.951   2.192
 1219SOL    HW1 4556   5.166   5.870   2.247
 1219SOL    HW2 4557   5.208   5.957   2.115
 1220SOL     OW 4558   0.794   4.628   3.443
 1220SOL    HW1 4559   0.751   4.672   3.522
 1220SOL    HW2 4560   0.840   4.544   3.472
 1221SOL     OW 4561   4.563   4.192   6.176
 1221SOL    HW1 4562   4.570   4.255   6.099
 1221SOL    HW2 4563   4.655   4.165   6.205
 1222SOL     OW 4564   6.804   0.280   0.254
 1222SOL    HW1 4565   6.806   0.280   0.354
 1222SOL    HW2 4566   6.851   0.361   0.219
 1223SOL     OW 4567   4.173   1.906   0.091
 1223SOL    HW1 4568   4.080   1.901   0.128
 1223SOL    HW2 4569   4.229   1.963   0.150
 1224SOL     OW 4570   3.729   5.660   0.935
 1224SOL    HW1 4571   3.738   5.613   1.023
 1224SOL    HW2 4572   3.674   5.604   0.873
 1225SOL     OW 4573   2.841   3.209   6.363
 1225SOL    HW1 4574   2.825   3.255   6.275
 1225SOL    HW2 4575   2.873   3.276   6.430
 1226SOL     OW 4576   2.099   6.060   2.129
 1226SOL    HW1 4577   2.037   6.047   2.052
 1226SOL    HW2 4578   2.103   5.976   2.183
 1227SOL     OW 4579   6.506   4.505   5.604
 1227SOL    HW1 4580   6.604   4.485   5.593
 1227SOL    HW2 4581   6.480   4.579   5.543
 1228SOL     OW 4582   3.216   1.750   6.228
 1228SOL    HW1 4583   3.141   1.704   6.179
 1228SOL    HW2 4584   3.244   1.694   6.305
 1229SOL     OW 4585   3.563   5.197   5.591
 1229SOL    HW1 4586   3.500   5.243   5.529
 1229SOL    HW2 4587   3.597   5.263   5.659
 1230SOL     OW 4588   4.617   6.399   2.737
 1230SOL    HW1 4589   4.584   6.464   2.805
 1230SOL    HW2 4590   4.675   6.447   2.671
 1231SOL     OW 4591   2.061   2.739   4.772
 1231SOL    HW1 4592   2.059   2.832   4.734
 1231SOL    HW2 4593   1.982   2.688   4.737
 1232SOL     OW 4594   0.479   1.991   5.474
 1232SOL    HW1 4595   0.390   1.980   5.517
 1232SOL    HW2 4596   0.479   1.947   5.384
 1233SOL     OW 4597   0.690   4.329   5.062
 1233SOL    HW1 4598   0.693   4.323   4.962
 1233SOL    HW2 4599   0.683   4.425   5.088
 1234SOL     OW 4600   6.597   3.356   5.499
 1234SOL    HW1 4601   6.574   3.382   5.405
 1234SOL    HW2 4602   6.549   3.272   5.523
 1235SOL     OW 4603   6.829   5.664   2.602
 1235SOL    HW1 4604   6.843   5.627   2.510
 1235SOL    HW2 4605   6.917   5.682   2.644
 1236SOL     OW 4606   4.419   1.620   7.002
 1236SOL    HW1 4607   4.433   1.710   6.960
 1236SOL    HW2 4608   4.507   1.574   7.013
 1237SOL     OW 4609   2.412   5.065   5.965
 1237SOL    HW1 4610   2.397   5.157   5.928
 1237SOL    HW2 4611   2.340   5.042   6.030
 1238SOL     OW 4612   2.667   1.074   0.044
 1238SOL    HW1 4613   2.710   0.985   0.060
 1238SOL    HW2 4614   2.712   1.143   0.101
 1239SOL     OW 4615   0.046   0.119   6.127
 1239SOL    HW1 4616   0.070   0.127   6.223
 1239SOL    HW2 4617   0.002   0.031   6.110
 1240SOL     OW 4618   5.211   6.842   1.828
 1240SOL    HW1 4619   5.167   6.910   1.887
 1240SOL    HW2 4620   5.200   6.869   1.732
 1241SOL     OW 4621   5.248   3.692   4.307
 1241SOL    HW1 4622   5.152   3.715   4.322
 1241SOL    HW2 4623   5.269   3.697   4.210
 1242SOL     OW 4624   0.671   3.815   1.643
 1242SOL    HW1 4625   0.662   3.910   1.674
 1242SOL    HW2 4626   0.633   3.754   1.712
 1243SOL     OW 4627   0.066   6.943   4.806
 1243SOL    HW1 4628   0.151   6.920   4.758
 1243SOL    HW2 4629   0.081   6.938   4.905
 1244SOL     OW 4630   6.366   0.098   4.281
 1244SOL    HW1 4631   6.372   0.195   4.304
 1244SOL    HW2 4632   6.369   0.043   4.365
 1245SOL     OW 4633   5.013   4.998   0.508
 1245SOL    HW1 4634   5.013   4.915   0.563
 1245SOL    HW2 4635   4.940   4.992   0.439
 1246SOL     OW 4636   2.315   6.399   1.851
 1246SOL    HW1 4637   2.296   6.353   1.938
 1246SOL    HW2 4638   2.412   6.423   1.847
 1247SOL     OW 4639   1.922   0.137   6.674
 1247SOL    HW1 4640   1.849   0.162   6.738
 1247SOL    HW2 4641   1.932   0.209   6.606
 1248SOL     OW 4642   2.440   7.017   5.169
 1248SOL    HW1 4643   2.507   6.991   5.239
 1248SOL    HW2 4644   2.348   7.018   5.210
 1249SOL     OW 4645   6.151   2.034   2.799
 1249SOL    HW1 4646   6.197   1.946   2.789
 1249SOL    HW2 4647   6.153   2.083   2.712
 1250SOL     OW 4648   5.873   5.018   4.338
 1250SOL    HW1 4649   5.921   5.024   4.251
 1250SOL    HW2 4650   5.926   5.064   4.409
 1251SOL     OW 4651   3.640   0.702   4.332
 1251SOL    HW1 4652   3.608   0.607   4.337
 1251SOL    HW2 4653   3.562   0.764   4.336
 1252SOL     OW 4654   3.771   3.840   5.498
 1252SOL    HW1 4655   3.787   3.742   5.496
 1252SOL    HW2 4656   3.803   3.877   5.585
 1253SOL     OW 4657   3.091   5.678   2.352
 1253SOL    HW1 4658   3.029   5.635   2.416
 1253SOL    HW2 4659   3.040   5.741   2.292
 1254SOL     OW 4660   1.288   2.294   2.565
 1254SOL    HW1 4661   1.214   2.254   2.619
 1254SOL    HW2 4662   1.251   2.331   2.479
 1255SOL     OW 4663   6.388   2.316   4.779
 1255SOL    HW1 4664   6.376   2.340   4.682
 1255SOL    HW2 4665   6.485   2.317   4.802
 1256SOL     OW 4666   6.627   6.382   3.455
 1256SOL    HW1 4667   6.709   6.417   3.411
 1256SOL    HW2 4668   6.641   6.378   3.554
 1257SOL     OW 4669   0.161   6.644   5.078
 1257SOL    HW1 4670   0.153   6.739   5.049
 1257SOL    HW2 4671   0.073   6.598   5.067
 1258SOL     OW 4672   1.628   5.338   3.566
 1258SOL    HW1 4673   1.576   5.418   3.536
 1258SOL    HW2 4674   1.585   5.300   3.648
 1259SOL     OW 4675   4.036   1.276   4.303
 1259SOL    HW1 4676   4.045   1.220   4.385
 1259SOL    HW2 4677   3.991   1.223   4.231
 1260SOL     OW 4678   1.587   1.758   0.191
 1260SOL    HW1 4679   1.640   1.798   0.116
 1260SOL    HW2 4680   1.503   1.809   0.204
 1261SOL     OW 4681   0.413   5.431   6.417
 1261SOL    HW1 4682   0.416   5.406   6.514
 1261SOL    HW2 4683   0.448   5.524   6.406
 1262SOL     OW 4684   4.887   4.347   1.513
 1262SOL    HW1 4685   4.863   4.269   1.571
 1262SOL    HW2 4686   4.806   4.403   1.497
 1263SOL     OW 4687   0.426   1.973   2.519
 1263SOL    HW1 4688   0.456   1.878   2.522
 1263SOL    HW2 4689   0.352   1.982   2.452
 1264SOL     OW 4690   6.608   4.425   0.123
 1264SOL    HW1 4691   6.555   4.497   0.167
 1264SOL    HW2 4692   6.545   4.357   0.085
 1265SOL     OW 4693   5.800   4.923   4.704
 1265SOL    HW1 4694   5.868   4.994   4.690
 1265SOL    HW2 4695   5.787   4.872   4.619
 1266SOL     OW 4696   0.450   1.113   4.247
 1266SOL    HW1 4697   0.381   1.180   4.274
 1266SOL    HW2 4698   0.425   1.074   4.158
 1267SOL     OW 4699   5.407   1.054   0.934
 1267SOL    HW1 4700   5.337   0.994   0.894
 1267SOL    HW2 4701   5.424   1.131   0.872
 1268SOL     OW 4702   2.842   2.606   6.676
 1268SOL    HW1 4703   2.813   2.572   6.766
 1268SOL    HW2 4704   2.900   2.538   6.632
 1269SOL     OW 4705   6.092   3.352   4.286
 1269SOL    HW1 4706   6.097   3.264   4.240
 1269SOL    HW2 4707   6.038   3.343   4.369
 1270SOL     OW 4708   1.503   3.829   2.796
 1270SOL    HW1 4709   1.511   3.846   2.697
 1270SOL    HW2 4710   1.513   3.915   2.845
 1271SOL     OW 4711   3.951   1.833   2.436
 1271SOL    HW1 4712   3.985   1.766   2.369
 1271SOL    HW2 4713   3.855   1.852   2.417
 1272SOL     OW 4714   5.673   4.624   6.731
 1272SOL    HW1 4715   5.771   4.635   6.717
 1272SOL    HW2 4716   5.654   4.529   6.758
 1273SOL     OW 4717   1.003   3.701   6.393
 1273SOL    HW1 4718   0.928   3.724   6.455
 1273SOL    HW2 4719   0.966   3.651   6.314
 1274SOL     OW 4720   6.692   4.420   1.592
 1274SOL    HW1 4721   6.709   4.397   1.688
 1274SOL    HW2 4722   6.676   4.519   1.584
 1275SOL     OW 4723   3.950   1.645   3.617
 1275SOL    HW1 4724   3.853   1.668   3.608
 1275SOL    HW2 4725   3.961   1.581   3.694
 1276SOL     OW 4726   6.069   5.117   4.983
 1276SOL    HW1 4727   6.094   5.160   5.070
 1276SOL    HW2 4728   6.133   5.146   4.912
 1277SOL     OW 4729   1.999   5.658   6.305
 1277SOL    HW1 4730   1.953   5.741   6.337
 1277SOL    HW2 4731   2.090   5.681   6.269
 1278SOL     OW 4732   1.200   6.890   4.904
 1278SOL    HW1 4733   1.284   6.872   4.955
 1278SOL    HW2 4734   1.202   6.839   4.818
 1279SOL     OW 4735   1.646   5.052   6.775
 1279SOL    HW1 4736   1.701   5.079   6.854
 1279SOL    HW2 4737   1.705   5.050   6.693
 1280SOL     OW 4738   4.689   0.290   4.375
 1280SOL    HW1 4739   4.782   0.259   4.356
 1280SOL    HW2 4740   4.656   0.345   4.297
 1281SOL     OW 4741   2.558   5.973   3.073
 1281SOL    HW1 4742   2.479   5.987   3.012
 1281SOL    HW2 4743   2.544   5.889   3.126
 1282SOL     OW 4744   6.560   2.232   6.354
 1282SOL    HW1 4745   6.537   2.221   6.257
 1282SOL    HW2 4746   6.513   2.162   6.407
 1283SOL     OW 4747   6.378   3.315   5.113
 1283SOL    HW1 4748   6.436   3.390   5.085
 1283SOL    HW2 4749   6.427   3.257   5.179
 1284SOL     OW 4750   4.817   1.686   1.804
 1284SOL    HW1 4751   4.898   1.676   1.747
 1284SOL    HW2 4752   4.786   1.781   1.803
 1285SOL     OW 4753   4.532   1.481   5.595
 1285SOL    HW1 4754   4.553   1.491   5.692
 1285SOL    HW2 4755   4.563   1.391   5.563
 1286SOL     OW 4756   4.122   3.536   0.938
 1286SOL    HW1 4757   4.024   3.551   0.929
 1286SOL    HW2 4758   4.141   3.492   1.026
 1287SOL     OW 4759   5.341   4.307   5.406
 1287SOL    HW1 4760   5.420   4.248   5.393
 1287SOL    HW2 4761   5.325   4.361   5.324
 1288SOL     OW 4762   3.734   3.686   6.432
 1288SOL    HW1 4763   3.830   3.716   6.431
 1288SOL    HW2 4764   3.674   3.766   6.426
 1289SOL     OW 4765   0.590   6.877   1.269
 1289SOL    HW1 4766   0.605   6.946   1.340
 1289SOL    HW2 4767   0.592   6.920   1.179
 1290SOL     OW 4768   1.163   6.765   0.695
 1290SOL    HW1 4769   1.175   6.794   0.790
 1290SOL    HW2 4770   1.147   6.845   0.638
 1291SOL     OW 4771   0.633   4.391   3.829
 1291SOL    HW1 4772   0.727   4.358   3.839
 1291SOL    HW2 4773   0.578   4.320   3.784
 1292SOL     OW 4774   0.826   5.623   2.343
 1292SOL    HW1 4775   0.768   5.586   2.415
 1292SOL    HW2 4776   0.799   5.585   2.255
 1293SOL     OW 4777   2.209   2.212   0.151
 1293SOL    HW1 4778   2.197   2.135   0.213
 1293SOL    HW2 4779   2.131   2.275   0.161
 1294SOL     OW 4780   0.571   3.017   5.905
 1294SOL    HW1 4781   0.507   3.050   5.836
 1294SOL    HW2 4782   0.663   3.011   5.865
 1295SOL     OW 4783   0.009   3.727   1.122
 1295SOL    HW1 4784   6.936   3.719   1.156
 1295SOL    HW2 4785   0.053   3.806   1.165
 1296SOL     OW 4786   3.938   6.263   5.283
 1296SOL    HW1 4787   4.038   6.263   5.275
 1296SOL    HW2 4788   3.905   6.357   5.273
 1297SOL     OW 4789   0.963   6.957   1.324
 1297SOL    HW1 4790   0.945   6.885   1.390
 1297SOL    HW2 4791   0.956   0.025   1.369
 1298SOL     OW 4792   5.191   5.606   3.274
 1298SOL    HW1 4793   5.203   5.510   3.298
 1298SOL    HW2 4794   5.123   5.614   3.200
 1299SOL     OW 4795   2.612   2.421   3.863
 1299SOL    HW1 4796   2.521   2.397   3.899
 1299SOL    HW2 4797   2.602   2.488   3.790
 1300SOL     OW 4798   1.649   2.738   0.421
 1300SOL    HW1 4799   1.654   2.727   0.321
 1300SOL    HW2 4800   1.739   2.765   0.455
 1301SOL     OW 4801   0.711   6.188   1.861
 1301SOL    HW1 4802   0.617   6.219   1.855
 1301SOL    HW2 4803   0.773   6.266   1.855
 1302SOL     OW 4804   4.798   6.620   5.049
 1302SOL    HW1 4805   4.701   6.610   5.072
 1302SOL    HW2 4806   4.830   6.710   5.079
 1303SOL     OW 4807   4.363   1.358   1.436
 1303SOL    HW1 4808   4.366   1.259   1.421
 1303SOL    HW2 4809   4.275   1.394   1.407
 1304SOL     OW 4810   1.633   0.091   0.516
 1304SOL    HW1 4811   1.613   0.157   0.444
 1304SOL    HW2 4812   1.557   0.026   0.524
 1305SOL     OW 4813   5.691   3.681   0.409
 1305SOL    HW1 4814   5.688   3.641   0.317
 1305SOL    HW2 4815   5.717   3.610   0.475
 1306SOL     OW 4816   1.521   6.091   4.308
 1306SOL    HW1 4817   1.495   6.018   4.245
 1306SOL    HW2 4818   1.513   6.180   4.261
 1307SOL     OW 4819   2.335   4.461   4.084
 1307SOL    HW1 4820   2.324   4.362   4.093
 1307SOL    HW2 4821   2.362   4.483   3.990
 1308SOL     OW 4822   6.580   0.105   6.050
 1308SOL    HW1 4823   6.600   0.199   6.079
 1308SOL    HW2 4824   6.509   0.106   5.980
 1309SOL     OW 4825   5.867   4.779   5.750
 1309SOL    HW1 4826   5.935   4.850   5.732
 1309SOL    HW2 4827   5.779   4.822   5.769
 1310SOL     OW 4828   0.201   3.740   3.509
 1310SOL    HW1 4829   0.282   3.688   3.535
 1310SOL    HW2 4830   0.153   3.770   3.592
 1311SOL     OW 4831   6.793   5.764   6.043
 1311SOL    HW1 4832   6.767   5.678   6.087
 1311SOL    HW2 4833   6.732   5.782   5.966
 1312SOL     OW 4834   1.382   6.687   0.392
 1312SOL    HW1 4835   1.395   6.605   0.336
 1312SOL    HW2 4836   1.331   6.755   0.339
 1313SOL     OW 4837   0.145   4.977   2.873
 1313SOL    HW1 4838   0.127   4.895   2.818
 1313SOL    HW2 4839   0.173   4.950   2.965
 1314SOL     OW 4840   3.919   1.485   4.465
 1314SOL    HW1 4841   3.943   1.520   4.556
 1314SOL    HW2 4842   3.933   1.386   4.463
 1315SOL     OW 4843   0.008   1.889   2.700
 1315SOL    HW1 4844   0.094   1.886   2.649
 1315SOL    HW2 4845   0.015   1.957   2.773
 1316SOL     OW 4846   3.412   0.099   5.758
 1316SOL    HW1 4847   3.381   0.178   5.705
 1316SOL    HW2 4848   3.504   0.117   5.794
 1317SOL     OW 4849   2.569   3.923   5.893
 1317SOL    HW1 4850   2.654   3.975   5.905
 1317SOL    HW2 4851   2.513   3.965   5.822
 1318SOL     OW 4852   1.026   2.545   1.074
 1318SOL    HW1 4853   1.118   2.511   1.054
 1318SOL    HW2 4854   0.991   2.501   1.157
 1319SOL     OW 4855   0.075   6.162   1.146
 1319SOL    HW1 4856   0.007   6.162   1.219
 1319SOL    HW2 4857   0.145   6.230   1.166
 1320SOL     OW 4858   3.695   4.406   6.940
 1320SOL    HW1 4859   3.663   4.481   6.882
 1320SOL    HW2 4860   3.687   4.432   0.015
 1321SOL     OW 4861   5.150   2.980   6.375
 1321SOL    HW1 4862   5.201   2.895   6.381
 1321SOL    HW2 4863   5.054   2.960   6.356
 1322SOL     OW 4864   4.012   1.991   3.753
 1322SOL    HW1 4865   3.953   2.012   3.674
 1322SOL    HW2 4866   3.960   1.940   3.821
 1323SOL     OW 4867   3.885   6.531   6.420
 1323SOL    HW1 4868   3.898   6.432   6.424
 1323SOL    HW2 4869   3.803   6.553   6.368
 1324SOL     OW 4870   0.640   3.312   6.566
 1324SOL    HW1 4871   0.671   3.245   6.500
 1324SOL    HW2 4872   0.591   3.266   6.640
 1325SOL     OW 4873   3.500   6.384   4.785
 1325SOL    HW1 4874   3.596   6.412   4.791
 1325SOL    HW2 4875   3.495   6.285   4.773
 1326SOL     OW 4876   4.914   3.369   5.097
 1326SOL    HW1 4877   4.883   3.463   5.084
 1326SOL    HW2 4878   4.871   3.310   5.028
 1327SOL     OW 4879   1.148   6.288   0.985
 1327SOL    HW1 4880   1.136   6.372   1.038
 1327SOL    HW2 4881   1.213   6.305   0.911
 1328SOL     OW 4882   2.467   3.330   0.329
 1328SOL    HW1 4883   2.560   3.336   0.294
 1328SOL    HW2 4884   2.463   3.372   0.420
 1329SOL     OW 4885   0.894   2.142   2.602
 1329SOL    HW1 4886   0.887   2.047   2.572
 1329SOL    HW2 4887   0.805   2.173   2.636
 1330SOL     OW 4888   1.435   1.159   1.285
 1330SOL    HW1 4889   1.461   1.173   1.381
 1330SOL    HW2 4890   1.501   1.205   1.226
 1331SOL     OW 4891   4.823   2.939   3.123
 1331SOL    HW1 4892   4.792   2.863   3.066
 1331SOL    HW2 4893   4.789   3.025   3.086
 1332SOL     OW 4894   2.064   6.972   0.624
 1332SOL    HW1 4895   2.080   6.935   0.716
 1332SOL    HW2 4896   2.136   0.016   0.602
 1333SOL     OW 4897   2.896   3.445   3.312
 1333SOL    HW1 4898   2.839   3.525   3.294
 1333SOL    HW2 4899   2.960   3.465   3.386
 1334SOL     OW 4900   6.430   1.514   3.430
 1334SOL    HW1 4901   6.389   1.424   3.443
 1334SOL    HW2 4902   6.391   1.578   3.497
 1335SOL     OW 4903   2.730   1.940   2.164
 1335SOL    HW1 4904   2.752   1.866   2.101
 1335SOL    HW2 4905   2.801   1.945   2.235
 1336SOL     OW 4906   2.468   1.847   4.901
 1336SOL    HW1 4907   2.416   1.774   4.857
 1336SOL    HW2 4908   2.562   1.815   4.917
 1337SOL     OW 4909   1.094   1.821   3.027
 1337SOL    HW1 4910   1.194   1.823   3.030
 1337SOL    HW2 4911   1.058   1.892   3.087
 1338SOL     OW 4912   6.796   2.970   4.461
 1338SOL    HW1 4913   6.735   3.004   4.533
 1338SOL    HW2 4914   6.849   3.047   4.424
 1339SOL     OW 4915   6.611   2.002   6.855
 1339SOL    HW1 4916   6.621   1.946   6.772
 1339SOL    HW2 4917   6.694   1.993   6.911
 1340SOL     OW 4918   5.359   1.607   2.860
 1340SOL    HW1 4919   5.299   1.639   2.786
 1340SOL    HW2 4920   5.444   1.660   2.859
 1341SOL     OW 4921   4.083   6.549   6.608
 1341SOL    HW1 4922   4.063   6.451   6.615
 1341SOL    HW2 4923   4.033   6.588   6.530
 1342SOL     OW 4924   3.226   5.543   6.388
 1342SOL    HW1 4925   3.132   5.545   6.423
 1342SOL    HW2 4926   3.227   5.499   6.298
 1343SOL     OW 4927   5.092   5.581   2.848
 1343SOL    HW1 4928   5.020   5.575   2.780
 1343SOL    HW2 4929   5.055   5.616   2.934
 1344SOL     OW 4930   0.123   6.290   4.714
 1344SOL    HW1 4931   0.200   6.234   4.743
 1344SOL    HW2 4932   0.060   6.235   4.659
 1345SOL     OW 4933   0.904   5.678   2.815
 1345SOL    HW1 4934   0.808   5.692   2.838
 1345SOL    HW2 4935   0.941   5.759   2.771
 1346SOL     OW 4936   1.986   6.190   4.629
 1346SOL    HW1 4937   1.984   6.269   4.691
 1346SOL    HW2 4938   1.893   6.170   4.599
 1347SOL     OW 4939   6.994   6.991   5.683
 1347SOL    HW1 4940   6.943   0.053   5.707
 1347SOL    HW2 4941   0.071   7.009   5.694
 1348SOL     OW 4942   6.143   6.632   4.454
 1348SOL    HW1 4943   6.060   6.587   4.486
 1348SOL    HW2 4944   6.125   6.679   4.368
 1349SOL     OW 4945   5.201   3.115   5.004
 1349SOL    HW1 4946   5.197   3.110   5.104
 1349SOL    HW2 4947   5.247   3.199   4.977
 1350SOL     OW 4948   5.070   5.043   5.347
 1350SOL    HW1 4949   5.010   5.060   5.268
 1350SOL    HW2 4950   5.032   4.970   5.403
 1351SOL     OW 4951   5.879   1.994   2.858
 1351SOL    HW1 4952   5.834   2.058   2.920
 1351SOL    HW2 4953   5.975   2.021   2.847
 1352SOL     OW 4954   6.623   5.687   4.084
 1352SOL    HW1 4955   6.653   5.593   4.104
 1352SOL    HW2 4956   6.539   5.706   4.134
 1353SOL     OW 4957   0.725   2.384   0.424
 1353SOL    HW1 4958   0.717   2.430   0.336
 1353SOL    HW2 4959   0.765   2.293   0.411
 1354SOL     OW 4960   0.483   4.566   1.614
 1354SOL    HW1 4961   0.410   4.623   1.575
 1354SOL    HW2 4962   0.458   4.470   1.605
 1355SOL     OW 4963   5.950   3.699   4.420
 1355SOL    HW1 4964   6.024   3.721   4.356
 1355SOL    HW2 4965   5.866   3.680   4.368
 1356SOL     OW 4966   2.974   3.173   2.134
 1356SOL    HW1 4967   2.921   3.161   2.051
 1356SOL    HW2 4968   2.945   3.257   2.180
 1357SOL     OW 4969   6.970   4.536   6.386
 1357SOL    HW1 4970   6.987   4.438   6.389
 1357SOL    HW2 4971   6.927   4.565   6.472
 1358SOL     OW 4972   5.085   6.427   6.519
 1358SOL    HW1 4973   5.178   6.390   6.515
 1358SOL    HW2 4974   5.071   6.471   6.608
 1359SOL     OW 4975   5.590   4.916   3.146
 1359SOL    HW1 4976   5.625   5.005   3.114
 1359SOL    HW2 4977   5.550   4.866   3.069
 1360SOL     OW 4978   2.862   3.892   0.616
 1360SOL    HW1 4979   2.865   3.991   0.624
 1360SOL    HW2 4980   2.828   3.867   0.525
 1361SOL     OW 4981   6.357   4.966   5.175
 1361SOL    HW1 4982   6.455   4.985   5.170
 1361SOL    HW2 4983   6.306   5.051   5.167
 1362SOL     OW 4984   3.824   4.048   3.661
 1362SOL    HW1 4985   3.886   4.085   3.591
 1362SOL    HW2 4986   3.731   4.078   3.642
 1363SOL     OW 4987   6.817   5.260   3.905
 1363SOL    HW1 4988   6.810   5.197   3.827
 1363SOL    HW2 4989   6.913   5.272   3.930
 1364SOL     OW 4990   5.186   4.563   1.076
 1364SOL    HW1 4991   5.246   4.484   1.091
 1364SOL    HW2 4992   5.110   4.536   1.016
 1365SOL     OW 4993   6.988   4.267   6.380
 1365SOL    HW1 4994   6.909   4.249   6.323
 1365SOL    HW2 4995   7.012   4.185   6.432
 1366SOL     OW 4996   1.766   5.870   0.199
 1366SOL    HW1 4997   1.838   5.938   0.202
 1366SOL    HW2 4998   1.806   5.778   0.205
 1367SOL     OW 4999   2.271   0.308   3.325
 1367SOL    HW1 5000   2.252   0.327   3.229
 1367SOL    HW2 5001   2.304   0.214   3.335
 1368SOL     OW 5002   5.685   0.172   3.903
 1368SOL    HW1 5003   5.673   0.080   3.940
 1368SOL    HW2 5004   5.687   0.168   3.803
 1369SOL     OW 5005   1.858   6.491   2.370
 1369SOL    HW1 5006   1.922   6.426   2.412
 1369SOL    HW2 5007   1.765   6.456   2.378
 1370SOL     OW 5008   3.460   1.195   0.976
 1370SOL    HW1 5009   3.432   1.113   0.926
 1370SOL    HW2 5010   3.516   1.168   1.055
 1371SOL     OW 5011   5.345   1.438   4.220
 1371SOL    HW1 5012   5.395   1.524   4.236
 1371SOL    HW2 5013   5.382   1.392   4.140
 1372SOL     OW 5014   1.006   2.921   1.132
 1372SOL    HW1 5015   1.043   3.013   1.118
 1372SOL    HW2 5016   0.980   2.882   1.044
 1373SOL     OW 5017   6.049   4.067   6.473
 1373SOL    HW1 5018   6.106   3.994   6.513
 1373SOL    HW2 5019   6.065   4.152   6.523
 1374SOL     OW 5020   4.155   2.426   0.410
 1374SOL    HW1 5021   4.161   2.513   0.361
 1374SOL    HW2 5022   4.104   2.360   0.355
 1375SOL     OW 5023   0.137   4.738   6.302
 1375SOL    HW1 5024   0.078   4.681   6.358
 1375SOL    HW2 5025   0.233   4.716   6.321
 1376SOL     OW 5026   4.878   3.399   3.968
 1376SOL    HW1 5027   4.873   3.299   3.966
 1376SOL    HW2 5028   4.844   3.436   3.881
 1377SOL     OW 5029   6.697   3.891   5.211
 1377SOL    HW1 5030   6.707   3.792   5.220
 1377SOL    HW2 5031   6.656   3.928   5.295
 1378SOL     OW 5032   6.422   1.592   4.733
 1378SOL    HW1 5033   6.402   1.688   4.752
 1378SOL    HW2 5034   6.512   1.569   4.770
 1379SOL     OW 5035   3.368   0.196   2.101
 1379SOL    HW1 5036   3.296   0.155   2.045
 1379SOL    HW2 5037   3.338   0.285   2.134
 1380SOL     OW 5038   0.279   6.993   2.448
 1380SOL    HW1 5039   0.322   0.050   2.493
 1380SOL    HW2 5040   0.343   6.916   2.446
 1381SOL     OW 5041   5.276   2.873   6.939
 1381SOL    HW1 5042   5.366   2.916   6.945
 1381SOL    HW2 5043   5.214   2.915   7.006
 1382SOL     OW 5044   5.328   4.396   0.334
 1382SOL    HW1 5045   5.405   4.336   0.354
 1382SOL    HW2 5046   5.260   4.388   0.407
 1383SOL     OW 5047   0.366   0.974   0.525
 1383SOL    HW1 5048   0.287   0.960   0.464
 1383SOL    HW2 5049   0.430   0.898   0.513
 1384SOL     OW 5050   3.801   1.051   2.646
 1384SOL    HW1 5051   3.866   1.058   2.571
 1384SOL    HW2 5052   3.802   1.135   2.700
 1385SOL     OW 5053   0.603   2.815   2.966
 1385SOL    HW1 5054   0.518   2.868   2.954
 1385SOL    HW2 5055   0.669   2.842   2.897
 1386SOL     OW 5056   2.704   1.721   4.438
 1386SOL    HW1 5057   2.743   1.770   4.360
 1386SOL    HW2 5058   2.666   1.787   4.503
 1387SOL     OW 5059   3.762   0.302   3.493
 1387SOL    HW1 5060   3.734   0.384   3.444
 1387SOL    HW2 5061   3.681   0.258   3.534
 1388SOL     OW 5062   6.975   6.828   3.972
 1388SOL    HW1 5063   6.878   6.812   3.954
 1388SOL    HW2 5064   6.994   6.813   4.069
 1389SOL     OW 5065   0.718   1.080   3.436
 1389SOL    HW1 5066   0.755   1.059   3.346
 1389SOL    HW2 5067   0.669   1.167   3.433
 1390SOL     OW 5068   4.786   1.424   6.660
 1390SOL    HW1 5069   4.741   1.440   6.572
 1390SOL    HW2 5070   4.860   1.358   6.648
 1391SOL     OW 5071   5.998   1.296   5.442
 1391SOL    HW1 5072   5.899   1.302   5.455
 1391SOL    HW2 5073   6.038   1.387   5.453
 1392SOL     OW 5074   5.447   5.217   5.158
 1392SOL    HW1 5075   5.401   5.199   5.245
 1392SOL    HW2 5076   5.545   5.204   5.168
 1393SOL     OW 5077   5.867   3.035   6.881
 1393SOL    HW1 5078   5.809   3.104   6.837
 1393SOL    HW2 5079   5.833   2.944   6.861
 1394SOL     OW 5080   4.008   6.801   3.663
 1394SOL    HW1 5081   4.076   6.835   3.598
 1394SOL    HW2 5082   3.969   6.716   3.629
 1395SOL     OW 5083   0.729   4.149   2.885
 1395SOL    HW1 5084   0.821   4.184   2.869
 1395SOL    HW2 5085   0.714   4.067   2.830
 1396SOL     OW 5086   1.830   0.124   3.966
 1396SOL    HW1 5087   1.918   0.146   4.008
 1396SOL    HW2 5088   1.789   0.208   3.930
 1397SOL     OW 5089   0.389   6.415   4.955
 1397SOL    HW1 5090   0.410   6.502   4.998
 1397SOL    HW2 5091   0.291   6.397   4.961
 1398SOL     OW 5092   1.562   1.257   0.863
 1398SOL    HW1 5093   1.565   1.310   0.778
 1398SOL    HW2 5094   1.643   1.198   0.868
 1399SOL     OW 5095   4.127   0.531   0.655
 1399SOL    HW1 5096   4.070   0.463   0.609
 1399SOL    HW2 5097   4.084   0.558   0.741
 1400SOL     OW 5098   6.475   0.938   4.250
 1400SOL    HW1 5099   6.455   0.850   4.207
 1400SOL    HW2 5100   6.438   1.012   4.193
 1401SOL     OW 5101   5.872   0.041   4.473
 1401SOL    HW1 5102   5.879   0.076   4.567
 1401SOL    HW2 5103   5.964   0.019   4.439
 1402SOL     OW 5104   6.168   4.243   0.032
 1402SOL    HW1 5105   6.238   4.240   0.103
 1402SOL    HW2 5106   6.194   4.309   6.983
 1403SOL     OW 5107   2.347   2.955   0.530
 1403SOL    HW1 5108   2.357   2.865   0.488
 1403SOL    HW2 5109   2.394   3.023   0.473
 1404SOL     OW 5110   4.510   0.366   0.981
 1404SOL    HW1 5111   4.459   0.337   0.901
 1404SOL    HW2 5112   4.494   0.300   1.056
 1405SOL     OW 5113   1.742   3.533   0.970
 1405SOL    HW1 5114   1.648   3.527   0.937
 1405SOL    HW2 5115   1.785   3.443   0.966
 1406SOL     OW 5116   2.122   4.139   1.821
 1406SOL    HW1 5117   2.044   4.181   1.868
 1406SOL    HW2 5118   2.202   4.198   1.831
 1407SOL     OW 5119   1.257   3.365   2.658
 1407SOL    HW1 5120   1.207   3.278   2.651
 1407SOL    HW2 5121   1.259   3.409   2.569
 1408SOL     OW 5122   6.197   6.518   0.018
 1408SOL    HW1 5123   6.149   6.589   6.986
 1408SOL    HW2 5124   6.159   6.515   0.110
 1409SOL     OW 5125   7.013   0.680   5.922
 1409SOL    HW1 5126   0.068   0.719   5.869
 1409SOL    HW2 5127   0.024   0.658   6.014
 1410SOL     OW 5128   2.550   3.256   6.513
 1410SOL    HW1 5129   2.613   3.224   6.441
 1410SOL    HW2 5130   2.563   3.201   6.595
 1411SOL     OW 5131   3.421   6.078   6.705
 1411SOL    HW1 5132   3.435   6.113   6.797
 1411SOL    HW2 5133   3.355   6.135   6.656
 1412SOL     OW 5134   0.865   3.615   0.818
 1412SOL    HW1 5135   0.767   3.633   0.808
 1412SOL    HW2 5136   0.902   3.580   0.731
 1413SOL     OW 5137   1.615   1.751   4.367
 1413SOL    HW1 5138   1.572   1.841   4.368
 1413SOL    HW2 5139   1.699   1.753   4.421
 1414SOL     OW 5140   1.360   3.052   1.824
 1414SOL    HW1 5141   1.383   3.149   1.826
 1414SOL    HW2 5142   1.440   2.999   1.794
 1415SOL     OW 5143   2.626   2.073   4.510
 1415SOL    HW1 5144   2.684   2.013   4.565
 1415SOL    HW2 5145   2.682   2.145   4.468
 1416SOL     OW 5146   4.574   0.958   4.859
 1416SOL    HW1 5147   4.630   0.892   4.809
 1416SOL    HW2 5148   4.617   1.048   4.856
 1417SOL     OW 5149   3.433   3.281   5.901
 1417SOL    HW1 5150   3.505   3.279   5.832
 1417SOL    HW2 5151   3.465   3.235   5.984
 1418SOL     OW 5152   3.388   4.036   0.768
 1418SOL    HW1 5153   3.436   4.091   0.699
 1418SOL    HW2 5154   3.445   4.030   0.850
 1419SOL     OW 5155   1.683   5.048   4.508
 1419SOL    HW1 5156   1.686   5.030   4.606
 1419SOL    HW2 5157   1.701   4.964   4.458
 1420SOL     OW 5158   4.136   4.994   3.076
 1420SOL    HW1 5159   4.109   4.923   3.141
 1420SOL    HW2 5160   4.150   4.953   2.986
 1421SOL     OW 5161   1.069   4.195   4.213
 1421SOL    HW1 5162   1.074   4.184   4.312
 1421SOL    HW2 5163   1.143   4.254   4.182
 1422SOL     OW 5164   2.450   4.817   6.071
 1422SOL    HW1 5165   2.438   4.906   6.027
 1422SOL    HW2 5166   2.377   4.803   6.138
 1423SOL     OW 5167   3.991   2.083   4.371
 1423SOL    HW1 5168   3.973   2.136   4.288
 1423SOL    HW2 5169   4.003   1.986   4.347
 1424SOL     OW 5170   6.444   3.838   6.625
 1424SOL    HW1 5171   6.506   3.782   6.571
 1424SOL    HW2 5172   6.486   3.926   6.644
 1425SOL     OW 5173   2.644   6.339   5.001
 1425SOL    HW1 5174   2.673   6.401   4.928
 1425SOL    HW2 5175   2.663   6.245   4.974
 1426SOL     OW 5176   1.797   1.179   6.439
 1426SOL    HW1 5177   1.882   1.136   6.468
 1426SOL    HW2 5178   1.801   1.199   6.342
 1427SOL     OW 5179   1.072   0.304   3.342
 1427SOL    HW1 5180   1.060   0.345   3.432
 1427SOL    HW2 5181   1.162   0.261   3.336
 1428SOL     OW 5182   0.383   2.476   1.303
 1428SOL    HW1 5183   0.459   2.420   1.336
 1428SOL    HW2 5184   0.419   2.561   1.264
 1429SOL     OW 5185   6.510   1.219   6.741
 1429SOL    HW1 5186   6.504   1.120   6.734
 1429SOL    HW2 5187   6.429   1.255   6.788
 1430SOL     OW 5188   2.485   4.510   4.566
 1430SOL    HW1 5189   2.501   4.519   4.664
 1430SOL    HW2 5190   2.429   4.429   4.549
 1431SOL     OW 5191   2.695   2.486   5.533
 1431SOL    HW1 5192   2.790   2.492   5.563
 1431SOL    HW2 5193   2.688   2.508   5.436
 1432SOL     OW 5194   2.241   1.310   0.481
 1432SOL    HW1 5195   2.210   1.337   0.572
 1432SOL    HW2 5196   2.320   1.250   0.489
 1433SOL     OW 5197   4.098   0.096   3.797
 1433SOL    HW1 5198   4.013   0.146   3.815
 1433SOL    HW2 5199   4.175   0.159   3.802
 1434SOL     OW 5200   0.163   2.103   6.351
 1434SOL    HW1 5201   0.124   2.110   6.442
 1434SOL    HW2 5202   0.247   2.049   6.354
 1435SOL     OW 5203   0.216   0.572   3.915
 1435SOL    HW1 5204   0.285   0.626   3.866
 1435SOL    HW2 5205   0.165   0.632   3.977
 1436SOL     OW 5206   6.161   3.506   0.670
 1436SOL    HW1 5207   6.142   3.431   0.733
 1436SOL    HW2 5208   6.260   3.523   0.667
 1437SOL     OW 5209   3.283   1.564   5.755
 1437SOL    HW1 5210   3.315   1.611   5.838
 1437SOL    HW2 5211   3.185   1.580   5.743
 1438SOL     OW 5212   3.331   0.975   1.320
 1438SOL    HW1 5213   3.279   0.976   1.234
 1438SOL    HW2 5214   3.393   1.054   1.322
 1439SOL     OW 5215   0.646   5.874   0.051
 1439SOL    HW1 5216   0.709   5.909   0.120
 1439SOL    HW2 5217   0.628   5.777   0.068
 1440SOL     OW 5218   3.580   3.501   4.452
 1440SOL    HW1 5219   3.497   3.510   4.397
 1440SOL    HW2 5220   3.582   3.572   4.522
 1441SOL     OW 5221   6.957   3.983   3.411
 1441SOL    HW1 5222   6.947   4.004   3.314
 1441SOL    HW2 5223   6.921   4.058   3.466
 1442SOL     OW 5224   5.444   5.196   0.916
 1442SOL    HW1 5225   5.470   5.226   1.008
 1442SOL    HW2 5226   5.461   5.270   0.851
 1443SOL     OW 5227   0.579   0.491   3.758
 1443SOL    HW1 5228   0.545   0.397   3.761
 1443SOL    HW2 5229   0.501   0.555   3.756
 1444SOL     OW 5230   3.904   5.902   3.328
 1444SOL    HW1 5231   3.979   5.890   3.392
 1444SOL    HW2 5232   3.898   5.998   3.300
 1445SOL     OW 5233   0.291   2.930   1.711
 1445SOL    HW1 5234   0.209   2.878   1.688
 1445SOL    HW2 5235   0.337   2.886   1.789
 1446SOL     OW 5236   5.043   2.891   0.100
 1446SOL    HW1 5237   5.054   2.968   0.163
 1446SOL    HW2 5238   4.991   2.818   0.144
 1447SOL     OW 5239   6.764   0.376   5.112
 1447SOL    HW1 5240   6.777   0.280   5.088
 1447SOL    HW2 5241   6.682   0.412   5.067
 1448SOL     OW 5242   6.174   1.699   0.230
 1448SOL    HW1 5243   6.270   1.684   0.209
 1448SOL    HW2 5244   6.161   1.791   0.266
 1449SOL     OW 5245   6.122   6.594   0.258
 1449SOL    HW1 5246   6.055   6.643   0.314
 1449SOL    HW2 5247   6.205   6.650   0.248
 1450SOL     OW 5248   6.911   2.406   1.977
 1450SOL    HW1 5249   6.976   2.426   1.904
 1450SOL    HW2 5250   6.819   2.400   1.940
 1451SOL     OW 5251   2.971   0.707   3.068
 1451SOL    HW1 5252   3.059   0.663   3.087
 1451SOL    HW2 5253   2.921   0.653   3.001
 1452SOL     OW 5254   4.900   1.494   4.733
 1452SOL    HW1 5255   4.911   1.575   4.675
 1452SOL    HW2 5256   4.884   1.523   4.828
 1453SOL     OW 5257   5.691   3.766   4.646
 1453SOL    HW1 5258   5.612   3.760   4.586
 1453SOL    HW2 5259   5.763   3.705   4.613
 1454SOL     OW 5260   5.748   2.860   2.662
 1454SOL    HW1 5261   5.832   2.835   2.709
 1454SOL    HW2 5262   5.754   2.836   2.566
 1455SOL     OW 5263   0.950   0.551   1.820
 1455SOL    HW1 5264   0.916   0.576   1.911
 1455SOL    HW2 5265   0.873   0.534   1.759
 1456SOL     OW 5266   6.522   6.793   5.264
 1456SOL    HW1 5267   6.502   6.837   5.177
 1456SOL    HW2 5268   6.581   6.714   5.248
 1457SOL     OW 5269   1.266   0.147   2.460
 1457SOL    HW1 5270   1.233   0.176   2.370
 1457SOL    HW2 5271   1.204   0.077   2.497
 1458SOL     OW 5272   5.399   0.092   4.959
 1458SOL    HW1 5273   5.349   0.082   4.873
 1458SOL    HW2 5274   5.497   0.092   4.940
 1459SOL     OW 5275   2.763   4.714   0.145
 1459SOL    HW1 5276   2.767   4.799   0.196
 1459SOL    HW2 5277   2.814   4.643   0.193
 1460SOL     OW 5278   0.086   5.635   6.510
 1460SOL    HW1 5279   0.084   5.535   6.505
 1460SOL    HW2 5280   0.178   5.668   6.488
 1461SOL     OW 5281   6.617   5.025   3.408
 1461SOL    HW1 5282   6.636   5.093   3.479
 1461SOL    HW2 5283   6.653   4.936   3.437
 1462SOL     OW 5284   6.743   1.710   0.042
 1462SOL    HW1 5285   6.774   1.641   6.998
 1462SOL    HW2 5286   6.776   1.800   0.015
 1463SOL     OW 5287   0.483   6.781   6.120
 1463SOL    HW1 5288   0.425   6.859   6.098
 1463SOL    HW2 5289   0.498   6.727   6.037
 1464SOL     OW 5290   0.378   6.797   0.562
 1464SOL    HW1 5291   0.310   6.837   0.622
 1464SOL    HW2 5292   0.354   6.701   0.544
 1465SOL     OW 5293   1.285   1.414   2.923
 1465SOL    HW1 5294   1.310   1.391   2.829
 1465SOL    HW2 5295   1.354   1.477   2.961
 1466SOL     OW 5296   0.446   6.705   3.149
 1466SOL    HW1 5297   0.369   6.759   3.184
 1466SOL    HW2 5298   0.417   6.609   3.140
 1467SOL     OW 5299   1.791   0.269   2.532
 1467SOL    HW1 5300   1.709   0.212   2.522
 1467SOL    HW2 5301   1.764   0.365   2.540
 1468SOL     OW 5302   5.487   6.048   2.715
 1468SOL    HW1 5303   5.522   6.037   2.808
 1468SOL    HW2 5304   5.551   6.102   2.661
 1469SOL     OW 5305   0.810   1.056   3.078
 1469SOL    HW1 5306   0.785   1.055   2.981
 1469SOL    HW2 5307   0.802   1.149   3.114
 1470SOL     OW 5308   0.722   0.995   2.374
 1470SOL    HW1 5309   0.692   0.961   2.284
 1470SOL    HW2 5310   0.815   0.964   2.392
 1471SOL     OW 5311   0.914   0.576   6.897
 1471SOL    HW1 5312   0.960   0.631   6.966
 1471SOL    HW2 5313   0.914   0.625   6.810
 1472SOL     OW 5314   4.558   6.016   4.301
 1472SOL    HW1 5315   4.564   6.111   4.270
 1472SOL    HW2 5316   4.647   5.971   4.289
 1473SOL     OW 5317   5.923   5.947   3.773
 1473SOL    HW1 5318   5.922   5.847   3.772
 1473SOL    HW2 5319   6.002   5.979   3.825
 1474SOL     OW 5320   6.458   5.996   3.523
 1474SOL    HW1 5321   6.414   6.055   3.456
 1474SOL    HW2 5322   6.425   5.902   3.511
 1475SOL     OW 5323   0.395   0.504   1.653
 1475SOL    HW1 5324   0.328   0.436   1.622
 1475SOL    HW2 5325   0.430   0.477   1.743
 1476SOL     OW 5326   1.552   0.931   1.078
 1476SOL    HW1 5327   1.466   0.879   1.079
 1476SOL    HW2 5328   1.574   0.956   0.984
 1477SOL     OW 5329   2.775   0.346   6.384
 1477SOL    HW1 5330   2.863   0.300   6.392
 1477SOL    HW2 5331   2.709   0.301   6.444
 1478SOL     OW 5332   5.913   4.516   0.857
 1478SOL    HW1 5333   6.006   4.533   0.891
 1478SOL    HW2 5334   5.912   4.524   0.758
 1479SOL     OW 5335   1.473   4.616   0.097
 1479SOL    HW1 5336   1.541   4.612   0.024
 1479SOL    HW2 5337   1.520   4.630   0.185
 1480SOL     OW 5338   2.770   0.828   0.106
 1480SOL    HW1 5339   2.697   0.775   0.062
 1480SOL    HW2 5340   2.845   0.767   0.131
 1481SOL     OW 5341   5.687   2.159   4.777
 1481SOL    HW1 5342   5.717   2.065   4.796
 1481SOL    HW2 5343   5.730   2.191   4.692
 1482SOL     OW 5344   5.719   1.458   0.748
 1482SOL    HW1 5345   5.799   1.402   0.768
 1482SOL    HW2 5346   5.732   1.506   0.661
 1483SOL     OW 5347   0.144   3.155   6.417
 1483SOL    HW1 5348   0.168   3.058   6.406
 1483SOL    HW2 5349   0.114   3.170   6.512
 1484SOL     OW 5350   6.598   4.474   3.456
 1484SOL    HW1 5351   6.625   4.379   3.436
 1484SOL    HW2 5352   6.559   4.479   3.547
 1485SOL     OW 5353   4.588   2.547   2.536
 1485SOL    HW1 5354   4.513   2.497   2.494
 1485SOL    HW2 5355   4.675   2.512   2.501
 1486SOL     OW 5356   4.572   2.634   3.199
 1486SOL    HW1 5357   4.497   2.577   3.233
 1486SOL    HW2 5358   4.649   2.629   3.261
 1487SOL     OW 5359   6.585   1.820   6.390
 1487SOL    HW1 5360   6.543   1.911   6.388
 1487SOL    HW2 5361   6.555   1.768   6.310
 1488SOL     OW 5362   5.984   2.329   2.829
 1488SOL    HW1 5363   6.027   2.289   2.748
 1488SOL    HW2 5364   6.019   2.422   2.843
 1489SOL     OW 5365   3.901   4.898   4.505
 1489SOL    HW1 5366   3.967   4.843   4.556
 1489SOL    HW2 5367   3.845   4.951   4.568
 1490SOL     OW 5368   1.266   2.413   1.039
 1490SOL    HW1 5369   1.266   2.318   1.006
 1490SOL    HW2 5370   1.356   2.453   1.025
 1491SOL     OW 5371   6.944   3.395   2.883
 1491SOL    HW1 5372   6.856   3.429   2.917
 1491SOL    HW2 5373   7.016   3.462   2.902
 1492SOL     OW 5374   6.206   1.808   1.899
 1492SOL    HW1 5375   6.139   1.882   1.896
 1492SOL    HW2 5376   6.181   1.737   1.833
 1493SOL     OW 5377   4.856   0.924   4.935
 1493SOL    HW1 5378   4.935   0.868   4.961
 1493SOL    HW2 5379   4.888   1.013   4.904
 1494SOL     OW 5380   4.284   2.734   5.640
 1494SOL    HW1 5381   4.213   2.800   5.616
 1494SOL    HW2 5382   4.359   2.782   5.687
 1495SOL     OW 5383   0.657   3.370   3.448
 1495SOL    HW1 5384   0.675   3.336   3.540
 1495SOL    HW2 5385   0.733   3.427   3.417
 1496SOL     OW 5386   0.645   0.656   2.137
 1496SOL    HW1 5387   0.599   0.596   2.071
 1496SOL    HW2 5388   0.744   0.654   2.120
 1497SOL     OW 5389   0.297   4.015   3.004
 1497SOL    HW1 5390   0.237   4.087   3.038
 1497SOL    HW2 5391   0.307   3.944   3.074
 1498SOL     OW 5392   1.777   5.032   6.539
 1498SOL    HW1 5393   1.873   5.011   6.554
 1498SOL    HW2 5394   1.735   4.961   6.482
 1499SOL     OW 5395   1.162   3.886   5.120
 1499SOL    HW1 5396   1.115   3.818   5.176
 1499SOL    HW2 5397   1.102   3.965   5.106
 1500SOL     OW 5398   6.023   6.998   0.111
 1500SOL    HW1 5399   5.962   0.056   0.098
 1500SOL    HW2 5400   5.967   6.917   0.127
 1501SOL     OW 5401   4.411   0.751   6.053
 1501SOL    HW1 5402   4.415   0.829   5.990
 1501SOL    HW2 5403   4.436   0.781   6.145
 1502SOL     OW 5404   6.282   6.818   0.501
 1502SOL    HW1 5405   6.327   6.729   0.511
 1502SOL    HW2 5406   6.317   6.863   0.418
 1503SOL     OW 5407   2.464   2.534   1.091
 1503SOL    HW1 5408   2.438   2.588   1.171
 1503SOL    HW2 5409   2.545   2.574   1.049
 1504SOL     OW 5410   2.702   0.430   4.928
 1504SOL    HW1 5411   2.647   0.507   4.959
 1504SOL    HW2 5412   2.683   0.350   4.987
 1505SOL     OW 5413   5.007   0.597   6.659
 1505SOL    HW1 5414   5.098   0.611   6.698
 1505SOL    HW2 5415   5.015   0.591   6.559
 1506SOL     OW 5416   1.113   5.185   3.356
 1506SOL    HW1 5417   1.033   5.151   3.406
 1506SOL    HW2 5418   1.085   5.210   3.263
 1507SOL     OW 5419   1.685   1.823   4.767
 1507SOL    HW1 5420   1.715   1.739   4.723
 1507SOL    HW2 5421   1.733   1.836   4.853
 1508SOL     OW 5422   4.697   0.090   1.095
 1508SOL    HW1 5423   4.661   0.045   1.013
 1508SOL    HW2 5424   4.624   0.141   1.140
 1509SOL     OW 5425   4.225   2.820   6.072
 1509SOL    HW1 5426   4.251   2.734   6.028
 1509SOL    HW2 5427   4.127   2.833   6.065
 1510SOL     OW 5428   5.507   2.139   4.076
 1510SOL    HW1 5429   5.523   2.061   4.016
 1510SOL    HW2 5430   5.430   2.193   4.042
 1511SOL     OW 5431   2.211   1.858   0.050
 1511SOL    HW1 5432   2.302   1.894   0.028
 1511SOL    HW2 5433   2.148   1.878   6.996
 1512SOL     OW 5434   6.913   6.494   1.704
 1512SOL    HW1 5435   7.005   6.524   1.730
 1512SOL    HW2 5436   6.871   6.446   1.780
 1513SOL     OW 5437   4.648   1.032   3.805
 1513SOL    HW1 5438   4.598   0.949   3.780
 1513SOL    HW2 5439   4.625   1.058   3.899
 1514SOL     OW 5440   5.422   2.082   4.688
 1514SOL    HW1 5441   5.508   2.133   4.696
 1514SOL    HW2 5442   5.414   2.018   4.765
 1515SOL     OW 5443   6.979   2.502   6.080
 1515SOL    HW1 5444   6.992   2.506   5.981
 1515SOL    HW2 5445   6.940   2.413   6.104
 1516SOL     OW 5446   0.356   0.666   1.064
 1516SOL    HW1 5447   0.369   0.758   1.102
 1516SOL    HW2 5448   0.405   0.658   0.978
 1517SOL     OW 5449   4.826   5.499   3.947
 1517SOL    HW1 5450   4.905   5.494   3.887
 1517SOL    HW2 5451   4.752   5.443   3.910
 1518SOL     OW 5452   0.436   2.918   6.631
 1518SOL    HW1 5453   0.413   2.956   6.720
 1518SOL    HW2 5454   0.356   2.920   6.571
 1519SOL     OW 5455   0.228   4.465   2.137
 1519SOL    HW1 5456   0.247   4.422   2.049
 1519SOL    HW2 5457   0.133   4.494   2.140
 1520SOL     OW 5458   1.831   3.376   2.199
 1520SOL    HW1 5459   1.786   3.405   2.114
 1520SOL    HW2 5460   1.774   3.403   2.277
 1521SOL     OW 5461   2.133   3.530   6.794
 1521SOL    HW1 5462   2.163   3.551   6.700
 1521SOL    HW2 5463   2.061   3.593   6.820
 1522SOL     OW 5464   6.863   1.603   5.309
 1522SOL    HW1 5465   6.768   1.586   5.283
 1522SOL    HW2 5466   6.868   1.625   5.406
 1523SOL     OW 5467   5.059   4.108   6.831
 1523SOL    HW1 5468   4.996   4.172   6.875
 1523SOL    HW2 5469   5.012   4.059   6.759
 1524SOL     OW 5470   0.881   2.185   1.685
 1524SOL    HW1 5471   0.957   2.189   1.749
 1524SOL    HW2 5472   0.916   2.188   1.591
 1525SOL     OW 5473   4.805   2.277   5.811
 1525SOL    HW1 5474   4.743   2.355   5.802
 1525SOL    HW2 5475   4.885   2.304   5.863
 1526SOL     OW 5476   0.834   1.207   1.310
 1526SOL    HW1 5477   0.833   1.293   1.259
 1526SOL    HW2 5478   0.765   1.145   1.272
 1527SOL     OW 5479   3.985   1.272   4.686
 1527SOL    HW1 5480   4.039   1.205   4.635
 1527SOL    HW2 5481   3.893   1.278   4.647
 1528SOL     OW 5482   4.770   5.867   3.055
 1528SOL    HW1 5483   4.753   5.962   3.032
 1528SOL    HW2 5484   4.715   5.807   2.998
 1529SOL     OW 5485   4.274   1.609   5.615
 1529SOL    HW1 5486   4.362   1.581   5.575
 1529SOL    HW2 5487   4.203   1.546   5.586
 1530SOL     OW 5488   3.036   0.430   0.970
 1530SOL    HW1 5489   2.970   0.447   1.044
 1530SOL    HW2 5490   3.001   0.469   0.885
 1531SOL     OW 5491   5.849   1.067   5.036
 1531SOL    HW1 5492   5.860   1.060   4.937
 1531SOL    HW2 5493   5.763   1.113   5.057
 1532SOL     OW 5494   2.629   2.491   4.542
 1532SOL    HW1 5495   2.563   2.427   4.502
 1532SOL    HW2 5496   2.720   2.450   4.541
 1533SOL     OW 5497   0.057   3.397   6.628
 1533SOL    HW1 5498   0.155   3.382   6.640
 1533SOL    HW2 5499   0.016   3.422   6.716
 1534SOL     OW 5500   1.415   5.154   7.009
 1534SOL    HW1 5501   1.429   5.055   7.013
 1534SOL    HW2 5502   1.408   5.183   6.914
 1535SOL     OW 5503   6.003   5.877   4.461
 1535SOL    HW1 5504   6.071   5.937   4.502
 1535SOL    HW2 5505   5.964   5.921   4.380
 1536SOL     OW 5506   3.192   5.200   4.661
 1536SOL    HW1 5507   3.204   5.117   4.716
 1536SOL    HW2 5508   3.194   5.176   4.564
 1537SOL     OW 5509   3.796   5.640   3.355
 1537SOL    HW1 5510   3.841   5.729   3.351
 1537SOL    HW2 5511   3.761   5.616   3.264
 1538SOL     OW 5512   3.524   4.935   5.698
 1538SOL    HW1 5513   3.521   5.024   5.652
 1538SOL    HW2 5514   3.581   4.941   5.780
 1539SOL     OW 5515   4.369   4.412   1.644
 1539SOL    HW1 5516   4.346   4.354   1.566
 1539SOL    HW2 5517   4.386   4.354   1.724
 1540SOL     OW 5518   0.583   6.968   5.172
 1540SOL    HW1 5519   0.537   0.007   5.238
 1540SOL    HW2 5520   0.679   6.957   5.199
 1541SOL     OW 5521   4.024   2.849   1.019
 1541SOL    HW1 5522   4.077   2.879   1.099
 1541SOL    HW2 5523   4.011   2.750   1.022
 1542SOL     OW 5524   6.869   6.141   1.875
 1542SOL    HW1 5525   6.854   6.231   1.916
 1542SOL    HW2 5526   6.781   6.100   1.851
 1543SOL     OW 5527   2.971   3.812   3.421
 1543SOL    HW1 5528   2.986   3.726   3.469
 1543SOL    HW2 5529   2.914   3.796   3.341
 1544SOL     OW 5530   3.110   3.991   2.424
 1544SOL    HW1 5531   3.081   4.087   2.416
 1544SOL    HW2 5532   3.030   3.933   2.429
 1545SOL     OW 5533   5.547   1.116   5.378
 1545SOL    HW1 5534   5.447   1.124   5.375
 1545SOL    HW2 5535   5.574   1.026   5.344
 1546SOL     OW 5536   4.959   0.142   5.816
 1546SOL    HW1 5537   4.929   0.234   5.841
 1546SOL    HW2 5538   4.915   0.076   5.877
 1547SOL     OW 5539   1.937   3.944   2.405
 1547SOL    HW1 5540   1.896   3.894   2.329
 1547SOL    HW2 5541   2.034   3.920   2.413
 1548SOL     OW 5542   4.303   4.153   5.482
 1548SOL    HW1 5543   4.352   4.067   5.492
 1548SOL    HW2 5544   4.211   4.136   5.448
 1549SOL     OW 5545   6.051   1.319   2.339
 1549SOL    HW1 5546   6.011   1.251   2.400
 1549SOL    HW2 5547   6.097   1.273   2.263
 1550SOL     OW 5548   2.912   6.497   5.773
 1550SOL    HW1 5549   2.941   6.579   5.823
 1550SOL    HW2 5550   2.829   6.518   5.720
 1551SOL     OW 5551   1.522   3.392   1.185
 1551SOL    HW1 5552   1.490   3.426   1.096
 1551SOL    HW2 5553   1.489   3.451   1.258
 1552SOL     OW 5554   0.790   6.608   1.865
 1552SOL    HW1 5555   0.774   6.674   1.792
 1552SOL    HW2 5556   0.803   6.657   1.952
 1553SOL     OW 5557   6.244   2.118   6.241
 1553SOL    HW1 5558   6.217   2.037   6.189
 1553SOL    HW2 5559   6.224   2.200   6.187
 1554SOL     OW 5560   3.589   2.060   3.133
 1554SOL    HW1 5561   3.679   2.074   3.092
 1554SOL    HW2 5562   3.576   1.963   3.154
 1555SOL     OW 5563   4.657   2.288   5.351
 1555SOL    HW1 5564   4.578   2.280   5.290
 1555SOL    HW2 5565   4.738   2.310   5.298
 1556SOL     OW 5566   3.956   0.316   0.577
 1556SOL    HW1 5567   3.859   0.290   0.586
 1556SOL    HW2 5568   3.990   0.289   0.488
 1557SOL     OW 5569   2.796   2.526   0.988
 1557SOL    HW1 5570   2.816   2.469   1.068
 1557SOL    HW2 5571   2.743   2.472   0.922
 1558SOL     OW 5572   5.636   2.607   4.749
 1558SOL    HW1 5573   5.716   2.612   4.808
 1558SOL    HW2 5574   5.583   2.525   4.772
 1559SOL     OW 5575   0.376   3.172   1.477
 1559SOL    HW1 5576   0.355   3.180   1.574
 1559SOL    HW2 5577   0.446   3.239   1.452
 1560SOL     OW 5578   3.092   1.320   6.826
 1560SOL    HW1 5579   3.136   1.407   6.852
 1560SOL    HW2 5580   2.993   1.333   6.820
 1561SOL     OW 5581   4.581   5.326   3.468
 1561SOL    HW1 5582   4.577   5.386   3.548
 1561SOL    HW2 5583   4.557   5.378   3.386
 1562SOL     OW 5584   3.400   6.168   2.252
 1562SOL    HW1 5585   3.397   6.159   2.352
 1562SOL    HW2 5586   3.309   6.154   2.214
 1563SOL     OW 5587   2.721   1.738   4.909
 1563SOL    HW1 5588   2.769   1.726   4.995
 1563SOL    HW2 5589   2.726   1.654   4.855
 1564SOL     OW 5590   1.371   1.404   2.225
 1564SOL    HW1 5591   1.420   1.471   2.280
 1564SOL    HW2 5592   1.338   1.330   2.284
 1565SOL     OW 5593   4.340   5.419   4.746
 1565SOL    HW1 5594   4.380   5.403   4.656
 1565SOL    HW2 5595   4.251   5.373   4.751
 1566SOL     OW 5596   6.305   4.925   4.239
 1566SOL    HW1 5597   6.356   4.863   4.179
 1566SOL    HW2 5598   6.232   4.969   4.187
 1567SOL     OW 5599   5.889   5.282   0.082
 1567SOL    HW1 5600   5.917   5.187   0.095
 1567SOL    HW2 5601   5.896   5.331   0.169
 1568SOL     OW 5602   3.014   5.854   3.482
 1568SOL    HW1 5603   3.040   5.865   3.578
 1568SOL    HW2 5604   2.915   5.863   3.473
 1569SOL     OW 5605   3.673   0.168   3.179
 1569SOL    HW1 5606   3.688   0.266   3.172
 1569SOL    HW2 5607   3.581   0.151   3.214
 1570SOL     OW 5608   2.596   6.538   6.409
 1570SOL    HW1 5609   2.567   6.604   6.340
 1570SOL    HW2 5610   2.690   6.558   6.437
 1571SOL     OW 5611   1.066   3.012   3.147
 1571SOL    HW1 5612   1.049   2.921   3.184
 1571SOL    HW2 5613   1.001   3.077   3.185
 1572SOL     OW 5614   1.643   5.031   2.172
 1572SOL    HW1 5615   1.742   5.034   2.188
 1572SOL    HW2 5616   1.622   5.075   2.085
 1573SOL     OW 5617   5.525   5.106   2.430
 1573SOL    HW1 5618   5.454   5.175   2.413
 1573SOL    HW2 5619   5.600   5.119   2.365
 1574SOL     OW 5620   6.233   2.740   2.262
 1574SOL    HW1 5621   6.314   2.694   2.225
 1574SOL    HW2 5622   6.236   2.836   2.235
 1575SOL     OW 5623   2.153   0.656   1.662
 1575SOL    HW1 5624   2.244   0.630   1.693
 1575SOL    HW2 5625   2.132   0.609   1.577
 1576SOL     OW 5626   1.159   6.111   3.060
 1576SOL    HW1 5627   1.184   6.156   2.974
 1576SOL    HW2 5628   1.086   6.163   3.104
 1577SOL     OW 5629   2.439   0.122   6.480
 1577SOL    HW1 5630   2.349   0.158   6.504
 1577SOL    HW2 5631   2.510   0.179   6.522
 1578SOL     OW 5632   4.728   1.126   6.437
 1578SOL    HW1 5633   4.746   1.074   6.520
 1578SOL    HW2 5634   4.805   1.186   6.417
 1579SOL     OW 5635   7.020   2.506   1.250
 1579SOL    HW1 5636   0.053   2.426   1.224
 1579SOL    HW2 5637   0.014   2.579   1.183
 1580SOL     OW 5638   3.025   3.911   2.967
 1580SOL    HW1 5639   3.086   3.954   2.900
 1580SOL    HW2 5640   3.042   3.951   3.058
 1581SOL     OW 5641   6.963   4.414   5.514
 1581SOL    HW1 5642   6.950   4.377   5.422
 1581SOL    HW2 5643   6.984   4.512   5.508
 1582SOL     OW 5644   3.343   5.905   4.530
 1582SOL    HW1 5645   3.431   5.859   4.522
 1582SOL    HW2 5646   3.283   5.853   4.591
 1583SOL     OW 5647   0.522   5.548   4.708
 1583SOL    HW1 5648   0.591   5.556   4.636
 1583SOL    HW2 5649   0.550   5.477   4.774
 1584SOL     OW 5650   2.042   4.951   6.571
 1584SOL    HW1 5651   2.000   4.888   6.637
 1584SOL    HW2 5652   2.135   4.974   6.602
 1585SOL     OW 5653   3.995   1.366   3.058
 1585SOL    HW1 5654   4.079   1.313   3.069
 1585SOL    HW2 5655   3.973   1.412   3.143
 1586SOL     OW 5656   2.989   4.831   3.323
 1586SOL    HW1 5657   3.047   4.850   3.244
 1586SOL    HW2 5658   3.042   4.843   3.407
 1587SOL     OW 5659   1.818   5.031   5.499
 1587SOL    HW1 5660   1.766   4.946   5.490
 1587SOL    HW2 5661   1.890   5.034   5.429
 1588SOL     OW 5662   4.682   0.561   2.366
 1588SOL    HW1 5663   4.606   0.501   2.391
 1588SOL    HW2 5664   4.712   0.540   2.273
 1589SOL     OW 5665   6.889   3.161   2.724
 1589SOL    HW1 5666   6.852   3.094   2.789
 1589SOL    HW2 5667   6.879   3.253   2.762
 1590SOL     OW 5668   5.393   1.244   3.514
 1590SOL    HW1 5669   5.298   1.255   3.486
 1590SOL    HW2 5670   5.401   1.167   3.577
 1591SOL     OW 5671   6.694   6.106   1.344
 1591SOL    HW1 5672   6.783   6.061   1.351
 1591SOL    HW2 5673   6.637   6.078   1.422
 1592SOL     OW 5674   1.743   4.030   7.008
 1592SOL    HW1 5675   1.837   4.007   6.981
 1592SOL    HW2 5676   1.743   4.068   0.079
 1593SOL     OW 5677   0.736   0.150   6.105
 1593SOL    HW1 5678   0.756   0.219   6.035
 1593SOL    HW2 5679   0.642   0.161   6.136
 1594SOL     OW 5680   0.449   6.282   1.915
 1594SOL    HW1 5681   0.451   6.382   1.914
 1594SOL    HW2 5682   0.362   6.251   1.878
 1595SOL     OW 5683   0.622   4.162   0.698
 1595SOL    HW1 5684   0.534   4.187   0.657
 1595SOL    HW2 5685   0.659   4.240   0.749
 1596SOL     OW 5686   6.387   2.326   2.458
 1596SOL    HW1 5687   6.354   2.413   2.419
 1596SOL    HW2 5688   6.395   2.336   2.557
 1597SOL     OW 5689   2.611   5.905   1.263
 1597SOL    HW1 5690   2.647   5.812   1.274
 1597SOL    HW2 5691   2.520   5.899   1.221
 1598SOL     OW 5692   1.388   5.371   6.360
 1598SOL    HW1 5693   1.460   5.304   6.341
 1598SOL    HW2 5694   1.381   5.384   6.459
 1599SOL     OW 5695   4.906   4.727   5.275
 1599SOL    HW1 5696   4.908   4.793   5.200
 1599SOL    HW2 5697   4.903   4.775   5.362
 1600SOL     OW 5698   2.778   1.323   2.169
 1600SOL    HW1 5699   2.714   1.343   2.243
 1600SOL    HW2 5700   2.846   1.257   2.201
 1601SOL     OW 5701   0.231   6.719   4.225
 1601SOL    HW1 5702   0.269   6.626   4.229
 1601SOL    HW2 5703   0.201   6.747   4.316
 1602SOL     OW 5704   4.513   5.338   4.564
 1602SOL    HW1 5705   4.549   5.311   4.475
 1602SOL    HW2 5706   4.588   5.348   4.629
 1603SOL     OW 5707   2.577   5.188   3.736
 1603SOL    HW1 5708   2.626   5.108   3.770
 1603SOL    HW2 5709   2.576   5.186   3.636
 1604SOL     OW 5710   3.743   5.476   1.685
 1604SOL    HW1 5711   3.643   5.477   1.682
 1604SOL    HW2 5712   3.776   5.387   1.655
 1605SOL     OW 5713   6.471   5.508   1.614
 1605SOL    HW1 5714   6.548   5.560   1.651
 1605SOL    HW2 5715   6.434   5.447   1.684
 1606SOL     OW 5716   3.903   5.393   5.503
 1606SOL    HW1 5717   3.890   5.456   5.426
 1606SOL    HW2 5718   3.906   5.299   5.469
 1607SOL     OW 5719   4.392   0.229   0.764
 1607SOL    HW1 5720   4.294   0.208   0.766
 1607SOL    HW2 5721   4.417   0.261   0.673
 1608SOL     OW 5722   6.828   0.973   2.678
 1608SOL    HW1 5723   6.842   1.072   2.673
 1608SOL    HW2 5724   6.906   0.927   2.635
 1609SOL     OW 5725   3.545   7.002   0.817
 1609SOL    HW1 5726   3.536   0.058   0.754
 1609SOL    HW2 5727   3.612   0.005   0.888
 1610SOL     OW 5728   4.956   6.286   0.643
 1610SOL    HW1 5729   5.003   6.358   0.695
 1610SOL    HW2 5730   4.916   6.221   0.707
 1611SOL     OW 5731   1.674   3.306   0.664
 1611SOL    HW1 5732   1.677   3.404   0.642
 1611SOL    HW2 5733   1.708   3.292   0.757
 1612SOL     OW 5734   3.165   6.697   1.765
 1612SOL    HW1 5735   3.175   6.640   1.683
 1612SOL    HW2 5736   3.089   6.761   1.752
 1613SOL     OW 5737   0.538   5.584   1.996
 1613SOL    HW1 5738   0.510   5.666   2.044
 1613SOL    HW2 5739   0.515   5.503   2.050
 1614SOL     OW 5740   5.748   2.033   5.955
 1614SOL    HW1 5741   5.778   2.054   5.861
 1614SOL    HW2 5742   5.706   2.115   5.995
 1615SOL     OW 5743   6.607   5.301   6.338
 1615SOL    HW1 5744   6.635   5.376   6.278
 1615SOL    HW2 5745   6.544   5.241   6.290
 1616SOL     OW 5746   4.547   0.175   3.453
 1616SOL    HW1 5747   4.645   0.197   3.451
 1616SOL    HW2 5748   4.520   0.139   3.364
 1617SOL     OW 5749   4.664   6.119   3.034
 1617SOL    HW1 5750   4.584   6.151   3.084
 1617SOL    HW2 5751   4.649   6.131   2.936
 1618SOL     OW 5752   1.196   5.882   2.570
 1618SOL    HW1 5753   1.285   5.851   2.535
 1618SOL    HW2 5754   1.130   5.808   2.564
 1619SOL     OW 5755   0.254   5.463   0.054
 1619SOL    HW1 5756   0.181   5.491   7.012
 1619SOL    HW2 5757   0.343   5.471   0.008
 1620SOL     OW 5758   3.318   4.664   1.632
 1620SOL    HW1 5759   3.408   4.646   1.591
 1620SOL    HW2 5760   3.271   4.577   1.648
 1621SOL     OW 5761   5.901   0.244   0.722
 1621SOL    HW1 5762   5.839   0.167   0.709
 1621SOL    HW2 5763   5.947   0.265   0.636
 1622SOL     OW 5764   0.873   3.114   5.205
 1622SOL    HW1 5765   0.922   3.055   5.270
 1622SOL    HW2 5766   0.888   3.080   5.112
 1623SOL     OW 5767   0.567   2.190   4.739
 1623SOL    HW1 5768   0.527   2.142   4.661
 1623SOL    HW2 5769   0.570   2.129   4.818
 1624SOL     OW 5770   4.206   1.417   5.980
 1624SOL    HW1 5771   4.210   1.499   5.923
 1624SOL    HW2 5772   4.137   1.355   5.944
 1625SOL     OW 5773   1.450   5.307   6.744
 1625SOL    HW1 5774   1.519   5.292   6.673
 1625SOL    HW2 5775   1.371   5.248   6.726
 1626SOL     OW 5776   3.468   1.507   1.572
 1626SOL    HW1 5777   3.391   1.539   1.517
 1626SOL    HW2 5778   3.464   1.550   1.662
 1627SOL     OW 5779   5.353   3.106   3.404
 1627SOL    HW1 5780   5.323   3.087   3.498
 1627SOL    HW2 5781   5.434   3.165   3.406
 1628SOL     OW 5782   4.658   5.360   0.131
 1628SOL    HW1 5783   4.625   5.266   0.139
 1628SOL    HW2 5784   4.752   5.366   0.166
 1629SOL     OW 5785   2.708   1.235   3.895
 1629SOL    HW1 5786   2.700   1.164   3.965
 1629SOL    HW2 5787   2.684   1.324   3.935
 1630SOL     OW 5788   6.874   4.373   5.239
 1630SOL    HW1 5789   6.836   4.299   5.184
 1630SOL    HW2 5790   6.805   4.443   5.254
 1631SOL     OW 5791   0.554   3.050   0.821
 1631SOL    HW1 5792   0.590   3.020   0.733
 1631SOL    HW2 5793   0.454   3.046   0.820
 1632SOL     OW 5794   4.962   3.674   2.955
 1632SOL    HW1 5795   4.924   3.597   2.904
 1632SOL    HW2 5796   4.977   3.647   3.050
 1633SOL     OW 5797   5.273   4.341   4.702
 1633SOL    HW1 5798   5.352   4.281   4.694
 1633SOL    HW2 5799   5.189   4.285   4.704
 1634SOL     OW 5800   4.615   1.087   4.062
 1634SOL    HW1 5801   4.570   1.128   4.141
 1634SOL    HW2 5802   4.703   1.132   4.046
 1635SOL     OW 5803   1.122   5.246   6.411
 1635SOL    HW1 5804   1.098   5.150   6.397
 1635SOL    HW2 5805   1.150   5.286   6.325
 1636SOL     OW 5806   3.169   5.526   1.489
 1636SOL    HW1 5807   3.074   5.524   1.519
 1636SOL    HW2 5808   3.217   5.601   1.536
 1637SOL     OW 5809   6.712   6.961   3.729
 1637SOL    HW1 5810   6.803   6.998   3.709
 1637SOL    HW2 5811   6.713   6.918   3.820
 1638SOL     OW 5812   0.922   3.314   2.083
 1638SOL    HW1 5813   0.826   3.309   2.113
 1638SOL    HW2 5814   0.978   3.254   2.141
 1639SOL     OW 5815   5.756   4.927   1.875
 1639SOL    HW1 5816   5.779   4.854   1.939
 1639SOL    HW2 5817   5.839   4.972   1.843
 1640SOL     OW 5818   6.433   0.075   6.993
 1640SOL    HW1 5819   6.340   0.038   7.004
 1640SOL    HW2 5820   6.464   0.112   0.059
 1641SOL     OW 5821   0.104   2.651   3.165
 1641SOL    HW1 5822   0.042   2.580   3.199
 1641SOL    HW2 5823   0.070   2.741   3.192
 1642SOL     OW 5824   6.672   3.284   6.561
 1642SOL    HW1 5825   6.648   3.237   6.477
 1642SOL    HW2 5826   6.730   3.363   6.540
 1643SOL     OW 5827   2.529   4.543   2.983
 1643SOL    HW1 5828   2.483   4.632   2.984
 1643SOL    HW2 5829   2.628   4.556   2.981
 1644SOL     OW 5830   5.540   3.319   6.534
 1644SOL    HW1 5831   5.510   3.408   6.568
 1644SOL    HW2 5832   5.463   3.255   6.539
 1645SOL     OW 5833   3.078   6.397   6.208
 1645SOL    HW1 5834   3.144   6.376   6.137
 1645SOL    HW2 5835   2.996   6.437   6.167
 1646SOL     OW 5836   2.079   6.537   0.112
 1646SOL    HW1 5837   2.133   6.553   0.194
 1646SOL    HW2 5838   2.011   6.610   0.102
 1647SOL     OW 5839   6.355   2.203   4.212
 1647SOL    HW1 5840   6.395   2.291   4.187
 1647SOL    HW2 5841   6.271   2.218   4.265
 1648SOL     OW 5842   5.630   6.638   0.341
 1648SOL    HW1 5843   5.625   6.648   0.441
 1648SOL    HW2 5844   5.676   6.552   0.319
 1649SOL     OW 5845   3.731   1.165   4.646
 1649SOL    HW1 5846   3.695   1.253   4.677
 1649SOL    HW2 5847   3.668   1.125   4.579
 1650SOL     OW 5848   1.140   5.804   5.031
 1650SOL    HW1 5849   1.194   5.875   4.985
 1650SOL    HW2 5850   1.177   5.714   5.006
 1651SOL     OW 5851   0.670   2.228   2.695
 1651SOL    HW1 5852   0.670   2.315   2.743
 1651SOL    HW2 5853   0.596   2.227   2.627
 1652SOL     OW 5854   1.463   3.656   2.390
 1652SOL    HW1 5855   1.459   3.703   2.302
 1652SOL    HW2 5856   1.486   3.722   2.461
 1653SOL     OW 5857   0.266   6.129   1.417
 1653SOL    HW1 5858   0.245   6.215   1.465
 1653SOL    HW2 5859   0.365   6.113   1.421
 1654SOL     OW 5860   7.019   3.388   1.231
 1654SOL    HW1 5861   6.999   3.481   1.262
 1654SOL    HW2 5862   0.092   3.365   1.252
 1655SOL     OW 5863   6.724   1.428   3.833
 1655SOL    HW1 5864   6.727   1.337   3.791
 1655SOL    HW2 5865   6.713   1.419   3.932
 1656SOL     OW 5866   1.951   5.601   3.132
 1656SOL    HW1 5867   1.899   5.540   3.191
 1656SOL    HW2 5868   2.010   5.660   3.187
 1657SOL     OW 5869   5.980   0.347   4.486
 1657SOL    HW1 5870   5.972   0.418   4.415
 1657SOL    HW2 5871   6.075   0.316   4.490
 1658SOL     OW 5872   6.491   0.282   1.038
 1658SOL    HW1 5873   6.559   0.241   0.977
 1658SOL    HW2 5874   6.525   0.280   1.132
 1659SOL     OW 5875   3.483   7.016   6.911
 1659SOL    HW1 5876   3.397   0.040   6.888
 1659SOL    HW2 5877   3.482   6.922   6.877
 1660SOL     OW 5878   2.112   6.467   2.829
 1660SOL    HW1 5879   2.014   6.455   2.838
 1660SOL    HW2 5880   2.156   6.378   2.821
 1661SOL     OW 5881   2.323   5.947   1.659
 1661SOL    HW1 5882   2.342   5.974   1.754
 1661SOL    HW2 5883   2.377   5.866   1.636
 1662SOL     OW 5884   0.010   0.774   4.450
 1662SOL    HW1 5885   0.090   0.830   4.471
 1662SOL    HW2 5886   6.992   0.804   4.363
 1663SOL     OW 5887   4.829   5.488   3.257
 1663SOL    HW1 5888   4.852   5.394   3.282
 1663SOL    HW2 5889   4.730   5.496   3.246
 1664SOL     OW 5890   1.868   5.834   5.648
 1664SOL    HW1 5891   1.801   5.896   5.607
 1664SOL    HW2 5892   1.959   5.856   5.612
 1665SOL     OW 5893   6.887   3.575   1.432
 1665SOL    HW1 5894   6.931   3.630   1.503
 1665SOL    HW2 5895   6.864   3.633   1.355
 1666SOL     OW 5896   5.611   0.067   0.213
 1666SOL    HW1 5897   5.693   0.115   0.181
 1666SOL    HW2 5898   5.532   0.100   0.161
 1667SOL     OW 5899   6.941   5.907   1.730
 1667SOL    HW1 5900   6.927   5.999   1.766
 1667SOL    HW2 5901   6.913   5.839   1.798
 1668SOL     OW 5902   5.016   5.025   3.695
 1668SOL    HW1 5903   4.939   4.961   3.687
 1668SOL    HW2 5904   4.983   5.119   3.689
 1669SOL     OW 5905   6.793   4.569   5.869
 1669SOL    HW1 5906   6.869   4.555   5.933
 1669SOL    HW2 5907   6.782   4.488   5.812
 1670SOL     OW 5908   0.263   4.529   4.967
 1670SOL    HW1 5909   0.255   4.467   5.045
 1670SOL    HW2 5910   0.214   4.490   4.889
 1671SOL     OW 5911   5.690   0.932   3.008
 1671SOL    HW1 5912   5.724   0.948   2.915
 1671SOL    HW2 5913   5.593   0.957   3.013
 1672SOL     OW 5914   2.135   3.985   0.089
 1672SOL    HW1 5915   2.178   3.968   7.021
 1672SOL    HW2 5916   2.048   3.936   0.094
 1673SOL     OW 5917   1.167   1.425   4.765
 1673SOL    HW1 5918   1.204   1.395   4.678
 1673SOL    HW2 5919   1.161   1.348   4.828
 1674SOL     OW 5920   0.308   3.590   2.403
 1674SOL    HW1 5921   0.275   3.521   2.339
 1674SOL    HW2 5922   0.238   3.661   2.413
 1675SOL     OW 5923   4.972   0.322   0.108
 1675SOL    HW1 5924   4.915   0.356   0.183
 1675SOL    HW2 5925   5.031   0.395   0.076
 1676SOL     OW 5926   2.057   2.796   1.875
 1676SOL    HW1 5927   2.023   2.878   1.921
 1676SOL    HW2 5928   2.156   2.802   1.864
 1677SOL     OW 5929   3.959   3.809   3.561
 1677SOL    HW1 5930   4.007   3.779   3.643
 1677SOL    HW2 5931   3.889   3.875   3.586
 1678SOL     OW 5932   6.987   5.466   2.022
 1678SOL    HW1 5933   7.006   5.445   1.926
 1678SOL    HW2 5934   0.044   5.515   2.061
 1679SOL     OW 5935   1.520   1.312   4.645
 1679SOL    HW1 5936   1.427   1.345   4.633
 1679SOL    HW2 5937   1.580   1.359   4.580
 1680SOL     OW 5938   6.607   3.964   5.696
 1680SOL    HW1 5939   6.565   4.050   5.726
 1680SOL    HW2 5940   6.543   3.888   5.712
 1681SOL     OW 5941   1.519   6.140   5.693
 1681SOL    HW1 5942   1.579   6.217   5.715
 1681SOL    HW2 5943   1.520   6.075   5.770
 1682SOL     OW 5944   2.007   0.692   5.305
 1682SOL    HW1 5945   1.986   0.789   5.299
 1682SOL    HW2 5946   2.103   0.681   5.332
 1683SOL     OW 5947   6.285   5.261   2.740
 1683SOL    HW1 5948   6.349   5.294   2.809
 1683SOL    HW2 5949   6.329   5.264   2.650
 1684SOL     OW 5950   0.195   5.593   2.073
 1684SOL    HW1 5951   0.230   5.652   2.146
 1684SOL    HW2 5952   0.208   5.639   1.985
 1685SOL     OW 5953   2.099   1.348   5.878
 1685SOL    HW1 5954   2.089   1.447   5.866
 1685SOL    HW2 5955   2.196   1.325   5.883
 1686SOL     OW 5956   3.307   6.023   4.091
 1686SOL    HW1 5957   3.298   5.938   4.040
 1686SOL    HW2 5958   3.225   6.037   4.147
 1687SOL     OW 5959   0.445   2.819   1.914
 1687SOL    HW1 5960   0.447   2.719   1.919
 1687SOL    HW2 5961   0.536   2.853   1.892
 1688SOL     OW 5962   1.522   1.498   3.912
 1688SOL    HW1 5963   1.470   1.567   3.862
 1688SOL    HW2 5964   1.620   1.515   3.901
 1689SOL     OW 5965   6.397   0.686   2.460
 1689SOL    HW1 5966   6.394   0.768   2.516
 1689SOL    HW2 5967   6.491   0.670   2.429
 1690SOL     OW 5968   1.416   3.135   4.897
 1690SOL    HW1 5969   1.491   3.140   4.832
 1690SOL    HW2 5970   1.452   3.138   4.990
 1691SOL     OW 5971   5.760   3.353   3.928
 1691SOL    HW1 5972   5.661   3.360   3.937
 1691SOL    HW2 5973   5.784   3.278   3.866
 1692SOL     OW 5974   4.832   6.317   1.586
 1692SOL    HW1 5975   4.861   6.221   1.590
 1692SOL    HW2 5976   4.879   6.363   1.512
 1693SOL     OW 5977   6.977   2.443   3.299
 1693SOL    HW1 5978   6.910   2.467   3.370
 1693SOL    HW2 5979   6.995   2.345   3.303
 1694SOL     OW 5980   6.292   1.707   3.592
 1694SOL    HW1 5981   6.202   1.737   3.559
 1694SOL    HW2 5982   6.293   1.707   3.692
 1695SOL     OW 5983   3.224   0.684   6.433
 1695SOL    HW1 5984   3.273   0.598   6.452
 1695SOL    HW2 5985   3.128   0.673   6.460
 1696SOL     OW 5986   3.519   6.194   0.863
 1696SOL    HW1 5987   3.518   6.112   0.806
 1696SOL    HW2 5988   3.434   6.199   0.916
 1697SOL     OW 5989   6.406   1.405   0.898
 1697SOL    HW1 5990   6.506   1.407   0.886
 1697SOL    HW2 5991   6.363   1.457   0.825
 1698SOL     OW 5992   4.358   0.606   1.475
 1698SOL    HW1 5993   4.353   0.705   1.464
 1698SOL    HW2 5994   4.286   0.576   1.537
 1699SOL     OW 5995   1.913   1.668   5.930
 1699SOL    HW1 5996   1.958   1.701   6.013
 1699SOL    HW2 5997   1.962   1.701   5.850
 1700SOL     OW 5998   6.644   3.840   3.049
 1700SOL    HW1 5999   6.627   3.853   2.952
 1700SOL    HW2 6000   6.614   3.748   3.076
 1701SOL     OW 6001   6.118   5.746   5.333
 1701SOL    HW1 6002   6.076   5.664   5.371
 1701SOL    HW2 6003   6.058   5.825   5.351
 1702SOL     OW 6004   0.155   1.148   1.166
 1702SOL    HW1 6005   0.058   1.126   1.167
 1702SOL    HW2 6006   0.204   1.079   1.112
 1703SOL     OW 6007   3.845   1.325   6.766
 1703SOL    HW1 6008   3.836   1.401   6.830
 1703SOL    HW2 6009   3.884   1.246   6.813
 1704SOL     OW 6010   1.195   2.518   0.397
 1704SOL    HW1 6011   1.253   2.557   0.468
 1704SOL    HW2 6012   1.162   2.428   0.425
 1705SOL     OW 6013   3.488   2.383   1.697
 1705SOL    HW1 6014   3.521   2.386   1.603
 1705SOL    HW2 6015   3.565   2.364   1.759
 1706SOL     OW 6016   4.275   1.927   1.894
 1706SOL    HW1 6017   4.207   1.853   1.887
 1706SOL    HW2 6018   4.245   2.005   1.839
 1707SOL     OW 6019   4.850   2.666   2.739
 1707SOL    HW1 6020   4.810   2.724   2.668
 1707SOL    HW2 6021   4.790   2.665   2.819
 1708SOL     OW 6022   4.421   5.692   1.847
 1708SOL    HW1 6023   4.381   5.655   1.930
 1708SOL    HW2 6024   4.400   5.790   1.840
 1709SOL     OW 6025   3.380   6.784   1.938
 1709SOL    HW1 6026   3.317   6.831   1.999
 1709SOL    HW2 6027   3.329   6.720   1.880
 1710SOL     OW 6028   4.051   5.229   3.729
 1710SOL    HW1 6029   4.006   5.233   3.640
 1710SOL    HW2 6030   4.069   5.322   3.761
 1711SOL     OW 6031   2.302   5.226   4.797
 1711SOL    HW1 6032   2.382   5.174   4.767
 1711SOL    HW2 6033   2.330   5.317   4.827
 1712SOL     OW 6034   6.891   1.979   4.616
 1712SOL    HW1 6035   6.831   2.055   4.640
 1712SOL    HW2 6036   6.974   2.014   4.572
 1713SOL     OW 6037   4.252   1.359   2.747
 1713SOL    HW1 6038   4.291   1.325   2.832
 1713SOL    HW2 6039   4.324   1.400   2.691
 1714SOL     OW 6040   3.941   1.861   5.924
 1714SOL    HW1 6041   4.022   1.804   5.929
 1714SOL    HW2 6042   3.901   1.870   6.016
 1715SOL     OW 6043   2.135   5.731   3.265
 1715SOL    HW1 6044   2.118   5.717   3.363
 1715SOL    HW2 6045   2.191   5.813   3.252
 1716SOL     OW 6046   4.328   0.278   3.839
 1716SOL    HW1 6047   4.332   0.272   3.939
 1716SOL    HW2 6048   4.284   0.364   3.813
 1717SOL     OW 6049   3.290   5.753   4.277
 1717SOL    HW1 6050   3.209   5.694   4.282
 1717SOL    HW2 6051   3.290   5.816   4.354
 1718SOL     OW 6052   2.663   1.611   2.395
 1718SOL    HW1 6053   2.609   1.661   2.463
 1718SOL    HW2 6054   2.758   1.642   2.399
 1719SOL     OW 6055   2.059   3.666   1.230
 1719SOL    HW1 6056   2.058   3.621   1.320
 1719SOL    HW2 6057   1.972   3.712   1.214
 1720SOL     OW 6058   0.244   2.926   6.139
 1720SOL    HW1 6059   0.312   2.997   6.159
 1720SOL    HW2 6060   0.276   2.870   6.063
 1721SOL     OW 6061   1.534   6.820   1.219
 1721SOL    HW1 6062   1.449   6.802   1.268
 1721SOL    HW2 6063   1.611   6.788   1.273
 1722SOL     OW 6064   4.326   1.110   3.340
 1722SOL    HW1 6065   4.287   1.059   3.263
 1722SOL    HW2 6066   4.419   1.077   3.358
 1723SOL     OW 6067   4.717   2.733   6.969
 1723SOL    HW1 6068   4.678   2.731   0.041
 1723SOL    HW2 6069   4.814   2.709   6.973
 1724SOL     OW 6070   6.506   2.335   1.737
 1724SOL    HW1 6071   6.459   2.296   1.816
 1724SOL    HW2 6072   6.455   2.312   1.653
 1725SOL     OW 6073   1.882   5.069   6.918
 1725SOL    HW1 6074   1.879   5.113   7.007
 1725SOL    HW2 6075   1.973   5.031   6.902
 1726SOL     OW 6076   5.081   3.847   4.597
 1726SOL    HW1 6077   5.117   3.876   4.686
 1726SOL    HW2 6078   5.029   3.762   4.608
 1727SOL     OW 6079   3.782   3.676   3.345
 1727SOL    HW1 6080   3.878   3.658   3.324
 1727SOL    HW2 6081   3.740   3.594   3.385
 1728SOL     OW 6082   5.173   4.692   5.264
 1728SOL    HW1 6083   5.242   4.758   5.235
 1728SOL    HW2 6084   5.083   4.735   5.262
 1729SOL     OW 6085   1.539   3.540   3.227
 1729SOL    HW1 6086   1.457   3.492   3.257
 1729SOL    HW2 6087   1.528   3.568   3.132
 1730SOL     OW 6088   2.915   0.005   5.202
 1730SOL    HW1 6089   2.933   6.928   5.194
 1730SOL    HW2 6090   2.996   0.051   5.239
 1731SOL     OW 6091   6.645   4.743   3.446
 1731SOL    HW1 6092   6.587   4.764   3.367
 1731SOL    HW2 6093   6.645   4.644   3.462
 1732SOL     OW 6094   1.950   4.367   6.287
 1732SOL    HW1 6095   1.879   4.432   6.316
 1732SOL    HW2 6096   1.992   4.399   6.203
 1733SOL     OW 6097   2.179   3.924   2.075
 1733SOL    HW1 6098   2.193   3.825   2.068
 1733SOL    HW2 6099   2.161   3.961   1.983
 1734SOL     OW 6100   5.777   2.874   1.824
 1734SOL    HW1 6101   5.715   2.932   1.771
 1734SOL    HW2 6102   5.729   2.838   1.903
 1735SOL     OW 6103   4.420   5.467   6.071
 1735SOL    HW1 6104   4.519   5.474   6.082
 1735SOL    HW2 6105   4.381   5.417   6.148
 1736SOL     OW 6106   3.649   3.801   0.537
 1736SOL    HW1 6107   3.589   3.768   0.609
 1736SOL    HW2 6108   3.607   3.782   0.448
 1737SOL     OW 6109   5.142   6.983   4.560
 1737SOL    HW1 6110   5.072   6.913   4.576
 1737SOL    HW2 6111   5.183   6.970   4.470
 1738SOL     OW 6112   1.837   3.303   4.314
 1738SOL    HW1 6113   1.932   3.334   4.318
 1738SOL    HW2 6114   1.782   3.353   4.381
 1739SOL     OW 6115   6.280   1.063   4.409
 1739SOL    HW1 6116   6.345   1.004   4.363
 1739SOL    HW2 6117   6.328   1.135   4.458
 1740SOL     OW 6118   6.570   1.819   5.044
 1740SOL    HW1 6119   6.622   1.896   5.009
 1740SOL    HW2 6120   6.473   1.844   5.049
 1741SOL     OW 6121   3.118   0.737   4.241
 1741SOL    HW1 6122   3.060   0.737   4.322
 1741SOL    HW2 6123   3.201   0.685   4.260
 1742SOL     OW 6124   5.548   0.633   6.107
 1742SOL    HW1 6125   5.531   0.540   6.075
 1742SOL    HW2 6126   5.462   0.684   6.109
 1743SOL     OW 6127   0.731   1.227   2.496
 1743SOL    HW1 6128   0.738   1.134   2.460
 1743SOL    HW2 6129   0.636   1.247   2.519
 1744SOL     OW 6130   6.171   3.016   2.841
 1744SOL    HW1 6131   6.224   3.073   2.779
 1744SOL    HW2 6132   6.170   2.922   2.807
 1745SOL     OW 6133   6.139   6.166   2.202
 1745SOL    HW1 6134   6.127   6.089   2.263
 1745SOL    HW2 6135   6.216   6.148   2.140
 1746SOL     OW 6136   1.801   4.208   3.903
 1746SOL    HW1 6137   1.853   4.123   3.911
 1746SOL    HW2 6138   1.780   4.243   3.995
 1747SOL     OW 6139   3.227   1.550   2.691
 1747SOL    HW1 6140   3.244   1.625   2.754
 1747SOL    HW2 6141   3.132   1.519   2.701
 1748SOL     OW 6142   6.350   1.789   3.833
 1748SOL    HW1 6143   6.356   1.884   3.802
 1748SOL    HW2 6144   6.357   1.787   3.933
 1749SOL     OW 6145   2.361   6.902   6.833
 1749SOL    HW1 6146   2.293   6.937   6.769
 1749SOL    HW2 6147   2.319   6.890   6.923
 1750SOL     OW 6148   5.440   0.418   3.740
 1750SOL    HW1 6149   5.490   0.423   3.654
 1750SOL    HW2 6150   5.492   0.364   3.806
 1751SOL     OW 6151   5.592   1.670   4.869
 1751SOL    HW1 6152   5.575   1.671   4.770
 1751SOL    HW2 6153   5.565   1.581   4.906
 1752SOL     OW 6154   5.965   0.234   1.340
 1752SOL    HW1 6155   6.041   0.286   1.380
 1752SOL    HW2 6156   5.899   0.297   1.300
 1753SOL     OW 6157   6.706   0.786   1.740
 1753SOL    HW1 6158   6.643   0.739   1.802
 1753SOL    HW2 6159   6.737   0.722   1.670
 1754SOL     OW 6160   1.809   5.474   6.373
 1754SOL    HW1 6161   1.827   5.443   6.467
 1754SOL    HW2 6162   1.884   5.534   6.344
 1755SOL     OW 6163   7.006   5.908   6.583
 1755SOL    HW1 6164   0.039   5.826   6.604
 1755SOL    HW2 6165   7.009   5.925   6.485
 1756SOL     OW 6166   4.426   6.338   6.252
 1756SOL    HW1 6167   4.355   6.403   6.276
 1756SOL    HW2 6168   4.488   6.325   6.330
 1757SOL     OW 6169   3.618   5.461   5.226
 1757SOL    HW1 6170   3.596   5.365   5.240
 1757SOL    HW2 6171   3.573   5.516   5.297
 1758SOL     OW 6172   1.733   0.481   4.541
 1758SOL    HW1 6173   1.670   0.558   4.550
 1758SOL    HW2 6174   1.826   0.511   4.566
 1759SOL     OW 6175   1.567   6.523   5.528
 1759SOL    HW1 6176   1.650   6.511   5.582
 1759SOL    HW2 6177   1.496   6.567   5.584
 1760SOL     OW 6178   6.002   0.708   3.996
 1760SOL    HW1 6179   6.047   0.668   3.916
 1760SOL    HW2 6180   5.916   0.661   4.014
 1761SOL     OW 6181   6.678   0.539   1.617
 1761SOL    HW1 6182   6.733   0.552   1.534
 1761SOL    HW2 6183   6.582   0.561   1.597
 1762SOL     OW 6184   6.683   1.739   4.176
 1762SOL    HW1 6185   6.691   1.813   4.109
 1762SOL    HW2 6186   6.679   1.776   4.268
 1763SOL     OW 6187   1.064   4.608   4.692
 1763SOL    HW1 6188   1.164   4.602   4.684
 1763SOL    HW2 6189   1.037   4.704   4.700
 1764SOL     OW 6190   0.780   3.502   2.365
 1764SOL    HW1 6191   0.741   3.411   2.347
 1764SOL    HW2 6192   0.861   3.492   2.422
 1765SOL     OW 6193   3.571   1.574   1.188
 1765SOL    HW1 6194   3.478   1.604   1.167
 1765SOL    HW2 6195   3.632   1.654   1.187
 1766SOL     OW 6196   5.264   4.509   3.951
 1766SOL    HW1 6197   5.279   4.443   4.024
 1766SOL    HW2 6198   5.323   4.588   3.964
 1767SOL     OW 6199   1.153   4.770   3.356
 1767SOL    HW1 6200   1.192   4.682   3.330
 1767SOL    HW2 6201   1.053   4.767   3.345
 1768SOL     OW 6202   3.816   0.611   6.726
 1768SOL    HW1 6203   3.875   0.542   6.769
 1768SOL    HW2 6204   3.819   0.695   6.779
 1769SOL     OW 6205   5.814   0.813   0.298
 1769SOL    HW1 6206   5.911   0.803   0.321
 1769SOL    HW2 6207   5.766   0.727   0.316
 1770SOL     OW 6208   0.560   4.089   5.082
 1770SOL    HW1 6209   0.510   4.063   5.165
 1770SOL    HW2 6210   0.607   4.176   5.097
 1771SOL     OW 6211   1.568   5.022   0.216
 1771SOL    HW1 6212   1.616   5.095   0.265
 1771SOL    HW2 6213   1.506   5.062   0.149
 1772SOL     OW 6214   3.872   5.242   4.249
 1772SOL    HW1 6215   3.928   5.249   4.166
 1772SOL    HW2 6216   3.830   5.152   4.253
 1773SOL     OW 6217   1.226   2.162   5.488
 1773SOL    HW1 6218   1.165   2.142   5.411
 1773SOL    HW2 6219   1.312   2.199   5.453
 1774SOL     OW 6220   5.318   6.515   1.985
 1774SOL    HW1 6221   5.393   6.521   2.050
 1774SOL    HW2 6222   5.295   6.419   1.968
 1775SOL     OW 6223   2.093   5.679   6.620
 1775SOL    HW1 6224   2.101   5.681   6.720
 1775SOL    HW2 6225   2.130   5.593   6.586
 1776SOL     OW 6226   5.067   0.829   5.752
 1776SOL    HW1 6227   5.121   0.904   5.713
 1776SOL    HW2 6228   4.970   0.847   5.737
 1777SOL     OW 6229   3.607   6.764   6.528
 1777SOL    HW1 6230   3.646   6.757   6.436
 1777SOL    HW2 6231   3.669   6.721   6.594
 1778SOL     OW 6232   4.673   1.348   4.658
 1778SOL    HW1 6233   4.668   1.299   4.745
 1778SOL    HW2 6234   4.753   1.408   4.658
 1779SOL     OW 6235   4.910   0.074   5.552
 1779SOL    HW1 6236   4.819   0.033   5.554
 1779SOL    HW2 6237   4.934   0.108   5.643
 1780SOL     OW 6238   1.650   3.754   4.658
 1780SOL    HW1 6239   1.641   3.655   4.645
 1780SOL    HW2 6240   1.704   3.773   4.739
 1781SOL     OW 6241   5.166   0.008   5.181
 1781SOL    HW1 6242   5.164   0.085   5.245
 1781SOL    HW2 6243   5.260   7.016   5.149
 1782SOL     OW 6244   2.342   1.565   2.913
 1782SOL    HW1 6245   2.415   1.496   2.914
 1782SOL    HW2 6246   2.293   1.563   3.000
 1783SOL     OW 6247   2.149   3.647   6.117
 1783SOL    HW1 6248   2.234   3.682   6.076
 1783SOL    HW2 6249   2.160   3.551   6.140
 1784SOL     OW 6250   2.586   1.275   1.986
 1784SOL    HW1 6251   2.659   1.299   2.049
 1784SOL    HW2 6252   2.621   1.212   1.917
 1785SOL     OW 6253   6.980   6.721   4.220
 1785SOL    HW1 6254   0.058   6.709   4.216
 1785SOL    HW2 6255   6.935   6.633   4.235
 1786SOL     OW 6256   1.968   5.573   0.497
 1786SOL    HW1 6257   1.946   5.508   0.570
 1786SOL    HW2 6258   1.923   5.660   0.515
 1787SOL     OW 6259   1.826   1.955   5.841
 1787SOL    HW1 6260   1.741   1.903   5.843
 1787SOL    HW2 6261   1.897   1.901   5.797
 1788SOL     OW 6262   4.739   3.627   0.207
 1788SOL    HW1 6263   4.750   3.653   0.303
 1788SOL    HW2 6264   4.826   3.594   0.171
 1789SOL     OW 6265   6.381   2.819   1.878
 1789SOL    HW1 6266   6.451   2.891   1.874
 1789SOL    HW2 6267   6.294   2.856   1.845
 1790SOL     OW 6268   3.178   1.037   4.218
 1790SOL    HW1 6269   3.155   0.946   4.253
 1790SOL    HW2 6270   3.270   1.036   4.179
 1791SOL     OW 6271   6.123   0.931   3.447
 1791SOL    HW1 6272   6.198   0.990   3.479
 1791SOL    HW2 6273   6.045   0.938   3.509
 1792SOL     OW 6274   0.112   2.082   4.465
 1792SOL    HW1 6275   0.075   2.054   4.376
 1792SOL    HW2 6276   0.118   2.181   4.469
 1793SOL     OW 6277   6.155   1.582   4.407
 1793SOL    HW1 6278   6.129   1.595   4.311
 1793SOL    HW2 6279   6.254   1.581   4.415
 1794SOL     OW 6280   5.758   6.974   6.056
 1794SOL    HW1 6281   5.826   0.026   6.062
 1794SOL    HW2 6282   5.667   7.012   6.072
 1795SOL     OW 6283   5.892   5.213   1.358
 1795SOL    HW1 6284   5.954   5.283   1.322
 1795SOL    HW2 6285   5.813   5.257   1.401
 1796SOL     OW 6286   1.836   1.348   5.516
 1796SOL    HW1 6287   1.871   1.319   5.605
 1796SOL    HW2 6288   1.762   1.286   5.487
 1797SOL     OW 6289   1.205   0.230   5.430
 1797SOL    HW1 6290   1.271   0.189   5.367
 1797SOL    HW2 6291   1.194   0.327   5.408
 1798SOL     OW 6292   3.492   2.887   4.521
 1798SOL    HW1 6293   3.422   2.890   4.592
 1798SOL    HW2 6294   3.581   2.867   4.563
 1799SOL     OW 6295   4.452   2.399   6.699
 1799SOL    HW1 6296   4.407   2.402   6.610
 1799SOL    HW2 6297   4.499   2.486   6.715
 1800SOL     OW 6298   5.284   4.533   3.579
 1800SOL    HW1 6299   5.367   4.587   3.596
 1800SOL    HW2 6300   5.309   4.439   3.556
 1801SOL     OW 6301   0.714   2.077   2.051
 1801SOL    HW1 6302   0.725   2.172   2.020
 1801SOL    HW2 6303   0.732   2.015   1.975
 1802SOL     OW 6304   6.389   5.719   3.494
 1802SOL    HW1 6305   6.332   5.667   3.557
 1802SOL    HW2 6306   6.338   5.738   3.410
 1803SOL     OW 6307   0.251   6.511   2.867
 1803SOL    HW1 6308   0.168   6.564   2.883
 1803SOL    HW2 6309   0.320   6.570   2.825
 1804SOL     OW 6310   3.231   3.269   5.699
 1804SOL    HW1 6311   3.134   3.277   5.720
 1804SOL    HW2 6312   3.285   3.292   5.780
 1805SOL     OW 6313   1.210   5.388   6.156
 1805SOL    HW1 6314   1.170   5.476   6.129
 1805SOL    HW2 6315   1.285   5.403   6.220
 1806SOL     OW 6316   0.112   2.693   2.378
 1806SOL    HW1 6317   0.161   2.605   2.383
 1806SOL    HW2 6318   0.045   2.698   2.453
 1807SOL     OW 6319   5.914   3.818   0.104
 1807SOL    HW1 6320   5.959   3.890   0.051
 1807SOL    HW2 6321   5.918   3.840   0.201
 1808SOL     OW 6322   5.823   3.342   4.463
 1808SOL    HW1 6323   5.794   3.346   4.368
 1808SOL    HW2 6324   5.753   3.386   4.521
 1809SOL     OW 6325   3.001   1.284   5.267
 1809SOL    HW1 6326   2.995   1.360   5.332
 1809SOL    HW2 6327   3.094   1.246   5.268
 1810SOL     OW 6328   0.094   0.905   4.998
 1810SOL    HW1 6329   0.145   0.934   5.078
 1810SOL    HW2 6330   7.017   0.914   5.016
 1811SOL     OW 6331   4.896   4.818   1.620
 1811SOL    HW1 6332   4.890   4.846   1.716
 1811SOL    HW2 6333   4.815   4.766   1.595
 1812SOL     OW 6334   4.457   6.918   6.008
 1812SOL    HW1 6335   4.476   7.017   6.011
 1812SOL    HW2 6336   4.358   6.904   6.000
 1813SOL     OW 6337   4.641   4.354   2.197
 1813SOL    HW1 6338   4.586   4.329   2.117
 1813SOL    HW2 6339   4.586   4.412   2.257
 1814SOL     OW 6340   6.396   6.671   0.258
 1814SOL    HW1 6341   6.395   6.573   0.234
 1814SOL    HW2 6342   6.484   6.693   0.300
 1815SOL     OW 6343   5.786   6.060   2.633
 1815SOL    HW1 6344   5.824   6.118   2.561
 1815SOL    HW2 6345   5.793   5.964   2.606
 1816SOL     OW 6346   3.792   5.783   6.047
 1816SOL    HW1 6347   3.849   5.830   6.114
 1816SOL    HW2 6348   3.697   5.787   6.076
 1817SOL     OW 6349   3.266   1.567   3.098
 1817SOL    HW1 6350   3.326   1.563   3.018
 1817SOL    HW2 6351   3.237   1.662   3.113
 1818SOL     OW 6352   1.902   6.570   0.503
 1818SOL    HW1 6353   1.805   6.589   0.488
 1818SOL    HW2 6354   1.956   6.650   0.480
 1819SOL     OW 6355   1.794   4.946   1.761
 1819SOL    HW1 6356   1.725   5.005   1.802
 1819SOL    HW2 6357   1.774   4.934   1.664
 1820SOL     OW 6358   3.972   0.789   3.164
 1820SOL    HW1 6359   3.894   0.804   3.103
 1820SOL    HW2 6360   4.023   0.709   3.134
 1821SOL     OW 6361   3.873   1.270   1.811
 1821SOL    HW1 6362   3.895   1.320   1.728
 1821SOL    HW2 6363   3.773   1.265   1.822
 1822SOL     OW 6364   1.307   3.500   2.016
 1822SOL    HW1 6365   1.361   3.582   2.034
 1822SOL    HW2 6366   1.211   3.525   2.001
 1823SOL     OW 6367   3.099   6.373   2.949
 1823SOL    HW1 6368   3.132   6.466   2.965
 1823SOL    HW2 6369   3.073   6.331   3.036
 1824SOL     OW 6370   3.525   4.189   0.621
 1824SOL    HW1 6371   3.594   4.198   0.692
 1824SOL    HW2 6372   3.494   4.279   0.592
 1825SOL     OW 6373   0.095   3.464   5.124
 1825SOL    HW1 6374   0.108   3.367   5.145
 1825SOL    HW2 6375   0.069   3.514   5.207
 1826SOL     OW 6376   3.778   1.358   0.869
 1826SOL    HW1 6377   3.814   1.377   0.961
 1826SOL    HW2 6378   3.825   1.415   0.802
 1827SOL     OW 6379   4.948   5.408   0.941
 1827SOL    HW1 6380   4.957   5.475   1.014
 1827SOL    HW2 6381   4.996   5.441   0.859
 1828SOL     OW 6382   1.890   3.661   6.852
 1828SOL    HW1 6383   1.828   3.667   6.773
 1828SOL    HW2 6384   1.841   3.620   6.929
 1829SOL     OW 6385   3.816   0.548   3.382
 1829SOL    HW1 6386   3.903   0.592   3.404
 1829SOL    HW2 6387   3.819   0.511   3.289
 1830SOL     OW 6388   5.882   6.919   5.004
 1830SOL    HW1 6389   5.905   6.891   5.097
 1830SOL    HW2 6390   5.962   6.908   4.946
 1831SOL     OW 6391   4.717   5.828   2.663
 1831SOL    HW1 6392   4.730   5.772   2.745
 1831SOL    HW2 6393   4.795   5.815   2.602
 1832SOL     OW 6394   3.064   3.856   0.229
 1832SOL    HW1 6395   3.101   3.855   0.136
 1832SOL    HW2 6396   3.008   3.939   0.241
 1833SOL     OW 6397   5.095   0.050   1.178
 1833SOL    HW1 6398   5.027   0.102   1.127
 1833SOL    HW2 6399   5.098   0.082   1.272
 1834SOL     OW 6400   3.158   3.225   1.452
 1834SOL    HW1 6401   3.072   3.176   1.463
 1834SOL    HW2 6402   3.231   3.173   1.496
 1835SOL     OW 6403   0.311   4.801   1.235
 1835SOL    HW1 6404   0.327   4.882   1.178
 1835SOL    HW2 6405   0.384   4.793   1.303
 1836SOL     OW 6406   5.279   1.824   2.069
 1836SOL    HW1 6407   5.343   1.881   2.017
 1836SOL    HW2 6408   5.313   1.730   2.072
 1837SOL     OW 6409   1.860   0.690   5.640
 1837SOL    HW1 6410   1.876   0.773   5.693
 1837SOL    HW2 6411   1.849   0.713   5.544
 1838SOL     OW 6412   6.572   0.629   6.486
 1838SOL    HW1 6413   6.641   0.700   6.477
 1838SOL    HW2 6414   6.488   0.658   6.441
 1839SOL     OW 6415   6.313   1.709   6.618
 1839SOL    HW1 6416   6.357   1.753   6.539
 1839SOL    HW2 6417   6.373   1.639   6.655
 1840SOL     OW 6418   3.829   0.082   2.957
 1840SOL    HW1 6419   3.770   0.104   3.035
 1840SOL    HW2 6420   3.914   0.041   2.989
 1841SOL     OW 6421   2.536   0.900   2.573
 1841SOL    HW1 6422   2.568   0.882   2.480
 1841SOL    HW2 6423   2.467   0.973   2.571
 1842SOL     OW 6424   1.892   5.163   0.152
 1842SOL    HW1 6425   1.831   5.204   0.219
 1842SOL    HW2 6426   1.982   5.149   0.192
 1843SOL     OW 6427   4.363   1.105   4.531
 1843SOL    HW1 6428   4.365   1.083   4.629
 1843SOL    HW2 6429   4.418   1.038   4.481
 1844SOL     OW 6430   4.722   2.006   5.353
 1844SOL    HW1 6431   4.759   2.077   5.414
 1844SOL    HW2 6432   4.626   2.025   5.335
 1845SOL     OW 6433   2.968   0.889   3.507
 1845SOL    HW1 6434   2.928   0.862   3.595
 1845SOL    HW2 6435   2.896   0.904   3.440
 1846SOL     OW 6436   5.255   0.795   2.916
 1846SOL    HW1 6437   5.337   0.739   2.921
 1846SOL    HW2 6438   5.280   0.890   2.897
 1847SOL     OW 6439   1.382   0.717   5.305
 1847SOL    HW1 6440   1.347   0.766   5.226
 1847SOL    HW2 6441   1.400   0.781   5.379
 1848SOL     OW 6442   1.998   5.986   4.431
 1848SOL    HW1 6443   2.010   6.007   4.334
 1848SOL    HW2 6444   1.937   6.054   4.473
 1849SOL     OW 6445   4.931   3.076   2.112
 1849SOL    HW1 6446   4.914   3.166   2.153
 1849SOL    HW2 6447   4.849   3.045   2.065
 1850SOL     OW 6448   5.391   1.421   2.340
 1850SOL    HW1 6449   5.431   1.340   2.384
 1850SOL    HW2 6450   5.364   1.487   2.410
 1851SOL     OW 6451   0.729   3.059   6.489
 1851SOL    HW1 6452   0.639   3.020   6.510
 1851SOL    HW2 6453   0.777   2.999   6.425
 1852SOL     OW 6454   6.862   4.838   1.650
 1852SOL    HW1 6455   6.805   4.840   1.568
 1852SOL    HW2 6456   6.861   4.746   1.689
 1853SOL     OW 6457   6.957   2.677   3.648
 1853SOL    HW1 6458   6.902   2.630   3.580
 1853SOL    HW2 6459   6.898   2.714   3.720
 1854SOL     OW 6460   1.373   5.401   3.672
 1854SOL    HW1 6461   1.308   5.353   3.613
 1854SOL    HW2 6462   1.342   5.395   3.767
 1855SOL     OW 6463   5.617   3.446   4.585
 1855SOL    HW1 6464   5.676   3.449   4.666
 1855SOL    HW2 6465   5.537   3.390   4.604
 1856SOL     OW 6466   4.362   3.150   6.561
 1856SOL    HW1 6467   4.271   3.130   6.525
 1856SOL    HW2 6468   4.355   3.194   6.650
 1857SOL     OW 6469   5.671   1.222   0.145
 1857SOL    HW1 6470   5.709   1.219   0.052
 1857SOL    HW2 6471   5.649   1.129   0.175
 1858SOL     OW 6472   4.845   2.533   3.712
 1858SOL    HW1 6473   4.861   2.461   3.645
 1858SOL    HW2 6474   4.900   2.516   3.793
 1859SOL     OW 6475   5.351   1.888   4.506
 1859SOL    HW1 6476   5.291   1.819   4.548
 1859SOL    HW2 6477   5.355   1.969   4.564
 1860SOL     OW 6478   0.606   1.693   4.863
 1860SOL    HW1 6479   0.681   1.702   4.929
 1860SOL    HW2 6480   0.639   1.717   4.772
 1861SOL     OW 6481   5.554   0.289   2.896
 1861SOL    HW1 6482   5.641   0.318   2.937
 1861SOL    HW2 6483   5.480   0.307   2.960
 1862SOL     OW 6484   1.506   6.950   0.150
 1862SOL    HW1 6485   1.473   6.875   0.207
 1862SOL    HW2 6486   1.460   0.014   0.177
 1863SOL     OW 6487   0.103   2.845   1.099
 1863SOL    HW1 6488   0.015   2.884   1.072
 1863SOL    HW2 6489   0.109   2.843   1.199
 1864SOL     OW 6490   2.812   5.735   4.219
 1864SOL    HW1 6491   2.765   5.823   4.214
 1864SOL    HW2 6492   2.767   5.669   4.159
 1865SOL     OW 6493   4.104   1.025   1.190
 1865SOL    HW1 6494   4.059   1.110   1.165
 1865SOL    HW2 6495   4.125   0.973   1.107
 1866SOL     OW 6496   6.303   4.312   4.317
 1866SOL    HW1 6497   6.249   4.230   4.300
 1866SOL    HW2 6498   6.329   4.353   4.229
 1867SOL     OW 6499   2.591   2.851   1.424
 1867SOL    HW1 6500   2.594   2.945   1.389
 1867SOL    HW2 6501   2.528   2.797   1.369
 1868SOL     OW 6502   4.667   4.077   5.467
 1868SOL    HW1 6503   4.730   4.000   5.479
 1868SOL    HW2 6504   4.714   4.152   5.423
 1869SOL     OW 6505   5.370   2.828   4.000
 1869SOL    HW1 6506   5.278   2.828   4.038
 1869SOL    HW2 6507   5.384   2.910   3.945
 1870SOL     OW 6508   0.703   3.131   4.649
 1870SOL    HW1 6509   0.624   3.166   4.699
 1870SOL    HW2 6510   0.764   3.206   4.626
 1871SOL     OW 6511   6.711   6.414   0.288
 1871SOL    HW1 6512   6.729   6.385   0.382
 1871SOL    HW2 6513   6.727   6.512   0.279
 1872SOL     OW 6514   3.255   2.657   0.828
 1872SOL    HW1 6515   3.350   2.635   0.805
 1872SOL    HW2 6516   3.195   2.624   0.755
 1873SOL     OW 6517   6.299   0.973   6.769
 1873SOL    HW1 6518   6.207   0.990   6.734
 1873SOL    HW2 6519   6.315   0.875   6.773
 1874SOL     OW 6520   0.909   0.714   6.667
 1874SOL    HW1 6521   0.814   0.735   6.644
 1874SOL    HW2 6522   0.958   0.798   6.689
 1875SOL     OW 6523   6.494   5.974   0.642
 1875SOL    HW1 6524   6.414   5.979   0.702
 1875SOL    HW2 6525   6.516   6.066   0.609
 1876SOL     OW 6526   5.309   6.544   6.109
 1876SOL    HW1 6527   5.233   6.593   6.153
 1876SOL    HW2 6528   5.388   6.605   6.103
 1877SOL     OW 6529   0.062   1.311   2.448
 1877SOL    HW1 6530   0.079   1.377   2.375
 1877SOL    HW2 6531   7.007   1.342   2.504
 1878SOL     OW 6532   6.950   4.268   3.411
 1878SOL    HW1 6533   6.970   4.297   3.505
 1878SOL    HW2 6534   6.947   4.348   3.351
 1879SOL     OW 6535   2.758   5.013   3.837
 1879SOL    HW1 6536   2.771   5.018   3.936
 1879SOL    HW2 6537   2.812   4.938   3.799
 1880SOL     OW 6538   0.680   2.232   3.189
 1880SOL    HW1 6539   0.660   2.134   3.188
 1880SOL    HW2 6540   0.693   2.263   3.095
 1881SOL     OW 6541   0.735   2.384   3.652
 1881SOL    HW1 6542   0.688   2.468   3.680
 1881SOL    HW2 6543   0.833   2.402   3.642
 1882SOL     OW 6544   1.329   5.913   0.037
 1882SOL    HW1 6545   1.237   5.886   0.008
 1882SOL    HW2 6546   1.352   6.001   7.016
 1883SOL     OW 6547   1.480   3.618   2.973
 1883SOL    HW1 6548   1.383   3.596   2.987
 1883SOL    HW2 6549   1.488   3.691   2.905
 1884SOL     OW 6550   5.288   0.811   1.480
 1884SOL    HW1 6551   5.328   0.759   1.404
 1884SOL    HW2 6552   5.278   0.752   1.560
 1885SOL     OW 6553   6.709   1.983   0.816
 1885SOL    HW1 6554   6.648   2.002   0.893
 1885SOL    HW2 6555   6.757   1.896   0.832
 1886SOL     OW 6556   1.659   2.035   0.230
 1886SOL    HW1 6557   1.701   2.117   0.269
 1886SOL    HW2 6558   1.619   1.980   0.304
 1887SOL     OW 6559   0.099   4.273   6.121
 1887SOL    HW1 6560   0.017   4.257   6.066
 1887SOL    HW2 6561   0.074   4.279   6.218
 1888SOL     OW 6562   1.884   1.250   5.766
 1888SOL    HW1 6563   1.815   1.282   5.831
 1888SOL    HW2 6564   1.975   1.274   5.800
 1889SOL     OW 6565   4.317   3.590   0.036
 1889SOL    HW1 6566   4.370   3.608   6.974
 1889SOL    HW2 6567   4.220   3.584   0.014
 1890SOL     OW 6568   1.618   5.815   6.446
 1890SOL    HW1 6569   1.571   5.743   6.396
 1890SOL    HW2 6570   1.585   5.904   6.415
 1891SOL     OW 6571   5.304   2.669   5.551
 1891SOL    HW1 6572   5.207   2.668   5.575
 1891SOL    HW2 6573   5.350   2.593   5.597
 1892SOL     OW 6574   4.289   6.178   1.354
 1892SOL    HW1 6575   4.218   6.244   1.379
 1892SOL    HW2 6576   4.316   6.193   1.259
 1893SOL     OW 6577   3.565   2.079   4.484
 1893SOL    HW1 6578   3.647   2.077   4.541
 1893SOL    HW2 6579   3.492   2.128   4.533
 1894SOL     OW 6580   4.436   3.662   1.616
 1894SOL    HW1 6581   4.514   3.611   1.654
 1894SOL    HW2 6582   4.462   3.758   1.605
 1895SOL     OW 6583   6.053   0.427   2.327
 1895SOL    HW1 6584   6.087   0.365   2.257
 1895SOL    HW2 6585   6.092   0.518   2.313
 1896SOL     OW 6586   6.570   1.202   3.680
 1896SOL    HW1 6587   6.490   1.219   3.623
 1896SOL    HW2 6588   6.653   1.207   3.624
 1897SOL     OW 6589   0.048   5.296   3.623
 1897SOL    HW1 6590   0.056   5.231   3.548
 1897SOL    HW2 6591   0.073   5.252   3.709
 1898SOL     OW 6592   3.742   6.156   1.344
 1898SOL    HW1 6593   3.784   6.245   1.328
 1898SOL    HW2 6594   3.697   6.124   1.261
 1899SOL     OW 6595   0.643   3.904   2.785
 1899SOL    HW1 6596   0.550   3.889   2.818
 1899SOL    HW2 6597   0.672   3.828   2.728
 1900SOL     OW 6598   1.023   0.249   6.291
 1900SOL    HW1 6599   0.926   0.229   6.283
 1900SOL    HW2 6600   1.037   0.347   6.304
 1901SOL     OW 6601   2.317   1.513   0.318
 1901SOL    HW1 6602   2.285   1.432   0.367
 1901SOL    HW2 6603   2.302   1.499   0.220
 1902SOL     OW 6604   1.294   2.761   4.749
 1902SOL    HW1 6605   1.333   2.696   4.684
 1902SOL    HW2 6606   1.197   2.740   4.761
 1903SOL     OW 6607   0.193   3.867   3.266
 1903SOL    HW1 6608   0.100   3.854   3.233
 1903SOL    HW2 6609   0.205   3.818   3.352
 1904SOL     OW 6610   6.822   7.011   4.694
 1904SOL    HW1 6611   6.912   7.000   4.734
 1904SOL    HW2 6612   6.829   7.003   4.594
 1905SOL     OW 6613   0.159   2.648   3.477
 1905SOL    HW1 6614   0.198   2.560   3.502
 1905SOL    HW2 6615   0.068   2.657   3.518
 1906SOL     OW 6616   2.741   7.015   5.554
 1906SOL    HW1 6617   2.832   6.974   5.561
 1906SOL    HW2 6618   2.684   6.960   5.492
 1907SOL     OW 6619   3.020   7.017   3.614
 1907SOL    HW1 6620   3.072   6.964   3.681
 1907SOL    HW2 6621   2.954   0.054   3.661
 1908SOL     OW 6622   4.521   1.051   5.652
 1908SOL    HW1 6623   4.478   1.001   5.577
 1908SOL    HW2 6624   4.591   1.112   5.615
 1909SOL     OW 6625   2.228   4.375   4.489
 1909SOL    HW1 6626   2.193   4.288   4.452
 1909SOL    HW2 6627   2.221   4.446   4.418
 1910SOL     OW 6628   5.641   2.745   6.153
 1910SOL    HW1 6629   5.611   2.822   6.097
 1910SOL    HW2 6630   5.573   2.671   6.148
 1911SOL     OW 6631   6.450   2.007   5.339
 1911SOL    HW1 6632   6.386   1.994   5.263
 1911SOL    HW2 6633   6.447   2.102   5.369
 1912SOL     OW 6634   3.920   5.900   2.386
 1912SOL    HW1 6635   3.831   5.911   2.430
 1912SOL    HW2 6636   3.908   5.853   2.298
 1913SOL     OW 6637   1.910   6.596   5.281
 1913SOL    HW1 6638   1.986   6.660   5.295
 1913SOL    HW2 6639   1.893   6.586   5.183
 1914SOL     OW 6640   2.388   2.133   6.321
 1914SOL    HW1 6641   2.350   2.222   6.345
 1914SOL    HW2 6642   2.482   2.144   6.288
 1915SOL     OW 6643   3.618   1.489   5.774
 1915SOL    HW1 6644   3.566   1.518   5.855
 1915SOL    HW2 6645   3.697   1.550   5.762
 1916SOL     OW 6646   3.946   6.025   0.995
 1916SOL    HW1 6647   3.939   6.034   1.094
 1916SOL    HW2 6648   3.966   5.929   0.972
 1917SOL     OW 6649   3.647   3.189   4.827
 1917SOL    HW1 6650   3.612   3.192   4.733
 1917SOL    HW2 6651   3.602   3.115   4.877
 1918SOL     OW 6652   5.741   6.766   5.873
 1918SOL    HW1 6653   5.835   6.733   5.871
 1918SOL    HW2 6654   5.735   6.843   5.936
 1919SOL     OW 6655   1.600   6.508   1.727
 1919SOL    HW1 6656   1.688   6.556   1.727
 1919SOL    HW2 6657   1.549   6.533   1.810
 1920SOL     OW 6658   0.251   4.486   3.588
 1920SOL    HW1 6659   0.332   4.518   3.637
 1920SOL    HW2 6660   0.278   4.434   3.507
 1921SOL     OW 6661   0.017   5.127   6.859
 1921SOL    HW1 6662   6.955   5.166   6.818
 1921SOL    HW2 6663   0.057   5.061   6.795
 1922SOL     OW 6664   4.060   3.243   1.159
 1922SOL    HW1 6665   4.086   3.163   1.212
 1922SOL    HW2 6666   4.115   3.322   1.187
 1923SOL     OW 6667   3.366   1.162   0.247
 1923SOL    HW1 6668   3.324   1.200   0.165
 1923SOL    HW2 6669   3.366   1.062   0.242
 1924SOL     OW 6670   5.564   4.866   2.269
 1924SOL    HW1 6671   5.500   4.919   2.213
 1924SOL    HW2 6672   5.628   4.928   2.314
 1925SOL     OW 6673   2.812   3.717   1.791
 1925SOL    HW1 6674   2.713   3.730   1.778
 1925SOL    HW2 6675   2.860   3.801   1.766
 1926SOL     OW 6676   1.619   0.143   4.728
 1926SOL    HW1 6677   1.571   0.135   4.640
 1926SOL    HW2 6678   1.697   0.081   4.728
 1927SOL     OW 6679   3.698   5.062   6.184
 1927SOL    HW1 6680   3.778   5.052   6.243
 1927SOL    HW2 6681   3.721   5.118   6.104
 1928SOL     OW 6682   6.536   3.468   5.917
 1928SOL    HW1 6683   6.454   3.504   5.961
 1928SOL    HW2 6684   6.611   3.467   5.983
 1929SOL     OW 6685   0.602   5.407   1.524
 1929SOL    HW1 6686   0.699   5.418   1.545
 1929SOL    HW2 6687   0.563   5.495   1.496
 1930SOL     OW 6688   5.408   4.524   0.108
 1930SOL    HW1 6689   5.380   4.461   0.181
 1930SOL    HW2 6690   5.391   4.481   0.020
 1931SOL     OW 6691   0.165   3.554   3.152
 1931SOL    HW1 6692   0.198   3.581   3.062
 1931SOL    HW2 6693   0.076   3.596   3.170
 1932SOL     OW 6694   5.444   3.501   2.612
 1932SOL    HW1 6695   5.421   3.537   2.522
 1932SOL    HW2 6696   5.390   3.417   2.628
 1933SOL     OW 6697   2.478   4.640   1.551
 1933SOL    HW1 6698   2.496   4.720   1.608
 1933SOL    HW2 6699   2.486   4.557   1.607
 1934SOL     OW 6700   0.520   0.310   5.622
 1934SOL    HW1 6701   0.447   0.296   5.555
 1934SOL    HW2 6702   0.553   0.222   5.655
 1935SOL     OW 6703   3.213   0.232   5.047
 1935SOL    HW1 6704   3.311   0.231   5.031
 1935SOL    HW2 6705   3.181   0.327   5.052
 1936SOL     OW 6706   5.570   4.970   4.146
 1936SOL    HW1 6707   5.515   5.050   4.170
 1936SOL    HW2 6708   5.637   4.996   4.077
 1937SOL     OW 6709   3.882   6.853   1.883
 1937SOL    HW1 6710   3.804   6.808   1.928
 1937SOL    HW2 6711   3.942   6.892   1.952
 1938SOL     OW 6712   4.653   1.264   2.739
 1938SOL    HW1 6713   4.708   1.278   2.657
 1938SOL    HW2 6714   4.704   1.295   2.819
 1939SOL     OW 6715   0.602   6.923   4.145
 1939SOL    HW1 6716   0.613   6.943   4.242
 1939SOL    HW2 6717   0.506   6.935   4.120
 1940SOL     OW 6718   5.157   5.288   6.153
 1940SOL    HW1 6719   5.249   5.259   6.128
 1940SOL    HW2 6720   5.119   5.345   6.081
 1941SOL     OW 6721   6.965   3.741   3.133
 1941SOL    HW1 6722   6.882   3.795   3.143
 1941SOL    HW2 6723   7.007   3.760   3.045
 1942SOL     OW 6724   6.758   6.922   2.389
 1942SOL    HW1 6725   6.828   6.958   2.452
 1942SOL    HW2 6726   6.684   6.881   2.442
 1943SOL     OW 6727   3.133   6.130   2.199
 1943SOL    HW1 6728   3.120   6.165   2.106
 1943SOL    HW2 6729   3.088   6.191   2.265
 1944SOL     OW 6730   4.860   2.273   6.248
 1944SOL    HW1 6731   4.862   2.370   6.226
 1944SOL    HW2 6732   4.888   2.260   6.343
 1945SOL     OW 6733   3.818   5.565   2.800
 1945SOL    HW1 6734   3.910   5.524   2.800
 1945SOL    HW2 6735   3.805   5.617   2.715
 1946SOL     OW 6736   0.240   0.826   6.930
 1946SOL    HW1 6737   0.281   0.767   7.001
 1946SOL    HW2 6738   0.305   0.839   6.856
 1947SOL     OW 6739   5.415   6.438   3.814
 1947SOL    HW1 6740   5.478   6.513   3.793
 1947SOL    HW2 6741   5.337   6.442   3.752
 1948SOL     OW 6742   6.575   5.574   3.718
 1948SOL    HW1 6743   6.548   5.617   3.632
 1948SOL    HW2 6744   6.675   5.579   3.728
 1949SOL     OW 6745   4.347   4.417   5.817
 1949SOL    HW1 6746   4.343   4.471   5.733
 1949SOL    HW2 6747   4.318   4.323   5.799
 1950SOL     OW 6748   3.920   3.895   1.142
 1950SOL    HW1 6749   3.886   3.984   1.110
 1950SOL    HW2 6750   3.889   3.824   1.079
 1951SOL     OW 6751   6.468   3.105   0.385
 1951SOL    HW1 6752   6.500   3.187   0.433
 1951SOL    HW2 6753   6.546   3.058   0.344
 1952SOL     OW 6754   3.532   2.145   6.868
 1952SOL    HW1 6755   3.540   2.136   6.768
 1952SOL    HW2 6756   3.481   2.228   6.890
 1953SOL     OW 6757   6.329   2.397   6.394
 1953SOL    HW1 6758   6.344   2.472   6.458
 1953SOL    HW2 6759   6.412   2.343   6.386
 1954SOL     OW 6760   5.729   1.456   4.314
 1954SOL    HW1 6761   5.754   1.544   4.355
 1954SOL    HW2 6762   5.810   1.398   4.307
 1955SOL     OW 6763   1.207   0.158   2.195
 1955SOL    HW1 6764   1.185   0.062   2.212
 1955SOL    HW2 6765   1.124   0.207   2.168
 1956SOL     OW 6766   6.003   6.580   2.412
 1956SOL    HW1 6767   5.941   6.614   2.483
 1956SOL    HW2 6768   6.091   6.557   2.454
 1957SOL     OW 6769   6.479   4.646   4.782
 1957SOL    HW1 6770   6.420   4.683   4.854
 1957SOL    HW2 6771   6.423   4.594   4.717
 1958SOL     OW 6772   6.324   2.634   4.048
 1958SOL    HW1 6773   6.346   2.732   4.046
 1958SOL    HW2 6774   6.231   2.620   4.013
 1959SOL     OW 6775   0.029   2.064   6.123
 1959SOL    HW1 6776   0.011   1.968   6.099
 1959SOL    HW2 6777   0.082   2.068   6.208
 1960SOL     OW 6778   6.274   4.969   1.118
 1960SOL    HW1 6779   6.193   5.028   1.119
 1960SOL    HW2 6780   6.337   5.000   1.047
 1961SOL     OW 6781   5.492   4.449   4.148
 1961SOL    HW1 6782   5.557   4.381   4.183
 1961SOL    HW2 6783   5.487   4.526   4.212
 1962SOL     OW 6784   2.410   6.322   2.813
 1962SOL    HW1 6785   2.428   6.383   2.736
 1962SOL    HW2 6786   2.496   6.305   2.863
 1963SOL     OW 6787   0.643   0.810   1.380
 1963SOL    HW1 6788   0.586   0.739   1.424
 1963SOL    HW2 6789   0.733   0.811   1.423
 1964SOL     OW 6790   4.716   2.573   1.746
 1964SOL    HW1 6791   4.691   2.478   1.764
 1964SOL    HW2 6792   4.686   2.631   1.821
 1965SOL     OW 6793   0.939   3.431   3.073
 1965SOL    HW1 6794   0.886   3.413   2.990
 1965SOL    HW2 6795   1.024   3.478   3.049
 1966SOL     OW 6796   6.716   5.567   4.930
 1966SOL    HW1 6797   6.713   5.631   4.854
 1966SOL    HW2 6798   6.668   5.483   4.904
 1967SOL     OW 6799   4.429   1.922   5.418
 1967SOL    HW1 6800   4.391   1.833   5.391
 1967SOL    HW2 6801   4.366   1.995   5.390
 1968SOL     OW 6802   2.716   6.099   0.719
 1968SOL    HW1 6803   2.739   6.055   0.806
 1968SOL    HW2 6804   2.654   6.040   0.668
 1969SOL     OW 6805   0.549   1.665   1.348
 1969SOL    HW1 6806   0.521   1.569   1.340
 1969SOL    HW2 6807   0.497   1.709   1.421
 1970SOL     OW 6808   2.351   0.830   6.419
 1970SOL    HW1 6809   2.337   0.903   6.485
 1970SOL    HW2 6810   2.381   0.870   6.332
 1971SOL     OW 6811   5.945   6.588   6.133
 1971SOL    HW1 6812   5.965   6.627   6.043
 1971SOL    HW2 6813   5.888   6.507   6.122
 1972SOL     OW 6814   6.684   2.571   3.153
 1972SOL    HW1 6815   6.642   2.562   3.063
 1972SOL    HW2 6816   6.693   2.480   3.195
 1973SOL     OW 6817   2.681   3.448   1.109
 1973SOL    HW1 6818   2.624   3.482   1.034
 1973SOL    HW2 6819   2.644   3.481   1.196
 1974SOL     OW 6820   6.388   5.766   4.209
 1974SOL    HW1 6821   6.343   5.698   4.268
 1974SOL    HW2 6822   6.321   5.836   4.183
 1975SOL     OW 6823   2.278   1.326   3.312
 1975SOL    HW1 6824   2.191   1.291   3.346
 1975SOL    HW2 6825   2.344   1.331   3.388
 1976SOL     OW 6826   0.416   5.774   6.864
 1976SOL    HW1 6827   0.326   5.816   6.871
 1976SOL    HW2 6828   0.485   5.839   6.897
 1977SOL     OW 6829   1.697   2.793   3.477
 1977SOL    HW1 6830   1.776   2.783   3.416
 1977SOL    HW2 6831   1.729   2.801   3.572
 1978SOL     OW 6832   0.834   0.489   3.851
 1978SOL    HW1 6833   0.851   0.588   3.847
 1978SOL    HW2 6834   0.739   0.470   3.826
 1979SOL     OW 6835   6.733   3.895   4.777
 1979SOL    HW1 6836   6.699   3.987   4.760
 1979SOL    HW2 6837   6.806   3.873   4.713
 1980SOL     OW 6838   3.197   1.128   6.379
 1980SOL    HW1 6839   3.277   1.189   6.374
 1980SOL    HW2 6840   3.174   1.097   6.287
 1981SOL     OW 6841   5.884   2.071   2.585
 1981SOL    HW1 6842   5.968   2.125   2.579
 1981SOL    HW2 6843   5.872   2.039   2.679
 1982SOL     OW 6844   6.778   4.344   5.716
 1982SOL    HW1 6845   6.700   4.281   5.720
 1982SOL    HW2 6846   6.839   4.315   5.643
 1983SOL     OW 6847   1.119   2.125   2.742
 1983SOL    HW1 6848   1.130   2.148   2.839
 1983SOL    HW2 6849   1.022   2.122   2.718
 1984SOL     OW 6850   5.336   0.307   5.138
 1984SOL    HW1 6851   5.416   0.367   5.145
 1984SOL    HW2 6852   5.350   0.242   5.063
 1985SOL     OW 6853   0.975   0.896   2.416
 1985SOL    HW1 6854   1.016   0.813   2.378
 1985SOL    HW2 6855   1.047   0.961   2.441
 1986SOL     OW 6856   1.420   0.445   0.554
 1986SOL    HW1 6857   1.382   0.358   0.585
 1986SOL    HW2 6858   1.416   0.512   0.628
 1987SOL     OW 6859   1.642   3.400   1.997
 1987SOL    HW1 6860   1.694   3.329   1.950
 1987SOL    HW2 6861   1.544   3.378   1.993
 1988SOL     OW 6862   4.403   4.623   0.924
 1988SOL    HW1 6863   4.489   4.613   0.975
 1988SOL    HW2 6864   4.387   4.541   0.870
 1989SOL     OW 6865   2.592   6.560   5.347
 1989SOL    HW1 6866   2.600   6.636   5.282
 1989SOL    HW2 6867   2.558   6.479   5.299
 1990SOL     OW 6868   3.478   6.835   1.279
 1990SOL    HW1 6869   3.550   6.882   1.228
 1990SOL    HW2 6870   3.424   6.902   1.329
 1991SOL     OW 6871   4.244   4.963   6.200
 1991SOL    HW1 6872   4.259   4.864   6.204
 1991SOL    HW2 6873   4.171   4.982   6.133
 1992SOL     OW 6874   1.370   0.127   6.900
 1992SOL    HW1 6875   1.466   0.099   6.905
 1992SOL    HW2 6876   1.314   0.062   6.952
 1993SOL     OW 6877   4.213   3.609   5.350
 1993SOL    HW1 6878   4.191   3.706   5.365
 1993SOL    HW2 6879   4.153   3.572   5.280
 1994SOL     OW 6880   1.549   1.790   0.972
 1994SOL    HW1 6881   1.605   1.713   1.003
 1994SOL    HW2 6882   1.609   1.866   0.944
 1995SOL     OW 6883   5.863   2.549   1.336
 1995SOL    HW1 6884   5.909   2.532   1.424
 1995SOL    HW2 6885   5.917   2.510   1.262
 1996SOL     OW 6886   3.181   3.518   0.709
 1996SOL    HW1 6887   3.156   3.607   0.672
 1996SOL    HW2 6888   3.280   3.505   0.702
 1997SOL     OW 6889   5.213   0.247   5.738
 1997SOL    HW1 6890   5.125   0.204   5.756
 1997SOL    HW2 6891   5.222   0.329   5.795
 1998SOL     OW 6892   3.031   3.711   5.842
 1998SOL    HW1 6893   3.004   3.767   5.921
 1998SOL    HW2 6894   3.082   3.767   5.777
 1999SOL     OW 6895   2.629   7.008   1.852
 1999SOL    HW1 6896   2.659   0.048   1.926
 1999SOL    HW2 6897   2.647   0.031   1.764
 2000SOL     OW 6898   3.640   2.053   5.412
 2000SOL    HW1 6899   3.641   2.105   5.497
 2000SOL    HW2 6900   3.698   2.098   5.344
 2001SOL     OW 6901   3.565   2.109   1.755
 2001SOL    HW1 6902   3.618   2.126   1.838
 2001SOL    HW2 6903   3.519   2.193   1.727
 2002SOL     OW 6904   1.098   5.598   6.050
 2002SOL    HW1 6905   1.130   5.689   6.023
 2002SOL    HW2 6906   0.998   5.594   6.044
 2003SOL     OW 6907   5.626   0.083   3.212
 2003SOL    HW1 6908   5.668   7.014   3.210
 2003SOL    HW2 6909   5.564   0.093   3.134
 2004SOL     OW 6910   5.184   1.432   5.475
 2004SOL    HW1 6911   5.236   1.517   5.475
 2004SOL    HW2 6912   5.095   1.446   5.519
 2005SOL     OW 6913   1.010   5.284   6.690
 2005SOL    HW1 6914   1.031   5.377   6.718
 2005SOL    HW2 6915   1.009   5.278   6.591
 2006SOL     OW 6916   4.907   4.553   3.905
 2006SOL    HW1 6917   4.836   4.610   3.946
 2006SOL    HW2 6918   4.871   4.461   3.890
 2007SOL     OW 6919   4.486   5.844   0.629
 2007SOL    HW1 6920   4.534   5.776   0.573
 2007SOL    HW2 6921   4.389   5.823   0.631
 2008SOL     OW 6922   1.010   5.860   3.064
 2008SOL    HW1 6923   0.969   5.832   2.977
 2008SOL    HW2 6924   1.082   5.928   3.046
 2009SOL     OW 6925   6.644   6.949   1.229
 2009SOL    HW1 6926   6.703   0.000   1.265
 2009SOL    HW2 6927   6.696   6.864   1.223
 2010SOL     OW 6928   1.161   1.063   1.074
 2010SOL    HW1 6929   1.124   1.130   1.009
 2010SOL    HW2 6930   1.258   1.084   1.090
 2011SOL     OW 6931   0.108   1.871   4.943
 2011SOL    HW1 6932   0.075   1.812   4.869
 2011SOL    HW2 6933   0.126   1.962   4.907
 2012SOL     OW 6934   0.667   3.220   1.639
 2012SOL    HW1 6935   0.727   3.286   1.685
 2012SOL    HW2 6936   0.597   3.269   1.587
 2013SOL     OW 6937   5.741   0.331   3.287
 2013SOL    HW1 6938   5.706   0.237   3.291
 2013SOL    HW2 6939   5.763   0.354   3.192
 2014SOL     OW 6940   1.661   5.219   2.924
 2014SOL    HW1 6941   1.715   5.175   2.996
 2014SOL    HW2 6942   1.597   5.284   2.965
 2015SOL     OW 6943   2.350   1.293   6.552
 2015SOL    HW1 6944   2.436   1.277   6.601
 2015SOL    HW2 6945   2.357   1.378   6.500
 2016SOL     OW 6946   0.990   5.420   5.328
 2016SOL    HW1 6947   0.975   5.375   5.240
 2016SOL    HW2 6948   1.087   5.414   5.352
 2017SOL     OW 6949   2.927   6.427   4.470
 2017SOL    HW1 6950   2.912   6.330   4.484
 2017SOL    HW2 6951   2.838   6.474   4.465
 2018SOL     OW 6952   5.649   6.467   6.189
 2018SOL    HW1 6953   5.618   6.559   6.168
 2018SOL    HW2 6954   5.573   6.413   6.224
 2019SOL     OW 6955   4.401   2.378   2.436
 2019SOL    HW1 6956   4.316   2.347   2.477
 2019SOL    HW2 6957   4.396   2.365   2.337
 2020SOL     OW 6958   1.504   5.553   5.358
 2020SOL    HW1 6959   1.543   5.638   5.323
 2020SOL    HW2 6960   1.517   5.549   5.457
 2021SOL     OW 6961   2.176   6.340   3.643
 2021SOL    HW1 6962   2.243   6.415   3.649
 2021SOL    HW2 6963   2.214   6.258   3.685
 2022SOL     OW 6964   2.084   3.585   2.471
 2022SOL    HW1 6965   1.998   3.579   2.422
 2022SOL    HW2 6966   2.071   3.556   2.566
 2023SOL     OW 6967   6.809   1.558   6.860
 2023SOL    HW1 6968   6.895   1.572   6.810
 2023SOL    HW2 6969   6.811   1.468   6.906
 2024SOL     OW 6970   6.994   0.965   2.322
 2024SOL    HW1 6971   0.010   1.051   2.288
 2024SOL    HW2 6972   6.910   0.943   2.272
 2025SOL     OW 6973   2.232   2.770   2.274
 2025SOL    HW1 6974   2.176   2.763   2.191
 2025SOL    HW2 6975   2.198   2.845   2.330
 2026SOL     OW 6976   1.615   2.356   5.791
 2026SOL    HW1 6977   1.535   2.312   5.831
 2026SOL    HW2 6978   1.689   2.289   5.782
 2027SOL     OW 6979   1.110   1.256   1.344
 2027SOL    HW1 6980   1.022   1.217   1.318
 2027SOL    HW2 6981   1.183   1.192   1.320
 2028SOL     OW 6982   3.434   1.284   6.337
 2028SOL    HW1 6983   3.521   1.298   6.383
 2028SOL    HW2 6984   3.449   1.235   6.251
 2029SOL     OW 6985   6.774   0.317   0.537
 2029SOL    HW1 6986   6.675   0.316   0.546
 2029SOL    HW2 6987   6.809   0.407   0.564
 2030SOL     OW 6988   2.677   0.534   3.764
 2030SOL    HW1 6989   2.583   0.500   3.772
 2030SOL    HW2 6990   2.726   0.480   3.695
 2031SOL     OW 6991   5.106   6.266   2.501
 2031SOL    HW1 6992   5.157   6.217   2.572
 2031SOL    HW2 6993   5.060   6.200   2.442
 2032SOL     OW 6994   3.884   6.585   1.516
 2032SOL    HW1 6995   3.794   6.628   1.526
 2032SOL    HW2 6996   3.955   6.653   1.534
 2033SOL     OW 6997   3.649   4.829   6.937
 2033SOL    HW1 6998   3.577   4.894   6.961
 2033SOL    HW2 6999   3.623   4.780   6.854
 2034SOL     OW 7000   3.424   6.945   4.454
 2034SOL    HW1 7001   3.503   7.006   4.466
 2034SOL    HW2 7002   3.388   6.920   4.543
 2035SOL     OW 7003   0.434   0.923   2.410
 2035SOL    HW1 7004   0.516   0.979   2.421
 2035SOL    HW2 7005   0.363   0.977   2.364
 2036SOL     OW 7006   0.577   5.903   3.086
 2036SOL    HW1 7007   0.663   5.945   3.058
 2036SOL    HW2 7008   0.593   5.807   3.111
 2037SOL     OW 7009   0.469   2.265   6.265
 2037SOL    HW1 7010   0.511   2.256   6.175
 2037SOL    HW2 7011   0.387   2.321   6.258
 2038SOL     OW 7012   1.426   1.606   6.528
 2038SOL    HW1 7013   1.384   1.609   6.437
 2038SOL    HW2 7014   1.450   1.699   6.556
 2039SOL     OW 7015   0.029   4.761   2.130
 2039SOL    HW1 7016   0.114   4.798   2.168
 2039SOL    HW2 7017   0.038   4.748   2.032
 2040SOL     OW 7018   3.119   2.846   5.272
 2040SOL    HW1 7019   3.207   2.802   5.287
 2040SOL    HW2 7020   3.127   2.944   5.291
 2041SOL     OW 7021   6.724   6.127   5.576
 2041SOL    HW1 7022   6.685   6.046   5.619
 2041SOL    HW2 7023   6.814   6.146   5.615
 2042SOL     OW 7024   5.291   5.244   6.803
 2042SOL    HW1 7025   5.385   5.251   6.769
 2042SOL    HW2 7026   5.292   5.216   6.899
 2043SOL     OW 7027   6.648   4.174   2.440
 2043SOL    HW1 7028   6.570   4.225   2.403
 2043SOL    HW2 7029   6.633   4.076   2.426
 2044SOL     OW 7030   4.700   0.363   2.157
 2044SOL    HW1 7031   4.713   0.287   2.093
 2044SOL    HW2 7032   4.648   0.332   2.236
 2045SOL     OW 7033   1.864   4.622   5.330
 2045SOL    HW1 7034   1.863   4.690   5.257
 2045SOL    HW2 7035   1.880   4.531   5.292
 2046SOL     OW 7036   6.410   1.156   4.095
 2046SOL    HW1 7037   6.364   1.193   4.014
 2046SOL    HW2 7038   6.472   1.225   4.132
 2047SOL     OW 7039   4.402   2.317   0.426
 2047SOL    HW1 7040   4.422   2.265   0.509
 2047SOL    HW2 7041   4.316   2.368   0.438
 2048SOL     OW 7042   1.873   5.644   0.823
 2048SOL    HW1 7043   1.777   5.627   0.846
 2048SOL    HW2 7044   1.906   5.724   0.874
 2049SOL     OW 7045   4.409   1.419   6.372
 2049SOL    HW1 7046   4.357   1.475   6.437
 2049SOL    HW2 7047   4.505   1.445   6.375
 2050SOL     OW 7048   6.206   2.184   3.069
 2050SOL    HW1 7049   6.131   2.179   3.004
 2050SOL    HW2 7050   6.249   2.094   3.077
 2051SOL     OW 7051   0.068   5.578   0.855
 2051SOL    HW1 7052   0.165   5.556   0.844
 2051SOL    HW2 7053   0.042   5.563   0.950
 2052SOL     OW 7054   0.181   4.124   0.585
 2052SOL    HW1 7055   0.095   4.113   0.636
 2052SOL    HW2 7056   0.190   4.050   0.518
 2053SOL     OW 7057   6.305   0.736   6.145
 2053SOL    HW1 7058   6.307   0.827   6.104
 2053SOL    HW2 7059   6.267   0.670   6.081
 2054SOL     OW 7060   4.532   2.743   1.473
 2054SOL    HW1 7061   4.604   2.682   1.506
 2054SOL    HW2 7062   4.499   2.799   1.549
 2055SOL     OW 7063   6.397   3.035   2.496
 2055SOL    HW1 7064   6.450   2.969   2.443
 2055SOL    HW2 7065   6.456   3.113   2.518
 2056SOL     OW 7066   2.340   0.910   3.096
 2056SOL    HW1 7067   2.255   0.863   3.117
 2056SOL    HW2 7068   2.410   0.844   3.069
 2057SOL     OW 7069   5.541   2.769   3.243
 2057SOL    HW1 7070   5.551   2.682   3.196
 2057SOL    HW2 7071   5.445   2.797   3.241
 2058SOL     OW 7072   1.298   1.695   3.304
 2058SOL    HW1 7073   1.326   1.766   3.369
 2058SOL    HW2 7074   1.371   1.680   3.238
 2059SOL     OW 7075   2.599   6.151   6.777
 2059SOL    HW1 7076   2.670   6.187   6.716
 2059SOL    HW2 7077   2.548   6.080   6.730
 2060SOL     OW 7078   6.314   4.347   0.514
 2060SOL    HW1 7079   6.285   4.441   0.531
 2060SOL    HW2 7080   6.244   4.284   0.547
 2061SOL     OW 7081   0.954   1.749   2.806
 2061SOL    HW1 7082   1.003   1.787   2.885
 2061SOL    HW2 7083   1.020   1.714   2.739
 2062SOL     OW 7084   5.884   0.533   3.599
 2062SOL    HW1 7085   5.952   0.523   3.672
 2062SOL    HW2 7086   5.880   0.449   3.546
 2063SOL     OW 7087   1.922   0.089   6.125
 2063SOL    HW1 7088   1.877   0.058   6.209
 2063SOL    HW2 7089   1.900   0.185   6.109
 2064SOL     OW 7090   1.211   1.877   5.908
 2064SOL    HW1 7091   1.176   1.943   5.842
 2064SOL    HW2 7092   1.311   1.872   5.899
 2065SOL     OW 7093   6.806   3.586   3.444
 2065SOL    HW1 7094   6.888   3.632   3.409
 2065SOL    HW2 7095   6.830   3.496   3.480
 2066SOL     OW 7096   0.541   5.766   3.631
 2066SOL    HW1 7097   0.566   5.813   3.546
 2066SOL    HW2 7098   0.603   5.795   3.704
 2067SOL     OW 7099   6.609   5.477   0.772
 2067SOL    HW1 7100   6.527   5.484   0.829
 2067SOL    HW2 7101   6.586   5.503   0.678
 2068SOL     OW 7102   1.611   1.931   5.043
 2068SOL    HW1 7103   1.686   1.884   5.091
 2068SOL    HW2 7104   1.525   1.883   5.062
 2069SOL     OW 7105   0.627   3.057   3.385
 2069SOL    HW1 7106   0.675   3.138   3.353
 2069SOL    HW2 7107   0.680   3.013   3.458
 2070SOL     OW 7108   1.285   0.500   2.471
 2070SOL    HW1 7109   1.273   0.592   2.434
 2070SOL    HW2 7110   1.354   0.452   2.417
 2071SOL     OW 7111   6.580   6.147   5.174
 2071SOL    HW1 7112   6.593   6.054   5.138
 2071SOL    HW2 7113   6.519   6.198   5.114
 2072SOL     OW 7114   4.344   6.547   2.283
 2072SOL    HW1 7115   4.341   6.646   2.294
 2072SOL    HW2 7116   4.371   6.505   2.369
 2073SOL     OW 7117   3.992   0.108   4.333
 2073SOL    HW1 7118   4.015   0.205   4.333
 2073SOL    HW2 7119   4.036   0.063   4.255
 2074SOL     OW 7120   1.332   3.234   0.846
 2074SOL    HW1 7121   1.274   3.161   0.884
 2074SOL    HW2 7122   1.277   3.317   0.834
 2075SOL     OW 7123   5.127   2.996   1.467
 2075SOL    HW1 7124   5.078   3.082   1.460
 2075SOL    HW2 7125   5.129   2.952   1.377
 2076SOL     OW 7126   4.710   0.016   0.005
 2076SOL    HW1 7127   4.686   7.000   6.937
 2076SOL    HW2 7128   4.635   0.073   0.039
 2077SOL     OW 7129   5.236   2.042   2.820
 2077SOL    HW1 7130   5.244   2.125   2.765
 2077SOL    HW2 7131   5.319   2.031   2.876
 2078SOL     OW 7132   1.578   6.377   6.457
 2078SOL    HW1 7133   1.655   6.327   6.498
 2078SOL    HW2 7134   1.496   6.320   6.461
 2079SOL     OW 7135   5.824   1.535   3.190
 2079SOL    HW1 7136   5.793   1.630   3.183
 2079SOL    HW2 7137   5.844   1.514   3.285
 2080SOL     OW 7138   1.387   0.585   4.480
 2080SOL    HW1 7139   1.325   0.541   4.546
 2080SOL    HW2 7140   1.458   0.635   4.529
 2081SOL     OW 7141   2.203   5.560   4.556
 2081SOL    HW1 7142   2.140   5.486   4.531
 2081SOL    HW2 7143   2.256   5.533   4.636
 2082SOL     OW 7144   6.839   7.006   3.265
 2082SOL    HW1 7145   6.901   0.058   3.294
 2082SOL    HW2 7146   6.745   0.019   3.262
 2083SOL     OW 7147   4.996   4.878   6.590
 2083SOL    HW1 7148   4.991   4.846   6.685
 2083SOL    HW2 7149   5.047   4.964   6.587
 2084SOL     OW 7150   0.239   4.345   4.405
 2084SOL    HW1 7151   0.331   4.379   4.388
 2084SOL    HW2 7152   0.192   4.406   4.468
 2085SOL     OW 7153   4.783   0.995   6.656
 2085SOL    HW1 7154   4.792   0.897   6.674
 2085SOL    HW2 7155   4.794   1.045   6.742
 2086SOL     OW 7156   3.641   6.709   5.550
 2086SOL    HW1 7157   3.546   6.702   5.582
 2086SOL    HW2 7158   3.656   6.644   5.476
 2087SOL     OW 7159   5.102   6.982   1.522
 2087SOL    HW1 7160   5.178   6.920   1.504
 2087SOL    HW2 7161   5.024   6.955   1.465
 2088SOL     OW 7162   2.681   6.148   1.184
 2088SOL    HW1 7163   2.648   6.064   1.227
 2088SOL    HW2 7164   2.610   6.186   1.125
 2089SOL     OW 7165   5.455   2.382   6.562
 2089SOL    HW1 7166   5.357   2.404   6.563
 2089SOL    HW2 7167   5.506   2.454   6.609
 2090SOL     OW 7168   3.311   3.415   5.459
 2090SOL    HW1 7169   3.313   3.363   5.544
 2090SOL    HW2 7170   3.387   3.480   5.458
 2091SOL     OW 7171   6.819   5.401   0.311
 2091SOL    HW1 7172   6.814   5.314   0.263
 2091SOL    HW2 7173   6.795   5.388   0.407
 2092SOL     OW 7174   4.690   4.376   0.196
 2092SOL    HW1 7175   4.708   4.408   0.103
 2092SOL    HW2 7176   4.641   4.447   0.246
 2093SOL     OW 7177   2.755   2.533   1.706
 2093SOL    HW1 7178   2.832   2.500   1.762
 2093SOL    HW2 7179   2.785   2.610   1.650
 2094SOL     OW 7180   5.988   1.682   0.475
 2094SOL    HW1 7181   5.896   1.644   0.484
 2094SOL    HW2 7182   6.043   1.622   0.418
 2095SOL     OW 7183   5.067   0.431   5.016
 2095SOL    HW1 7184   5.125   0.372   5.072
 2095SOL    HW2 7185   5.036   0.380   4.936
 2096SOL     OW 7186   4.659   4.332   2.993
 2096SOL    HW1 7187   4.606   4.406   2.952
 2096SOL    HW2 7188   4.687   4.268   2.922
 2097SOL     OW 7189   2.218   2.995   6.804
 2097SOL    HW1 7190   2.240   3.085   6.841
 2097SOL    HW2 7191   2.301   2.941   6.795
 2098SOL     OW 7192   4.189   5.300   3.248
 2098SOL    HW1 7193   4.186   5.267   3.343
 2098SOL    HW2 7194   4.170   5.398   3.246
 2099SOL     OW 7195   2.654   3.121   5.346
 2099SOL    HW1 7196   2.730   3.111   5.281
 2099SOL    HW2 7197   2.572   3.077   5.308
 2100SOL     OW 7198   4.322   3.207   5.815
 2100SOL    HW1 7199   4.248   3.183   5.878
 2100SOL    HW2 7200   4.335   3.306   5.815
 2101SOL     OW 7201   1.772   6.060   2.692
 2101SOL    HW1 7202   1.847   6.085   2.754
 2101SOL    HW2 7203   1.727   5.977   2.725
 2102SOL     OW 7204   6.092   4.850   1.742
 2102SOL    HW1 7205   6.173   4.837   1.800
 2102SOL    HW2 7206   6.015   4.800   1.782
 2103SOL     OW 7207   3.140   3.961   6.274
 2103SOL    HW1 7208   3.113   3.918   6.188
 2103SOL    HW2 7209   3.117   3.901   6.350
 2104SOL     OW 7210   1.571   3.112   0.867
 2104SOL    HW1 7211   1.523   3.194   0.837
 2104SOL    HW2 7212   1.663   3.137   0.898
 2105SOL     OW 7213   4.974   6.114   4.820
 2105SOL    HW1 7214   4.920   6.192   4.790
 2105SOL    HW2 7215   5.066   6.119   4.780
 2106SOL     OW 7216   4.573   4.211   0.616
 2106SOL    HW1 7217   4.648   4.243   0.558
 2106SOL    HW2 7218   4.497   4.182   0.558
 2107SOL     OW 7219   5.591   2.830   5.536
 2107SOL    HW1 7220   5.611   2.732   5.525
 2107SOL    HW2 7221   5.495   2.847   5.516
 2108SOL     OW 7222   6.903   6.213   5.317
 2108SOL    HW1 7223   6.805   6.196   5.318
 2108SOL    HW2 7224   6.950   6.139   5.366
 2109SOL     OW 7225   4.203   6.401   2.855
 2109SOL    HW1 7226   4.189   6.324   2.917
 2109SOL    HW2 7227   4.156   6.482   2.891
 2110SOL     OW 7228   2.823   2.174   6.554
 2110SOL    HW1 7229   2.894   2.104   6.549
 2110SOL    HW2 7230   2.777   2.169   6.643
 2111SOL     OW 7231   1.192   2.515   0.002
 2111SOL    HW1 7232   1.268   2.494   0.064
 2111SOL    HW2 7233   1.124   2.570   0.050
 2112SOL     OW 7234   5.230   2.916   0.479
 2112SOL    HW1 7235   5.278   2.933   0.565
 2112SOL    HW2 7236   5.246   2.992   0.416
 2113SOL     OW 7237   0.912   1.225   5.336
 2113SOL    HW1 7238   0.974   1.243   5.412
 2113SOL    HW2 7239   0.855   1.146   5.358
 2114SOL     OW 7240   1.392   2.720   1.069
 2114SOL    HW1 7241   1.362   2.678   0.983
 2114SOL    HW2 7242   1.386   2.820   1.062
 2115SOL     OW 7243   2.128   3.252   2.428
 2115SOL    HW1 7244   2.108   3.248   2.330
 2115SOL    HW2 7245   2.112   3.344   2.462
 2116SOL     OW 7246   0.281   5.215   2.884
 2116SOL    HW1 7247   0.351   5.201   2.954
 2116SOL    HW2 7248   0.263   5.129   2.837
 2117SOL     OW 7249   6.316   4.824   1.879
 2117SOL    HW1 7250   6.361   4.824   1.968
 2117SOL    HW2 7251   6.384   4.825   1.806
 2118SOL     OW 7252   6.338   3.179   1.256
 2118SOL    HW1 7253   6.434   3.168   1.231
 2118SOL    HW2 7254   6.316   3.115   1.330
 2119SOL     OW 7255   2.398   5.830   1.077
 2119SOL    HW1 7256   2.307   5.866   1.094
 2119SOL    HW2 7257   2.393   5.731   1.064
 2120SOL     OW 7258   0.324   5.178   4.053
 2120SOL    HW1 7259   0.256   5.241   4.091
 2120SOL    HW2 7260   0.391   5.229   4.000
 2121SOL     OW 7261   1.045   3.952   5.687
 2121SOL    HW1 7262   1.008   3.953   5.780
 2121SOL    HW2 7263   1.133   4.000   5.685
 2122SOL     OW 7264   5.891   4.078   5.683
 2122SOL    HW1 7265   5.930   3.996   5.724
 2122SOL    HW2 7266   5.961   4.123   5.627
 2123SOL     OW 7267   6.519   5.757   1.906
 2123SOL    HW1 7268   6.422   5.735   1.903
 2123SOL    HW2 7269   6.566   5.711   1.831
 2124SOL     OW 7270   2.966   1.555   1.620
 2124SOL    HW1 7271   3.042   1.497   1.650
 2124SOL    HW2 7272   2.962   1.558   1.520
 2125SOL     OW 7273   1.976   0.501   1.449
 2125SOL    HW1 7274   1.974   0.467   1.543
 2125SOL    HW2 7275   1.895   0.468   1.400
 2126SOL     OW 7276   3.648   1.060   6.717
 2126SOL    HW1 7277   3.739   1.040   6.682
 2126SOL    HW2 7278   3.584   1.067   6.640
 2127SOL     OW 7279   6.649   3.275   4.178
 2127SOL    HW1 7280   6.604   3.223   4.251
 2127SOL    HW2 7281   6.745   3.291   4.204
 2128SOL     OW 7282   6.646   3.761   3.616
 2128SOL    HW1 7283   6.696   3.700   3.555
 2128SOL    HW2 7284   6.548   3.750   3.601
 2129SOL     OW 7285   4.257   3.577   5.690
 2129SOL    HW1 7286   4.308   3.531   5.762
 2129SOL    HW2 7287   4.314   3.650   5.651
 2130SOL     OW 7288   3.363   1.065   1.840
 2130SOL    HW1 7289   3.413   1.076   1.926
 2130SOL    HW2 7290   3.390   1.137   1.776
 2131SOL     OW 7291   6.550   0.114   0.212
 2131SOL    HW1 7292   6.625   0.178   0.196
 2131SOL    HW2 7293   6.501   0.140   0.294
 2132SOL     OW 7294   3.754   1.592   1.549
 2132SOL    HW1 7295   3.759   1.623   1.644
 2132SOL    HW2 7296   3.660   1.569   1.525
 2133SOL     OW 7297   2.769   3.516   6.901
 2133SOL    HW1 7298   2.707   3.581   6.946
 2133SOL    HW2 7299   2.838   3.566   6.849
 2134SOL     OW 7300   0.304   2.664   6.793
 2134SOL    HW1 7301   0.395   2.703   6.778
 2134SOL    HW2 7302   0.249   2.727   6.847
 2135SOL     OW 7303   6.984   4.100   4.079
 2135SOL    HW1 7304   7.019   4.007   4.094
 2135SOL    HW2 7305   6.957   4.140   4.166
 2136SOL     OW 7306   1.590   4.116   2.444
 2136SOL    HW1 7307   1.546   4.201   2.416
 2136SOL    HW2 7308   1.665   4.137   2.507
 2137SOL     OW 7309   2.354   5.719   5.550
 2137SOL    HW1 7310   2.355   5.638   5.491
 2137SOL    HW2 7311   2.369   5.691   5.645
 2138SOL     OW 7312   6.733   6.389   2.972
 2138SOL    HW1 7313   6.737   6.334   2.888
 2138SOL    HW2 7314   6.779   6.339   3.046
 2139SOL     OW 7315   4.926   0.853   3.960
 2139SOL    HW1 7316   4.935   0.952   3.953
 2139SOL    HW2 7317   4.854   0.830   4.025
 2140SOL     OW 7318   3.558   0.263   4.100
 2140SOL    HW1 7319   3.467   0.233   4.130
 2140SOL    HW2 7320   3.583   0.215   4.016
 2141SOL     OW 7321   6.330   3.030   2.164
 2141SOL    HW1 7322   6.371   2.997   2.079
 2141SOL    HW2 7323   6.321   3.130   2.161
 2142SOL     OW 7324   1.598   1.504   3.457
 2142SOL    HW1 7325   1.559   1.422   3.416
 2142SOL    HW2 7326   1.612   1.574   3.387
 2143SOL     OW 7327   3.168   4.798   1.349
 2143SOL    HW1 7328   3.233   4.869   1.323
 2143SOL    HW2 7329   3.207   4.708   1.327
 2144SOL     OW 7330   0.639   5.490   4.419
 2144SOL    HW1 7331   0.675   5.399   4.398
 2144SOL    HW2 7332   0.696   5.560   4.376
 2145SOL     OW 7333   4.223   6.669   4.111
 2145SOL    HW1 7334   4.171   6.693   4.029
 2145SOL    HW2 7335   4.172   6.697   4.192
 2146SOL     OW 7336   2.484   3.286   0.837
 2146SOL    HW1 7337   2.462   3.307   0.932
 2146SOL    HW2 7338   2.455   3.193   0.816
 2147SOL     OW 7339   6.303   1.626   5.837
 2147SOL    HW1 7340   6.354   1.543   5.816
 2147SOL    HW2 7341   6.281   1.628   5.935
 2148SOL     OW 7342   6.016   3.538   5.924
 2148SOL    HW1 7343   5.990   3.576   6.013
 2148SOL    HW2 7344   6.007   3.608   5.853
 2149SOL     OW 7345   2.791   1.682   0.873
 2149SOL    HW1 7346   2.796   1.685   0.773
 2149SOL    HW2 7347   2.877   1.646   0.909
 2150SOL     OW 7348   2.557   2.448   2.206
 2150SOL    HW1 7349   2.612   2.366   2.192
 2150SOL    HW2 7350   2.561   2.506   2.124
 2151SOL     OW 7351   1.819   6.772   6.205
 2151SOL    HW1 7352   1.913   6.797   6.228
 2151SOL    HW2 7353   1.819   6.688   6.151
 2152SOL     OW 7354   3.385   5.265   2.335
 2152SOL    HW1 7355   3.426   5.352   2.361
 2152SOL    HW2 7356   3.301   5.282   2.283
 2153SOL     OW 7357   4.948   1.415   2.776
 2153SOL    HW1 7358   4.936   1.510   2.807
 2153SOL    HW2 7359   4.992   1.362   2.848
 2154SOL     OW 7360   5.300   0.759   4.539
 2154SOL    HW1 7361   5.204   0.783   4.524
 2154SOL    HW2 7362   5.329   0.692   4.471
 2155SOL     OW 7363   3.733   6.648   1.208
 2155SOL    HW1 7364   3.725   6.731   1.263
 2155SOL    HW2 7365   3.802   6.588   1.248
 2156SOL     OW 7366   0.829   1.402   4.882
 2156SOL    HW1 7367   0.739   1.368   4.853
 2156SOL    HW2 7368   0.889   1.408   4.803
 2157SOL     OW 7369   5.800   7.010   2.886
 2157SOL    HW1 7370   5.843   6.920   2.884
 2157SOL    HW2 7371   5.799   0.028   2.794
 2158SOL     OW 7372   3.561   6.042   1.125
 2158SOL    HW1 7373   3.568   6.097   1.042
 2158SOL    HW2 7374   3.494   5.969   1.111
 2159SOL     OW 7375   1.428   0.401   4.967
 2159SOL    HW1 7376   1.397   0.326   4.908
 2159SOL    HW2 7377   1.492   0.458   4.916
 2160SOL     OW 7378   4.813   4.254   6.883
 2160SOL    HW1 7379   4.826   4.271   6.785
 2160SOL    HW2 7380   4.813   4.341   6.932
 2161SOL     OW 7381   5.629   4.660   2.577
 2161SOL    HW1 7382   5.660   4.572   2.613
 2161SOL    HW2 7383   5.552   4.645   2.515
 2162SOL     OW 7384   3.495   0.855   2.158
 2162SOL    HW1 7385   3.446   0.775   2.125
 2162SOL    HW2 7386   3.447   0.893   2.237
 2163SOL     OW 7387   1.948   4.343   0.051
 2163SOL    HW1 7388   1.973   4.295   0.135
 2163SOL    HW2 7389   1.932   4.440   0.072
 2164SOL     OW 7390   1.999   2.243   6.383
 2164SOL    HW1 7391   2.016   2.252   6.481
 2164SOL    HW2 7392   2.023   2.151   6.354
 2165SOL     OW 7393   6.992   2.174   3.330
 2165SOL    HW1 7394   7.000   2.119   3.414
 2165SOL    HW2 7395   6.972   2.114   3.253
 2166SOL     OW 7396   1.593   2.495   4.753
 2166SOL    HW1 7397   1.596   2.463   4.658
 2166SOL    HW2 7398   1.664   2.448   4.806
 2167SOL     OW 7399   1.532   1.942   3.207
 2167SOL    HW1 7400   1.440   1.982   3.209
 2167SOL    HW2 7401   1.589   1.985   3.276
 2168SOL     OW 7402   0.731   1.744   3.560
 2168SOL    HW1 7403   0.679   1.711   3.639
 2168SOL    HW2 7404   0.713   1.687   3.481
 2169SOL     OW 7405   5.765   2.314   6.717
 2169SOL    HW1 7406   5.824   2.315   6.637
 2169SOL    HW2 7407   5.727   2.405   6.731
 2170SOL     OW 7408   6.997   3.759   4.834
 2170SOL    HW1 7409   7.003   3.827   4.761
 2170SOL    HW2 7410   6.984   3.806   4.922
 2171SOL     OW 7411   0.155   5.268   1.511
 2171SOL    HW1 7412   0.105   5.212   1.578
 2171SOL    HW2 7413   0.111   5.260   1.422
 2172SOL     OW 7414   1.993   1.615   6.435
 2172SOL    HW1 7415   2.060   1.595   6.506
 2172SOL    HW2 7416   1.902   1.625   6.477
 2173SOL     OW 7417   4.269   0.655   5.311
 2173SOL    HW1 7418   4.257   0.683   5.216
 2173SOL    HW2 7419   4.305   0.562   5.314
 2174SOL     OW 7420   6.645   5.735   4.698
 2174SOL    HW1 7421   6.605   5.797   4.764
 2174SOL    HW2 7422   6.585   5.727   4.618
 2175SOL     OW 7423   1.865   2.108   4.499
 2175SOL    HW1 7424   1.794   2.143   4.561
 2175SOL    HW2 7425   1.955   2.125   4.538
 2176SOL     OW 7426   5.473   2.257   0.267
 2176SOL    HW1 7427   5.445   2.308   0.185
 2176SOL    HW2 7428   5.507   2.167   0.240
 2177SOL     OW 7429   6.993   1.753   2.967
 2177SOL    HW1 7430   0.012   1.729   3.056
 2177SOL    HW2 7431   0.038   1.732   2.894
 2178SOL     OW 7432   1.904   1.788   1.820
 2178SOL    HW1 7433   1.913   1.804   1.918
 2178SOL    HW2 7434   1.985   1.823   1.773
 2179SOL     OW 7435   1.993   5.105   5.693
 2179SOL    HW1 7436   1.926   5.090   5.620
 2179SOL    HW2 7437   2.063   5.168   5.661
 2180SOL     OW 7438   1.923   2.592   1.990
 2180SOL    HW1 7439   1.979   2.647   1.928
 2180SOL    HW2 7440   1.861   2.652   2.041
 2181SOL     OW 7441   4.625   5.047   4.502
 2181SOL    HW1 7442   4.675   5.068   4.418
 2181SOL    HW2 7443   4.685   5.058   4.580
 2182SOL     OW 7444   1.641   3.983   3.596
 2182SOL    HW1 7445   1.733   4.005   3.564
 2182SOL    HW2 7446   1.621   4.039   3.677
 2183SOL     OW 7447   2.030   4.696   6.373
 2183SOL    HW1 7448   2.028   4.788   6.413
 2183SOL    HW2 7449   1.938   4.671   6.344
 2184SOL     OW 7450   4.411   0.962   5.878
 2184SOL    HW1 7451   4.424   1.033   5.947
 2184SOL    HW2 7452   4.444   0.994   5.789
 2185SOL     OW 7453   0.400   0.267   1.074
 2185SOL    HW1 7454   0.410   0.334   1.001
 2185SOL    HW2 7455   0.440   0.180   1.046
 2186SOL     OW 7456   6.808   5.368   0.598
 2186SOL    HW1 7457   6.864   5.293   0.634
 2186SOL    HW2 7458   6.757   5.410   0.674
 2187SOL     OW 7459   6.778   6.069   2.521
 2187SOL    HW1 7460   6.736   6.148   2.476
 2187SOL    HW2 7461   6.707   6.011   2.559
 2188SOL     OW 7462   7.011   5.522   4.915
 2188SOL    HW1 7463   6.924   5.552   4.953
 2188SOL    HW2 7464   0.061   5.589   4.937
 2189SOL     OW 7465   2.070   0.251   1.354
 2189SOL    HW1 7466   2.064   0.298   1.266
 2189SOL    HW2 7467   2.094   0.316   1.426
 2190SOL     OW 7468   0.329   3.315   2.000
 2190SOL    HW1 7469   0.373   3.400   1.970
 2190SOL    HW2 7470   0.288   3.328   2.090
 2191SOL     OW 7471   2.722   1.639   6.660
 2191SOL    HW1 7472   2.766   1.607   6.576
 2191SOL    HW2 7473   2.653   1.708   6.638
 2192SOL     OW 7474   4.969   1.089   2.424
 2192SOL    HW1 7475   5.063   1.117   2.404
 2192SOL    HW2 7476   4.907   1.130   2.356
 2193SOL     OW 7477   5.498   6.524   6.659
 2193SOL    HW1 7478   5.570   6.500   6.594
 2193SOL    HW2 7479   5.484   6.623   6.659
 2194SOL     OW 7480   2.059   4.436   6.062
 2194SOL    HW1 7481   2.129   4.389   6.008
 2194SOL    HW2 7482   1.995   4.482   6.001
 2195SOL     OW 7483   6.869   6.984   5.206
 2195SOL    HW1 7484   6.796   6.948   5.147
 2195SOL    HW2 7485   6.880   6.924   5.286
 2196SOL     OW 7486   4.129   0.536   4.615
 2196SOL    HW1 7487   4.118   0.634   4.598
 2196SOL    HW2 7488   4.210   0.521   4.671
 2197SOL     OW 7489   2.903   3.352   0.051
 2197SOL    HW1 7490   2.932   3.413   0.125
 2197SOL    HW2 7491   2.835   3.398   7.015
 2198SOL     OW 7492   5.412   0.133   0.856
 2198SOL    HW1 7493   5.491   0.134   0.917
 2198SOL    HW2 7494   5.418   0.055   0.794
 2199SOL     OW 7495   5.444   6.722   3.590
 2199SOL    HW1 7496   5.373   6.653   3.604
 2199SOL    HW2 7497   5.402   6.813   3.587
 2200SOL     OW 7498   2.452   2.045   4.043
 2200SOL    HW1 7499   2.439   1.977   4.116
 2200SOL    HW2 7500   2.392   2.123   4.059
 2201SOL     OW 7501   6.438   2.706   3.503
 2201SOL    HW1 7502   6.349   2.750   3.515
 2201SOL    HW2 7503   6.494   2.761   3.441
 2202SOL     OW 7504   3.626   5.598   2.176
 2202SOL    HW1 7505   3.539   5.598   2.227
 2202SOL    HW2 7506   3.656   5.503   2.163
 2203SOL     OW 7507   1.812   2.836   0.636
 2203SOL    HW1 7508   1.909   2.841   0.659
 2203SOL    HW2 7509   1.784   2.922   0.594
 2204SOL     OW 7510   4.987   1.886   1.166
 2204SOL    HW1 7511   4.974   1.896   1.264
 2204SOL    HW2 7512   5.036   1.801   1.146
 2205SOL     OW 7513   0.509   6.261   6.398
 2205SOL    HW1 7514   0.536   6.313   6.479
 2205SOL    HW2 7515   0.579   6.269   6.328
 2206SOL     OW 7516   3.434   5.443   5.913
 2206SOL    HW1 7517   3.516   5.401   5.874
 2206SOL    HW2 7518   3.353   5.410   5.864
 2207SOL     OW 7519   2.871   5.288   6.665
 2207SOL    HW1 7520   2.970   5.298   6.674
 2207SOL    HW2 7521   2.845   5.295   6.568
 2208SOL     OW 7522   1.433   5.373   3.004
 2208SOL    HW1 7523   1.404   5.433   2.929
 2208SOL    HW2 7524   1.461   5.428   3.082
 2209SOL     OW 7525   1.296   0.196   5.696
 2209SOL    HW1 7526   1.317   0.099   5.693
 2209SOL    HW2 7527   1.251   0.224   5.612
 2210SOL     OW 7528   0.049   4.561   4.172
 2210SOL    HW1 7529   0.129   4.530   4.121
 2210SOL    HW2 7530   6.987   4.524   4.130
 2211SOL     OW 7531   6.504   0.277   0.591
 2211SOL    HW1 7532   6.449   0.207   0.544
 2211SOL    HW2 7533   6.459   0.365   0.585
 2212SOL     OW 7534   2.604   5.733   0.684
 2212SOL    HW1 7535   2.514   5.720   0.642
 2212SOL    HW2 7536   2.655   5.647   0.679
 2213SOL     OW 7537   3.269   1.546   4.969
 2213SOL    HW1 7538   3.246   1.635   4.927
 2213SOL    HW2 7539   3.215   1.534   5.052
 2214SOL     OW 7540   3.379   3.963   4.954
 2214SOL    HW1 7541   3.302   3.901   4.968
 2214SOL    HW2 7542   3.357   4.027   4.880
 2215SOL     OW 7543   5.819   1.686   0.049
 2215SOL    HW1 7544   5.887   1.620   0.081
 2215SOL    HW2 7545   5.847   1.778   0.076
 2216SOL     OW 7546   1.330   0.992   6.709
 2216SOL    HW1 7547   1.242   1.022   6.673
 2216SOL    HW2 7548   1.359   1.053   6.783
 2217SOL     OW 7549   4.034   6.748   2.494
 2217SOL    HW1 7550   4.122   6.791   2.478
 2217SOL    HW2 7551   3.966   6.818   2.516
 2218SOL     OW 7552   6.549   5.163   6.743
 2218SOL    HW1 7553   6.491   5.243   6.761
 2218SOL    HW2 7554   6.511   5.083   6.788
 2219SOL     OW 7555   5.431   1.548   0.610
 2219SOL    HW1 7556   5.438   1.629   0.551
 2219SOL    HW2 7557   5.391   1.574   0.697
 2220SOL     OW 7558   2.306   6.860   4.812
 2220SOL    HW1 7559   2.262   6.871   4.901
 2220SOL    HW2 7560   2.383   6.796   4.822
 2221SOL     OW 7561   6.130   1.543   5.422
 2221SOL    HW1 7562   6.186   1.497   5.353
 2221SOL    HW2 7563   6.173   1.630   5.446
 2222SOL     OW 7564   5.452   0.366   0.417
 2222SOL    HW1 7565   5.361   0.399   0.444
 2222SOL    HW2 7566   5.484   0.417   0.338
 2223SOL     OW 7567   5.756   1.463   5.268
 2223SOL    HW1 7568   5.816   1.475   5.188
 2223SOL    HW2 7569   5.770   1.372   5.306
 2224SOL     OW 7570   6.904   3.290   1.021
 2224SOL    HW1 7571   6.928   3.351   1.096
 2224SOL    HW2 7572   6.963   3.209   1.023
 2225SOL     OW 7573   6.298   6.885   3.693
 2225SOL    HW1 7574   6.330   6.882   3.787
 2225SOL    HW2 7575   6.362   6.939   3.638
 2226SOL     OW 7576   3.837   5.292   0.879
 2226SOL    HW1 7577   3.918   5.347   0.854
 2226SOL    HW2 7578   3.758   5.324   0.827
 2227SOL     OW 7579   5.509   3.179   6.950
 2227SOL    HW1 7580   5.528   3.202   0.024
 2227SOL    HW2 7581   5.411   3.188   6.932
 2228SOL     OW 7582   4.099   5.401   1.235
 2228SOL    HW1 7583   4.185   5.365   1.198
 2228SOL    HW2 7584   4.108   5.500   1.249
 2229SOL     OW 7585   4.378   2.559   5.408
 2229SOL    HW1 7586   4.401   2.592   5.316
 2229SOL    HW2 7587   4.331   2.630   5.458
 2230SOL     OW 7588   5.904   6.487   0.443
 2230SOL    HW1 7589   5.945   6.480   0.352
 2230SOL    HW2 7590   5.974   6.473   0.513
 2231SOL     OW 7591   0.413   1.133   1.538
 2231SOL    HW1 7592   0.383   1.205   1.475
 2231SOL    HW2 7593   0.357   1.137   1.621
 2232SOL     OW 7594   1.138   2.415   4.766
 2232SOL    HW1 7595   1.106   2.324   4.740
 2232SOL    HW2 7596   1.087   2.484   4.714
 2233SOL     OW 7597   1.709   2.746   0.162
 2233SOL    HW1 7598   1.805   2.730   0.137
 2233SOL    HW2 7599   1.651   2.680   0.113
 2234SOL     OW 7600   4.481   1.506   1.681
 2234SOL    HW1 7601   4.446   1.475   1.592
 2234SOL    HW2 7602   4.468   1.605   1.688
 2235SOL     OW 7603   2.965   0.302   1.434
 2235SOL    HW1 7604   2.976   0.211   1.395
 2235SOL    HW2 7605   3.051   0.353   1.424
 2236SOL     OW 7606   2.464   4.154   6.656
 2236SOL    HW1 7607   2.389   4.219   6.651
 2236SOL    HW2 7608   2.507   4.145   6.567
 2237SOL     OW 7609   6.013   4.745   3.800
 2237SOL    HW1 7610   5.954   4.704   3.730
 2237SOL    HW2 7611   6.079   4.806   3.755
 2238SOL     OW 7612   4.561   4.794   1.988
 2238SOL    HW1 7613   4.496   4.776   2.062
 2238SOL    HW2 7614   4.570   4.713   1.931
 2239SOL     OW 7615   3.704   5.007   4.179
 2239SOL    HW1 7616   3.648   5.089   4.163
 2239SOL    HW2 7617   3.645   4.928   4.191
 2240SOL     OW 7618   3.844   5.783   3.616
 2240SOL    HW1 7619   3.785   5.713   3.575
 2240SOL    HW2 7620   3.853   5.766   3.714
 2241SOL     OW 7621   0.955   5.461   3.454
 2241SOL    HW1 7622   1.013   5.419   3.384
 2241SOL    HW2 7623   0.942   5.558   3.433
 2242SOL     OW 7624   5.792   3.486   2.466
 2242SOL    HW1 7625   5.775   3.402   2.518
 2242SOL    HW2 7626   5.822   3.463   2.374
 2243SOL     OW 7627   1.493   6.373   5.940
 2243SOL    HW1 7628   1.488   6.455   5.996
 2243SOL    HW2 7629   1.401   6.335   5.930
 2244SOL     OW 7630   2.180   6.336   1.627
 2244SOL    HW1 7631   2.143   6.248   1.658
 2244SOL    HW2 7632   2.234   6.377   1.701
 2245SOL     OW 7633   0.565   1.812   1.114
 2245SOL    HW1 7634   0.538   1.754   1.191
 2245SOL    HW2 7635   0.641   1.872   1.142
 2246SOL     OW 7636   1.693   0.942   4.539
 2246SOL    HW1 7637   1.773   0.973   4.487
 2246SOL    HW2 7638   1.611   0.988   4.504
 2247SOL     OW 7639   3.604   2.897   3.874
 2247SOL    HW1 7640   3.668   2.969   3.849
 2247SOL    HW2 7641   3.655   2.816   3.903
 2248SOL     OW 7642   6.545   3.805   5.481
 2248SOL    HW1 7643   6.474   3.797   5.552
 2248SOL    HW2 7644   6.634   3.815   5.525
 2249SOL     OW 7645   5.622   6.650   3.840
 2249SOL    HW1 7646   5.622   6.731   3.781
 2249SOL    HW2 7647   5.709   6.602   3.831
 2250SOL     OW 7648   3.503   3.612   5.533
 2250SOL    HW1 7649   3.477   3.699   5.576
 2250SOL    HW2 7650   3.519   3.627   5.435
 2251SOL     OW 7651   5.110   0.486   6.400
 2251SOL    HW1 7652   5.147   0.530   6.318
 2251SOL    HW2 7653   5.083   0.392   6.379
 2252SOL     OW 7654   4.834   2.420   2.435
 2252SOL    HW1 7655   4.861   2.403   2.341
 2252SOL    HW2 7656   4.897   2.373   2.497
 2253SOL     OW 7657   0.239   3.918   6.713
 2253SOL    HW1 7658   0.290   3.834   6.696
 2253SOL    HW2 7659   0.221   3.926   6.811
 2254SOL     OW 7660   3.521   2.971   4.973
 2254SOL    HW1 7661   3.455   2.991   5.045
 2254SOL    HW2 7662   3.476   2.925   4.897
 2255SOL     OW 7663   4.122   3.193   6.038
 2255SOL    HW1 7664   4.035   3.239   6.019
 2255SOL    HW2 7665   4.174   3.245   6.105
 2256SOL     OW 7666   4.658   6.014   2.070
 2256SOL    HW1 7667   4.666   6.103   2.115
 2256SOL    HW2 7668   4.590   6.020   1.997
 2257SOL     OW 7669   0.360   2.692   4.256
 2257SOL    HW1 7670   0.426   2.618   4.245
 2257SOL    HW2 7671   0.319   2.686   4.347
 2258SOL     OW 7672   1.664   5.320   4.730
 2258SOL    HW1 7673   1.602   5.358   4.800
 2258SOL    HW2 7674   1.691   5.392   4.667
 2259SOL     OW 7675   5.073   3.468   6.307
 2259SOL    HW1 7676   5.050   3.556   6.349
 2259SOL    HW2 7677   5.167   3.470   6.274
 2260SOL     OW 7678   0.306   4.217   1.390
 2260SOL    HW1 7679   0.370   4.229   1.466
 2260SOL    HW2 7680   0.257   4.130   1.401
 2261SOL     OW 7681   5.887   5.012   0.105
 2261SOL    HW1 7682   5.905   4.919   0.072
 2261SOL    HW2 7683   5.804   5.047   0.063
 2262SOL     OW 7684   5.622   0.796   3.585
 2262SOL    HW1 7685   5.701   0.778   3.527
 2262SOL    HW2 7686   5.645   0.865   3.653
 2263SOL     OW 7687   3.083   6.154   6.807
 2263SOL    HW1 7688   2.995   6.201   6.810
 2263SOL    HW2 7689   3.139   6.193   6.733
 2264SOL     OW 7690   2.706   4.918   0.328
 2264SOL    HW1 7691   2.720   5.017   0.331
 2264SOL    HW2 7692   2.741   4.877   0.412
 2265SOL     OW 7693   1.335   0.660   4.215
 2265SOL    HW1 7694   1.354   0.671   4.313
 2265SOL    HW2 7695   1.313   0.565   4.196
 2266SOL     OW 7696   5.072   1.783   0.016
 2266SOL    HW1 7697   5.111   1.747   0.101
 2266SOL    HW2 7698   5.016   1.863   0.037
 2267SOL     OW 7699   4.787   2.034   4.986
 2267SOL    HW1 7700   4.689   2.020   4.999
 2267SOL    HW2 7701   4.816   2.118   5.031
 2268SOL     OW 7702   6.335   4.278   0.235
 2268SOL    HW1 7703   6.332   4.311   0.329
 2268SOL    HW2 7704   6.404   4.206   0.227
 2269SOL     OW 7705   6.480   4.723   5.424
 2269SOL    HW1 7706   6.522   4.799   5.475
 2269SOL    HW2 7707   6.384   4.744   5.406
 2270SOL     OW 7708   2.909   2.972   6.045
 2270SOL    HW1 7709   2.990   2.979   6.102
 2270SOL    HW2 7710   2.829   2.956   6.103
 2271SOL     OW 7711   5.337   4.055   0.361
 2271SOL    HW1 7712   5.262   4.063   0.426
 2271SOL    HW2 7713   5.407   4.124   0.381
 2272SOL     OW 7714   6.511   2.907   6.301
 2272SOL    HW1 7715   6.572   2.852   6.357
 2272SOL    HW2 7716   6.480   2.853   6.222
 2273SOL     OW 7717   1.875   1.870   2.102
 2273SOL    HW1 7718   1.828   1.957   2.093
 2273SOL    HW2 7719   1.935   1.872   2.183
 2274SOL     OW 7720   0.462   2.595   6.345
 2274SOL    HW1 7721   0.394   2.558   6.408
 2274SOL    HW2 7722   0.553   2.585   6.385
 2275SOL     OW 7723   6.660   6.976   4.210
 2275SOL    HW1 7724   6.606   0.016   4.267
 2275SOL    HW2 7725   6.654   6.883   4.245
 2276SOL     OW 7726   2.147   5.528   1.153
 2276SOL    HW1 7727   2.060   5.565   1.186
 2276SOL    HW2 7728   2.141   5.428   1.147
 2277SOL     OW 7729   3.779   3.455   4.274
 2277SOL    HW1 7730   3.721   3.481   4.350
 2277SOL    HW2 7731   3.735   3.481   4.188
 2278SOL     OW 7732   6.360   4.504   4.502
 2278SOL    HW1 7733   6.317   4.582   4.457
 2278SOL    HW2 7734   6.329   4.419   4.459
 2279SOL     OW 7735   5.831   6.608   5.580
 2279SOL    HW1 7736   5.834   6.656   5.667
 2279SOL    HW2 7737   5.763   6.535   5.584
 2280SOL     OW 7738   6.887   0.005   4.409
 2280SOL    HW1 7739   6.974   0.035   4.371
 2280SOL    HW2 7740   6.844   6.960   4.346
 2281SOL     OW 7741   3.301   1.531   2.192
 2281SOL    HW1 7742   3.211   1.572   2.181
 2281SOL    HW2 7743   3.351   1.579   2.264
 2282SOL     OW 7744   5.512   0.510   5.441
 2282SOL    HW1 7745   5.500   0.581   5.371
 2282SOL    HW2 7746   5.552   0.428   5.399
 2283SOL     OW 7747   0.708   5.113   1.436
 2283SOL    HW1 7748   0.775   5.182   1.408
 2283SOL    HW2 7749   0.618   5.155   1.442
 2284SOL     OW 7750   1.206   2.871   6.716
 2284SOL    HW1 7751   1.171   2.863   6.810
 2284SOL    HW2 7752   1.298   2.909   6.719
 2285SOL     OW 7753   2.097   2.323   1.054
 2285SOL    HW1 7754   2.187   2.299   1.091
 2285SOL    HW2 7755   2.106   2.341   0.956
 2286SOL     OW 7756   6.780   0.253   3.515
 2286SOL    HW1 7757   6.695   0.206   3.536
 2286SOL    HW2 7758   6.856   0.206   3.559
 2287SOL     OW 7759   2.085   0.535   3.190
 2287SOL    HW1 7760   2.125   0.472   3.123
 2287SOL    HW2 7761   2.111   0.629   3.168
 2288SOL     OW 7762   6.185   4.707   4.415
 2288SOL    HW1 7763   6.161   4.768   4.491
 2288SOL    HW2 7764   6.229   4.759   4.343
 2289SOL     OW 7765   1.004   4.900   1.718
 2289SOL    HW1 7766   0.988   4.994   1.687
 2289SOL    HW2 7767   0.992   4.837   1.642
 2290SOL     OW 7768   0.732   4.165   0.453
 2290SOL    HW1 7769   0.829   4.143   0.453
 2290SOL    HW2 7770   0.700   4.178   0.547
 2291SOL     OW 7771   2.761   2.693   5.960
 2291SOL    HW1 7772   2.748   2.745   6.044
 2291SOL    HW2 7773   2.792   2.754   5.887
 2292SOL     OW 7774   6.969   2.302   4.809
 2292SOL    HW1 7775   6.977   2.394   4.770
 2292SOL    HW2 7776   6.901   2.250   4.757
 2293SOL     OW 7777   4.562   6.319   1.390
 2293SOL    HW1 7778   4.616   6.297   1.472
 2293SOL    HW2 7779   4.485   6.255   1.383
 2294SOL     OW 7780   3.263   0.249   6.751
 2294SOL    HW1 7781   3.292   0.293   6.836
 2294SOL    HW2 7782   3.180   0.294   6.717
 2295SOL     OW 7783   0.835   2.089   2.936
 2295SOL    HW1 7784   0.826   1.990   2.936
 2295SOL    HW2 7785   0.792   2.127   2.854
 2296SOL     OW 7786   4.311   5.189   1.105
 2296SOL    HW1 7787   4.252   5.119   1.146
 2296SOL    HW2 7788   4.380   5.145   1.048
 2297SOL     OW 7789   4.030   4.142   5.434
 2297SOL    HW1 7790   3.958   4.158   5.367
 2297SOL    HW2 7791   3.995   4.161   5.526
 2298SOL     OW 7792   4.016   3.215   1.518
 2298SOL    HW1 7793   4.007   3.283   1.591
 2298SOL    HW2 7794   4.112   3.191   1.506
 2299SOL     OW 7795   4.372   5.986   5.349
 2299SOL    HW1 7796   4.396   6.000   5.253
 2299SOL    HW2 7797   4.431   6.044   5.406
 2300SOL     OW 7798   2.536   5.818   1.881
 2300SOL    HW1 7799   2.513   5.747   1.816
 2300SOL    HW2 7800   2.619   5.792   1.931
 2301SOL     OW 7801   3.113   3.040   3.032
 2301SOL    HW1 7802   3.150   3.051   2.940
 2301SOL    HW2 7803   3.043   3.110   3.048
 2302SOL     OW 7804   3.563   0.110   1.230
 2302SOL    HW1 7805   3.585   0.160   1.146
 2302SOL    HW2 7806   3.578   0.169   1.309
 2303SOL     OW 7807   2.663   2.715   6.401
 2303SOL    HW1 7808   2.665   2.771   6.484
 2303SOL    HW2 7809   2.568   2.699   6.375
 2304SOL     OW 7810   4.814   0.020   3.732
 2304SOL    HW1 7811   4.775   7.003   3.816
 2304SOL    HW2 7812   4.846   0.113   3.749
 2305SOL     OW 7813   2.487   6.568   3.218
 2305SOL    HW1 7814   2.487   6.480   3.267
 2305SOL    HW2 7815   2.402   6.577   3.167
 2306SOL     OW 7816   3.206   5.403   2.552
 2306SOL    HW1 7817   3.256   5.329   2.598
 2306SOL    HW2 7818   3.263   5.443   2.480
 2307SOL     OW 7819   6.686   3.786   2.564
 2307SOL    HW1 7820   6.607   3.833   2.525
 2307SOL    HW2 7821   6.707   3.705   2.509
 2308SOL     OW 7822   1.109   5.588   0.762
 2308SOL    HW1 7823   1.073   5.495   0.771
 2308SOL    HW2 7824   1.055   5.650   0.820
 2309SOL     OW 7825   1.220   0.440   6.424
 2309SOL    HW1 7826   1.300   0.402   6.379
 2309SOL    HW2 7827   1.192   0.380   6.499
 2310SOL     OW 7828   4.916   6.365   1.292
 2310SOL    HW1 7829   4.912   6.463   1.313
 2310SOL    HW2 7830   4.876   6.348   1.202
 2311SOL     OW 7831   2.280   5.805   1.962
 2311SOL    HW1 7832   2.379   5.812   1.959
 2311SOL    HW2 7833   2.243   5.872   2.026
 2312SOL     OW 7834   3.712   6.720   4.090
 2312SOL    HW1 7835   3.614   6.709   4.109
 2312SOL    HW2 7836   3.725   6.786   4.017
 2313SOL     OW 7837   5.129   5.346   1.334
 2313SOL    HW1 7838   5.147   5.293   1.417
 2313SOL    HW2 7839   5.143   5.443   1.353
 2314SOL     OW 7840   5.923   0.076   4.739
 2314SOL    HW1 7841   5.980   7.019   4.714
 2314SOL    HW2 7842   5.977   0.143   4.790
 2315SOL     OW 7843   4.755   3.117   5.361
 2315SOL    HW1 7844   4.804   3.056   5.298
 2315SOL    HW2 7845   4.721   3.063   5.438
 2316SOL     OW 7846   3.172   0.579   4.578
 2316SOL    HW1 7847   3.140   0.672   4.561
 2316SOL    HW2 7848   3.201   0.538   4.491
 2317SOL     OW 7849   0.603   6.090   3.732
 2317SOL    HW1 7850   0.515   6.080   3.686
 2317SOL    HW2 7851   0.647   6.176   3.704
 2318SOL     OW 7852   1.942   3.011   4.773
 2318SOL    HW1 7853   1.980   3.104   4.769
 2318SOL    HW2 7854   1.931   2.984   4.868
 2319SOL     OW 7855   2.147   4.961   4.456
 2319SOL    HW1 7856   2.230   4.925   4.416
 2319SOL    HW2 7857   2.170   5.020   4.534
 2320SOL     OW 7858   0.616   2.845   4.836
 2320SOL    HW1 7859   0.516   2.846   4.835
 2320SOL    HW2 7860   0.650   2.808   4.750
 2321SOL     OW 7861   2.200   6.447   6.912
 2321SOL    HW1 7862   2.264   6.372   6.928
 2321SOL    HW2 7863   2.153   6.469   6.997
 2322SOL     OW 7864   1.994   2.457   3.756
 2322SOL    HW1 7865   1.901   2.446   3.719
 2322SOL    HW2 7866   2.057   2.401   3.703
 2323SOL     OW 7867   2.995   5.028   1.932
 2323SOL    HW1 7868   3.013   5.011   1.835
 2323SOL    HW2 7869   3.025   4.948   1.985
 2324SOL     OW 7870   6.596   6.626   0.998
 2324SOL    HW1 7871   6.503   6.621   1.035
 2324SOL    HW2 7872   6.661   6.639   1.073
 2325SOL     OW 7873   0.744   4.542   1.135
 2325SOL    HW1 7874   0.691   4.525   1.052
 2325SOL    HW2 7875   0.839   4.517   1.119
 2326SOL     OW 7876   3.969   5.204   6.178
 2326SOL    HW1 7877   3.967   5.139   6.102
 2326SOL    HW2 7878   3.927   5.290   6.148
 2327SOL     OW 7879   6.690   2.377   3.716
 2327SOL    HW1 7880   6.632   2.436   3.772
 2327SOL    HW2 7881   6.712   2.294   3.767
 2328SOL     OW 7882   2.415   1.832   3.002
 2328SOL    HW1 7883   2.372   1.766   2.941
 2328SOL    HW2 7884   2.515   1.827   2.991
 2329SOL     OW 7885   1.872   4.375   4.710
 2329SOL    HW1 7886   1.839   4.352   4.618
 2329SOL    HW2 7887   1.950   4.437   4.702
 2330SOL     OW 7888   0.915   3.823   1.208
 2330SOL    HW1 7889   0.991   3.871   1.163
 2330SOL    HW2 7890   0.832   3.833   1.153
 2331SOL     OW 7891   4.209   5.494   6.798
 2331SOL    HW1 7892   4.237   5.475   6.704
 2331SOL    HW2 7893   4.119   5.456   6.815
 2332SOL     OW 7894   4.865   1.603   5.301
 2332SOL    HW1 7895   4.803   1.655   5.242
 2332SOL    HW2 7896   4.940   1.662   5.330
 2333SOL     OW 7897   0.558   4.862   2.750
 2333SOL    HW1 7898   0.483   4.857   2.684
 2333SOL    HW2 7899   0.591   4.770   2.770
 2334SOL     OW 7900   2.327   0.443   0.551
 2334SOL    HW1 7901   2.349   0.463   0.646
 2334SOL    HW2 7902   2.409   0.453   0.495
 2335SOL     OW 7903   6.671   0.673   2.381
 2335SOL    HW1 7904   6.688   0.586   2.336
 2335SOL    HW2 7905   6.687   0.748   2.316
 2336SOL     OW 7906   4.809   2.467   4.651
 2336SOL    HW1 7907   4.715   2.440   4.629
 2336SOL    HW2 7908   4.836   2.427   4.738
 2337SOL     OW 7909   4.749   1.251   2.128
 2337SOL    HW1 7910   4.792   1.271   2.040
 2337SOL    HW2 7911   4.659   1.210   2.112
 2338SOL     OW 7912   1.443   2.078   5.262
 2338SOL    HW1 7913   1.454   2.170   5.225
 2338SOL    HW2 7914   1.527   2.049   5.308
 2339SOL     OW 7915   3.669   3.695   4.648
 2339SOL    HW1 7916   3.599   3.705   4.719
 2339SOL    HW2 7917   3.711   3.784   4.630
 2340SOL     OW 7918   5.798   4.502   0.255
 2340SOL    HW1 7919   5.740   4.422   0.271
 2340SOL    HW2 7920   5.811   4.515   0.157
 2341SOL     OW 7921   4.405   4.980   1.458
 2341SOL    HW1 7922   4.330   4.953   1.398
 2341SOL    HW2 7923   4.368   5.016   1.544
 2342SOL     OW 7924   6.951   6.848   5.423
 2342SOL    HW1 7925   6.974   6.752   5.413
 2342SOL    HW2 7926   6.943   6.871   5.520
 2343SOL     OW 7927   2.527   5.532   2.459
 2343SOL    HW1 7928   2.464   5.544   2.382
 2343SOL    HW2 7929   2.527   5.614   2.515
 2344SOL     OW 7930   1.810   6.789   0.239
 2344SOL    HW1 7931   1.790   6.692   0.226
 2344SOL    HW2 7932   1.883   6.799   0.307
 2345SOL     OW 7933   2.795   5.107   4.515
 2345SOL    HW1 7934   2.826   5.148   4.429
 2345SOL    HW2 7935   2.843   5.149   4.592
 2346SOL     OW 7936   4.603   2.750   5.162
 2346SOL    HW1 7937   4.664   2.784   5.091
 2346SOL    HW2 7938   4.570   2.827   5.217
 2347SOL     OW 7939   2.613   3.375   1.709
 2347SOL    HW1 7940   2.679   3.433   1.661
 2347SOL    HW2 7941   2.540   3.433   1.747
 2348SOL     OW 7942   3.268   6.542   3.847
 2348SOL    HW1 7943   3.227   6.459   3.884
 2348SOL    HW2 7944   3.273   6.612   3.919
 2349SOL     OW 7945   0.943   4.171   6.058
 2349SOL    HW1 7946   0.995   4.217   5.986
 2349SOL    HW2 7947   0.935   4.233   6.137
 2350SOL     OW 7948   4.702   6.037   6.401
 2350SOL    HW1 7949   4.729   6.133   6.389
 2350SOL    HW2 7950   4.621   6.032   6.458
 2351SOL     OW 7951   3.141   4.902   3.519
 2351SOL    HW1 7952   3.113   4.896   3.615
 2351SOL    HW2 7953   3.240   4.912   3.514
 2352SOL     OW 7954   0.583   4.959   1.656
 2352SOL    HW1 7955   0.597   5.041   1.711
 2352SOL    HW2 7956   0.635   4.965   1.571
 2353SOL     OW 7957   3.303   4.524   5.326
 2353SOL    HW1 7958   3.255   4.445   5.290
 2353SOL    HW2 7959   3.271   4.607   5.279
 2354SOL     OW 7960   2.377   1.091   5.676
 2354SOL    HW1 7961   2.346   1.114   5.769
 2354SOL    HW2 7962   2.314   1.130   5.609
 2355SOL     OW 7963   2.081   5.870   0.401
 2355SOL    HW1 7964   2.077   5.782   0.355
 2355SOL    HW2 7965   2.018   5.870   0.479
 2356SOL     OW 7966   1.635   4.098   0.235
 2356SOL    HW1 7967   1.629   4.051   0.324
 2356SOL    HW2 7968   1.561   4.067   0.176
 2357SOL     OW 7969   4.473   6.391   3.632
 2357SOL    HW1 7970   4.409   6.396   3.709
 2357SOL    HW2 7971   4.431   6.432   3.551
 2358SOL     OW 7972   3.910   5.169   5.363
 2358SOL    HW1 7973   3.952   5.191   5.275
 2358SOL    HW2 7974   3.811   5.161   5.352
 2359SOL     OW 7975   0.159   0.670   6.128
 2359SOL    HW1 7976   0.190   0.586   6.173
 2359SOL    HW2 7977   0.141   0.740   6.197
 2360SOL     OW 7978   5.629   5.114   6.466
 2360SOL    HW1 7979   5.709   5.110   6.406
 2360SOL    HW2 7980   5.619   5.027   6.515
 2361SOL     OW 7981   2.531   0.760   4.914
 2361SOL    HW1 7982   2.441   0.768   4.871
 2361SOL    HW2 7983   2.575   0.850   4.919
 2362SOL     OW 7984   2.519   0.522   5.387
 2362SOL    HW1 7985   2.565   0.552   5.303
 2362SOL    HW2 7986   2.519   0.422   5.390
 2363SOL     OW 7987   4.232   2.253   5.454
 2363SOL    HW1 7988   4.170   2.175   5.445
 2363SOL    HW2 7989   4.210   2.303   5.538
 2364SOL     OW 7990   0.832   1.929   2.460
 2364SOL    HW1 7991   0.915   1.918   2.404
 2364SOL    HW2 7992   0.778   2.005   2.424
 2365SOL     OW 7993   5.796   2.791   6.779
 2365SOL    HW1 7994   5.775   2.700   6.741
 2365SOL    HW2 7995   5.803   2.857   6.704
 2366SOL     OW 7996   1.703   4.864   6.358
 2366SOL    HW1 7997   1.606   4.872   6.381
 2366SOL    HW2 7998   1.722   4.914   6.273
 2367SOL     OW 7999   3.241   4.513   0.981
 2367SOL    HW1 8000   3.233   4.424   0.935
 2367SOL    HW2 8001   3.151   4.544   1.010
 2368SOL     OW 8002   4.604   6.794   2.851
 2368SOL    HW1 8003   4.686   6.775   2.905
 2368SOL    HW2 8004   4.590   6.893   2.845
 2369SOL     OW 8005   1.041   2.967   5.759
 2369SOL    HW1 8006   1.018   2.880   5.802
 2369SOL    HW2 8007   0.992   2.977   5.673
 2370SOL     OW 8008   4.764   4.266   6.607
 2370SOL    HW1 8009   4.693   4.196   6.601
 2370SOL    HW2 8010   4.731   4.351   6.566
 2371SOL     OW 8011   0.734   6.463   2.273
 2371SOL    HW1 8012   0.747   6.563   2.270
 2371SOL    HW2 8013   0.644   6.440   2.237
 2372SOL     OW 8014   6.631   2.469   1.305
 2372SOL    HW1 8015   6.695   2.511   1.370
 2372SOL    HW2 8016   6.679   2.401   1.250
 2373SOL     OW 8017   0.488   1.106   0.258
 2373SOL    HW1 8018   0.476   1.012   0.292
 2373SOL    HW2 8019   0.495   1.169   0.336
 2374SOL     OW 8020   6.225   1.069   3.697
 2374SOL    HW1 8021   6.199   1.103   3.787
 2374SOL    HW2 8022   6.282   0.987   3.709
 2375SOL     OW 8023   2.366   6.978   4.216
 2375SOL    HW1 8024   2.410   0.024   4.275
 2375SOL    HW2 8025   2.400   6.886   4.238
 2376SOL     OW 8026   6.301   2.691   4.667
 2376SOL    HW1 8027   6.201   2.681   4.669
 2376SOL    HW2 8028   6.332   2.691   4.572
 2377SOL     OW 8029   3.310   3.789   3.098
 2377SOL    HW1 8030   3.252   3.736   3.160
 2377SOL    HW2 8031   3.252   3.830   3.027
 2378SOL     OW 8032   5.066   3.113   0.262
 2378SOL    HW1 8033   5.028   3.060   0.338
 2378SOL    HW2 8034   5.010   3.195   0.247
 2379SOL     OW 8035   5.784   2.431   6.306
 2379SOL    HW1 8036   5.803   2.515   6.357
 2379SOL    HW2 8037   5.854   2.418   6.236
 2380SOL     OW 8038   0.253   0.035   5.748
 2380SOL    HW1 8039   0.327   0.008   5.685
 2380SOL    HW2 8040   0.272   7.019   5.839
 2381SOL     OW 8041   2.144   3.676   4.468
 2381SOL    HW1 8042   2.079   3.750   4.454
 2381SOL    HW2 8043   2.226   3.692   4.413
 2382SOL     OW 8044   2.209   4.353   3.686
 2382SOL    HW1 8045   2.301   4.387   3.706
 2382SOL    HW2 8046   2.214   4.254   3.671
 2383SOL     OW 8047   5.704   6.450   0.959
 2383SOL    HW1 8048   5.731   6.544   0.941
 2383SOL    HW2 8049   5.612   6.448   0.997
 2384SOL     OW 8050   6.649   6.685   2.061
 2384SOL    HW1 8051   6.568   6.647   2.106
 2384SOL    HW2 8052   6.627   6.713   1.968
 2385SOL     OW 8053   7.001   6.566   1.195
 2385SOL    HW1 8054   0.019   6.630   1.128
 2385SOL    HW2 8055   0.026   6.478   1.187
 2386SOL     OW 8056   5.218   5.569   4.279
 2386SOL    HW1 8057   5.175   5.648   4.235
 2386SOL    HW2 8058   5.154   5.493   4.280
 2387SOL     OW 8059   0.903   1.355   4.073
 2387SOL    HW1 8060   0.916   1.378   3.976
 2387SOL    HW2 8061   0.984   1.383   4.125
 2388SOL     OW 8062   1.898   2.010   3.133
 2388SOL    HW1 8063   1.831   1.992   3.204
 2388SOL    HW2 8064   1.981   1.956   3.150
 2389SOL     OW 8065   5.331   3.730   3.300
 2389SOL    HW1 8066   5.397   3.665   3.337
 2389SOL    HW2 8067   5.317   3.712   3.203
 2390SOL     OW 8068   3.571   3.675   3.120
 2390SOL    HW1 8069   3.480   3.716   3.108
 2390SOL    HW2 8070   3.625   3.732   3.182
 2391SOL     OW 8071   5.202   5.069   5.825
 2391SOL    HW1 8072   5.139   5.000   5.862
 2391SOL    HW2 8073   5.150   5.135   5.772
 2392SOL     OW 8074   3.465   0.216   5.400
 2392SOL    HW1 8075   3.427   0.124   5.399
 2392SOL    HW2 8076   3.564   0.212   5.414
 2393SOL     OW 8077   4.322   4.684   6.228
 2393SOL    HW1 8078   4.392   4.695   6.299
 2393SOL    HW2 8079   4.253   4.619   6.259
 2394SOL     OW 8080   2.132   3.688   4.743
 2394SOL    HW1 8081   2.127   3.708   4.645
 2394SOL    HW2 8082   2.123   3.590   4.757
 2395SOL     OW 8083   6.089   2.549   6.384
 2395SOL    HW1 8084   6.126   2.598   6.305
 2395SOL    HW2 8085   6.154   2.479   6.413
 2396SOL     OW 8086   3.988   5.617   1.761
 2396SOL    HW1 8087   4.012   5.675   1.684
 2396SOL    HW2 8088   3.894   5.584   1.750
 2397SOL     OW 8089   0.386   4.168   6.793
 2397SOL    HW1 8090   0.327   4.091   6.768
 2397SOL    HW2 8091   0.431   4.149   6.880
 2398SOL     OW 8092   3.170   3.970   6.576
 2398SOL    HW1 8093   3.187   3.876   6.548
 2398SOL    HW2 8094   3.217   4.032   6.514
 2399SOL     OW 8095   4.707   1.300   2.388
 2399SOL    HW1 8096   4.739   1.394   2.401
 2399SOL    HW2 8097   4.732   1.268   2.297
 2400SOL     OW 8098   3.764   5.261   0.573
 2400SOL    HW1 8099   3.858   5.271   0.540
 2400SOL    HW2 8100   3.726   5.175   0.539
 2401SOL     OW 8101   4.194   6.763   6.337
 2401SOL    HW1 8102   4.242   6.725   6.417
 2401SOL    HW2 8103   4.097   6.772   6.358
 2402SOL     OW 8104   0.703   0.837   4.252
 2402SOL    HW1 8105   0.700   0.912   4.187
 2402SOL    HW2 8106   0.657   0.757   4.213
 2403SOL     OW 8107   2.350   2.427   0.867
 2403SOL    HW1 8108   2.437   2.410   0.821
 2403SOL    HW2 8109   2.368   2.449   0.963
 2404SOL     OW 8110   5.406   0.621   1.299
 2404SOL    HW1 8111   5.384   0.690   1.230
 2404SOL    HW2 8112   5.361   0.535   1.275
 2405SOL     OW 8113   3.608   3.439   3.013
 2405SOL    HW1 8114   3.698   3.404   3.038
 2405SOL    HW2 8115   3.599   3.534   3.042
 2406SOL     OW 8116   2.282   0.394   3.006
 2406SOL    HW1 8117   2.368   0.346   3.021
 2406SOL    HW2 8118   2.239   0.361   2.922
 2407SOL     OW 8119   5.564   2.556   3.036
 2407SOL    HW1 8120   5.554   2.459   3.013
 2407SOL    HW2 8121   5.492   2.608   2.990
 2408SOL     OW 8122   4.318   4.685   3.504
 2408SOL    HW1 8123   4.253   4.685   3.580
 2408SOL    HW2 8124   4.369   4.599   3.504
 2409SOL     OW 8125   1.399   3.323   1.805
 2409SOL    HW1 8126   1.364   3.409   1.842
 2409SOL    HW2 8127   1.364   3.309   1.713
 2410SOL     OW 8128   4.824   2.683   6.591
 2410SOL    HW1 8129   4.737   2.716   6.553
 2410SOL    HW2 8130   4.884   2.761   6.609
 2411SOL     OW 8131   4.563   5.402   5.693
 2411SOL    HW1 8132   4.569   5.501   5.707
 2411SOL    HW2 8133   4.621   5.376   5.616
 2412SOL     OW 8134   4.188   4.979   1.258
 2412SOL    HW1 8135   4.198   4.933   1.170
 2412SOL    HW2 8136   4.120   4.931   1.313
 2413SOL     OW 8137   6.451   2.079   0.317
 2413SOL    HW1 8138   6.498   1.991   0.322
 2413SOL    HW2 8139   6.395   2.082   0.234
 2414SOL     OW 8140   5.126   3.870   2.110
 2414SOL    HW1 8141   5.072   3.827   2.182
 2414SOL    HW2 8142   5.080   3.855   2.022
 2415SOL     OW 8143   0.499   0.211   2.005
 2415SOL    HW1 8144   0.516   0.117   2.034
 2415SOL    HW2 8145   0.419   0.214   1.944
 2416SOL     OW 8146   3.385   2.111   4.691
 2416SOL    HW1 8147   3.445   2.090   4.769
 2416SOL    HW2 8148   3.297   2.144   4.724
 2417SOL     OW 8149   3.944   3.163   5.659
 2417SOL    HW1 8150   3.981   3.246   5.701
 2417SOL    HW2 8151   3.894   3.186   5.576
 2418SOL     OW 8152   3.685   4.102   4.103
 2418SOL    HW1 8153   3.586   4.109   4.090
 2418SOL    HW2 8154   3.721   4.031   4.043
 2419SOL     OW 8155   1.174   6.043   4.156
 2419SOL    HW1 8156   1.258   5.988   4.156
 2419SOL    HW2 8157   1.159   6.081   4.247
 2420SOL     OW 8158   3.733   1.781   1.184
 2420SOL    HW1 8159   3.828   1.805   1.204
 2420SOL    HW2 8160   3.673   1.828   1.248
 2421SOL     OW 8161   2.441   1.628   5.143
 2421SOL    HW1 8162   2.422   1.629   5.045
 2421SOL    HW2 8163   2.526   1.676   5.162
 2422SOL     OW 8164   5.810   6.821   1.537
 2422SOL    HW1 8165   5.740   6.774   1.590
 2422SOL    HW2 8166   5.840   6.763   1.462
 2423SOL     OW 8167   1.551   6.404   3.680
 2423SOL    HW1 8168   1.623   6.339   3.704
 2423SOL    HW2 8169   1.508   6.376   3.594
 2424SOL     OW 8170   6.324   6.361   6.086
 2424SOL    HW1 8171   6.319   6.294   6.160
 2424SOL    HW2 8172   6.334   6.452   6.125
 2425SOL     OW 8173   6.532   0.410   4.025
 2425SOL    HW1 8174   6.586   0.340   4.070
 2425SOL    HW2 8175   6.520   0.488   4.087
 2426SOL     OW 8176   1.237   5.284   4.819
 2426SOL    HW1 8177   1.288   5.246   4.742
 2426SOL    HW2 8178   1.165   5.220   4.846
 2427SOL     OW 8179   5.487   5.670   6.400
 2427SOL    HW1 8180   5.453   5.763   6.388
 2427SOL    HW2 8181   5.466   5.615   6.319
 2428SOL     OW 8182   6.452   0.307   3.472
 2428SOL    HW1 8183   6.441   0.336   3.377
 2428SOL    HW2 8184   6.506   0.374   3.522
 2429SOL     OW 8185   6.252   5.568   4.330
 2429SOL    HW1 8186   6.153   5.582   4.336
 2429SOL    HW2 8187   6.270   5.474   4.302
 2430SOL     OW 8188   6.158   1.400   0.476
 2430SOL    HW1 8189   6.162   1.371   0.381
 2430SOL    HW2 8190   6.095   1.340   0.527
 2431SOL     OW 8191   3.805   0.182   2.137
 2431SOL    HW1 8192   3.734   0.113   2.151
 2431SOL    HW2 8193   3.856   0.162   2.054
 2432SOL     OW 8194   3.463   6.890   3.009
 2432SOL    HW1 8195   3.467   6.841   2.921
 2432SOL    HW2 8196   3.426   6.981   2.994
 2433SOL     OW 8197   3.304   0.092   1.106
 2433SOL    HW1 8198   3.311   0.017   1.040
 2433SOL    HW2 8199   3.358   0.070   1.187
 2434SOL     OW 8200   4.298   1.345   4.383
 2434SOL    HW1 8201   4.211   1.344   4.334
 2434SOL    HW2 8202   4.315   1.255   4.423
 2435SOL     OW 8203   4.259   5.169   5.853
 2435SOL    HW1 8204   4.356   5.173   5.829
 2435SOL    HW2 8205   4.237   5.244   5.916
 2436SOL     OW 8206   1.616   6.711   2.051
 2436SOL    HW1 8207   1.527   6.696   2.008
 2436SOL    HW2 8208   1.627   6.647   2.127
 2437SOL     OW 8209   4.106   6.172   0.817
 2437SOL    HW1 8210   4.105   6.111   0.737
 2437SOL    HW2 8211   4.074   6.121   0.897
 2438SOL     OW 8212   3.390   1.693   5.981
 2438SOL    HW1 8213   3.466   1.758   5.972
 2438SOL    HW2 8214   3.414   1.623   6.048
 2439SOL     OW 8215   0.845   4.300   6.737
 2439SOL    HW1 8216   0.781   4.252   6.678
 2439SOL    HW2 8217   0.839   4.264   6.830
 2440SOL     OW 8218   5.107   6.090   5.283
 2440SOL    HW1 8219   5.085   6.187   5.279
 2440SOL    HW2 8220   5.118   6.062   5.379
 2441SOL     OW 8221   6.674   6.885   0.150
 2441SOL    HW1 8222   6.761   6.902   0.105
 2441SOL    HW2 8223   6.625   6.971   0.162
 2442SOL     OW 8224   6.704   5.050   4.750
 2442SOL    HW1 8225   6.767   5.001   4.810
 2442SOL    HW2 8226   6.754   5.081   4.668
 2443SOL     OW 8227   3.809   6.503   5.227
 2443SOL    HW1 8228   3.745   6.522   5.153
 2443SOL    HW2 8229   3.894   6.553   5.212
 2444SOL     OW 8230   3.370   4.592   5.729
 2444SOL    HW1 8231   3.310   4.533   5.676
 2444SOL    HW2 8232   3.457   4.546   5.745
 2445SOL     OW 8233   0.339   0.925   1.790
 2445SOL    HW1 8234   0.322   0.876   1.705
 2445SOL    HW2 8235   0.285   1.009   1.792
 2446SOL     OW 8236   0.593   3.885   3.616
 2446SOL    HW1 8237   0.535   3.938   3.554
 2446SOL    HW2 8238   0.575   3.787   3.604
 2447SOL     OW 8239   2.870   1.961   0.889
 2447SOL    HW1 8240   2.894   1.868   0.861
 2447SOL    HW2 8241   2.879   2.023   0.811
 2448SOL     OW 8242   0.408   0.828   5.544
 2448SOL    HW1 8243   0.324   0.781   5.571
 2448SOL    HW2 8244   0.481   0.806   5.609
 2449SOL     OW 8245   0.091   4.760   1.502
 2449SOL    HW1 8246   0.188   4.774   1.526
 2449SOL    HW2 8247   0.051   4.693   1.565
 2450SOL     OW 8248   2.845   4.836   4.579
 2450SOL    HW1 8249   2.845   4.935   4.589
 2450SOL    HW2 8250   2.845   4.793   4.669
 2451SOL     OW 8251   0.714   0.254   3.364
 2451SOL    HW1 8252   0.619   0.242   3.339
 2451SOL    HW2 8253   0.767   0.282   3.284
 2452SOL     OW 8254   2.089   2.546   2.967
 2452SOL    HW1 8255   2.154   2.596   3.025
 2452SOL    HW2 8256   2.092   2.583   2.874
 2453SOL     OW 8257   6.475   3.567   0.840
 2453SOL    HW1 8258   6.508   3.543   0.932
 2453SOL    HW2 8259   6.442   3.485   0.794
 2454SOL     OW 8260   3.630   1.264   0.632
 2454SOL    HW1 8261   3.606   1.282   0.727
 2454SOL    HW2 8262   3.687   1.183   0.627
 2455SOL     OW 8263   5.552   6.630   0.627
 2455SOL    HW1 8264   5.605   6.592   0.702
 2455SOL    HW2 8265   5.461   6.657   0.661
 2456SOL     OW 8266   6.059   0.194   0.446
 2456SOL    HW1 8267   6.156   0.173   0.462
 2456SOL    HW2 8268   6.049   0.239   0.357
 2457SOL     OW 8269   6.932   6.241   0.695
 2457SOL    HW1 8270   6.933   6.170   0.625
 2457SOL    HW2 8271   6.867   6.313   0.668
 2458SOL     OW 8272   3.055   5.886   3.758
 2458SOL    HW1 8273   2.984   5.937   3.805
 2458SOL    HW2 8274   3.115   5.843   3.825
 2459SOL     OW 8275   2.494   6.874   0.639
 2459SOL    HW1 8276   2.477   6.887   0.737
 2459SOL    HW2 8277   2.407   6.855   0.592
 2460SOL     OW 8278   2.089   0.684   1.173
 2460SOL    HW1 8279   1.998   0.710   1.205
 2460SOL    HW2 8280   2.130   0.760   1.123
 2461SOL     OW 8281   4.839   0.704   2.766
 2461SOL    HW1 8282   4.874   0.641   2.697
 2461SOL    HW2 8283   4.740   0.697   2.769
 2462SOL     OW 8284   2.299   5.553   0.091
 2462SOL    HW1 8285   2.296   5.480   0.023
 2462SOL    HW2 8286   2.275   5.516   0.181
 2463SOL     OW 8287   5.653   2.430   4.169
 2463SOL    HW1 8288   5.564   2.426   4.123
 2463SOL    HW2 8289   5.684   2.525   4.171
 2464SOL     OW 8290   1.499   4.927   1.583
 2464SOL    HW1 8291   1.420   4.973   1.543
 2464SOL    HW2 8292   1.560   4.896   1.510
 2465SOL     OW 8293   6.396   5.973   1.114
 2465SOL    HW1 8294   6.333   5.903   1.081
 2465SOL    HW2 8295   6.346   6.039   1.170
 2466SOL     OW 8296   3.243   0.816   1.505
 2466SOL    HW1 8297   3.311   0.782   1.570
 2466SOL    HW2 8298   3.280   0.894   1.455
 2467SOL     OW 8299   5.231   1.755   5.749
 2467SOL    HW1 8300   5.320   1.772   5.705
 2467SOL    HW2 8301   5.158   1.789   5.689
 2468SOL     OW 8302   6.347   6.110   2.018
 2468SOL    HW1 8303   6.303   6.034   1.970
 2468SOL    HW2 8304   6.418   6.075   2.078
 2469SOL     OW 8305   3.650   5.113   5.335
 2469SOL    HW1 8306   3.592   5.092   5.414
 2469SOL    HW2 8307   3.593   5.134   5.256
 2470SOL     OW 8308   3.436   4.306   6.245
 2470SOL    HW1 8309   3.413   4.234   6.181
 2470SOL    HW2 8310   3.389   4.390   6.220
 2471SOL     OW 8311   2.151   6.604   1.905
 2471SOL    HW1 8312   2.147   6.691   1.854
 2471SOL    HW2 8313   2.212   6.541   1.858
 2472SOL     OW 8314   5.962   1.398   4.510
 2472SOL    HW1 8315   6.006   1.313   4.539
 2472SOL    HW2 8316   6.031   1.462   4.475
 2473SOL     OW 8317   1.894   4.030   4.789
 2473SOL    HW1 8318   1.857   3.974   4.863
 2473SOL    HW2 8319   1.987   4.001   4.768
 2474SOL     OW 8320   0.358   5.504   0.421
 2474SOL    HW1 8321   0.436   5.563   0.402
 2474SOL    HW2 8322   0.384   5.409   0.406
 2475SOL     OW 8323   4.764   1.607   1.173
 2475SOL    HW1 8324   4.725   1.531   1.225
 2475SOL    HW2 8325   4.691   1.672   1.150
 2476SOL     OW 8326   0.629   2.663   3.419
 2476SOL    HW1 8327   0.659   2.742   3.366
 2476SOL    HW2 8328   0.549   2.622   3.374
 2477SOL     OW 8329   6.280   0.516   1.898
 2477SOL    HW1 8330   6.261   0.456   1.976
 2477SOL    HW2 8331   6.327   0.465   1.827
 2478SOL     OW 8332   5.515   6.559   2.150
 2478SOL    HW1 8333   5.613   6.551   2.135
 2478SOL    HW2 8334   5.496   6.562   2.249
 2479SOL     OW 8335   0.834   3.661   1.494
 2479SOL    HW1 8336   0.781   3.726   1.549
 2479SOL    HW2 8337   0.772   3.609   1.436
 2480SOL     OW 8338   5.977   3.367   0.982
 2480SOL    HW1 8339   5.919   3.433   0.935
 2480SOL    HW2 8340   5.925   3.323   1.056
 2481SOL     OW 8341   3.275   6.695   0.254
 2481SOL    HW1 8342   3.281   6.654   0.163
 2481SOL    HW2 8343   3.182   6.684   0.290
 2482SOL     OW 8344   4.702   2.930   5.706
 2482SOL    HW1 8345   4.766   2.857   5.681
 2482SOL    HW2 8346   4.622   2.890   5.749
 2483SOL     OW 8347   2.523   1.574   0.538
 2483SOL    HW1 8348   2.464   1.612   0.467
 2483SOL    HW2 8349   2.608   1.626   0.543
 2484SOL     OW 8350   2.081   0.572   0.586
 2484SOL    HW1 8351   2.094   0.632   0.666
 2484SOL    HW2 8352   2.167   0.524   0.567
 2485SOL     OW 8353   4.488   5.237   2.228
 2485SOL    HW1 8354   4.583   5.257   2.251
 2485SOL    HW2 8355   4.431   5.245   2.309
 2486SOL     OW 8356   2.781   6.061   2.942
 2486SOL    HW1 8357   2.706   6.008   2.980
 2486SOL    HW2 8358   2.778   6.058   2.842
 2487SOL     OW 8359   3.763   5.767   0.074
 2487SOL    HW1 8360   3.703   5.809   0.141
 2487SOL    HW2 8361   3.759   5.818   7.009
 2488SOL     OW 8362   2.477   4.436   1.714
 2488SOL    HW1 8363   2.487   4.343   1.749
 2488SOL    HW2 8364   2.462   4.499   1.790
 2489SOL     OW 8365   2.329   4.804   4.229
 2489SOL    HW1 8366   2.421   4.772   4.252
 2489SOL    HW2 8367   2.326   4.831   4.133
 2490SOL     OW 8368   6.382   5.395   1.146
 2490SOL    HW1 8369   6.468   5.351   1.171
 2490SOL    HW2 8370   6.381   5.489   1.181
 2491SOL     OW 8371   2.213   5.447   3.224
 2491SOL    HW1 8372   2.186   5.544   3.227
 2491SOL    HW2 8373   2.312   5.440   3.219
 2492SOL     OW 8374   3.697   3.021   6.560
 2492SOL    HW1 8375   3.694   3.046   6.463
 2492SOL    HW2 8376   3.785   2.978   6.581
 2493SOL     OW 8377   5.950   0.129   3.046
 2493SOL    HW1 8378   5.884   0.082   2.987
 2493SOL    HW2 8379   5.945   0.092   3.139
 2494SOL     OW 8380   5.487   2.967   2.700
 2494SOL    HW1 8381   5.575   2.939   2.663
 2494SOL    HW2 8382   5.420   2.975   2.626
 2495SOL     OW 8383   5.021   0.504   5.396
 2495SOL    HW1 8384   5.002   0.542   5.486
 2495SOL    HW2 8385   5.074   0.570   5.342
 2496SOL     OW 8386   0.419   5.182   0.033
 2496SOL    HW1 8387   0.370   5.199   6.968
 2496SOL    HW2 8388   0.448   5.270   0.073
 2497SOL     OW 8389   0.309   2.072   6.895
 2497SOL    HW1 8390   0.336   2.157   6.940
 2497SOL    HW2 8391   0.213   2.053   6.914
 2498SOL     OW 8392   2.338   2.293   3.697
 2498SOL    HW1 8393   2.353   2.388   3.671
 2498SOL    HW2 8394   2.241   2.269   3.682
 2499SOL     OW 8395   5.771   0.811   4.654
 2499SOL    HW1 8396   5.673   0.831   4.654
 2499SOL    HW2 8397   5.786   0.713   4.668
 2500SOL     OW 8398   4.437   3.937   5.524
 2500SOL    HW1 8399   4.515   3.982   5.478
 2500SOL    HW2 8400   4.450   3.838   5.522
 2501SOL     OW 8401   6.126   4.679   6.760
 2501SOL    HW1 8402   6.131   4.776   6.784
 2501SOL    HW2 8403   6.032   4.646   6.770
 2502SOL     OW 8404   2.887   6.348   3.446
 2502SOL    HW1 8405   2.930   6.258   3.451
 2502SOL    HW2 8406   2.795   6.343   3.485
 2503SOL     OW 8407   3.914   5.956   5.570
 2503SOL    HW1 8408   3.913   5.856   5.579
 2503SOL    HW2 8409   3.998   5.985   5.525
 2504SOL     OW 8410   2.369   5.460   5.176
 2504SOL    HW1 8411   2.424   5.506   5.106
 2504SOL    HW2 8412   2.362   5.363   5.153
 2505SOL     OW 8413   3.375   6.348   4.537
 2505SOL    HW1 8414   3.289   6.375   4.494
 2505SOL    HW2 8415   3.393   6.408   4.615
 2506SOL     OW 8416   0.268   3.685   6.127
 2506SOL    HW1 8417   0.346   3.647   6.175
 2506SOL    HW2 8418   0.194   3.703   6.192
 2507SOL     OW 8419   6.145   4.918   6.905
 2507SOL    HW1 8420   6.091   4.976   6.844
 2507SOL    HW2 8421   6.228   4.967   6.932
 2508SOL     OW 8422   2.768   1.777   1.938
 2508SOL    HW1 8423   2.795   1.688   1.975
 2508SOL    HW2 8424   2.840   1.810   1.876
 2509SOL     OW 8425   5.376   1.862   2.512
 2509SOL    HW1 8426   5.314   1.936   2.487
 2509SOL    HW2 8427   5.335   1.809   2.587
 2510SOL     OW 8428   2.373   4.134   0.602
 2510SOL    HW1 8429   2.354   4.119   0.505
 2510SOL    HW2 8430   2.290   4.161   0.650
 2511SOL     OW 8431   1.504   1.544   4.928
 2511SOL    HW1 8432   1.590   1.595   4.935
 2511SOL    HW2 8433   1.456   1.569   4.844
 2512SOL     OW 8434   5.910   4.314   4.994
 2512SOL    HW1 8435   5.969   4.385   4.955
 2512SOL    HW2 8436   5.965   4.232   5.012
 2513SOL     OW 8437   1.378   2.464   6.067
 2513SOL    HW1 8438   1.342   2.530   6.002
 2513SOL    HW2 8439   1.466   2.496   6.102
 2514SOL     OW 8440   0.319   2.821   3.667
 2514SOL    HW1 8441   0.319   2.921   3.660
 2514SOL    HW2 8442   0.307   2.781   3.576
 2515SOL     OW 8443   1.407   6.489   1.116
 2515SOL    HW1 8444   1.312   6.513   1.094
 2515SOL    HW2 8445   1.469   6.557   1.075
 2516SOL     OW 8446   5.995   5.623   3.597
 2516SOL    HW1 8447   5.986   5.716   3.562
 2516SOL    HW2 8448   5.907   5.591   3.632
 2517SOL     OW 8449   2.483   5.310   6.276
 2517SOL    HW1 8450   2.386   5.306   6.256
 2517SOL    HW2 8451   2.515   5.221   6.307
 2518SOL     OW 8452   2.036   3.238   0.001
 2518SOL    HW1 8453   2.076   3.203   0.086
 2518SOL    HW2 8454   2.108   3.255   6.956
 2519SOL     OW 8455   4.762   5.093   4.259
 2519SOL    HW1 8456   4.755   5.065   4.163
 2519SOL    HW2 8457   4.857   5.087   4.289
 2520SOL     OW 8458   1.494   2.548   1.264
 2520SOL    HW1 8459   1.525   2.462   1.223
 2520SOL    HW2 8460   1.455   2.606   1.193
 2521SOL     OW 8461   0.844   0.032   5.645
 2521SOL    HW1 8462   0.901   7.008   5.714
 2521SOL    HW2 8463   0.902   0.084   5.582
 2522SOL     OW 8464   0.888   3.342   4.596
 2522SOL    HW1 8465   0.854   3.426   4.637
 2522SOL    HW2 8466   0.920   3.360   4.503
 2523SOL     OW 8467   6.661   2.854   0.695
 2523SOL    HW1 8468   6.664   2.857   0.595
 2523SOL    HW2 8469   6.575   2.812   0.725
 2524SOL     OW 8470   0.120   6.578   4.722
 2524SOL    HW1 8471   0.047   6.615   4.779
 2524SOL    HW2 8472   0.122   6.478   4.730
 2525SOL     OW 8473   1.672   3.064   4.272
 2525SOL    HW1 8474   1.595   3.097   4.216
 2525SOL    HW2 8475   1.747   3.129   4.265
 2526SOL     OW 8476   0.528   2.924   5.341
 2526SOL    HW1 8477   0.587   2.877   5.275
 2526SOL    HW2 8478   0.545   3.023   5.335
 2527SOL     OW 8479   6.244   0.115   5.343
 2527SOL    HW1 8480   6.224   0.081   5.434
 2527SOL    HW2 8481   6.302   0.196   5.349
 2528SOL     OW 8482   5.768   4.715   1.536
 2528SOL    HW1 8483   5.713   4.676   1.462
 2528SOL    HW2 8484   5.850   4.758   1.497
 2529SOL     OW 8485   5.611   4.854   5.773
 2529SOL    HW1 8486   5.572   4.862   5.681
 2529SOL    HW2 8487   5.539   4.830   5.838
 2530SOL     OW 8488   0.866   6.202   4.444
 2530SOL    HW1 8489   0.781   6.198   4.392
 2530SOL    HW2 8490   0.846   6.223   4.540
 2531SOL     OW 8491   5.590   6.701   4.598
 2531SOL    HW1 8492   5.540   6.717   4.683
 2531SOL    HW2 8493   5.577   6.777   4.536
 2532SOL     OW 8494   0.644   5.359   0.263
 2532SOL    HW1 8495   0.573   5.314   0.316
 2532SOL    HW2 8496   0.733   5.342   0.305
 2533SOL     OW 8497   5.366   6.567   5.050
 2533SOL    HW1 8498   5.451   6.540   5.095
 2533SOL    HW2 8499   5.299   6.493   5.058
 2534SOL     OW 8500   2.310   0.698   3.366
 2534SOL    HW1 8501   2.234   0.689   3.302
 2534SOL    HW2 8502   2.293   0.642   3.447
 2535SOL     OW 8503   2.015   1.920   6.366
 2535SOL    HW1 8504   1.983   1.837   6.319
 2535SOL    HW2 8505   2.114   1.913   6.380
 2536SOL     OW 8506   0.319   1.621   3.232
 2536SOL    HW1 8507   0.220   1.630   3.240
 2536SOL    HW2 8508   0.363   1.702   3.271
 2537SOL     OW 8509   4.926   6.484   0.419
 2537SOL    HW1 8510   4.918   6.404   0.480
 2537SOL    HW2 8511   4.887   6.564   0.464
 2538SOL     OW 8512   1.777   4.420   5.181
 2538SOL    HW1 8513   1.803   4.340   5.129
 2538SOL    HW2 8514   1.734   4.487   5.121
 2539SOL     OW 8515   4.217   6.838   5.399
 2539SOL    HW1 8516   4.254   6.796   5.482
 2539SOL    HW2 8517   4.246   6.933   5.394
 2540SOL     OW 8518   5.474   1.194   1.179
 2540SOL    HW1 8519   5.433   1.151   1.099
 2540SOL    HW2 8520   5.463   1.135   1.259
 2541SOL     OW 8521   1.415   0.448   5.552
 2541SOL    HW1 8522   1.434   0.543   5.578
 2541SOL    HW2 8523   1.321   0.442   5.516
 2542SOL     OW 8524   4.007   2.253   4.107
 2542SOL    HW1 8525   4.100   2.287   4.117
 2542SOL    HW2 8526   3.955   2.315   4.048
 2543SOL     OW 8527   1.932   0.701   2.895
 2543SOL    HW1 8528   1.912   0.789   2.853
 2543SOL    HW2 8529   1.846   0.652   2.913
 2544SOL     OW 8530   0.593   5.054   2.064
 2544SOL    HW1 8531   0.658   5.061   2.139
 2544SOL    HW2 8532   0.504   5.023   2.099
 2545SOL     OW 8533   1.242   1.495   1.205
 2545SOL    HW1 8534   1.308   1.446   1.147
 2545SOL    HW2 8535   1.167   1.432   1.229
 2546SOL     OW 8536   6.801   3.382   0.802
 2546SOL    HW1 8537   6.864   3.356   0.875
 2546SOL    HW2 8538   6.745   3.303   0.776
 2547SOL     OW 8539   5.632   5.493   0.912
 2547SOL    HW1 8540   5.553   5.480   0.852
 2547SOL    HW2 8541   5.680   5.576   0.886
 2548SOL     OW 8542   2.258   0.569   4.676
 2548SOL    HW1 8543   2.329   0.501   4.692
 2548SOL    HW2 8544   2.184   0.528   4.622
 2549SOL     OW 8545   2.158   2.734   1.536
 2549SOL    HW1 8546   2.199   2.825   1.530
 2549SOL    HW2 8547   2.086   2.735   1.606
 2550SOL     OW 8548   5.468   0.780   6.734
 2550SOL    HW1 8549   5.472   0.840   6.815
 2550SOL    HW2 8550   5.474   0.685   6.763
 2551SOL     OW 8551   3.715   5.461   6.904
 2551SOL    HW1 8552   3.667   5.511   6.832
 2551SOL    HW2 8553   3.678   5.487   6.993
 2552SOL     OW 8554   2.297   5.205   6.753
 2552SOL    HW1 8555   2.301   5.108   6.730
 2552SOL    HW2 8556   2.357   5.257   6.693
 2553SOL     OW 8557   3.519   2.727   6.130
 2553SOL    HW1 8558   3.617   2.717   6.112
 2553SOL    HW2 8559   3.474   2.767   6.051
 2554SOL     OW 8560   1.511   5.836   6.710
 2554SOL    HW1 8561   1.545   5.808   6.620
 2554SOL    HW2 8562   1.585   5.827   6.777
 2555SOL     OW 8563   6.141   6.068   6.758
 2555SOL    HW1 8564   6.104   6.112   6.676
 2555SOL    HW2 8565   6.161   6.138   6.827
 2556SOL     OW 8566   4.426   0.161   1.153
 2556SOL    HW1 8567   4.346   0.213   1.123
 2556SOL    HW2 8568   4.398   0.092   1.220
 2557SOL     OW 8569   2.805   0.585   6.856
 2557SOL    HW1 8570   2.754   0.582   6.770
 2557SOL    HW2 8571   2.741   0.592   6.932
 2558SOL     OW 8572   4.425   4.011   5.799
 2558SOL    HW1 8573   4.335   4.051   5.816
 2558SOL    HW2 8574   4.430   3.979   5.704
 2559SOL     OW 8575   6.795   3.130   3.665
 2559SOL    HW1 8576   6.871   3.065   3.662
 2559SOL    HW2 8577   6.750   3.124   3.754
 2560SOL     OW 8578   5.101   3.716   3.649
 2560SOL    HW1 8579   5.080   3.674   3.560
 2560SOL    HW2 8580   5.017   3.728   3.701
 2561SOL     OW 8581   3.564   1.403   3.162
 2561SOL    HW1 8582   3.620   1.430   3.084
 2561SOL    HW2 8583   3.514   1.482   3.196
 2562SOL     OW 8584   3.220   5.694   3.454
 2562SOL    HW1 8585   3.253   5.712   3.361
 2562SOL    HW2 8586   3.133   5.742   3.468
 2563SOL     OW 8587   3.267   1.528   6.399
 2563SOL    HW1 8588   3.341   1.541   6.465
 2563SOL    HW2 8589   3.274   1.436   6.359
 2564SOL     OW 8590   1.761   0.066   0.178
 2564SOL    HW1 8591   1.777   6.994   0.210
 2564SOL    HW2 8592   1.663   0.081   0.166
 2565SOL     OW 8593   0.372   1.076   7.018
 2565SOL    HW1 8594   0.418   1.077   0.086
 2565SOL    HW2 8595   0.309   0.999   7.014
 2566SOL     OW 8596   2.552   6.536   1.868
 2566SOL    HW1 8597   2.503   6.618   1.839
 2566SOL    HW2 8598   2.582   6.547   1.963
 2567SOL     OW 8599   1.461   1.410   1.055
 2567SOL    HW1 8600   1.504   1.495   1.023
 2567SOL    HW2 8601   1.499   1.333   1.003
 2568SOL     OW 8602   2.830   6.931   0.675
 2568SOL    HW1 8603   2.746   6.948   0.727
 2568SOL    HW2 8604   2.901   6.897   0.737
 2569SOL     OW 8605   2.645   2.206   2.067
 2569SOL    HW1 8606   2.637   2.116   2.110
 2569SOL    HW2 8607   2.739   2.240   2.076
 2570SOL     OW 8608   4.830   5.789   6.345
 2570SOL    HW1 8609   4.873   5.802   6.255
 2570SOL    HW2 8610   4.760   5.859   6.359
 2571SOL     OW 8611   3.751   2.885   4.588
 2571SOL    HW1 8612   3.771   2.951   4.515
 2571SOL    HW2 8613   3.829   2.880   4.650
 2572SOL     OW 8614   2.250   6.296   1.228
 2572SOL    HW1 8615   2.223   6.263   1.138
 2572SOL    HW2 8616   2.264   6.219   1.290
 2573SOL     OW 8617   6.241   1.916   3.075
 2573SOL    HW1 8618   6.227   1.831   3.127
 2573SOL    HW2 8619   6.231   1.897   2.978
 2574SOL     OW 8620   6.161   3.150   0.723
 2574SOL    HW1 8621   6.076   3.101   0.737
 2574SOL    HW2 8622   6.187   3.198   0.807
 2575SOL     OW 8623   5.000   3.609   1.447
 2575SOL    HW1 8624   4.929   3.543   1.423
 2575SOL    HW2 8625   4.988   3.638   1.542
 2576SOL     OW 8626   3.645   0.126   3.856
 2576SOL    HW1 8627   3.643   0.029   3.879
 2576SOL    HW2 8628   3.739   0.160   3.861
 2577SOL     OW 8629   4.922   0.304   3.823
 2577SOL    HW1 8630   4.904   0.357   3.906
 2577SOL    HW2 8631   4.930   0.366   3.745
 2578SOL     OW 8632   4.888   2.539   5.323
 2578SOL    HW1 8633   4.892   2.582   5.233
 2578SOL    HW2 8634   4.816   2.581   5.378
 2579SOL     OW 8635   1.320   1.673   5.325
 2579SOL    HW1 8636   1.245   1.630   5.275
 2579SOL    HW2 8637   1.368   1.737   5.265
 2580SOL     OW 8638   1.853   2.543   5.887
 2580SOL    HW1 8639   1.765   2.497   5.876
 2580SOL    HW2 8640   1.909   2.528   5.806
 2581SOL     OW 8641   5.653   4.588   1.962
 2581SOL    HW1 8642   5.716   4.626   1.894
 2581SOL    HW2 8643   5.563   4.631   1.951
 2582SOL     OW 8644   2.140   4.960   3.132
 2582SOL    HW1 8645   2.179   4.871   3.108
 2582SOL    HW2 8646   2.172   5.028   3.066
 2583SOL     OW 8647   1.435   0.622   0.736
 2583SOL    HW1 8648   1.355   0.655   0.786
 2583SOL    HW2 8649   1.478   0.698   0.688
 2584SOL     OW 8650   4.422   6.368   0.768
 2584SOL    HW1 8651   4.462   6.304   0.702
 2584SOL    HW2 8652   4.493   6.401   0.830
 2585SOL     OW 8653   3.082   0.339   0.487
 2585SOL    HW1 8654   3.071   0.340   0.586
 2585SOL    HW2 8655   3.032   0.417   0.447
 2586SOL     OW 8656   5.284   1.497   4.865
 2586SOL    HW1 8657   5.218   1.423   4.853
 2586SOL    HW2 8658   5.356   1.489   4.796
 2587SOL     OW 8659   6.807   0.368   4.608
 2587SOL    HW1 8660   6.758   0.408   4.685
 2587SOL    HW2 8661   6.743   0.352   4.532
 2588SOL     OW 8662   4.777   0.098   0.631
 2588SOL    HW1 8663   4.860   0.057   0.668
 2588SOL    HW2 8664   4.705   0.097   0.701
 2589SOL     OW 8665   0.455   6.951   5.577
 2589SOL    HW1 8666   0.446   0.013   5.521
 2589SOL    HW2 8667   0.552   6.934   5.595
 2590SOL     OW 8668   3.741   6.955   2.729
 2590SOL    HW1 8669   3.740   7.012   2.812
 2590SOL    HW2 8670   3.692   6.869   2.747
 2591SOL     OW 8671   5.130   5.840   2.668
 2591SOL    HW1 8672   5.154   5.791   2.752
 2591SOL    HW2 8673   5.146   5.938   2.682
 2592SOL     OW 8674   2.730   6.395   1.557
 2592SOL    HW1 8675   2.731   6.394   1.457
 2592SOL    HW2 8676   2.649   6.349   1.591
 2593SOL     OW 8677   3.758   6.585   2.128
 2593SOL    HW1 8678   3.702   6.666   2.145
 2593SOL    HW2 8679   3.704   6.516   2.080
 2594SOL     OW 8680   0.238   6.335   6.241
 2594SOL    HW1 8681   0.200   6.427   6.246
 2594SOL    HW2 8682   0.310   6.325   6.309
 2595SOL     OW 8683   6.861   2.070   5.787
 2595SOL    HW1 8684   6.899   2.029   5.704
 2595SOL    HW2 8685   6.930   2.131   5.828
 2596SOL     OW 8686   3.962   2.330   1.796
 2596SOL    HW1 8687   3.868   2.336   1.830
 2596SOL    HW2 8688   3.983   2.411   1.742
 2597SOL     OW 8689   1.857   3.953   0.727
 2597SOL    HW1 8690   1.897   4.035   0.769
 2597SOL    HW2 8691   1.911   3.928   0.647
 2598SOL     OW 8692   5.837   2.827   4.542
 2598SOL    HW1 8693   5.760   2.764   4.528
 2598SOL    HW2 8694   5.808   2.920   4.516
 2599SOL     OW 8695   3.786   5.732   6.675
 2599SOL    HW1 8696   3.765   5.820   6.718
 2599SOL    HW2 8697   3.885   5.721   6.669
 2600SOL     OW 8698   4.976   3.725   4.340
 2600SOL    HW1 8699   4.952   3.629   4.320
 2600SOL    HW2 8700   4.927   3.754   4.422
 2601SOL     OW 8701   3.564   2.162   6.601
 2601SOL    HW1 8702   3.512   2.171   6.516
 2601SOL    HW2 8703   3.627   2.239   6.610
 2602SOL     OW 8704   6.897   4.804   3.420
 2602SOL    HW1 8705   6.959   4.790   3.497
 2602SOL    HW2 8706   6.802   4.791   3.450
 2603SOL     OW 8707   2.704   2.017   1.536
 2603SOL    HW1 8708   2.695   2.086   1.607
 2603SOL    HW2 8709   2.662   1.932   1.566
 2604SOL     OW 8710   4.869   1.387   1.426
 2604SOL    HW1 8711   4.860   1.310   1.490
 2604SOL    HW2 8712   4.957   1.432   1.442
 2605SOL     OW 8713   3.920   5.227   3.470
 2605SOL    HW1 8714   3.952   5.322   3.471
 2605SOL    HW2 8715   3.905   5.198   3.375
 2606SOL     OW 8716   6.327   4.681   0.519
 2606SOL    HW1 8717   6.411   4.734   0.521
 2606SOL    HW2 8718   6.286   4.680   0.611
 2607SOL     OW 8719   0.397   1.931   5.759
 2607SOL    HW1 8720   0.319   1.980   5.721
 2607SOL    HW2 8721   0.395   1.835   5.728
 2608SOL     OW 8722   4.375   6.058   2.956
 2608SOL    HW1 8723   4.455   6.059   2.896
 2608SOL    HW2 8724   4.301   6.112   2.915
 2609SOL     OW 8725   0.767   2.581   1.266
 2609SOL    HW1 8726   0.760   2.672   1.226
 2609SOL    HW2 8727   0.795   2.588   1.362
 2610SOL     OW 8728   6.633   5.405   4.041
 2610SOL    HW1 8729   6.694   5.346   3.988
 2610SOL    HW2 8730   6.561   5.441   3.982
 2611SOL     OW 8731   6.337   6.705   1.091
 2611SOL    HW1 8732   6.260   6.697   1.028
 2611SOL    HW2 8733   6.351   6.802   1.114
 2612SOL     OW 8734   6.580   6.529   5.332
 2612SOL    HW1 8735   6.550   6.435   5.348
 2612SOL    HW2 8736   6.667   6.545   5.379
 2613SOL     OW 8737   2.759   6.320   1.961
 2613SOL    HW1 8738   2.807   6.345   2.045
 2613SOL    HW2 8739   2.695   6.393   1.936
 2614SOL     OW 8740   6.419   6.638   5.844
 2614SOL    HW1 8741   6.329   6.645   5.802
 2614SOL    HW2 8742   6.414   6.662   5.941
 2615SOL     OW 8743   5.590   4.927   3.443
 2615SOL    HW1 8744   5.581   4.899   3.347
 2615SOL    HW2 8745   5.682   4.908   3.475
 2616SOL     OW 8746   3.819   3.622   3.896
 2616SOL    HW1 8747   3.768   3.634   3.811
 2616SOL    HW2 8748   3.915   3.606   3.875
 2617SOL     OW 8749   3.109   6.529   1.477
 2617SOL    HW1 8750   3.051   6.461   1.521
 2617SOL    HW2 8751   3.052   6.601   1.435
 2618SOL     OW 8752   0.450   6.436   3.969
 2618SOL    HW1 8753   0.406   6.357   3.927
 2618SOL    HW2 8754   0.511   6.479   3.902
 2619SOL     OW 8755   3.223   0.861   3.142
 2619SOL    HW1 8756   3.302   0.915   3.113
 2619SOL    HW2 8757   3.169   0.835   3.062
 2620SOL     OW 8758   1.013   5.900   3.709
 2620SOL    HW1 8759   1.041   5.862   3.621
 2620SOL    HW2 8760   1.084   5.880   3.778
 2621SOL     OW 8761   1.870   5.700   3.793
 2621SOL    HW1 8762   1.852   5.672   3.887
 2621SOL    HW2 8763   1.815   5.645   3.731
 2622SOL     OW 8764   2.335   2.392   6.333
 2622SOL    HW1 8765   2.334   2.436   6.243
 2622SOL    HW2 8766   2.313   2.459   6.403
 2623SOL     OW 8767   3.570   1.746   4.810
 2623SOL    HW1 8768   3.567   1.846   4.798
 2623SOL    HW2 8769   3.548   1.723   4.904
 2624SOL     OW 8770   6.699   3.158   3.922
 2624SOL    HW1 8771   6.688   3.066   3.961
 2624SOL    HW2 8772   6.694   3.225   3.996
 2625SOL     OW 8773   2.464   2.772   5.277
 2625SOL    HW1 8774   2.477   2.866   5.247
 2625SOL    HW2 8775   2.450   2.713   5.198
 2626SOL     OW 8776   0.347   6.953   4.076
 2626SOL    HW1 8777   0.286   6.895   4.130
 2626SOL    HW2 8778   0.295   0.009   4.038
 2627SOL     OW 8779   0.469   0.897   4.014
 2627SOL    HW1 8780   0.397   0.961   3.990
 2627SOL    HW2 8781   0.430   0.820   4.064
 2628SOL     OW 8782   3.725   5.420   6.503
 2628SOL    HW1 8783   3.654   5.375   6.449
 2628SOL    HW2 8784   3.686   5.497   6.553
 2629SOL     OW 8785   3.632   3.859   2.332
 2629SOL    HW1 8786   3.610   3.956   2.331
 2629SOL    HW2 8787   3.684   3.837   2.414
 2630SOL     OW 8788   3.683   1.788   2.684
 2630SOL    HW1 8789   3.604   1.820   2.737
 2630SOL    HW2 8790   3.710   1.858   2.618
 2631SOL     OW 8791   4.959   6.877   3.968
 2631SOL    HW1 8792   5.042   6.917   3.930
 2631SOL    HW2 8793   4.892   6.950   3.986
 2632SOL     OW 8794   2.646   2.012   5.980
 2632SOL    HW1 8795   2.644   1.924   6.028
 2632SOL    HW2 8796   2.739   2.031   5.951
 2633SOL     OW 8797   6.237   2.380   6.070
 2633SOL    HW1 8798   6.318   2.378   6.010
 2633SOL    HW2 8799   6.255   2.441   6.147
 2634SOL     OW 8800   2.158   3.745   3.207
 2634SOL    HW1 8801   2.068   3.779   3.236
 2634SOL    HW2 8802   2.193   3.679   3.273
 2635SOL     OW 8803   5.829   5.985   4.664
 2635SOL    HW1 8804   5.731   5.966   4.663
 2635SOL    HW2 8805   5.870   5.959   4.576
 2636SOL     OW 8806   5.069   0.629   5.933
 2636SOL    HW1 8807   5.098   0.706   5.876
 2636SOL    HW2 8808   4.977   0.648   5.969
 2637SOL     OW 8809   5.859   1.100   3.620
 2637SOL    HW1 8810   5.951   1.134   3.596
 2637SOL    HW2 8811   5.844   1.112   3.718
 2638SOL     OW 8812   7.007   6.721   3.112
 2638SOL    HW1 8813   0.033   6.690   3.030
 2638SOL    HW2 8814   0.038   6.796   3.153
 2639SOL     OW 8815   0.166   6.908   1.950
 2639SOL    HW1 8816   0.123   6.903   2.041
 2639SOL    HW2 8817   0.157   6.820   1.904
 2640SOL     OW 8818   6.980   6.177   5.657
 2640SOL    HW1 8819   7.008   6.107   5.591
 2640SOL    HW2 8820   0.023   6.254   5.653
 2641SOL     OW 8821   5.117   2.846   1.781
 2641SOL    HW1 8822   5.024   2.880   1.773
 2641SOL    HW2 8823   5.120   2.750   1.754
 2642SOL     OW 8824   5.428   0.397   4.850
 2642SOL    HW1 8825   5.338   0.394   4.805
 2642SOL    HW2 8826   5.485   0.322   4.816
 2643SOL     OW 8827   1.286   4.973   3.446
 2643SOL    HW1 8828   1.250   5.058   3.406
 2643SOL    HW2 8829   1.244   4.895   3.400
 2644SOL     OW 8830   0.139   4.358   5.227
 2644SOL    HW1 8831   0.160   4.273   5.178
 2644SOL    HW2 8832   0.042   4.360   5.251
 2645SOL     OW 8833   4.953   6.405   4.933
 2645SOL    HW1 8834   4.878   6.384   4.871
 2645SOL    HW2 8835   4.940   6.497   4.971
 2646SOL     OW 8836   6.231   6.656   6.634
 2646SOL    HW1 8837   6.236   6.560   6.606
 2646SOL    HW2 8838   6.281   6.712   6.569
 2647SOL     OW 8839   5.560   0.616   0.739
 2647SOL    HW1 8840   5.477   0.572   0.773
 2647SOL    HW2 8841   5.616   0.646   0.816
 2648SOL     OW 8842   6.808   0.343   3.859
 2648SOL    HW1 8843   6.753   0.263   3.886
 2648SOL    HW2 8844   6.747   0.417   3.832
 2649SOL     OW 8845   4.599   2.301   6.319
 2649SOL    HW1 8846   4.646   2.338   6.398
 2649SOL    HW2 8847   4.666   2.267   6.252
 2650SOL     OW 8848   0.702   4.099   3.723
 2650SOL    HW1 8849   0.692   4.012   3.675
 2650SOL    HW2 8850   0.743   4.167   3.662
 2651SOL     OW 8851   1.125   1.461   0.546
 2651SOL    HW1 8852   1.031   1.445   0.574
 2651SOL    HW2 8853   1.130   1.467   0.446
 2652SOL     OW 8854   3.254   4.138   3.623
 2652SOL    HW1 8855   3.212   4.210   3.678
 2652SOL    HW2 8856   3.194   4.058   3.621
 2653SOL     OW 8857   5.302   0.104   4.717
 2653SOL    HW1 8858   5.237   0.061   4.653
 2653SOL    HW2 8859   5.391   0.113   4.672
 2654SOL     OW 8860   4.751   3.424   0.479
 2654SOL    HW1 8861   4.768   3.522   0.474
 2654SOL    HW2 8862   4.697   3.395   0.400
 2655SOL     OW 8863   4.716   4.756   4.400
 2655SOL    HW1 8864   4.713   4.736   4.303
 2655SOL    HW2 8865   4.665   4.687   4.451
 2656SOL     OW 8866   4.069   4.907   4.285
 2656SOL    HW1 8867   3.995   4.906   4.353
 2656SOL    HW2 8868   4.141   4.970   4.316
 2657SOL     OW 8869   2.565   4.582   6.640
 2657SOL    HW1 8870   2.522   4.579   6.730
 2657SOL    HW2 8871   2.549   4.495   6.592
 2658SOL     OW 8872   5.320   4.014   0.823
 2658SOL    HW1 8873   5.378   3.999   0.903
 2658SOL    HW2 8874   5.307   3.928   0.774
 2659SOL     OW 8875   6.478   2.389   4.511
 2659SOL    HW1 8876   6.460   2.422   4.418
 2659SOL    HW2 8877   6.552   2.442   4.552
 2660SOL     OW 8878   0.815   1.630   1.363
 2660SOL    HW1 8879   0.716   1.637   1.375
 2660SOL    HW2 8880   0.859   1.712   1.402
 2661SOL     OW 8881   2.407   5.999   2.472
 2661SOL    HW1 8882   2.361   5.938   2.407
 2661SOL    HW2 8883   2.455   6.071   2.423
 2662SOL     OW 8884   4.857   0.133   5.201
 2662SOL    HW1 8885   4.841   0.073   5.280
 2662SOL    HW2 8886   4.955   0.154   5.195
 2663SOL     OW 8887   3.017   4.440   1.389
 2663SOL    HW1 8888   2.991   4.399   1.302
 2663SOL    HW2 8889   2.999   4.376   1.463
 2664SOL     OW 8890   4.073   3.676   3.814
 2664SOL    HW1 8891   4.146   3.628   3.863
 2664SOL    HW2 8892   4.046   3.757   3.867
 2665SOL     OW 8893   2.798   1.946   4.684
 2665SOL    HW1 8894   2.896   1.933   4.674
 2665SOL    HW2 8895   2.766   1.902   4.768
 2666SOL     OW 8896   4.475   3.909   1.461
 2666SOL    HW1 8897   4.505   3.967   1.538
 2666SOL    HW2 8898   4.440   3.967   1.388
 2667SOL     OW 8899   1.850   5.762   4.478
 2667SOL    HW1 8900   1.910   5.840   4.467
 2667SOL    HW2 8901   1.784   5.759   4.403
 2668SOL     OW 8902   6.656   3.216   3.429
 2668SOL    HW1 8903   6.701   3.177   3.510
 2668SOL    HW2 8904   6.705   3.188   3.347
 2669SOL     OW 8905   3.065   4.847   4.985
 2669SOL    HW1 8906   3.032   4.907   4.912
 2669SOL    HW2 8907   2.988   4.795   5.023
 2670SOL     OW 8908   6.078   1.126   6.165
 2670SOL    HW1 8909   6.165   1.080   6.147
 2670SOL    HW2 8910   6.095   1.223   6.183
 2671SOL     OW 8911   3.427   5.213   0.631
 2671SOL    HW1 8912   3.337   5.221   0.588
 2671SOL    HW2 8913   3.431   5.275   0.710
 2672SOL     OW 8914   0.181   5.444   6.770
 2672SOL    HW1 8915   0.280   5.451   6.780
 2672SOL    HW2 8916   0.159   5.382   6.694
 2673SOL     OW 8917   5.586   2.531   3.645
 2673SOL    HW1 8918   5.513   2.494   3.703
 2673SOL    HW2 8919   5.669   2.478   3.660
 2674SOL     OW 8920   2.065   4.144   4.588
 2674SOL    HW1 8921   2.015   4.191   4.660
 2674SOL    HW2 8922   2.101   4.058   4.623
 2675SOL     OW 8923   0.693   4.745   4.819
 2675SOL    HW1 8924   0.647   4.818   4.768
 2675SOL    HW2 8925   0.628   4.701   4.881
 2676SOL     OW 8926   4.270   0.635   2.923
 2676SOL    HW1 8927   4.244   0.729   2.903
 2676SOL    HW2 8928   4.300   0.589   2.839
 2677SOL     OW 8929   3.196   5.281   0.505
 2677SOL    HW1 8930   3.237   5.286   0.414
 2677SOL    HW2 8931   3.130   5.355   0.516
 2678SOL     OW 8932   6.762   3.729   1.235
 2678SOL    HW1 8933   6.728   3.815   1.274
 2678SOL    HW2 8934   6.730   3.721   1.140
 2679SOL     OW 8935   4.056   5.671   1.335
 2679SOL    HW1 8936   4.101   5.668   1.424
 2679SOL    HW2 8937   3.995   5.750   1.332
 2680SOL     OW 8938   1.672   1.532   0.789
 2680SOL    HW1 8939   1.648   1.612   0.734
 2680SOL    HW2 8940   1.727   1.470   0.734
 2681SOL     OW 8941   1.288   2.022   4.609
 2681SOL    HW1 8942   1.351   2.003   4.684
 2681SOL    HW2 8943   1.291   1.948   4.542
 2682SOL     OW 8944   5.494   3.541   2.240
 2682SOL    HW1 8945   5.435   3.621   2.232
 2682SOL    HW2 8946   5.448   3.470   2.293
 2683SOL     OW 8947   1.405   3.486   0.222
 2683SOL    HW1 8948   1.484   3.452   0.172
 2683SOL    HW2 8949   1.340   3.527   0.158
 2684SOL     OW 8950   4.363   5.125   3.148
 2684SOL    HW1 8951   4.299   5.061   3.105
 2684SOL    HW2 8952   4.311   5.198   3.193
 2685SOL     OW 8953   0.295   6.966   6.028
 2685SOL    HW1 8954   0.228   0.015   6.055
 2685SOL    HW2 8955   0.248   6.878   6.017
 2686SOL     OW 8956   1.687   2.025   5.445
 2686SOL    HW1 8957   1.648   2.106   5.488
 2686SOL    HW2 8958   1.749   2.052   5.372
 2687SOL     OW 8959   4.340   4.592   3.227
 2687SOL    HW1 8960   4.302   4.620   3.315
 2687SOL    HW2 8961   4.407   4.519   3.241
 2688SOL     OW 8962   4.606   5.369   6.387
 2688SOL    HW1 8963   4.602   5.364   6.486
 2688SOL    HW2 8964   4.614   5.277   6.349
 2689SOL     OW 8965   2.179   1.954   2.911
 2689SOL    HW1 8966   2.168   2.029   2.846
 2689SOL    HW2 8967   2.273   1.952   2.945
 2690SOL     OW 8968   3.264   4.057   3.908
 2690SOL    HW1 8969   3.218   3.977   3.947
 2690SOL    HW2 8970   3.254   4.056   3.809
 2691SOL     OW 8971   1.369   5.436   2.362
 2691SOL    HW1 8972   1.309   5.378   2.417
 2691SOL    HW2 8973   1.340   5.532   2.370
 2692SOL     OW 8974   4.703   5.493   4.185
 2692SOL    HW1 8975   4.753   5.495   4.099
 2692SOL    HW2 8976   4.654   5.580   4.197
 2693SOL     OW 8977   1.847   3.946   2.651
 2693SOL    HW1 8978   1.806   4.037   2.642
 2693SOL    HW2 8979   1.883   3.918   2.562
 2694SOL     OW 8980   3.849   0.468   3.129
 2694SOL    HW1 8981   3.818   0.477   3.034
 2694SOL    HW2 8982   3.948   0.473   3.133
 2695SOL     OW 8983   5.551   1.259   2.493
 2695SOL    HW1 8984   5.598   1.221   2.573
 2695SOL    HW2 8985   5.618   1.275   2.420
 2696SOL     OW 8986   3.247   3.252   5.255
 2696SOL    HW1 8987   3.199   3.299   5.181
 2696SOL    HW2 8988   3.283   3.320   5.319
 2697SOL     OW 8989   3.985   1.896   3.297
 2697SOL    HW1 8990   4.058   1.828   3.298
 2697SOL    HW2 8991   4.018   1.982   3.337
 2698SOL     OW 8992   1.722   5.251   1.053
 2698SOL    HW1 8993   1.758   5.338   1.088
 2698SOL    HW2 8994   1.782   5.176   1.082
 2699SOL     OW 8995   3.157   5.586   0.255
 2699SOL    HW1 8996   3.205   5.659   0.207
 2699SOL    HW2 8997   3.189   5.497   0.222
 2700SOL     OW 8998   2.119   3.304   1.396
 2700SOL    HW1 8999   2.188   3.261   1.454
 2700SOL    HW2 9000   2.111   3.401   1.421
 2701SOL     OW 9001   3.834   7.020   6.543
 2701SOL    HW1 9002   3.760   0.033   6.602
 2701SOL    HW2 9003   3.843   0.059   6.463
 2702SOL     OW 9004   0.399   1.788   3.577
 2702SOL    HW1 9005   0.452   1.748   3.651
 2702SOL    HW2 9006   0.374   1.882   3.602
 2703SOL     OW 9007   2.358   0.727   2.735
 2703SOL    HW1 9008   2.270   0.744   2.690
 2703SOL    HW2 9009   2.430   0.775   2.686
 2704SOL     OW 9010   0.808   4.878   0.874
 2704SOL    HW1 9011   0.883   4.824   0.913
 2704SOL    HW2 9012   0.721   4.845   0.910
 2705SOL     OW 9013   1.411   5.440   4.515
 2705SOL    HW1 9014   1.345   5.512   4.538
 2705SOL    HW2 9015   1.493   5.482   4.475
 2706SOL     OW 9016   0.571   0.522   1.417
 2706SOL    HW1 9017   0.478   0.546   1.444
 2706SOL    HW2 9018   0.574   0.428   1.383
 2707SOL     OW 9019   2.277   0.663   5.399
 2707SOL    HW1 9020   2.328   0.737   5.444
 2707SOL    HW2 9021   2.335   0.582   5.391
 2708SOL     OW 9022   1.612   2.050   1.653
 2708SOL    HW1 9023   1.687   2.071   1.591
 2708SOL    HW2 9024   1.617   1.954   1.681
 2709SOL     OW 9025   5.316   6.669   1.095
 2709SOL    HW1 9026   5.341   6.766   1.093
 2709SOL    HW2 9027   5.221   6.658   1.064
 2710SOL     OW 9028   6.692   2.905   2.679
 2710SOL    HW1 9029   6.757   2.930   2.751
 2710SOL    HW2 9030   6.666   2.987   2.628
 2711SOL     OW 9031   2.932   0.978   3.129
 2711SOL    HW1 9032   2.855   0.959   3.190
 2711SOL    HW2 9033   2.980   0.892   3.109
 2712SOL     OW 9034   3.262   5.412   1.251
 2712SOL    HW1 9035   3.351   5.367   1.263
 2712SOL    HW2 9036   3.233   5.452   1.337
 2713SOL     OW 9037   1.450   2.029   4.827
 2713SOL    HW1 9038   1.406   2.116   4.849
 2713SOL    HW2 9039   1.494   1.992   4.908
 2714SOL     OW 9040   4.738   1.969   6.765
 2714SOL    HW1 9041   4.755   2.067   6.763
 2714SOL    HW2 9042   4.681   1.943   6.687
 2715SOL     OW 9043   5.860   0.186   0.068
 2715SOL    HW1 9044   5.856   0.269   0.125
 2715SOL    HW2 9045   5.836   0.209   6.995
 2716SOL     OW 9046   5.687   5.390   2.087
 2716SOL    HW1 9047   5.700   5.329   2.165
 2716SOL    HW2 9048   5.775   5.408   2.044
 2717SOL     OW 9049   0.890   5.321   1.367
 2717SOL    HW1 9050   0.908   5.419   1.372
 2717SOL    HW2 9051   0.944   5.281   1.293
 2718SOL     OW 9052   2.181   3.979   4.798
 2718SOL    HW1 9053   2.223   3.890   4.816
 2718SOL    HW2 9054   2.218   4.047   4.861
 2719SOL     OW 9055   5.261   4.916   1.717
 2719SOL    HW1 9056   5.349   4.946   1.681
 2719SOL    HW2 9057   5.201   4.890   1.641
 2720SOL     OW 9058   1.979   6.194   3.519
 2720SOL    HW1 9059   2.042   6.260   3.560
 2720SOL    HW2 9060   1.933   6.142   3.591
 2721SOL     OW 9061   3.275   0.172   4.610
 2721SOL    HW1 9062   3.274   0.129   4.700
 2721SOL    HW2 9063   3.217   0.120   4.547
 2722SOL     OW 9064   6.532   5.520   2.987
 2722SOL    HW1 9065   6.474   5.569   2.921
 2722SOL    HW2 9066   6.628   5.529   2.959
 2723SOL     OW 9067   1.650   6.887   5.770
 2723SOL    HW1 9068   1.673   6.983   5.789
 2723SOL    HW2 9069   1.723   6.846   5.714
 2724SOL     OW 9070   2.903   6.246   5.887
 2724SOL    HW1 9071   2.893   6.162   5.835
 2724SOL    HW2 9072   2.867   6.323   5.834
 2725SOL     OW 9073   6.277   5.109   3.176
 2725SOL    HW1 9074   6.334   5.175   3.226
 2725SOL    HW2 9075   6.184   5.146   3.167
 2726SOL     OW 9076   6.473   4.503   0.881
 2726SOL    HW1 9077   6.519   4.425   0.838
 2726SOL    HW2 9078   6.374   4.484   0.885
 2727SOL     OW 9079   0.160   4.804   2.674
 2727SOL    HW1 9080   0.097   4.727   2.669
 2727SOL    HW2 9081   0.243   4.783   2.623
 2728SOL     OW 9082   3.730   0.211   5.503
 2728SOL    HW1 9083   3.799   0.265   5.551
 2728SOL    HW2 9084   3.764   0.118   5.490
 2729SOL     OW 9085   6.614   6.025   1.871
 2729SOL    HW1 9086   6.587   6.062   1.960
 2729SOL    HW2 9087   6.612   5.925   1.874
 2730SOL     OW 9088   1.746   6.087   1.197
 2730SOL    HW1 9089   1.676   6.126   1.256
 2730SOL    HW2 9090   1.831   6.076   1.248
 2731SOL     OW 9091   3.950   3.872   2.039
 2731SOL    HW1 9092   3.982   3.779   2.060
 2731SOL    HW2 9093   4.022   3.938   2.062
 2732SOL     OW 9094   6.037   2.995   1.471
 2732SOL    HW1 9095   6.015   2.910   1.519
 2732SOL    HW2 9096   6.135   3.014   1.480
 2733SOL     OW 9097   0.371   0.094   5.362
 2733SOL    HW1 9098   0.313   0.033   5.308
 2733SOL    HW2 9099   0.366   0.187   5.324
 2734SOL     OW 9100   2.292   5.291   2.402
 2734SOL    HW1 9101   2.344   5.243   2.472
 2734SOL    HW2 9102   2.198   5.258   2.402
 2735SOL     OW 9103   0.523   3.811   3.141
 2735SOL    HW1 9104   0.596   3.845   3.200
 2735SOL    HW2 9105   0.437   3.808   3.192
 2736SOL     OW 9106   5.180   0.274   4.166
 2736SOL    HW1 9107   5.237   0.227   4.099
 2736SOL    HW2 9108   5.236   0.336   4.221
 2737SOL     OW 9109   3.100   3.086   5.422
 2737SOL    HW1 9110   3.155   3.163   5.390
 2737SOL    HW2 9111   3.122   3.067   5.518
 2738SOL     OW 9112   5.335   5.428   4.591
 2738SOL    HW1 9113   5.292   5.446   4.502
 2738SOL    HW2 9114   5.353   5.330   4.600
 2739SOL     OW 9115   5.703   4.897   0.389
 2739SOL    HW1 9116   5.758   4.955   0.449
 2739SOL    HW2 9117   5.643   4.955   0.333
 2740SOL     OW 9118   6.191   2.858   2.509
 2740SOL    HW1 9119   6.274   2.912   2.526
 2740SOL    HW2 9120   6.206   2.800   2.429
 2741SOL     OW 9121   6.897   1.457   5.900
 2741SOL    HW1 9122   6.825   1.520   5.871
 2741SOL    HW2 9123   6.857   1.368   5.923
 2742SOL     OW 9124   1.925   5.375   6.842
 2742SOL    HW1 9125   1.946   5.360   6.745
 2742SOL    HW2 9126   1.910   5.287   6.887
 2743SOL     OW 9127   6.164   5.269   2.198
 2743SOL    HW1 9128   6.128   5.176   2.201
 2743SOL    HW2 9129   6.108   5.328   2.256
 2744SOL     OW 9130   3.984   2.377   6.696
 2744SOL    HW1 9131   4.032   2.329   6.769
 2744SOL    HW2 9132   3.991   2.325   6.611
 2745SOL     OW 9133   1.026   6.813   0.054
 2745SOL    HW1 9134   0.954   6.747   0.036
 2745SOL    HW2 9135   0.988   6.905   0.055
 2746SOL     OW 9136   1.822   1.840   4.494
 2746SOL    HW1 9137   1.899   1.838   4.559
 2746SOL    HW2 9138   1.796   1.935   4.477
 2747SOL     OW 9139   5.631   3.475   5.728
 2747SOL    HW1 9140   5.693   3.455   5.804
 2747SOL    HW2 9141   5.652   3.415   5.651
 2748SOL     OW 9142   3.970   1.258   1.130
 2748SOL    HW1 9143   3.999   1.321   1.202
 2748SOL    HW2 9144   4.015   1.283   1.044
 2749SOL     OW 9145   6.066   4.414   3.939
 2749SOL    HW1 9146   6.080   4.510   3.914
 2749SOL    HW2 9147   6.137   4.386   4.004
 2750SOL     OW 9148   0.274   5.122   1.858
 2750SOL    HW1 9149   0.344   5.175   1.811
 2750SOL    HW2 9150   0.211   5.082   1.792
 2751SOL     OW 9151   1.613   6.586   0.505
 2751SOL    HW1 9152   1.584   6.565   0.598
 2751SOL    HW2 9153   1.533   6.612   0.450
 2752SOL     OW 9154   5.209   5.362   5.078
 2752SOL    HW1 9155   5.160   5.368   5.164
 2752SOL    HW2 9156   5.293   5.309   5.090
 2753SOL     OW 9157   1.575   6.976   6.209
 2753SOL    HW1 9158   1.553   6.952   6.114
 2753SOL    HW2 9159   1.663   6.935   6.233
 2754SOL     OW 9160   6.489   1.390   4.266
 2754SOL    HW1 9161   6.473   1.468   4.327
 2754SOL    HW2 9162   6.527   1.314   4.318
 2755SOL     OW 9163   3.249   6.786   3.184
 2755SOL    HW1 9164   3.285   6.740   3.265
 2755SOL    HW2 9165   3.325   6.831   3.136
 2756SOL     OW 9166   6.297   3.656   4.492
 2756SOL    HW1 9167   6.273   3.614   4.404
 2756SOL    HW2 9168   6.396   3.670   4.496
 2757SOL     OW 9169   2.579   1.241   6.688
 2757SOL    HW1 9170   2.661   1.265   6.635
 2757SOL    HW2 9171   2.592   1.152   6.730
 2758SOL     OW 9172   5.439   6.118   3.691
 2758SOL    HW1 9173   5.375   6.050   3.654
 2758SOL    HW2 9174   5.391   6.174   3.759
 2759SOL     OW 9175   3.758   5.439   5.002
 2759SOL    HW1 9176   3.769   5.531   4.964
 2759SOL    HW2 9177   3.701   5.443   5.084
 2760SOL     OW 9178   6.935   5.211   2.595
 2760SOL    HW1 9179   6.966   5.288   2.652
 2760SOL    HW2 9180   7.013   5.155   2.569
 2761SOL     OW 9181   1.723   4.373   3.707
 2761SOL    HW1 9182   1.762   4.307   3.772
 2761SOL    HW2 9183   1.732   4.465   3.745
 2762SOL     OW 9184   1.547   2.185   0.009
 2762SOL    HW1 9185   1.602   2.145   0.083
 2762SOL    HW2 9186   1.607   2.234   6.967
 2763SOL     OW 9187   4.795   2.199   5.553
 2763SOL    HW1 9188   4.781   2.221   5.649
 2763SOL    HW2 9189   4.718   2.233   5.499
 2764SOL     OW 9190   0.363   5.731   2.413
 2764SOL    HW1 9191   0.435   5.689   2.468
 2764SOL    HW2 9192   0.284   5.671   2.409
 2765SOL     OW 9193   7.006   0.079   0.978
 2765SOL    HW1 9194   6.988   7.016   0.928
 2765SOL    HW2 9195   6.987   0.158   0.919
 2766SOL     OW 9196   3.818   1.224   6.330
 2766SOL    HW1 9197   3.908   1.223   6.286
 2766SOL    HW2 9198   3.829   1.251   6.426
 2767SOL     OW 9199   5.998   5.781   6.404
 2767SOL    HW1 9200   5.968   5.784   6.499
 2767SOL    HW2 9201   6.067   5.710   6.393
 2768SOL     OW 9202   4.280   1.442   6.819
 2768SOL    HW1 9203   4.237   1.500   6.888
 2768SOL    HW2 9204   4.377   1.432   6.839
 2769SOL     OW 9205   2.743   4.638   6.303
 2769SOL    HW1 9206   2.647   4.613   6.297
 2769SOL    HW2 9207   2.753   4.718   6.362
 2770SOL     OW 9208   4.330   6.126   6.112
 2770SOL    HW1 9209   4.402   6.078   6.062
 2770SOL    HW2 9210   4.363   6.217   6.138
 2771SOL     OW 9211   5.654   0.049   4.879
 2771SOL    HW1 9212   5.747   0.013   4.875
 2771SOL    HW2 9213   5.626   0.080   4.789
 2772SOL     OW 9214   2.865   1.517   2.006
 2772SOL    HW1 9215   2.831   1.451   2.073
 2772SOL    HW2 9216   2.900   1.469   1.926
 2773SOL     OW 9217   7.012   2.984   3.833
 2773SOL    HW1 9218   0.085   3.020   3.830
 2773SOL    HW2 9219   7.016   2.884   3.846
 2774SOL     OW 9220   5.273   3.068   2.907
 2774SOL    HW1 9221   5.367   3.042   2.885
 2774SOL    HW2 9222   5.272   3.123   2.990
 2775SOL     OW 9223   6.321   3.896   3.406
 2775SOL    HW1 9224   6.324   3.812   3.461
 2775SOL    HW2 9225   6.359   3.972   3.459
 2776SOL     OW 9226   5.469   4.387   5.612
 2776SOL    HW1 9227   5.427   4.345   5.531
 2776SOL    HW2 9228   5.400   4.438   5.663
 2777SOL     OW 9229   2.195   1.640   6.633
 2777SOL    HW1 9230   2.266   1.595   6.579
 2777SOL    HW2 9231   2.236   1.714   6.687
 2778SOL     OW 9232   1.990   6.102   6.436
 2778SOL    HW1 9233   1.956   6.014   6.471
 2778SOL    HW2 9234   1.943   6.177   6.482
 2779SOL     OW 9235   5.353   6.803   2.073
 2779SOL    HW1 9236   5.424   6.734   2.084
 2779SOL    HW2 9237   5.295   6.779   1.995
 2780SOL     OW 9238   6.592   0.400   6.091
 2780SOL    HW1 9239   6.671   0.456   6.066
 2780SOL    HW2 9240   6.517   0.418   6.026
 2781SOL     OW 9241   6.101   0.328   3.165
 2781SOL    HW1 9242   6.100   0.423   3.133
 2781SOL    HW2 9243   6.029   0.277   3.117
 2782SOL     OW 9244   4.187   1.480   5.279
 2782SOL    HW1 9245   4.276   1.442   5.304
 2782SOL    HW2 9246   4.199   1.572   5.243
 2783SOL     OW 9247   6.905   3.963   1.509
 2783SOL    HW1 9248   6.813   3.928   1.494
 2783SOL    HW2 9249   6.966   3.887   1.533
 2784SOL     OW 9250   3.434   1.650   1.783
 2784SOL    HW1 9251   3.420   1.741   1.820
 2784SOL    HW2 9252   3.413   1.582   1.853
 2785SOL     OW 9253   5.399   2.079   0.754
 2785SOL    HW1 9254   5.357   2.105   0.667
 2785SOL    HW2 9255   5.425   2.162   0.804
 2786SOL     OW 9256   6.468   6.329   1.425
 2786SOL    HW1 9257   6.532   6.268   1.471
 2786SOL    HW2 9258   6.515   6.414   1.399
 2787SOL     OW 9259   6.604   5.783   5.559
 2787SOL    HW1 9260   6.542   5.797   5.483
 2787SOL    HW2 9261   6.689   5.742   5.526
 2788SOL     OW 9262   2.842   6.165   6.409
 2788SOL    HW1 9263   2.897   6.084   6.388
 2788SOL    HW2 9264   2.758   6.164   6.354
 2789SOL     OW 9265   1.737   2.108   3.338
 2789SOL    HW1 9266   1.752   2.106   3.436
 2789SOL    HW2 9267   1.791   2.182   3.297
 2790SOL     OW 9268   3.415   5.324   0.884
 2790SOL    HW1 9269   3.357   5.392   0.931
 2790SOL    HW2 9270   3.446   5.256   0.950
 2791SOL     OW 9271   0.441   4.433   2.292
 2791SOL    HW1 9272   0.360   4.424   2.234
 2791SOL    HW2 9273   0.412   4.448   2.386
 2792SOL     OW 9274   2.771   1.417   4.234
 2792SOL    HW1 9275   2.809   1.489   4.176
 2792SOL    HW2 9276   2.834   1.339   4.236
 2793SOL     OW 9277   5.050   3.807   1.853
 2793SOL    HW1 9278   5.092   3.852   1.774
 2793SOL    HW2 9279   5.014   3.718   1.825
 2794SOL     OW 9280   6.415   1.966   5.930
 2794SOL    HW1 9281   6.384   1.963   5.835
 2794SOL    HW2 9282   6.347   1.921   5.988
 2795SOL     OW 9283   0.250   4.523   1.135
 2795SOL    HW1 9284   0.305   4.595   1.177
 2795SOL    HW2 9285   0.155   4.552   1.130
 2796SOL     OW 9286   0.979   5.481   4.164
 2796SOL    HW1 9287   0.904   5.543   4.186
 2796SOL    HW2 9288   0.942   5.390   4.145
 2797SOL     OW 9289   5.356   5.457   5.937
 2797SOL    HW1 9290   5.327   5.364   5.915
 2797SOL    HW2 9291   5.425   5.487   5.871
 2798SOL     OW 9292   6.213   5.660   2.697
 2798SOL    HW1 9293   6.118   5.629   2.689
 2798SOL    HW2 9294   6.215   5.757   2.720
 2799SOL     OW 9295   4.657   5.657   5.422
 2799SOL    HW1 9296   4.566   5.679   5.386
 2799SOL    HW2 9297   4.691   5.574   5.377
 2800SOL     OW 9298   6.145   0.819   5.826
 2800SOL    HW1 9299   6.201   0.760   5.767
 2800SOL    HW2 9300   6.048   0.798   5.811
 2801SOL     OW 9301   1.660   5.781   5.821
 2801SOL    HW1 9302   1.679   5.751   5.914
 2801SOL    HW2 9303   1.746   5.798   5.773
 2802SOL     OW 9304   6.712   6.474   5.695
 2802SOL    HW1 9305   6.634   6.535   5.707
 2802SOL    HW2 9306   6.684   6.380   5.715
 2803SOL     OW 9307   3.607   4.208   5.836
 2803SOL    HW1 9308   3.647   4.194   5.927
 2803SOL    HW2 9309   3.623   4.303   5.807
 2804SOL     OW 9310   0.223   3.438   4.470
 2804SOL    HW1 9311   0.187   3.370   4.534
 2804SOL    HW2 9312   0.154   3.507   4.453
 2805SOL     OW 9313   6.272   3.870   2.694
 2805SOL    HW1 9314   6.246   3.817   2.613
 2805SOL    HW2 9315   6.190   3.893   2.747
 2806SOL     OW 9316   1.675   4.541   6.949
 2806SOL    HW1 9317   1.749   4.571   7.010
 2806SOL    HW2 9318   1.683   4.442   6.933
 2807SOL     OW 9319   4.106   0.549   3.124
 2807SOL    HW1 9320   4.173   0.568   3.052
 2807SOL    HW2 9321   4.152   0.552   3.213
 2808SOL     OW 9322   6.033   6.102   0.920
 2808SOL    HW1 9323   5.946   6.119   0.965
 2808SOL    HW2 9324   6.078   6.189   0.900
 2809SOL     OW 9325   5.979   2.467   1.590
 2809SOL    HW1 9326   6.025   2.399   1.647
 2809SOL    HW2 9327   5.894   2.496   1.635
 2810SOL     OW 9328   2.531   5.055   2.803
 2810SOL    HW1 9329   2.580   5.121   2.746
 2810SOL    HW2 9330   2.536   5.084   2.898
 2811SOL     OW 9331   0.528   1.191   2.123
 2811SOL    HW1 9332   0.602   1.251   2.093
 2811SOL    HW2 9333   0.565   1.100   2.141
 2812SOL     OW 9334   6.323   2.967   0.606
 2812SOL    HW1 9335   6.292   3.053   0.648
 2812SOL    HW2 9336   6.372   2.987   0.522
 2813SOL     OW 9337   0.625   1.573   0.607
 2813SOL    HW1 9338   0.630   1.647   0.674
 2813SOL    HW2 9339   0.663   1.604   0.520
 2814SOL     OW 9340   3.215   4.185   5.680
 2814SOL    HW1 9341   3.310   4.161   5.660
 2814SOL    HW2 9342   3.193   4.271   5.635
 2815SOL     OW 9343   0.035   5.778   6.044
 2815SOL    HW1 9344   6.957   5.763   6.052
 2815SOL    HW2 9345   0.051   5.865   5.996
 2816SOL     OW 9346   0.008   5.696   4.691
 2816SOL    HW1 9347   0.066   5.687   4.610
 2816SOL    HW2 9348   7.017   5.606   4.732
 2817SOL     OW 9349   3.558   1.642   2.323
 2817SOL    HW1 9350   3.587   1.548   2.307
 2817SOL    HW2 9351   3.595   1.673   2.411
 2818SOL     OW 9352   6.763   1.191   1.657
 2818SOL    HW1 9353   6.784   1.213   1.752
 2818SOL    HW2 9354   6.809   1.257   1.597
 2819SOL     OW 9355   1.373   0.230   1.221
 2819SOL    HW1 9356   1.314   0.259   1.298
 2819SOL    HW2 9357   1.424   0.309   1.187
 2820SOL     OW 9358   0.717   2.126   2.311
 2820SOL    HW1 9359   0.730   2.088   2.220
 2820SOL    HW2 9360   0.769   2.211   2.320
 2821SOL     OW 9361   3.159   5.220   5.952
 2821SOL    HW1 9362   3.200   5.271   6.028
 2821SOL    HW2 9363   3.082   5.272   5.915
 2822SOL     OW 9364   4.259   2.585   0.166
 2822SOL    HW1 9365   4.266   2.681   0.194
 2822SOL    HW2 9366   4.332   2.565   0.101
 2823SOL     OW 9367   5.887   0.832   6.762
 2823SOL    HW1 9368   5.885   0.734   6.745
 2823SOL    HW2 9369   5.808   0.875   6.719
 2824SOL     OW 9370   1.748   3.573   5.569
 2824SOL    HW1 9371   1.780   3.661   5.533
 2824SOL    HW2 9372   1.771   3.501   5.504
 2825SOL     OW 9373   5.651   0.361   6.671
 2825SOL    HW1 9374   5.662   0.424   6.594
 2825SOL    HW2 9375   5.612   0.275   6.639
 2826SOL     OW 9376   2.380   2.709   6.328
 2826SOL    HW1 9377   2.292   2.739   6.365
 2826SOL    HW2 9378   2.381   2.724   6.229
 2827SOL     OW 9379   0.346   1.009   6.385
 2827SOL    HW1 9380   0.433   0.979   6.346
 2827SOL    HW2 9381   0.358   1.029   6.482
 2828SOL     OW 9382   1.523   3.623   1.378
 2828SOL    HW1 9383   1.615   3.587   1.395
 2828SOL    HW2 9384   1.488   3.666   1.461
 2829SOL     OW 9385   3.545   3.169   3.077
 2829SOL    HW1 9386   3.562   3.250   3.020
 2829SOL    HW2 9387   3.473   3.113   3.035
 2830SOL     OW 9388   3.584   4.420   5.358
 2830SOL    HW1 9389   3.494   4.463   5.352
 2830SOL    HW2 9390   3.578   4.325   5.327
 2831SOL     OW 9391   0.422   2.194   2.983
 2831SOL    HW1 9392   0.493   2.264   2.986
 2831SOL    HW2 9393   0.398   2.174   2.888
 2832SOL     OW 9394   0.951   3.409   1.756
 2832SOL    HW1 9395   0.980   3.326   1.707
 2832SOL    HW2 9396   1.014   3.484   1.734
 2833SOL     OW 9397   2.434   1.632   2.146
 2833SOL    HW1 9398   2.425   1.625   2.047
 2833SOL    HW2 9399   2.517   1.584   2.175
 2834SOL     OW 9400   4.733   6.169   5.195
 2834SOL    HW1 9401   4.832   6.188   5.200
 2834SOL    HW2 9402   4.709   6.140   5.102
 2835SOL     OW 9403   1.070   6.598   0.439
 2835SOL    HW1 9404   1.001   6.669   0.455
 2835SOL    HW2 9405   1.160   6.640   0.430
 2836SOL     OW 9406   2.954   6.223   3.113
 2836SOL    HW1 9407   2.889   6.167   3.061
 2836SOL    HW2 9408   2.912   6.310   3.138
 2837SOL     OW 9409   5.474   4.427   2.455
 2837SOL    HW1 9410   5.458   4.332   2.429
 2837SOL    HW2 9411   5.512   4.477   2.377
 2838SOL     OW 9412   4.943   4.025   0.402
 2838SOL    HW1 9413   4.898   4.111   0.425
 2838SOL    HW2 9414   4.972   4.027   0.306
 2839SOL     OW 9415   0.016   2.332   3.036
 2839SOL    HW1 9416   0.082   2.403   3.011
 2839SOL    HW2 9417   0.004   2.330   3.135
 2840SOL     OW 9418   1.447   5.634   2.833
 2840SOL    HW1 9419   1.437   5.720   2.884
 2840SOL    HW2 9420   1.360   5.585   2.834
 2841SOL     OW 9421   6.301   2.177   0.072
 2841SOL    HW1 9422   6.214   2.210   0.107
 2841SOL    HW2 9423   6.364   2.253   0.059
 2842SOL     OW 9424   1.698   5.942   4.948
 2842SOL    HW1 9425   1.697   6.013   5.018
 2842SOL    HW2 9426   1.627   5.961   4.880
 2843SOL     OW 9427   2.443   2.182   2.891
 2843SOL    HW1 9428   2.543   2.180   2.897
 2843SOL    HW2 9429   2.414   2.262   2.839
 2844SOL     OW 9430   5.372   4.652   1.465
 2844SOL    HW1 9431   5.356   4.555   1.482
 2844SOL    HW2 9432   5.287   4.695   1.433
 2845SOL     OW 9433   5.259   2.620   3.399
 2845SOL    HW1 9434   5.163   2.592   3.406
 2845SOL    HW2 9435   5.263   2.714   3.366
 2846SOL     OW 9436   3.362   0.909   0.128
 2846SOL    HW1 9437   3.278   0.935   0.081
 2846SOL    HW2 9438   3.439   0.912   0.063
 2847SOL     OW 9439   4.826   3.888   2.276
 2847SOL    HW1 9440   4.743   3.844   2.241
 2847SOL    HW2 9441   4.816   3.988   2.269
 2848SOL     OW 9442   1.562   2.343   5.371
 2848SOL    HW1 9443   1.659   2.348   5.350
 2848SOL    HW2 9444   1.509   2.375   5.292
 2849SOL     OW 9445   3.933   1.104   1.429
 2849SOL    HW1 9446   3.836   1.125   1.414
 2849SOL    HW2 9447   3.972   1.067   1.345
 2850SOL     OW 9448   1.561   0.049   3.568
 2850SOL    HW1 9449   1.527   7.019   3.489
 2850SOL    HW2 9450   1.578   0.144   3.542
 2851SOL     OW 9451   4.232   3.832   6.452
 2851SOL    HW1 9452   4.165   3.812   6.524
 2851SOL    HW2 9453   4.287   3.911   6.478
 2852SOL     OW 9454   6.672   4.174   7.000
 2852SOL    HW1 9455   6.758   4.220   7.020
 2852SOL    HW2 9456   6.621   4.160   0.064
 2853SOL     OW 9457   0.478   3.386   0.021
 2853SOL    HW1 9458   0.426   3.347   0.097
 2853SOL    HW2 9459   0.421   3.451   6.992
 2854SOL     OW 9460   3.643   1.022   6.257
 2854SOL    HW1 9461   3.720   1.073   6.295
 2854SOL    HW2 9462   3.674   0.931   6.228
 2855SOL     OW 9463   1.126   2.590   4.441
 2855SOL    HW1 9464   1.081   2.680   4.441
 2855SOL    HW2 9465   1.222   2.602   4.466
 2856SOL     OW 9466   1.618   2.673   3.047
 2856SOL    HW1 9467   1.529   2.631   3.031
 2856SOL    HW2 9468   1.678   2.608   3.094
 2857SOL     OW 9469   0.138   3.155   0.999
 2857SOL    HW1 9470   0.219   3.191   1.046
 2857SOL    HW2 9471   0.166   3.082   0.937
 2858SOL     OW 9472   5.158   6.470   2.294
 2858SOL    HW1 9473   5.117   6.470   2.202
 2858SOL    HW2 9474   5.107   6.407   2.352
 2859SOL     OW 9475   5.347   5.660   0.571
 2859SOL    HW1 9476   5.408   5.732   0.604
 2859SOL    HW2 9477   5.386   5.619   0.488
 2860SOL     OW 9478   1.973   6.710   2.218
 2860SOL    HW1 9479   1.928   6.646   2.280
 2860SOL    HW2 9480   1.905   6.774   2.182
 2861SOL     OW 9481   3.089   5.450   5.604
 2861SOL    HW1 9482   3.075   5.354   5.580
 2861SOL    HW2 9483   3.118   5.501   5.523
 2862SOL     OW 9484   4.521   2.453   2.026
 2862SOL    HW1 9485   4.595   2.385   2.030
 2862SOL    HW2 9486   4.437   2.411   2.060
 2863SOL     OW 9487   5.146   1.517   6.800
 2863SOL    HW1 9488   5.086   1.586   6.842
 2863SOL    HW2 9489   5.236   1.557   6.786
 2864SOL     OW 9490   4.384   3.243   1.057
 2864SOL    HW1 9491   4.408   3.146   1.050
 2864SOL    HW2 9492   4.295   3.252   1.102
 2865SOL     OW 9493   4.605   6.910   4.151
 2865SOL    HW1 9494   4.580   6.813   4.144
 2865SOL    HW2 9495   4.602   6.938   4.247
 2866SOL     OW 9496   5.761   3.801   0.674
 2866SOL    HW1 9497   5.848   3.752   0.666
 2866SOL    HW2 9498   5.699   3.771   0.602
 2867SOL     OW 9499   6.644   6.263   2.388
 2867SOL    HW1 9500   6.589   6.270   2.305
 2867SOL    HW2 9501   6.718   6.330   2.385
 2868SOL     OW 9502   0.876   0.856   5.167
 2868SOL    HW1 9503   0.866   0.916   5.087
 2868SOL    HW2 9504   0.955   0.885   5.221
 2869SOL     OW 9505   6.090   0.532   3.788
 2869SOL    HW1 9506   6.174   0.566   3.745
 2869SOL    HW2 9507   6.106   0.440   3.825
 2870SOL     OW 9508   0.808   1.797   6.762
 2870SOL    HW1 9509   0.775   1.817   6.854
 2870SOL    HW2 9510   0.795   1.876   6.703
 2871SOL     OW 9511   6.369   0.603   6.883
 2871SOL    HW1 9512   6.296   0.651   6.931
 2871SOL    HW2 9513   6.328   0.540   6.817
 2872SOL     OW 9514   2.638   1.480   0.976
 2872SOL    HW1 9515   2.673   1.392   0.944
 2872SOL    HW2 9516   2.697   1.554   0.941
 2873SOL     OW 9517   6.776   5.850   1.530
 2873SOL    HW1 9518   6.834   5.859   1.611
 2873SOL    HW2 9519   6.704   5.920   1.533
 2874SOL     OW 9520   4.214   0.054   2.846
 2874SOL    HW1 9521   4.256   0.136   2.886
 2874SOL    HW2 9522   4.170   0.077   2.760
 2875SOL     OW 9523   3.533   6.763   2.756
 2875SOL    HW1 9524   3.465   6.730   2.691
 2875SOL    HW2 9525   3.615   6.706   2.751
 2876SOL     OW 9526   1.502   6.251   2.128
 2876SOL    HW1 9527   1.551   6.167   2.149
 2876SOL    HW2 9528   1.531   6.286   2.039
 2877SOL     OW 9529   2.000   0.971   6.524
 2877SOL    HW1 9530   1.968   0.929   6.609
 2877SOL    HW2 9531   2.100   0.982   6.527
 2878SOL     OW 9532   3.305   3.963   4.303
 2878SOL    HW1 9533   3.338   3.891   4.242
 2878SOL    HW2 9534   3.248   3.923   4.374
 2879SOL     OW 9535   4.148   5.392   5.984
 2879SOL    HW1 9536   4.083   5.456   6.026
 2879SOL    HW2 9537   4.191   5.437   5.905
 2880SOL     OW 9538   0.560   1.635   3.766
 2880SOL    HW1 9539   0.630   1.625   3.836
 2880SOL    HW2 9540   0.497   1.558   3.771
 2881SOL     OW 9541   3.621   5.880   0.262
 2881SOL    HW1 9542   3.576   5.957   0.307
 2881SOL    HW2 9543   3.666   5.823   0.331
 2882SOL     OW 9544   5.864   6.191   1.294
 2882SOL    HW1 9545   5.939   6.137   1.332
 2882SOL    HW2 9546   5.850   6.167   1.198
 2883SOL     OW 9547   5.844   6.540   3.647
 2883SOL    HW1 9548   5.934   6.570   3.679
 2883SOL    HW2 9549   5.853   6.455   3.595
 2884SOL     OW 9550   6.603   5.582   2.135
 2884SOL    HW1 9551   6.517   5.593   2.185
 2884SOL    HW2 9552   6.608   5.652   2.063
 2885SOL     OW 9553   1.434   2.176   4.432
 2885SOL    HW1 9554   1.376   2.233   4.373
 2885SOL    HW2 9555   1.378   2.138   4.505
 2886SOL     OW 9556   2.983   4.575   6.828
 2886SOL    HW1 9557   2.916   4.600   6.759
 2886SOL    HW2 9558   2.989   4.476   6.835
 2887SOL     OW 9559   6.849   6.499   4.316
 2887SOL    HW1 9560   6.856   6.476   4.413
 2887SOL    HW2 9561   6.777   6.444   4.274
 2888SOL     OW 9562   0.064   5.088   0.107
 2888SOL    HW1 9563   0.046   5.126   0.016
 2888SOL    HW2 9564   0.088   5.162   0.170
 2889SOL     OW 9565   2.914   6.711   2.942
 2889SOL    HW1 9566   2.974   6.675   2.871
 2889SOL    HW2 9567   2.870   6.795   2.910
 2890SOL     OW 9568   1.927   5.151   0.747
 2890SOL    HW1 9569   1.832   5.122   0.753
 2890SOL    HW2 9570   1.936   5.245   0.781
 2891SOL     OW 9571   1.328   3.364   3.283
 2891SOL    HW1 9572   1.284   3.361   3.193
 2891SOL    HW2 9573   1.259   3.353   3.354
 2892SOL     OW 9574   5.623   2.826   1.022
 2892SOL    HW1 9575   5.680   2.801   0.944
 2892SOL    HW2 9576   5.669   2.803   1.107
 2893SOL     OW 9577   1.792   5.566   4.648
 2893SOL    HW1 9578   1.824   5.642   4.592
 2893SOL    HW2 9579   1.870   5.524   4.695
 2894SOL     OW 9580   1.666   4.028   1.590
 2894SOL    HW1 9581   1.655   4.060   1.497
 2894SOL    HW2 9582   1.595   4.067   1.648
 2895SOL     OW 9583   4.125   0.847   6.260
 2895SOL    HW1 9584   4.051   0.848   6.328
 2895SOL    HW2 9585   4.109   0.772   6.195
 2896SOL     OW 9586   5.072   0.171   6.093
 2896SOL    HW1 9587   5.031   0.213   6.012
 2896SOL    HW2 9588   5.172   0.173   6.085
 2897SOL     OW 9589   4.293   4.783   3.010
 2897SOL    HW1 9590   4.281   4.752   3.105
 2897SOL    HW2 9591   4.390   4.781   2.986
 2898SOL     OW 9592   5.276   3.801   3.913
 2898SOL    HW1 9593   5.202   3.778   3.849
 2898SOL    HW2 9594   5.238   3.850   3.991
 2899SOL     OW 9595   6.712   1.701   0.626
 2899SOL    HW1 9596   6.674   1.725   0.715
 2899SOL    HW2 9597   6.640   1.660   0.569
 2900SOL     OW 9598   4.091   5.045   0.180
 2900SOL    HW1 9599   4.149   4.991   0.119
 2900SOL    HW2 9600   4.037   4.984   0.237
 2901SOL     OW 9601   1.599   5.165   3.345
 2901SOL    HW1 9602   1.593   5.066   3.354
 2901SOL    HW2 9603   1.645   5.204   3.425
 2902SOL     OW 9604   0.200   5.487   3.754
 2902SOL    HW1 9605   0.232   5.575   3.719
 2902SOL    HW2 9606   0.149   5.439   3.682
 2903SOL     OW 9607   4.593   6.417   1.141
 2903SOL    HW1 9608   4.635   6.336   1.099
 2903SOL    HW2 9609   4.606   6.414   1.240
 2904SOL     OW 9610   3.232   4.930   4.774
 2904SOL    HW1 9611   3.222   4.891   4.866
 2904SOL    HW2 9612   3.329   4.935   4.750
 2905SOL     OW 9613   1.536   4.111   3.799
 2905SOL    HW1 9614   1.602   4.176   3.837
 2905SOL    HW2 9615   1.462   4.160   3.754
 2906SOL     OW 9616   5.433   5.929   2.464
 2906SOL    HW1 9617   5.397   5.838   2.483
 2906SOL    HW2 9618   5.455   5.975   2.551
 2907SOL     OW 9619   0.705   1.708   4.243
 2907SOL    HW1 9620   0.758   1.652   4.307
 2907SOL    HW2 9621   0.618   1.663   4.223
 2908SOL     OW 9622   5.543   6.935   4.241
 2908SOL    HW1 9623   5.577   6.850   4.202
 2908SOL    HW2 9624   5.559   7.010   4.176
 2909SOL     OW 9625   1.578   6.609   3.227
 2909SOL    HW1 9626   1.654   6.663   3.264
 2909SOL    HW2 9627   1.565   6.528   3.283
 2910SOL     OW 9628   0.100   1.196   3.517
 2910SOL    HW1 9629   0.078   1.128   3.447
 2910SOL    HW2 9630   0.197   1.192   3.538
 2911SOL     OW 9631   1.530   4.826   3.897
 2911SOL    HW1 9632   1.579   4.904   3.857
 2911SOL    HW2 9633   1.437   4.824   3.860
 2912SOL     OW 9634   6.548   6.283   6.719
 2912SOL    HW1 9635   6.613   6.356   6.740
 2912SOL    HW2 9636   6.527   6.232   6.802
 2913SOL     OW 9637   2.865   4.753   2.706
 2913SOL    HW1 9638   2.904   4.781   2.793
 2913SOL    HW2 9639   2.924   4.684   2.663
 2914SOL     OW 9640   5.414   5.361   1.169
 2914SOL    HW1 9641   5.321   5.362   1.205
 2914SOL    HW2 9642   5.457   5.450   1.185
 2915SOL     OW 9643   3.122   1.907   3.788
 2915SOL    HW1 9644   3.119   1.924   3.690
 2915SOL    HW2 9645   3.080   1.984   3.837
 2916SOL     OW 9646   2.183   5.504   0.326
 2916SOL    HW1 9647   2.125   5.537   0.401
 2916SOL    HW2 9648   2.266   5.463   0.364
 2917SOL     OW 9649   3.219   0.483   3.969
 2917SOL    HW1 9650   3.231   0.569   3.920
 2917SOL    HW2 9651   3.156   0.424   3.919
 2918SOL     OW 9652   5.681   3.831   6.986
 2918SOL    HW1 9653   5.766   3.844   0.016
 2918SOL    HW2 9654   5.699   3.777   6.904
 2919SOL     OW 9655   6.409   6.603   3.746
 2919SOL    HW1 9656   6.409   6.504   3.758
 2919SOL    HW2 9657   6.396   6.625   3.650
 2920SOL     OW 9658   3.022   0.372   2.062
 2920SOL    HW1 9659   2.957   0.316   2.011
 2920SOL    HW2 9660   2.998   0.370   2.159
 2921SOL     OW 9661   0.262   0.262   6.072
 2921SOL    HW1 9662   0.271   0.318   5.989
 2921SOL    HW2 9663   0.176   0.213   6.070
 2922SOL     OW 9664   4.047   6.632   2.120
 2922SOL    HW1 9665   3.950   6.613   2.102
 2922SOL    HW2 9666   4.080   6.572   2.192
 2923SOL     OW 9667   6.415   5.045   4.689
 2923SOL    HW1 9668   6.514   5.037   4.705
 2923SOL    HW2 9669   6.399   5.089   4.601
 2924SOL     OW 9670   6.758   1.613   4.662
 2924SOL    HW1 9671   6.756   1.516   4.636
 2924SOL    HW2 9672   6.704   1.626   4.745
 2925SOL     OW 9673   5.636   2.072   6.743
 2925SOL    HW1 9674   5.708   2.141   6.731
 2925SOL    HW2 9675   5.678   1.982   6.754
 2926SOL     OW 9676   6.656   2.529   6.272
 2926SOL    HW1 9677   6.615   2.570   6.191
 2926SOL    HW2 9678   6.610   2.442   6.292
 2927SOL     OW 9679   1.745   3.055   0.510
 2927SOL    HW1 9680   1.748   3.143   0.557
 2927SOL    HW2 9681   1.742   3.070   0.411
 2928SOL     OW 9682   6.771   1.235   6.678
 2928SOL    HW1 9683   6.838   1.222   6.752
 2928SOL    HW2 9684   6.679   1.236   6.716
 2929SOL     OW 9685   1.313   2.756   5.040
 2929SOL    HW1 9686   1.290   2.853   5.048
 2929SOL    HW2 9687   1.369   2.742   4.958
 2930SOL     OW 9688   5.612   6.093   5.194
 2930SOL    HW1 9689   5.674   6.088   5.116
 2930SOL    HW2 9690   5.607   6.188   5.227
 2931SOL     OW 9691   4.086   4.778   0.392
 2931SOL    HW1 9692   4.063   4.712   0.320
 2931SOL    HW2 9693   4.051   4.745   0.480
 2932SOL     OW 9694   6.935   5.464   1.481
 2932SOL    HW1 9695   0.000   5.512   1.498
 2932SOL    HW2 9696   6.940   5.417   1.392
 2933SOL     OW 9697   0.598   0.064   2.353
 2933SOL    HW1 9698   0.513   0.108   2.324
 2933SOL    HW2 9699   0.630   0.107   2.438
 2934SOL     OW 9700   4.879   2.725   1.066
 2934SOL    HW1 9701   4.820   2.765   0.996
 2934SOL    HW2 9702   4.861   2.770   1.154
 2935SOL     OW 9703   0.893   2.369   6.304
 2935SOL    HW1 9704   0.803   2.386   6.263
 2935SOL    HW2 9705   0.958   2.343   6.232
 2936SOL     OW 9706   4.052   6.437   0.780
 2936SOL    HW1 9707   4.123   6.368   0.786
 2936SOL    HW2 9708   4.062   6.487   0.694
 2937SOL     OW 9709   4.528   5.086   0.983
 2937SOL    HW1 9710   4.516   5.081   0.884
 2937SOL    HW2 9711   4.605   5.146   1.004
 2938SOL     OW 9712   6.573   5.289   0.023
 2938SOL    HW1 9713   6.599   5.382   7.018
 2938SOL    HW2 9714   6.502   5.292   0.093
 2939SOL     OW 9715   1.350   0.135   1.957
 2939SOL    HW1 9716   1.321   0.119   2.051
 2939SOL    HW2 9717   1.403   0.221   1.952
 2940SOL     OW 9718   6.222   5.554   4.812
 2940SOL    HW1 9719   6.140   5.603   4.782
 2940SOL    HW2 9720   6.225   5.553   4.912
 2941SOL     OW 9721   2.409   2.226   3.163
 2941SOL    HW1 9722   2.323   2.273   3.182
 2941SOL    HW2 9723   2.414   2.204   3.066
 2942SOL     OW 9724   3.619   2.773   0.461
 2942SOL    HW1 9725   3.691   2.704   0.459
 2942SOL    HW2 9726   3.562   2.765   0.379
 2943SOL     OW 9727   6.149   5.094   3.877
 2943SOL    HW1 9728   6.193   5.025   3.820
 2943SOL    HW2 9729   6.070   5.132   3.829
 2944SOL     OW 9730   2.721   6.086   3.569
 2944SOL    HW1 9731   2.692   6.180   3.590
 2944SOL    HW2 9732   2.717   6.031   3.653
 2945SOL     OW 9733   5.111   3.105   1.904
 2945SOL    HW1 9734   5.048   3.099   1.981
 2945SOL    HW2 9735   5.140   3.013   1.879
 2946SOL     OW 9736   1.950   4.135   5.701
 2946SOL    HW1 9737   1.932   4.218   5.648
 2946SOL    HW2 9738   2.022   4.082   5.656
 2947SOL     OW 9739   0.101   5.297   0.254
 2947SOL    HW1 9740   0.141   5.371   0.200
 2947SOL    HW2 9741   0.050   5.336   0.331
 2948SOL     OW 9742   6.970   4.521   3.258
 2948SOL    HW1 9743   6.936   4.540   3.166
 2948SOL    HW2 9744   6.983   4.607   3.307
 2949SOL     OW 9745   0.350   5.711   6.420
 2949SOL    HW1 9746   0.336   5.774   6.344
 2949SOL    HW2 9747   0.436   5.734   6.467
 2950SOL     OW 9748   5.795   5.693   3.828
 2950SOL    HW1 9749   5.799   5.674   3.926
 2950SOL    HW2 9750   5.766   5.610   3.780
 2951SOL     OW 9751   5.313   1.182   2.110
 2951SOL    HW1 9752   5.237   1.173   2.046
 2951SOL    HW2 9753   5.398   1.199   2.059
 2952SOL     OW 9754   6.699   6.877   5.028
 2952SOL    HW1 9755   6.600   6.883   5.014
 2952SOL    HW2 9756   6.740   6.819   4.958
 2953SOL     OW 9757   0.334   4.373   3.361
 2953SOL    HW1 9758   0.416   4.316   3.364
 2953SOL    HW2 9759   0.264   4.328   3.305
 2954SOL     OW 9760   6.804   4.916   6.691
 2954SOL    HW1 9761   6.838   4.936   6.783
 2954SOL    HW2 9762   6.813   4.998   6.634
 2955SOL     OW 9763   0.979   4.137   0.628
 2955SOL    HW1 9764   1.042   4.185   0.566
 2955SOL    HW2 9765   0.930   4.204   0.684
 2956SOL     OW 9766   0.249   5.658   4.015
 2956SOL    HW1 9767   0.151   5.674   4.003
 2956SOL    HW2 9768   0.296   5.674   3.928
 2957SOL     OW 9769   4.076   5.131   1.567
 2957SOL    HW1 9770   4.056   5.065   1.496
 2957SOL    HW2 9771   4.105   5.083   1.650
 2958SOL     OW 9772   2.309   4.924   3.550
 2958SOL    HW1 9773   2.298   5.023   3.537
 2958SOL    HW2 9774   2.229   4.889   3.600
 2959SOL     OW 9775   5.157   2.779   2.698
 2959SOL    HW1 9776   5.164   2.873   2.664
 2959SOL    HW2 9777   5.063   2.761   2.727
 2960SOL     OW 9778   3.633   0.119   6.704
 2960SOL    HW1 9779   3.607   0.060   6.781
 2960SOL    HW2 9780   3.557   0.125   6.640
 2961SOL     OW 9781   6.616   5.059   3.137
 2961SOL    HW1 9782   6.524   5.037   3.106
 2961SOL    HW2 9783   6.619   5.053   3.237
 2962SOL     OW 9784   4.891   6.633   3.337
 2962SOL    HW1 9785   4.914   6.541   3.306
 2962SOL    HW2 9786   4.805   6.662   3.294
 2963SOL     OW 9787   1.011   0.636   6.434
 2963SOL    HW1 9788   0.981   0.675   6.521
 2963SOL    HW2 9789   1.085   0.571   6.450
 2964SOL     OW 9790   0.300   2.528   6.553
 2964SOL    HW1 9791   0.284   2.593   6.627
 2964SOL    HW2 9792   0.224   2.464   6.548
 2965SOL     OW 9793   1.196   0.478   4.619
 2965SOL    HW1 9794   1.119   0.523   4.664
 2965SOL    HW2 9795   1.196   0.381   4.644
 2966SOL     OW 9796   4.804   5.766   3.647
 2966SOL    HW1 9797   4.736   5.731   3.711
 2966SOL    HW2 9798   4.810   5.865   3.656
 2967SOL     OW 9799   6.274   1.207   5.620
 2967SOL    HW1 9800   6.258   1.223   5.717
 2967SOL    HW2 9801   6.192   1.168   5.578
 2968SOL     OW 9802   1.464   2.320   0.807
 2968SOL    HW1 9803   1.428   2.286   0.721
 2968SOL    HW2 9804   1.446   2.418   0.815
 2969SOL     OW 9805   4.960   3.542   4.824
 2969SOL    HW1 9806   4.903   3.589   4.890
 2969SOL    HW2 9807   5.037   3.499   4.871
 2970SOL     OW 9808   2.889   2.712   5.355
 2970SOL    HW1 9809   2.885   2.726   5.454
 2970SOL    HW2 9810   2.965   2.764   5.317
 2971SOL     OW 9811   5.712   4.238   0.230
 2971SOL    HW1 9812   5.801   4.200   0.258
 2971SOL    HW2 9813   5.676   4.186   0.154
 2972SOL     OW 9814   5.289   4.853   0.031
 2972SOL    HW1 9815   5.383   4.839   0.063
 2972SOL    HW2 9816   5.292   4.894   6.961
 2973SOL     OW 9817   4.764   6.745   2.406
 2973SOL    HW1 9818   4.769   6.680   2.482
 2973SOL    HW2 9819   4.856   6.764   2.372
 2974SOL     OW 9820   6.452   4.081   3.561
 2974SOL    HW1 9821   6.513   4.152   3.526
 2974SOL    HW2 9822   6.430   4.102   3.657
 2975SOL     OW 9823   4.968   4.813   4.380
 2975SOL    HW1 9824   5.003   4.746   4.315
 2975SOL    HW2 9825   4.874   4.790   4.404
 2976SOL     OW 9826   5.151   1.939   3.078
 2976SOL    HW1 9827   5.183   1.943   2.983
 2976SOL    HW2 9828   5.108   2.026   3.102
 2977SOL     OW 9829   0.812   0.612   2.444
 2977SOL    HW1 9830   0.744   0.675   2.404
 2977SOL    HW2 9831   0.769   0.524   2.462
 2978SOL     OW 9832   3.808   4.021   0.155
 2978SOL    HW1 9833   3.886   4.048   0.097
 2978SOL    HW2 9834   3.724   4.058   0.115
 2979SOL     OW 9835   3.205   1.418   4.029
 2979SOL    HW1 9836   3.171   1.508   4.002
 2979SOL    HW2 9837   3.191   1.406   4.127
 2980SOL     OW 9838   2.488   5.387   6.664
 2980SOL    HW1 9839   2.541   5.412   6.746
 2980SOL    HW2 9840   2.530   5.429   6.584
 2981SOL     OW 9841   2.572   1.605   0.201
 2981SOL    HW1 9842   2.597   1.700   0.221
 2981SOL    HW2 9843   2.481   1.586   0.236
 2982SOL     OW 9844   1.898   5.895   2.507
 2982SOL    HW1 9845   1.918   5.825   2.577
 2982SOL    HW2 9846   1.855   5.974   2.550
 2983SOL     OW 9847   0.158   2.366   0.910
 2983SOL    HW1 9848   0.196   2.454   0.940
 2983SOL    HW2 9849   0.084   2.382   0.845
 2984SOL     OW 9850   5.787   5.077   6.259
 2984SOL    HW1 9851   5.798   5.010   6.186
 2984SOL    HW2 9852   5.866   5.139   6.259
 2985SOL     OW 9853   0.645   1.235   4.697
 2985SOL    HW1 9854   0.622   1.263   4.604
 2985SOL    HW2 9855   0.591   1.154   4.721
 2986SOL     OW 9856   3.534   4.123   2.294
 2986SOL    HW1 9857   3.558   4.128   2.391
 2986SOL    HW2 9858   3.557   4.209   2.249
 2987SOL     OW 9859   1.601   1.235   4.281
 2987SOL    HW1 9860   1.594   1.264   4.185
 2987SOL    HW2 9861   1.669   1.162   4.289
 2988SOL     OW 9862   1.592   6.881   1.590
 2988SOL    HW1 9863   1.641   6.830   1.520
 2988SOL    HW2 9864   1.632   6.972   1.601
 2989SOL     OW 9865   5.233   3.711   5.140
 2989SOL    HW1 9866   5.157   3.742   5.084
 2989SOL    HW2 9867   5.220   3.741   5.234
 2990SOL     OW 9868   5.002   2.415   4.913
 2990SOL    HW1 9869   5.081   2.367   4.874
 2990SOL    HW2 9870   5.025   2.512   4.923
 2991SOL     OW 9871   6.006   3.211   6.347
 2991SOL    HW1 9872   6.085   3.240   6.401
 2991SOL    HW2 9873   5.925   3.261   6.376
 2992SOL     OW 9874   1.492   4.688   4.922
 2992SOL    HW1 9875   1.426   4.753   4.958
 2992SOL    HW2 9876   1.487   4.603   4.974
 2993SOL     OW 9877   0.125   5.093   0.496
 2993SOL    HW1 9878   0.119   5.184   0.454
 2993SOL    HW2 9879   0.056   5.034   0.455
 2994SOL     OW 9880   4.033   5.765   0.044
 2994SOL    HW1 9881   4.092   5.742   0.122
 2994SOL    HW2 9882   3.937   5.760   0.073
 2995SOL     OW 9883   4.216   0.095   0.049
 2995SOL    HW1 9884   4.117   0.084   0.036
 2995SOL    HW2 9885   4.253   0.012   0.090
 2996SOL     OW 9886   0.734   1.784   4.653
 2996SOL    HW1 9887   0.786   1.701   4.633
 2996SOL    HW2 9888   0.723   1.838   4.569
 2997SOL     OW 9889   4.627   0.280   2.918
 2997SOL    HW1 9890   4.684   0.295   2.838
 2997SOL    HW2 9891   4.651   0.346   2.989
 2998SOL     OW 9892   3.797   6.915   3.510
 2998SOL    HW1 9893   3.838   6.979   3.445
 2998SOL    HW2 9894   3.864   6.892   3.580
 2999SOL     OW 9895   3.211   4.944   5.915
 2999SOL    HW1 9896   3.170   5.034   5.931
 2999SOL    HW2 9897   3.151   4.891   5.854
 3000SOL     OW 9898   2.841   4.296   6.621
 3000SOL    HW1 9899   2.772   4.316   6.691
 3000SOL    HW2 9900   2.809   4.332   6.533
 3001SOL     OW 9901   6.469   2.019   0.662
 3001SOL    HW1 9902   6.556   2.015   0.613
 3001SOL    HW2 9903   6.447   1.930   0.699
 3002SOL     OW 9904   3.068   1.805   0.686
 3002SOL    HW1 9905   3.067   1.710   0.654
 3002SOL    HW2 9906   3.154   1.849   0.660
 3003SOL     OW 9907   0.751   6.458   1.445
 3003SOL    HW1 9908   0.807   6.420   1.371
 3003SOL    HW2 9909   0.655   6.461   1.415
 3004SOL     OW 9910   1.858   4.658   3.145
 3004SOL    HW1 9911   1.889   4.700   3.060
 3004SOL    HW2 9912   1.935   4.613   3.190
 3005SOL     OW 9913   1.494   3.120   6.345
 3005SOL    HW1 9914   1.490   3.183   6.268
 3005SOL    HW2 9915   1.495   3.026   6.311
 3006SOL     OW 9916   5.521   1.554   5.157
 3006SOL    HW1 9917   5.587   1.516   5.222
 3006SOL    HW2 9918   5.437   1.579   5.206
 3007SOL     OW 9919   4.914   5.350   0.214
 3007SOL    HW1 9920   4.922   5.306   0.125
 3007SOL    HW2 9921   4.999   5.397   0.237
 3008SOL     OW 9922   3.519   2.498   6.279
 3008SOL    HW1 9923   3.502   2.560   6.203
 3008SOL    HW2 9924   3.459   2.522   6.356
 3009SOL     OW 9925   0.166   2.587   2.923
 3009SOL    HW1 9926   0.230   2.650   2.880
 3009SOL    HW2 9927   0.150   2.616   3.018
 3010SOL     OW 9928   2.952   5.662   4.608
 3010SOL    HW1 9929   2.906   5.697   4.690
 3010SOL    HW2 9930   2.894   5.594   4.564
 3011SOL     OW 9931   6.185   7.012   1.648
 3011SOL    HW1 9932   6.130   6.933   1.674
 3011SOL    HW2 9933   6.232   0.027   1.728
 3012SOL     OW 9934   2.361   3.545   0.185
 3012SOL    HW1 9935   2.375   3.614   0.257
 3012SOL    HW2 9936   2.390   3.456   0.218
 3013SOL     OW 9937   6.535   4.770   3.199
 3013SOL    HW1 9938   6.546   4.839   3.128
 3013SOL    HW2 9939   6.572   4.683   3.168
 3014SOL     OW 9940   4.643   1.811   6.952
 3014SOL    HW1 9941   4.679   1.866   6.877
 3014SOL    HW2 9942   4.681   1.718   6.946
 3015SOL     OW 9943   2.011   1.731   0.503
 3015SOL    HW1 9944   2.002   1.777   0.415
 3015SOL    HW2 9945   2.093   1.673   0.501
 3016SOL     OW 9946   3.472   6.765   4.240
 3016SOL    HW1 9947   3.484   6.670   4.270
 3016SOL    HW2 9948   3.456   6.823   4.320
 3017SOL     OW 9949   5.326   4.944   2.428
 3017SOL    HW1 9950   5.319   4.963   2.526
 3017SOL    HW2 9951   5.409   4.987   2.392
 3018SOL     OW 9952   3.500   6.771   6.793
 3018SOL    HW1 9953   3.513   6.763   6.694
 3018SOL    HW2 9954   3.517   6.682   6.836
 3019SOL     OW 9955   0.794   6.965   0.730
 3019SOL    HW1 9956   0.749   6.898   0.790
 3019SOL    HW2 9957   0.733   6.988   0.655
 3020SOL     OW 9958   4.347   3.288   0.578
 3020SOL    HW1 9959   4.311   3.298   0.485
 3020SOL    HW2 9960   4.318   3.201   0.616
 3021SOL     OW 9961   2.467   6.784   4.424
 3021SOL    HW1 9962   2.414   6.705   4.456
 3021SOL    HW2 9963   2.459   6.858   4.490
 3022SOL     OW 9964   4.352   5.623   4.443
 3022SOL    HW1 9965   4.390   5.531   4.454
 3022SOL    HW2 9966   4.402   5.686   4.502
 3023SOL     OW 9967   3.787   6.680   2.670
 3023SOL    HW1 9968   3.874   6.652   2.713
 3023SOL    HW2 9969   3.781   6.642   2.578
 3024SOL     OW 9970   6.019   6.234   5.421
 3024SOL    HW1 9971   6.002   6.146   5.464
 3024SOL    HW2 9972   6.116   6.242   5.400
 3025SOL     OW 9973   3.915   6.175   1.834
 3025SOL    HW1 9974   3.914   6.238   1.911
 3025SOL    HW2 9975   3.842   6.199   1.770
 3026SOL     OW 9976   0.509   1.272   6.506
 3026SOL    HW1 9977   0.462   1.278   6.418
 3026SOL    HW2 9978   0.571   1.193   6.505
 3027SOL     OW 9979   3.946   1.298   2.151
 3027SOL    HW1 9980   3.858   1.265   2.117
 3027SOL    HW2 9981   3.999   1.335   2.075
 3028SOL     OW 9982   1.967   3.958   6.311
 3028SOL    HW1 9983   2.033   3.889   6.282
 3028SOL    HW2 9984   1.877   3.936   6.273
 3029SOL     OW 9985   0.993   2.431   3.601
 3029SOL    HW1 9986   1.035   2.388   3.520
 3029SOL    HW2 9987   1.053   2.419   3.680
 3030SOL     OW 9988   1.366   4.168   0.746
 3030SOL    HW1 9989   1.409   4.239   0.690
 3030SOL    HW2 9990   1.335   4.093   0.687
 3031SOL     OW 9991   1.196   4.635   0.743
 3031SOL    HW1 9992   1.188   4.716   0.800
 3031SOL    HW2 9993   1.278   4.643   0.685
 3032SOL     OW 9994   2.260   5.582   2.353
 3032SOL    HW1 9995   2.237   5.578   2.256
 3032SOL    HW2 9996   2.254   5.491   2.393
 3033SOL     OW 9997   6.231   1.781   2.814
 3033SOL    HW1 9998   6.136   1.754   2.803
 3033SOL    HW2 9999   6.287   1.736   2.744
 3034SOL     OW10000   1.210   5.831   3.871
 3034SOL    HW110001   1.182   5.804   3.963
 3034SOL    HW210002   1.300   5.792   3.851
 3035SOL     OW10003   1.099   3.091   6.246
 3035SOL    HW110004   1.121   3.008   6.297
 3035SOL    HW210005   1.115   3.075   6.148
 3036SOL     OW10006   1.101   2.116   5.065
 3036SOL    HW110007   1.016   2.078   5.028
 3036SOL    HW210008   1.104   2.214   5.048
 3037SOL     OW10009   6.578   4.925   5.576
 3037SOL    HW110010   6.677   4.939   5.575
 3037SOL    HW210011   6.536   4.987   5.642
 3038SOL     OW10012   5.100   4.292   5.862
 3038SOL    HW110013   5.102   4.212   5.802
 3038SOL    HW210014   5.179   4.350   5.843
 3039SOL     OW10015   0.082   3.115   6.822
 3039SOL    HW110016   0.074   3.041   6.755
 3039SOL    HW210017   0.045   3.200   6.783
 3040SOL     OW10018   3.001   4.836   5.711
 3040SOL    HW110019   2.916   4.885   5.692
 3040SOL    HW210020   2.981   4.739   5.727
 3041SOL     OW10021   0.746   4.766   6.398
 3041SOL    HW110022   0.728   4.826   6.476
 3041SOL    HW210023   0.811   4.810   6.336
 3042SOL     OW10024   5.848   5.801   2.518
 3042SOL    HW110025   5.811   5.739   2.448
 3042SOL    HW210026   5.848   5.755   2.606
 3043SOL     OW10027   3.296   3.664   1.039
 3043SOL    HW110028   3.316   3.567   1.033
 3043SOL    HW210029   3.367   3.710   1.092
 3044SOL     OW10030   2.939   4.978   5.289
 3044SOL    HW110031   2.945   4.880   5.308
 3044SOL    HW210032   3.004   5.027   5.349
 3045SOL     OW10033   4.937   6.757   3.062
 3045SOL    HW110034   4.928   6.732   2.966
 3045SOL    HW210035   4.949   6.674   3.117
 3046SOL     OW10036   3.706   6.467   0.180
 3046SOL    HW110037   3.730   6.389   0.238
 3046SOL    HW210038   3.654   6.534   0.233
 3047SOL     OW10039   6.733   6.914   0.721
 3047SOL    HW110040   6.643   6.869   0.725
 3047SOL    HW210041   6.720   7.013   0.730
 3048SOL     OW10042   4.654   2.400   0.721
 3048SOL    HW110043   4.694   2.436   0.806
 3048SOL    HW210044   4.555   2.394   0.732
 3049SOL     OW10045   1.081   0.832   4.058
 3049SOL    HW110046   1.169   0.787   4.049
 3049SOL    HW210047   1.033   0.829   3.971
 3050SOL     OW10048   2.413   2.648   1.341
 3050SOL    HW110049   2.482   2.619   1.407
 3050SOL    HW210050   2.336   2.690   1.389
 3051SOL     OW10051   2.890   6.659   6.342
 3051SOL    HW110052   2.879   6.758   6.352
 3051SOL    HW210053   2.933   6.622   6.423
 3052SOL     OW10054   5.224   5.238   2.199
 3052SOL    HW110055   5.211   5.261   2.103
 3052SOL    HW210056   5.135   5.223   2.243
 3053SOL     OW10057   0.333   3.790   1.174
 3053SOL    HW110058   0.416   3.845   1.162
 3053SOL    HW210059   0.295   3.768   1.084
 3054SOL     OW10060   5.657   0.708   2.370
 3054SOL    HW110061   5.574   0.747   2.330
 3054SOL    HW210062   5.690   0.633   2.312
 3055SOL     OW10063   5.645   6.880   5.539
 3055SOL    HW110064   5.725   6.925   5.579
 3055SOL    HW210065   5.599   6.827   5.610
 3056SOL     OW10066   6.067   1.781   5.807
 3056SOL    HW110067   6.085   1.880   5.816
 3056SOL    HW210068   6.154   1.733   5.798
 3057SOL     OW10069   5.419   6.350   4.294
 3057SOL    HW110070   5.456   6.382   4.207
 3057SOL    HW210071   5.485   6.289   4.338
 3058SOL     OW10072   6.210   3.911   0.786
 3058SOL    HW110073   6.271   3.979   0.827
 3058SOL    HW210074   6.133   3.958   0.743
 3059SOL     OW10075   2.387   1.735   4.087
 3059SOL    HW110076   2.365   1.648   4.131
 3059SOL    HW210077   2.473   1.726   4.036
 3060SOL     OW10078   2.274   4.921   6.721
 3060SOL    HW110079   2.243   4.909   6.815
 3060SOL    HW210080   2.374   4.919   6.718
 3061SOL     OW10081   5.869   5.665   5.864
 3061SOL    HW110082   5.961   5.704   5.872
 3061SOL    HW210083   5.804   5.724   5.911
 3062SOL     OW10084   2.992   5.553   1.222
 3062SOL    HW110085   2.983   5.470   1.168
 3062SOL    HW210086   3.072   5.545   1.281
 3063SOL     OW10087   0.580   4.252   1.018
 3063SOL    HW110088   0.593   4.337   0.968
 3063SOL    HW210089   0.489   4.253   1.060
 3064SOL     OW10090   4.306   3.259   6.806
 3064SOL    HW110091   4.349   3.341   6.842
 3064SOL    HW210092   4.319   3.184   6.871
 3065SOL     OW10093   1.337   1.706   6.258
 3065SOL    HW110094   1.330   1.698   6.159
 3065SOL    HW210095   1.247   1.725   6.297
 3066SOL     OW10096   5.441   5.182   6.202
 3066SOL    HW110097   5.525   5.220   6.242
 3066SOL    HW210098   5.394   5.126   6.270
 3067SOL     OW10099   2.788   1.712   0.605
 3067SOL    HW110100   2.835   1.781   0.549
 3067SOL    HW210101   2.825   1.621   0.584
 3068SOL     OW10102   0.119   0.656   1.825
 3068SOL    HW110103   0.127   0.747   1.867
 3068SOL    HW210104   0.126   0.664   1.726
 3069SOL     OW10105   6.163   6.388   3.294
 3069SOL    HW110106   6.168   6.420   3.199
 3069SOL    HW210107   6.088   6.434   3.341
 3070SOL     OW10108   2.595   1.108   6.419
 3070SOL    HW110109   2.680   1.129   6.370
 3070SOL    HW210110   2.525   1.174   6.393
 3071SOL     OW10111   6.473   5.137   3.998
 3071SOL    HW110112   6.476   5.209   3.929
 3071SOL    HW210113   6.554   5.143   4.056
 3072SOL     OW10114   1.877   6.218   6.955
 3072SOL    HW110115   1.786   6.179   6.971
 3072SOL    HW210116   1.929   6.216   0.020
 3073SOL     OW10117   0.319   4.241   1.922
 3073SOL    HW110118   0.228   4.235   1.883
 3073SOL    HW210119   0.379   4.173   1.880
 3074SOL     OW10120   1.292   4.176   1.007
 3074SOL    HW110121   1.225   4.249   1.019
 3074SOL    HW210122   1.322   4.174   0.911
 3075SOL     OW10123   2.479   5.432   3.893
 3075SOL    HW110124   2.513   5.345   3.858
 3075SOL    HW210125   2.385   5.446   3.862
 3076SOL     OW10126   6.443   1.612   4.384
 3076SOL    HW110127   6.433   1.589   4.481
 3076SOL    HW210128   6.502   1.692   4.375
 3077SOL     OW10129   6.268   3.279   1.811
 3077SOL    HW110130   6.278   3.352   1.744
 3077SOL    HW210131   6.198   3.304   1.878
 3078SOL     OW10132   6.479   3.339   2.105
 3078SOL    HW110133   6.463   3.429   2.146
 3078SOL    HW210134   6.519   3.350   2.014
 3079SOL     OW10135   3.257   2.177   3.682
 3079SOL    HW110136   3.318   2.100   3.704
 3079SOL    HW210137   3.256   2.191   3.583
 3080SOL     OW10138   4.832   4.129   2.153
 3080SOL    HW110139   4.911   4.131   2.214
 3080SOL    HW210140   4.776   4.211   2.168
 3081SOL     OW10141   0.581   4.413   6.077
 3081SOL    HW110142   0.489   4.381   6.053
 3081SOL    HW210143   0.582   4.443   6.172
 3082SOL     OW10144   2.692   6.139   4.050
 3082SOL    HW110145   2.697   6.239   4.054
 3082SOL    HW210146   2.714   6.101   4.140
 3083SOL     OW10147   3.247   6.156   2.841
 3083SOL    HW110148   3.185   6.124   2.770
 3083SOL    HW210149   3.207   6.234   2.889
 3084SOL     OW10150   6.916   3.886   2.701
 3084SOL    HW110151   6.837   3.840   2.660
 3084SOL    HW210152   6.901   3.985   2.701
 3085SOL     OW10153   5.571   4.364   0.920
 3085SOL    HW110154   5.623   4.412   0.849
 3085SOL    HW210155   5.479   4.344   0.885
 3086SOL     OW10156   4.516   0.885   0.073
 3086SOL    HW110157   4.517   0.984   0.066
 3086SOL    HW210158   4.533   0.845   7.004
 3087SOL     OW10159   2.649   6.295   2.982
 3087SOL    HW110160   2.698   6.358   3.042
 3087SOL    HW210161   2.702   6.210   2.972
 3088SOL     OW10162   1.547   3.242   5.686
 3088SOL    HW110163   1.516   3.291   5.605
 3088SOL    HW210164   1.592   3.306   5.748
 3089SOL     OW10165   4.652   2.064   4.683
 3089SOL    HW110166   4.645   2.045   4.781
 3089SOL    HW210167   4.574   2.023   4.635
 3090SOL     OW10168   1.875   0.881   2.154
 3090SOL    HW110169   1.894   0.900   2.251
 3090SOL    HW210170   1.789   0.926   2.128
 3091SOL     OW10171   1.442   0.998   0.734
 3091SOL    HW110172   1.484   1.027   0.820
 3091SOL    HW210173   1.506   1.008   0.659
 3092SOL     OW10174   5.272   6.220   1.073
 3092SOL    HW110175   5.294   6.307   1.029
 3092SOL    HW210176   5.309   6.219   1.166
 3093SOL     OW10177   5.540   6.312   5.411
 3093SOL    HW110178   5.633   6.332   5.378
 3093SOL    HW210179   5.487   6.396   5.414
 3094SOL     OW10180   3.158   0.388   4.327
 3094SOL    HW110181   3.088   0.442   4.280
 3094SOL    HW210182   3.199   0.324   4.263
 3095SOL     OW10183   2.042   3.788   5.915
 3095SOL    HW110184   2.079   3.765   6.004
 3095SOL    HW210185   2.099   3.748   5.843
 3096SOL     OW10186   0.491   3.776   5.057
 3096SOL    HW110187   0.538   3.703   5.007
 3096SOL    HW210188   0.531   3.864   5.032
 3097SOL     OW10189   5.539   2.904   6.920
 3097SOL    HW110190   5.574   2.848   6.995
 3097SOL    HW210191   5.572   2.998   6.931
 3098SOL     OW10192   1.800   3.225   1.848
 3098SOL    HW110193   1.814   3.180   1.760
 3098SOL    HW210194   1.876   3.289   1.865
 3099SOL     OW10195   1.138   6.212   3.949
 3099SOL    HW110196   1.173   6.128   3.990
 3099SOL    HW210197   1.215   6.271   3.925
 3100SOL     OW10198   7.010   6.326   2.275
 3100SOL    HW110199   6.945   6.390   2.317
 3100SOL    HW210200   0.069   6.316   2.334
 3101SOL     OW10201   4.623   6.441   5.647
 3101SOL    HW110202   4.722   6.434   5.633
 3101SOL    HW210203   4.582   6.487   5.569
 3102SOL     OW10204   0.038   5.798   1.148
 3102SOL    HW110205   6.997   5.844   1.086
 3102SOL    HW210206   0.030   5.839   1.239
 3103SOL     OW10207   5.052   0.813   1.221
 3103SOL    HW110208   5.072   0.761   1.305
 3103SOL    HW210209   5.072   0.755   1.141
 3104SOL     OW10210   3.768   0.336   6.576
 3104SOL    HW110211   3.709   0.416   6.584
 3104SOL    HW210212   3.725   0.258   6.622
 3105SOL     OW10213   4.628   3.679   1.343
 3105SOL    HW110214   4.556   3.743   1.371
 3105SOL    HW210215   4.687   3.723   1.276
 3106SOL     OW10216   5.394   6.816   5.125
 3106SOL    HW110217   5.409   6.883   5.052
 3106SOL    HW210218   5.388   6.724   5.085
 3107SOL     OW10219   4.188   1.557   3.982
 3107SOL    HW110220   4.235   1.472   3.956
 3107SOL    HW210221   4.246   1.635   3.959
 3108SOL     OW10222   2.035   5.522   4.809
 3108SOL    HW110223   2.131   5.495   4.805
 3108SOL    HW210224   2.028   5.617   4.837
 3109SOL     OW10225   6.444   0.623   4.357
 3109SOL    HW110226   6.389   0.688   4.303
 3109SOL    HW210227   6.440   0.649   4.453
 3110SOL     OW10228   2.294   4.174   3.398
 3110SOL    HW110229   2.252   4.144   3.313
 3110SOL    HW210230   2.305   4.274   3.396
 3111SOL     OW10231   0.266   4.675   3.322
 3111SOL    HW110232   0.267   4.575   3.316
 3111SOL    HW210233   0.357   4.708   3.348
 3112SOL     OW10234   3.192   3.485   0.072
 3112SOL    HW110235   3.105   3.512   0.114
 3112SOL    HW210236   3.262   3.476   0.143
 3113SOL     OW10237   3.140   6.527   2.672
 3113SOL    HW110238   3.201   6.510   2.595
 3113SOL    HW210239   3.187   6.507   2.757
 3114SOL     OW10240   3.973   1.305   0.179
 3114SOL    HW110241   4.006   1.291   0.272
 3114SOL    HW210242   3.999   1.396   0.147
 3115SOL     OW10243   3.824   4.576   5.447
 3115SOL    HW110244   3.754   4.513   5.413
 3115SOL    HW210245   3.869   4.536   5.527
 3116SOL     OW10246   0.430   1.694   0.334
 3116SOL    HW110247   0.374   1.673   0.254
 3116SOL    HW210248   0.374   1.690   0.416
 3117SOL     OW10249   4.670   2.663   5.424
 3117SOL    HW110250   4.586   2.619   5.456
 3117SOL    HW210251   4.654   2.702   5.333
 3118SOL     OW10252   1.114   6.806   2.017
 3118SOL    HW110253   1.152   6.829   2.107
 3118SOL    HW210254   1.119   6.707   2.003
 3119SOL     OW10255   2.878   2.403   5.978
 3119SOL    HW110256   2.847   2.385   5.885
 3119SOL    HW210257   2.891   2.502   5.990
 3120SOL     OW10258   3.286   1.123   5.821
 3120SOL    HW110259   3.255   1.030   5.799
 3120SOL    HW210260   3.346   1.120   5.901
 3121SOL     OW10261   5.719   2.087   4.256
 3121SOL    HW110262   5.692   2.060   4.348
 3121SOL    HW210263   5.638   2.103   4.200
 3122SOL     OW10264   4.536   4.754   5.350
 3122SOL    HW110265   4.468   4.754   5.423
 3122SOL    HW210266   4.537   4.844   5.306
 3123SOL     OW10267   1.487   1.043   3.478
 3123SOL    HW110268   1.426   1.122   3.494
 3123SOL    HW210269   1.544   1.061   3.399
 3124SOL     OW10270   5.498   0.018   3.717
 3124SOL    HW110271   5.410   6.992   3.711
 3124SOL    HW210272   5.536   0.030   3.626
 3125SOL     OW10273   1.239   3.175   5.235
 3125SOL    HW110274   1.326   3.139   5.269
 3125SOL    HW210275   1.256   3.256   5.179
 3126SOL     OW10276   5.334   4.477   5.835
 3126SOL    HW110277   5.362   4.397   5.887
 3126SOL    HW210278   5.369   4.560   5.879
 3127SOL     OW10279   1.662   2.907   5.092
 3127SOL    HW110280   1.646   2.850   5.172
 3127SOL    HW210281   1.644   2.853   5.009
 3128SOL     OW10282   3.629   0.626   0.479
 3128SOL    HW110283   3.674   0.667   0.400
 3128SOL    HW210284   3.683   0.644   0.561
 3129SOL     OW10285   4.862   3.727   1.154
 3129SOL    HW110286   4.929   3.725   1.080
 3129SOL    HW210287   4.902   3.685   1.236
 3130SOL     OW10288   1.369   4.567   1.002
 3130SOL    HW110289   1.382   4.626   0.923
 3130SOL    HW210290   1.392   4.473   0.978
 3131SOL     OW10291   0.579   3.678   2.360
 3131SOL    HW110292   0.646   3.605   2.375
 3131SOL    HW210293   0.488   3.637   2.350
 3132SOL     OW10294   4.698   4.938   6.711
 3132SOL    HW110295   4.704   4.992   6.795
 3132SOL    HW210296   4.730   4.993   6.634
 3133SOL     OW10297   3.493   0.635   2.810
 3133SOL    HW110298   3.396   0.616   2.795
 3133SOL    HW210299   3.520   0.716   2.758
 3134SOL     OW10300   4.120   5.417   1.913
 3134SOL    HW110301   4.067   5.468   1.845
 3134SOL    HW210302   4.195   5.370   1.868
 3135SOL     OW10303   4.726   6.678   6.331
 3135SOL    HW110304   4.663   6.749   6.301
 3135SOL    HW210305   4.782   6.648   6.254
 3136SOL     OW10306   5.249   0.632   1.733
 3136SOL    HW110307   5.322   0.625   1.801
 3136SOL    HW210308   5.174   0.688   1.769
 3137SOL     OW10309   6.526   6.657   3.274
 3137SOL    HW110310   6.497   6.597   3.349
 3137SOL    HW210311   6.476   6.634   3.191
 3138SOL     OW10312   6.244   5.592   3.679
 3138SOL    HW110313   6.148   5.605   3.653
 3138SOL    HW210314   6.265   5.652   3.756
 3139SOL     OW10315   3.701   4.844   1.457
 3139SOL    HW110316   3.662   4.752   1.446
 3139SOL    HW210317   3.627   4.909   1.474
 3140SOL     OW10318   6.284   6.298   5.450
 3140SOL    HW110319   6.383   6.310   5.441
 3140SOL    HW210320   6.257   6.314   5.545
 3141SOL     OW10321   0.533   0.014   6.897
 3141SOL    HW110322   0.617   0.068   6.901
 3141SOL    HW210323   0.519   7.001   6.804
 3142SOL     OW10324   3.251   1.017   3.376
 3142SOL    HW110325   3.287   0.963   3.452
 3142SOL    HW210326   3.244   0.960   3.295
 3143SOL     OW10327   6.235   1.969   6.687
 3143SOL    HW110328   6.265   1.877   6.661
 3143SOL    HW210329   6.186   1.964   6.774
 3144SOL     OW10330   4.461   3.793   0.559
 3144SOL    HW110331   4.438   3.781   0.462
 3144SOL    HW210332   4.397   3.740   0.615
 3145SOL     OW10333   1.983   6.265   2.508
 3145SOL    HW110334   2.066   6.302   2.465
 3145SOL    HW210335   2.001   6.242   2.603
 3146SOL     OW10336   0.518   0.957   4.769
 3146SOL    HW110337   0.569   0.959   4.683
 3146SOL    HW210338   0.575   0.917   4.840
 3147SOL     OW10339   3.178   5.045   6.580
 3147SOL    HW110340   3.086   5.012   6.602
 3147SOL    HW210341   3.243   4.969   6.589
 3148SOL     OW10342   0.082   0.720   4.124
 3148SOL    HW110343   0.016   0.795   4.125
 3148SOL    HW210344   0.046   0.643   4.177
 3149SOL     OW10345   3.248   1.151   6.659
 3149SOL    HW110346   3.196   1.226   6.700
 3149SOL    HW210347   3.207   1.125   6.572
 3150SOL     OW10348   6.777   5.926   5.071
 3150SOL    HW110349   6.794   5.848   5.132
 3150SOL    HW210350   6.852   5.991   5.078
 3151SOL     OW10351   6.988   1.789   6.013
 3151SOL    HW110352   0.008   1.795   5.922
 3151SOL    HW210353   6.891   1.809   6.007
 3152SOL     OW10354   0.684   3.990   6.881
 3152SOL    HW110355   0.733   4.045   6.949
 3152SOL    HW210356   0.709   4.021   6.789
 3153SOL     OW10357   6.355   5.068   6.971
 3153SOL    HW110358   6.379   5.156   6.932
 3153SOL    HW210359   6.327   5.080   0.046
 3154SOL     OW10360   6.219   1.116   0.763
 3154SOL    HW110361   6.176   1.159   0.684
 3154SOL    HW210362   6.286   1.178   0.803
 3155SOL     OW10363   6.248   4.695   0.062
 3155SOL    HW110364   6.169   4.646   0.096
 3155SOL    HW210365   6.219   4.762   7.014
 3156SOL     OW10366   3.320   3.955   2.258
 3156SOL    HW110367   3.240   3.981   2.312
 3156SOL    HW210368   3.398   4.014   2.283
 3157SOL     OW10369   1.873   1.643   4.960
 3157SOL    HW110370   1.842   1.625   4.866
 3157SOL    HW210371   1.969   1.616   4.969
 3158SOL     OW10372   2.507   1.187   4.732
 3158SOL    HW110373   2.601   1.197   4.701
 3158SOL    HW210374   2.501   1.211   4.829
 3159SOL     OW10375   5.562   0.132   6.565
 3159SOL    HW110376   5.608   0.071   6.629
 3159SOL    HW210377   5.623   0.154   6.489
 3160SOL     OW10378   1.145   6.541   5.805
 3160SOL    HW110379   1.150   6.453   5.852
 3160SOL    HW210380   1.080   6.601   5.853
 3161SOL     OW10381   2.692   2.333   2.918
 3161SOL    HW110382   2.742   2.307   2.835
 3161SOL    HW210383   2.621   2.400   2.895
 3162SOL     OW10384   1.313   5.760   0.682
 3162SOL    HW110385   1.250   5.702   0.733
 3162SOL    HW210386   1.369   5.703   0.621
 3163SOL     OW10387   3.607   3.823   6.895
 3163SOL    HW110388   3.611   3.891   6.822
 3163SOL    HW210389   3.693   3.772   6.898
 3164SOL     OW10390   3.859   5.746   2.170
 3164SOL    HW110391   3.785   5.684   2.198
 3164SOL    HW210392   3.828   5.802   2.093
 3165SOL     OW10393   0.579   5.581   1.150
 3165SOL    HW110394   0.676   5.601   1.168
 3165SOL    HW210395   0.548   5.634   1.072
 3166SOL     OW10396   4.734   1.627   4.090
 3166SOL    HW110397   4.789   1.614   4.172
 3166SOL    HW210398   4.648   1.673   4.114
 3167SOL     OW10399   5.703   4.255   0.654
 3167SOL    HW110400   5.795   4.255   0.615
 3167SOL    HW210401   5.696   4.182   0.722
 3168SOL     OW10402   5.636   2.796   0.163
 3168SOL    HW110403   5.643   2.696   0.156
 3168SOL    HW210404   5.728   2.835   0.175
 3169SOL     OW10405   1.981   3.942   3.745
 3169SOL    HW110406   1.947   3.929   3.837
 3169SOL    HW210407   2.038   3.863   3.719
 3170SOL     OW10408   4.415   5.501   2.658
 3170SOL    HW110409   4.456   5.470   2.743
 3170SOL    HW210410   4.422   5.601   2.653
 3171SOL     OW10411   5.756   2.161   1.477
 3171SOL    HW110412   5.819   2.236   1.498
 3171SOL    HW210413   5.706   2.182   1.393
 3172SOL     OW10414   0.478   5.322   6.666
 3172SOL    HW110415   0.556   5.261   6.653
 3172SOL    HW210416   0.398   5.269   6.694
 3173SOL     OW10417   3.079   2.242   6.805
 3173SOL    HW110418   3.147   2.179   6.843
 3173SOL    HW210419   3.125   2.316   6.756
 3174SOL     OW10420   2.955   3.092   6.723
 3174SOL    HW110421   2.901   3.129   6.648
 3174SOL    HW210422   2.899   3.089   6.806
 3175SOL     OW10423   5.837   1.483   1.374
 3175SOL    HW110424   5.934   1.461   1.364
 3175SOL    HW210425   5.790   1.466   1.288
 3176SOL     OW10426   0.828   3.068   5.619
 3176SOL    HW110427   0.892   3.062   5.542
 3176SOL    HW210428   0.838   3.157   5.664
 3177SOL     OW10429   5.188   4.228   3.799
 3177SOL    HW110430   5.239   4.198   3.718
 3177SOL    HW210431   5.244   4.213   3.880
 3178SOL     OW10432   6.272   2.325   6.766
 3178SOL    HW110433   6.244   2.404   6.822
 3178SOL    HW210434   6.306   2.357   6.678
 3179SOL     OW10435   1.211   1.792   2.003
 3179SOL    HW110436   1.292   1.807   2.060
 3179SOL    HW210437   1.156   1.719   2.042
 3180SOL     OW10438   6.049   6.923   0.650
 3180SOL    HW110439   6.128   6.885   0.602
 3180SOL    HW210440   6.072   7.013   0.688
 3181SOL     OW10441   6.545   2.509   3.930
 3181SOL    HW110442   6.455   2.541   3.960
 3181SOL    HW210443   6.607   2.506   4.008
 3182SOL     OW10444   2.486   0.213   0.152
 3182SOL    HW110445   2.395   0.233   0.188
 3182SOL    HW210446   2.515   0.122   0.180
 3183SOL     OW10447   4.253   4.658   2.475
 3183SOL    HW110448   4.203   4.742   2.453
 3183SOL    HW210449   4.250   4.643   2.574
 3184SOL     OW10450   0.661   1.931   3.151
 3184SOL    HW110451   0.580   1.915   3.207
 3184SOL    HW210452   0.643   1.902   3.057
 3185SOL     OW10453   4.822   6.517   6.742
 3185SOL    HW110454   4.777   6.501   6.830
 3185SOL    HW210455   4.770   6.472   6.669
 3186SOL     OW10456   3.150   1.922   0.134
 3186SOL    HW110457   3.158   1.954   0.040
 3186SOL    HW210458   3.238   1.883   0.163
 3187SOL     OW10459   3.674   5.334   2.058
 3187SOL    HW110460   3.734   5.275   2.003
 3187SOL    HW210461   3.649   5.287   2.142
 3188SOL     OW10462   1.666   6.625   4.999
 3188SOL    HW110463   1.580   6.667   4.971
 3188SOL    HW210464   1.708   6.579   4.921
 3189SOL     OW10465   1.148   1.633   0.994
 3189SOL    HW110466   1.188   1.597   1.078
 3189SOL    HW210467   1.209   1.615   0.917
 3190SOL     OW10468   7.012   5.726   0.036
 3190SOL    HW110469   6.926   5.743   0.084
 3190SOL    HW210470   7.006   5.640   7.007
 3191SOL     OW10471   4.597   5.062   1.889
 3191SOL    HW110472   4.603   5.061   1.789
 3191SOL    HW210473   4.547   4.982   1.920
 3192SOL     OW10474   0.654   3.318   0.866
 3192SOL    HW110475   0.698   3.341   0.779
 3192SOL    HW210476   0.640   3.219   0.871
 3193SOL     OW10477   3.803   1.523   4.971
 3193SOL    HW110478   3.710   1.490   4.989
 3193SOL    HW210479   3.869   1.454   5.002
 3194SOL     OW10480   1.133   2.218   5.779
 3194SOL    HW110481   1.169   2.220   5.686
 3194SOL    HW210482   1.038   2.188   5.777
 3195SOL     OW10483   0.806   1.603   1.694
 3195SOL    HW110484   0.862   1.570   1.769
 3195SOL    HW210485   0.828   1.551   1.611
 3196SOL     OW10486   0.128   0.349   6.511
 3196SOL    HW110487   0.070   0.382   6.437
 3196SOL    HW210488   0.085   0.372   6.599
 3197SOL     OW10489   2.670   6.826   5.050
 3197SOL    HW110490   2.754   6.792   5.093
 3197SOL    HW210491   2.683   6.922   5.024
 3198SOL     OW10492   6.651   3.102   2.954
 3198SOL    HW110493   6.567   3.048   2.946
 3198SOL    HW210494   6.646   3.158   3.037
 3199SOL     OW10495   5.295   4.274   2.966
 3199SOL    HW110496   5.324   4.319   2.882
 3199SOL    HW210497   5.303   4.175   2.955
 3200SOL     OW10498   6.005   3.079   2.482
 3200SOL    HW110499   5.966   3.098   2.572
 3200SOL    HW210500   6.062   2.996   2.487
 3201SOL     OW10501   6.866   4.606   2.993
 3201SOL    HW110502   6.772   4.575   3.006
 3201SOL    HW210503   6.870   4.672   2.918
 3202SOL     OW10504   1.260   4.961   0.555
 3202SOL    HW110505   1.169   4.927   0.580
 3202SOL    HW210506   1.305   4.998   0.636
 3203SOL     OW10507   5.750   1.570   0.472
 3203SOL    HW110508   5.797   1.495   0.426
 3203SOL    HW210509   5.665   1.591   0.423
 3204SOL     OW10510   3.892   0.083   3.331
 3204SOL    HW110511   3.890   0.145   3.410
 3204SOL    HW210512   3.809   0.094   3.278
 3205SOL     OW10513   4.935   2.897   5.984
 3205SOL    HW110514   4.905   2.962   5.915
 3205SOL    HW210515   5.035   2.888   5.980
 3206SOL     OW10516   1.655   4.305   0.834
 3206SOL    HW110517   1.588   4.278   0.903
 3206SOL    HW210518   1.608   4.324   0.748
 3207SOL     OW10519   1.137   1.214   0.071
 3207SOL    HW110520   1.229   1.179   0.051
 3207SOL    HW210521   1.118   1.293   0.014
 3208SOL     OW10522   5.396   5.922   6.387
 3208SOL    HW110523   5.309   5.965   6.412
 3208SOL    HW210524   5.463   5.993   6.364
 3209SOL     OW10525   2.863   5.152   4.248
 3209SOL    HW110526   2.818   5.079   4.196
 3209SOL    HW210527   2.883   5.228   4.186
 3210SOL     OW10528   1.472   4.782   0.864
 3210SOL    HW110529   1.503   4.859   0.919
 3210SOL    HW210530   1.550   4.742   0.816
 3211SOL     OW10531   1.593   3.931   0.754
 3211SOL    HW110532   1.553   3.958   0.842
 3211SOL    HW210533   1.689   3.959   0.751
 3212SOL     OW10534   3.052   6.855   2.598
 3212SOL    HW110535   3.003   6.895   2.675
 3212SOL    HW210536   3.006   6.771   2.570
 3213SOL     OW10537   1.007   0.322   6.966
 3213SOL    HW110538   1.098   0.337   7.005
 3213SOL    HW210539   0.971   0.408   6.930
 3214SOL     OW10540   4.774   5.726   2.185
 3214SOL    HW110541   4.692   5.782   2.170
 3214SOL    HW210542   4.807   5.692   2.097
 3215SOL     OW10543   0.274   3.853   0.692
 3215SOL    HW110544   0.372   3.861   0.707
 3215SOL    HW210545   0.256   3.776   0.630
 3216SOL     OW10546   6.149   5.258   0.816
 3216SOL    HW110547   6.068   5.303   0.779
 3216SOL    HW210548   6.140   5.159   0.804
 3217SOL     OW10549   0.519   5.558   2.574
 3217SOL    HW110550   0.555   5.618   2.646
 3217SOL    HW210551   0.456   5.492   2.615
 3218SOL     OW10552   5.840   2.686   3.067
 3218SOL    HW110553   5.878   2.733   3.147
 3218SOL    HW210554   5.754   2.642   3.092
 3219SOL     OW10555   6.782   1.086   4.054
 3219SOL    HW110556   6.830   1.157   4.105
 3219SOL    HW210557   6.750   1.124   3.967
 3220SOL     OW10558   0.237   5.784   5.762
 3220SOL    HW110559   0.144   5.753   5.739
 3220SOL    HW210560   0.233   5.875   5.804
 3221SOL     OW10561   3.578   0.112   2.531
 3221SOL    HW110562   3.622   0.037   2.580
 3221SOL    HW210563   3.613   0.199   2.564
 3222SOL     OW10564   2.674   1.507   2.747
 3222SOL    HW110565   2.590   1.524   2.695
 3222SOL    HW210566   2.753   1.510   2.685
 3223SOL     OW10567   2.642   6.326   7.007
 3223SOL    HW110568   2.667   6.415   6.969
 3223SOL    HW210569   2.667   6.254   6.942
 3224SOL     OW10570   4.742   2.843   4.934
 3224SOL    HW110571   4.817   2.910   4.933
 3224SOL    HW210572   4.731   2.805   4.842
 3225SOL     OW10573   4.555   1.778   5.620
 3225SOL    HW110574   4.532   1.690   5.577
 3225SOL    HW210575   4.522   1.853   5.562
 3226SOL     OW10576   2.626   0.910   2.297
 3226SOL    HW110577   2.592   0.956   2.214
 3226SOL    HW210578   2.668   0.823   2.271
 3227SOL     OW10579   3.744   3.975   6.664
 3227SOL    HW110580   3.703   3.977   6.573
 3227SOL    HW210581   3.736   4.066   6.706
 3228SOL     OW10582   6.692   3.768   0.957
 3228SOL    HW110583   6.605   3.758   0.910
 3228SOL    HW210584   6.748   3.686   0.943
 3229SOL     OW10585   3.548   1.092   5.603
 3229SOL    HW110586   3.463   1.142   5.613
 3229SOL    HW210587   3.540   1.003   5.649
 3230SOL     OW10588   2.208   5.041   6.134
 3230SOL    HW110589   2.140   5.112   6.113
 3230SOL    HW210590   2.207   5.023   6.233
 3231SOL     OW10591   2.638   0.488   2.363
 3231SOL    HW110592   2.632   0.530   2.453
 3231SOL    HW210593   2.553   0.440   2.342
 3232SOL     OW10594   4.288   6.301   4.511
 3232SOL    HW110595   4.219   6.284   4.581
 3232SOL    HW210596   4.250   6.362   4.441
 3233SOL     OW10597   6.643   2.448   0.701
 3233SOL    HW110598   6.632   2.514   0.627
 3233SOL    HW210599   6.642   2.497   0.789
 3234SOL     OW10600   0.621   2.665   0.358
 3234SOL    HW110601   0.667   2.608   0.426
 3234SOL    HW210602   0.522   2.655   0.368
 3235SOL     OW10603   6.883   0.098   1.598
 3235SOL    HW110604   6.917   0.004   1.594
 3235SOL    HW210605   6.874   0.125   1.694
 3236SOL     OW10606   0.652   4.360   0.254
 3236SOL    HW110607   0.734   4.377   0.199
 3236SOL    HW210608   0.677   4.314   0.339
 3237SOL     OW10609   6.339   1.744   2.117
 3237SOL    HW110610   6.280   1.751   2.037
 3237SOL    HW210611   6.325   1.655   2.161
 3238SOL     OW10612   6.178   5.382   7.012
 3238SOL    HW110613   6.138   5.297   0.025
 3238SOL    HW210614   6.252   5.411   0.051
 3239SOL     OW10615   0.383   1.501   2.717
 3239SOL    HW110616   0.368   1.580   2.658
 3239SOL    HW210617   0.418   1.531   2.805
 3240SOL     OW10618   0.301   6.741   6.537
 3240SOL    HW110619   0.293   6.797   6.455
 3240SOL    HW210620   0.380   6.772   6.590
 3241SOL     OW10621   4.992   1.279   5.858
 3241SOL    HW110622   4.948   1.197   5.894
 3241SOL    HW210623   4.976   1.356   5.919
 3242SOL     OW10624   4.219   4.525   6.539
 3242SOL    HW110625   4.280   4.471   6.481
 3242SOL    HW210626   4.124   4.499   6.519
 3243SOL     OW10627   4.631   5.090   0.507
 3243SOL    HW110628   4.563   5.126   0.443
 3243SOL    HW210629   4.709   5.152   0.510
 3244SOL     OW10630   5.228   6.436   0.083
 3244SOL    HW110631   5.302   6.491   0.044
 3244SOL    HW210632   5.173   6.492   0.145
 3245SOL     OW10633   4.977   2.387   3.909
 3245SOL    HW110634   5.037   2.460   3.942
 3245SOL    HW210635   5.015   2.299   3.935
 3246SOL     OW10636   6.699   6.844   3.078
 3246SOL    HW110637   6.749   6.902   3.141
 3246SOL    HW210638   6.625   6.798   3.126
 3247SOL     OW10639   5.670   4.237   2.187
 3247SOL    HW110640   5.705   4.231   2.281
 3247SOL    HW210641   5.664   4.145   2.148
 3248SOL     OW10642   5.461   2.863   2.143
 3248SOL    HW110643   5.534   2.795   2.147
 3248SOL    HW210644   5.488   2.937   2.080
 3249SOL     OW10645   3.442   4.031   3.043
 3249SOL    HW110646   3.415   3.934   3.048
 3249SOL    HW210647   3.375   4.087   3.091
 3250SOL     OW10648   5.842   6.892   2.340
 3250SOL    HW110649   5.872   6.891   2.244
 3250SOL    HW210650   5.746   6.918   2.345
 3251SOL     OW10651   3.847   0.678   3.753
 3251SOL    HW110652   3.752   0.657   3.775
 3251SOL    HW210653   3.864   0.776   3.764
 3252SOL     OW10654   2.894   1.029   2.440
 3252SOL    HW110655   2.818   1.064   2.496
 3252SOL    HW210656   2.893   0.929   2.442
 3253SOL     OW10657   4.503   3.407   0.847
 3253SOL    HW110658   4.456   3.380   0.763
 3253SOL    HW210659   4.461   3.362   0.925
 3254SOL     OW10660   4.916   6.191   6.915
 3254SOL    HW110661   4.932   6.191   7.014
 3254SOL    HW210662   4.973   6.261   6.872
 3255SOL     OW10663   4.086   6.774   1.572
 3255SOL    HW110664   4.049   6.867   1.564
 3255SOL    HW210665   4.160   6.761   1.506
 3256SOL     OW10666   3.635   1.145   1.228
 3256SOL    HW110667   3.593   1.221   1.278
 3256SOL    HW210668   3.726   1.171   1.199
 3257SOL     OW10669   1.347   1.831   1.698
 3257SOL    HW110670   1.335   1.918   1.651
 3257SOL    HW210671   1.425   1.836   1.760
 3258SOL     OW10672   4.359   5.677   2.945
 3258SOL    HW110673   4.316   5.744   2.883
 3258SOL    HW210674   4.289   5.636   3.003
 3259SOL     OW10675   4.791   4.531   4.789
 3259SOL    HW110676   4.753   4.624   4.787
 3259SOL    HW210677   4.872   4.529   4.847
 3260SOL     OW10678   1.735   2.550   1.700
 3260SOL    HW110679   1.704   2.455   1.706
 3260SOL    HW210680   1.708   2.599   1.783
 3261SOL     OW10681   5.793   1.038   1.041
 3261SOL    HW110682   5.802   0.941   1.019
 3261SOL    HW210683   5.788   1.050   1.140
 3262SOL     OW10684   3.791   2.144   2.262
 3262SOL    HW110685   3.890   2.139   2.252
 3262SOL    HW210686   3.750   2.180   2.178
 3263SOL     OW10687   2.675   1.175   3.183
 3263SOL    HW110688   2.635   1.143   3.097
 3263SOL    HW210689   2.675   1.100   3.249
 3264SOL     OW10690   2.093   5.251   1.035
 3264SOL    HW110691   2.176   5.197   1.050
 3264SOL    HW210692   2.016   5.205   1.078
 3265SOL     OW10693   5.009   6.996   6.514
 3265SOL    HW110694   4.917   6.959   6.529
 3265SOL    HW210695   5.041   6.967   6.424
 3266SOL     OW10696   3.143   4.565   0.059
 3266SOL    HW110697   3.060   4.559   0.003
 3266SOL    HW210698   3.219   4.521   0.012
 3267SOL     OW10699   2.879   6.131   1.760
 3267SOL    HW110700   2.829   6.059   1.711
 3267SOL    HW210701   2.817   6.180   1.820
 3268SOL     OW10702   2.037   4.045   1.260
 3268SOL    HW110703   1.952   3.994   1.263
 3268SOL    HW210704   2.067   4.066   1.353
 3269SOL     OW10705   5.875   5.663   2.150
 3269SOL    HW110706   5.905   5.592   2.212
 3269SOL    HW210707   5.939   5.670   2.073
 3270SOL     OW10708   1.853   3.968   6.614
 3270SOL    HW110709   1.886   3.964   6.708
 3270SOL    HW210710   1.927   3.998   6.554
 3271SOL     OW10711   6.604   2.857   1.244
 3271SOL    HW110712   6.570   2.802   1.320
 3271SOL    HW210713   6.550   2.837   1.162
 3272SOL     OW10714   3.067   4.432   6.218
 3272SOL    HW110715   3.159   4.462   6.194
 3272SOL    HW210716   3.020   4.399   6.136
 3273SOL     OW10717   6.534   4.693   6.916
 3273SOL    HW110718   6.447   4.725   6.954
 3273SOL    HW210719   6.517   4.620   6.850
 3274SOL     OW10720   6.017   0.439   0.308
 3274SOL    HW110721   5.938   0.469   0.256
 3274SOL    HW210722   6.034   0.504   0.383
 3275SOL     OW10723   5.479   0.930   6.963
 3275SOL    HW110724   5.538   0.938   0.023
 3275SOL    HW210725   5.457   1.021   6.929
 3276SOL     OW10726   4.275   6.041   6.609
 3276SOL    HW110727   4.359   5.986   6.611
 3276SOL    HW210728   4.196   5.981   6.619
 3277SOL     OW10729   3.357   0.847   1.011
 3277SOL    HW110730   3.427   0.847   1.082
 3277SOL    HW210731   3.391   0.894   0.930
 3278SOL     OW10732   1.120   1.111   5.673
 3278SOL    HW110733   1.067   1.196   5.680
 3278SOL    HW210734   1.214   1.134   5.649
 3279SOL     OW10735   5.371   6.754   0.321
 3279SOL    HW110736   5.302   6.711   0.380
 3279SOL    HW210737   5.455   6.700   0.323
 3280SOL     OW10738   4.724   4.791   4.763
 3280SOL    HW110739   4.636   4.794   4.714
 3280SOL    HW210740   4.786   4.857   4.722
 3281SOL     OW10741   0.994   5.081   1.249
 3281SOL    HW110742   0.903   5.057   1.284
 3281SOL    HW210743   1.061   5.014   1.282
 3282SOL     OW10744   6.615   5.285   4.906
 3282SOL    HW110745   6.553   5.323   4.837
 3282SOL    HW210746   6.665   5.208   4.866
 3283SOL     OW10747   3.165   1.316   1.012
 3283SOL    HW110748   3.235   1.311   0.941
 3283SOL    HW210749   3.142   1.223   1.042
 3284SOL     OW10750   1.215   6.000   6.232
 3284SOL    HW110751   1.211   5.951   6.145
 3284SOL    HW210752   1.129   6.049   6.248
 3285SOL     OW10753   4.541   2.050   4.247
 3285SOL    HW110754   4.499   1.959   4.245
 3285SOL    HW210755   4.637   2.042   4.275
 3286SOL     OW10756   3.927   2.982   2.090
 3286SOL    HW110757   3.831   2.954   2.092
 3286SOL    HW210758   3.951   3.022   2.178
 3287SOL     OW10759   0.406   0.482   0.181
 3287SOL    HW110760   0.495   0.437   0.188
 3287SOL    HW210761   0.346   0.450   0.255
 3288SOL     OW10762   2.003   6.257   0.154
 3288SOL    HW110763   2.023   6.355   0.159
 3288SOL    HW210764   1.925   6.236   0.214
 3289SOL     OW10765   2.986   1.279   6.190
 3289SOL    HW110766   2.956   1.246   6.280
 3289SOL    HW210767   3.084   1.265   6.180
 3290SOL     OW10768   6.854   4.620   1.042
 3290SOL    HW110769   6.809   4.706   1.067
 3290SOL    HW210770   6.952   4.628   1.059
 3291SOL     OW10771   2.460   0.747   6.054
 3291SOL    HW110772   2.417   0.673   6.107
 3291SOL    HW210773   2.447   0.731   5.957
 3292SOL     OW10774   6.835   0.795   0.649
 3292SOL    HW110775   6.790   0.875   0.688
 3292SOL    HW210776   6.791   0.771   0.562
 3293SOL     OW10777   6.257   4.501   1.763
 3293SOL    HW110778   6.171   4.535   1.726
 3293SOL    HW210779   6.307   4.576   1.807
 3294SOL     OW10780   5.450   3.161   6.221
 3294SOL    HW110781   5.396   3.130   6.300
 3294SOL    HW210782   5.510   3.236   6.249
 3295SOL     OW10783   0.966   2.882   2.362
 3295SOL    HW110784   0.974   2.979   2.386
 3295SOL    HW210785   1.047   2.853   2.312
 3296SOL     OW10786   1.310   0.687   2.896
 3296SOL    HW110787   1.222   0.699   2.850
 3296SOL    HW210788   1.380   0.742   2.850
 3297SOL     OW10789   2.695   1.684   5.224
 3297SOL    HW110790   2.667   1.685   5.320
 3297SOL    HW210791   2.767   1.752   5.210
 3298SOL     OW10792   5.801   2.266   5.806
 3298SOL    HW110793   5.707   2.300   5.811
 3298SOL    HW210794   5.862   2.328   5.855
 3299SOL     OW10795   3.825   5.645   2.541
 3299SOL    HW110796   3.758   5.714   2.511
 3299SOL    HW210797   3.883   5.620   2.463
 3300SOL     OW10798   0.636   0.901   6.010
 3300SOL    HW110799   0.555   0.850   5.982
 3300SOL    HW210800   0.696   0.841   6.064
 3301SOL     OW10801   2.156   3.336   3.343
 3301SOL    HW110802   2.134   3.421   3.295
 3301SOL    HW210803   2.112   3.336   3.433
 3302SOL     OW10804   0.501   4.688   4.992
 3302SOL    HW110805   0.532   4.646   5.077
 3302SOL    HW210806   0.427   4.633   4.953
 3303SOL     OW10807   3.394   3.639   0.331
 3303SOL    HW110808   3.439   3.688   0.256
 3303SOL    HW210809   3.328   3.701   0.375
 3304SOL     OW10810   1.866   5.482   5.935
 3304SOL    HW110811   1.894   5.571   5.971
 3304SOL    HW210812   1.832   5.493   5.841
 3305SOL     OW10813   2.414   1.595   2.631
 3305SOL    HW110814   2.357   1.543   2.695
 3305SOL    HW210815   2.414   1.692   2.658
 3306SOL     OW10816   1.831   5.066   5.049
 3306SOL    HW110817   1.774   5.143   5.078
 3306SOL    HW210818   1.908   5.100   4.995
 3307SOL     OW10819   0.734   6.317   6.246
 3307SOL    HW110820   0.741   6.240   6.183
 3307SOL    HW210821   0.786   6.395   6.210
 3308SOL     OW10822   2.905   5.544   1.607
 3308SOL    HW110823   2.826   5.519   1.550
 3308SOL    HW210824   2.900   5.641   1.629
 3309SOL     OW10825   6.398   5.520   3.955
 3309SOL    HW110826   6.445   5.542   3.870
 3309SOL    HW210827   6.340   5.597   3.982
 3310SOL     OW10828   0.085   4.137   5.060
 3310SOL    HW110829   0.018   4.187   5.006
 3310SOL    HW210830   0.046   4.050   5.089
 3311SOL     OW10831   3.750   4.492   0.619
 3311SOL    HW110832   3.736   4.579   0.667
 3311SOL    HW210833   3.665   4.440   0.618
 3312SOL     OW10834   4.119   4.255   6.099
 3312SOL    HW110835   4.087   4.161   6.104
 3312SOL    HW210836   4.067   4.304   6.029
 3313SOL     OW10837   0.813   6.399   4.189
 3313SOL    HW110838   0.779   6.415   4.282
 3313SOL    HW210839   0.907   6.431   4.182
 3314SOL     OW10840   2.334   1.338   2.443
 3314SOL    HW110841   2.308   1.404   2.514
 3314SOL    HW210842   2.264   1.336   2.372
 3315SOL     OW10843   0.346   4.323   4.761
 3315SOL    HW110844   0.343   4.237   4.811
 3315SOL    HW210845   0.256   4.342   4.723
 3316SOL     OW10846   5.011   1.061   5.259
 3316SOL    HW110847   4.954   1.024   5.186
 3316SOL    HW210848   4.986   1.157   5.275
 3317SOL     OW10849   4.939   2.620   1.978
 3317SOL    HW110850   4.989   2.637   1.894
 3317SOL    HW210851   4.856   2.675   1.980
 3318SOL     OW10852   1.954   1.411   1.225
 3318SOL    HW110853   2.048   1.383   1.244
 3318SOL    HW210854   1.948   1.511   1.230
 3319SOL     OW10855   5.668   1.307   3.568
 3319SOL    HW110856   5.584   1.266   3.531
 3319SOL    HW210857   5.734   1.235   3.589
 3320SOL     OW10858   6.289   1.081   6.402
 3320SOL    HW110859   6.193   1.063   6.422
 3320SOL    HW210860   6.315   1.169   6.443
 3321SOL     OW10861   5.247   1.958   0.409
 3321SOL    HW110862   5.158   1.980   0.448
 3321SOL    HW210863   5.248   1.985   0.312
 3322SOL     OW10864   6.746   2.316   1.111
 3322SOL    HW110865   6.738   2.382   1.036
 3322SOL    HW210866   6.833   2.268   1.104
 3323SOL     OW10867   2.890   3.129   0.283
 3323SOL    HW110868   2.897   3.180   0.197
 3323SOL    HW210869   2.951   3.050   0.280
 3324SOL     OW10870   4.005   4.657   6.614
 3324SOL    HW110871   4.099   4.638   6.641
 3324SOL    HW210872   3.957   4.702   6.689
 3325SOL     OW10873   7.016   3.958   0.135
 3325SOL    HW110874   6.971   4.048   0.135
 3325SOL    HW210875   6.946   3.886   0.140
 3326SOL     OW10876   5.175   1.990   1.639
 3326SOL    HW110877   5.163   1.953   1.732
 3326SOL    HW210878   5.194   1.915   1.576
 3327SOL     OW10879   3.223   5.403   2.032
 3327SOL    HW110880   3.299   5.378   1.971
 3327SOL    HW210881   3.155   5.455   1.981
 3328SOL     OW10882   4.258   1.946   0.697
 3328SOL    HW110883   4.174   1.939   0.751
 3328SOL    HW210884   4.281   1.857   0.660
 3329SOL     OW10885   5.835   0.122   5.347
 3329SOL    HW110886   5.899   0.191   5.312
 3329SOL    HW210887   5.776   0.090   5.273
 3330SOL     OW10888   6.704   3.772   1.619
 3330SOL    HW110889   6.646   3.818   1.686
 3330SOL    HW210890   6.674   3.795   1.527
 3331SOL     OW10891   1.929   3.047   1.688
 3331SOL    HW110892   2.028   3.062   1.686
 3331SOL    HW210893   1.909   2.950   1.672
 3332SOL     OW10894   5.693   5.858   0.130
 3332SOL    HW110895   5.790   5.874   0.149
 3332SOL    HW210896   5.684   5.789   0.058
 3333SOL     OW10897   4.298   5.520   6.499
 3333SOL    HW110898   4.282   5.618   6.487
 3333SOL    HW210899   4.379   5.493   6.446
 3334SOL     OW10900   3.361   4.107   1.266
 3334SOL    HW110901   3.398   4.199   1.252
 3334SOL    HW210902   3.262   4.108   1.249
 3335SOL     OW10903   4.900   5.661   5.860
 3335SOL    HW110904   4.820   5.715   5.887
 3335SOL    HW210905   4.944   5.704   5.781
 3336SOL     OW10906   2.727   5.298   5.004
 3336SOL    HW110907   2.688   5.240   5.075
 3336SOL    HW210908   2.747   5.388   5.041
 3337SOL     OW10909   2.982   3.757   2.159
 3337SOL    HW110910   2.961   3.697   2.082
 3337SOL    HW210911   3.028   3.839   2.125
 3338SOL     OW10912   5.636   2.930   1.399
 3338SOL    HW110913   5.580   2.975   1.330
 3338SOL    HW210914   5.698   2.997   1.441
 3339SOL     OW10915   6.832   6.878   6.680
 3339SOL    HW110916   6.742   6.843   6.706
 3339SOL    HW210917   6.827   6.920   6.590
 3340SOL     OW10918   3.613   0.257   1.448
 3340SOL    HW110919   3.689   0.290   1.391
 3340SOL    HW210920   3.635   0.270   1.544
 3341SOL     OW10921   0.969   6.166   3.737
 3341SOL    HW110922   0.980   6.068   3.722
 3341SOL    HW210923   1.028   6.195   3.812
 3342SOL     OW10924   2.811   6.541   4.051
 3342SOL    HW110925   2.716   6.511   4.054
 3342SOL    HW210926   2.815   6.637   4.022
 3343SOL     OW10927   4.533   2.956   0.777
 3343SOL    HW110928   4.488   2.885   0.723
 3343SOL    HW210929   4.616   2.987   0.731
 3344SOL     OW10930   6.161   3.274   4.597
 3344SOL    HW110931   6.110   3.359   4.611
 3344SOL    HW210932   6.116   3.200   4.648
 3345SOL     OW10933   1.389   3.887   5.393
 3345SOL    HW110934   1.389   3.910   5.295
 3345SOL    HW210935   1.396   3.972   5.446
 3346SOL     OW10936   1.719   1.020   0.873
 3346SOL    HW110937   1.735   1.029   0.774
 3346SOL    HW210938   1.807   1.017   0.921
 3347SOL     OW10939   0.538   4.427   4.096
 3347SOL    HW110940   0.564   4.454   4.003
 3347SOL    HW210941   0.567   4.333   4.112
 3348SOL     OW10942   3.012   3.185   3.737
 3348SOL    HW110943   3.080   3.117   3.765
 3348SOL    HW210944   2.964   3.220   3.817
 3349SOL     OW10945   0.784   5.303   4.145
 3349SOL    HW110946   0.747   5.227   4.093
 3349SOL    HW210947   0.791   5.278   4.242
 3350SOL     OW10948   1.067   2.503   5.642
 3350SOL    HW110949   1.096   2.453   5.723
 3350SOL    HW210950   1.146   2.530   5.588
 3351SOL     OW10951   5.390   0.378   3.100
 3351SOL    HW110952   5.298   0.399   3.066
 3351SOL    HW210953   5.394   0.398   3.198
 3352SOL     OW10954   0.298   2.424   0.203
 3352SOL    HW110955   0.351   2.503   0.171
 3352SOL    HW210956   0.341   2.386   0.285
 3353SOL     OW10957   1.559   6.510   2.247
 3353SOL    HW110958   1.507   6.429   2.217
 3353SOL    HW210959   1.499   6.570   2.300
 3354SOL     OW10960   5.199   2.762   4.474
 3354SOL    HW110961   5.257   2.728   4.548
 3354SOL    HW210962   5.121   2.811   4.512
 3355SOL     OW10963   1.690   1.516   0.088
 3355SOL    HW110964   1.643   1.447   0.143
 3355SOL    HW210965   1.683   1.605   0.134
 3356SOL     OW10966   2.275   3.995   6.326
 3356SOL    HW110967   2.314   3.947   6.247
 3356SOL    HW210968   2.245   4.086   6.297
 3357SOL     OW10969   2.686   4.686   1.757
 3357SOL    HW110970   2.750   4.648   1.824
 3357SOL    HW210971   2.594   4.688   1.796
 3358SOL     OW10972   5.127   0.241   1.375
 3358SOL    HW110973   5.035   0.269   1.402
 3358SOL    HW210974   5.177   0.207   1.455
 3359SOL     OW10975   6.672   0.527   3.587
 3359SOL    HW110976   6.708   0.433   3.579
 3359SOL    HW210977   6.665   0.552   3.683
 3360SOL     OW10978   0.577   1.108   6.810
 3360SOL    HW110979   0.535   1.167   6.878
 3360SOL    HW210980   0.658   1.153   6.771
 3361SOL     OW10981   0.480   4.270   2.631
 3361SOL    HW110982   0.390   4.254   2.590
 3361SOL    HW210983   0.481   4.234   2.724
 3362SOL     OW10984   3.998   1.460   3.838
 3362SOL    HW110985   3.978   1.374   3.884
 3362SOL    HW210986   4.058   1.516   3.896
 3363SOL     OW10987   0.744   0.024   0.243
 3363SOL    HW110988   0.778   0.106   0.290
 3363SOL    HW210989   0.697   6.986   0.308
 3364SOL     OW10990   0.661   4.305   4.401
 3364SOL    HW110991   0.644   4.245   4.479
 3364SOL    HW210992   0.744   4.359   4.418
 3365SOL     OW10993   0.555   2.472   5.325
 3365SOL    HW110994   0.562   2.409   5.402
 3365SOL    HW210995   0.466   2.459   5.280
 3366SOL     OW10996   5.904   0.624   6.305
 3366SOL    HW110997   5.997   0.594   6.286
 3366SOL    HW210998   5.874   0.688   6.235
 3367SOL     OW10999   2.913   2.850   1.299
 3367SOL    HW111000   2.912   2.937   1.348
 3367SOL    HW211001   2.857   2.783   1.349
 3368SOL     OW11002   0.748   5.699   5.887
 3368SOL    HW111003   0.815   5.767   5.858
 3368SOL    HW211004   0.656   5.732   5.865
 3369SOL     OW11005   3.445   2.561   5.833
 3369SOL    HW111006   3.467   2.483   5.891
 3369SOL    HW211007   3.366   2.540   5.777
 3370SOL     OW11008   6.685   6.161   6.049
 3370SOL    HW111009   6.682   6.147   6.148
 3370SOL    HW211010   6.741   6.241   6.029
 3371SOL     OW11011   1.363   4.062   2.646
 3371SOL    HW111012   1.441   4.098   2.697
 3371SOL    HW211013   1.390   4.044   2.551
 3372SOL     OW11014   0.651   1.260   1.520
 3372SOL    HW111015   0.578   1.193   1.507
 3372SOL    HW211016   0.733   1.231   1.471
 3373SOL     OW11017   6.666   1.211   2.968
 3373SOL    HW111018   6.652   1.249   3.060
 3373SOL    HW211019   6.762   1.222   2.943
 3374SOL     OW11020   2.205   5.849   4.852
 3374SOL    HW111021   2.123   5.855   4.910
 3374SOL    HW211022   2.223   5.938   4.811
 3375SOL     OW11023   5.086   4.983   6.162
 3375SOL    HW111024   5.160   5.004   6.226
 3375SOL    HW211025   5.024   5.062   6.156
 3376SOL     OW11026   3.772   3.327   3.329
 3376SOL    HW111027   3.676   3.302   3.334
 3376SOL    HW211028   3.798   3.376   3.413
 3377SOL     OW11029   0.106   6.705   4.475
 3377SOL    HW111030   0.029   6.767   4.458
 3377SOL    HW211031   0.112   6.686   4.573
 3378SOL     OW11032   6.346   0.487   0.493
 3378SOL    HW111033   6.310   0.419   0.429
 3378SOL    HW211034   6.369   0.571   0.444
 3379SOL     OW11035   0.021   5.262   6.236
 3379SOL    HW111036   0.050   5.305   6.151
 3379SOL    HW211037   0.062   5.170   6.243
 3380SOL     OW11038   5.509   6.708   6.138
 3380SOL    HW111039   5.503   6.768   6.217
 3380SOL    HW211040   5.481   6.757   6.056
 3381SOL     OW11041   1.103   2.740   1.552
 3381SOL    HW111042   1.187   2.732   1.606
 3381SOL    HW211043   1.127   2.750   1.455
 3382SOL     OW11044   0.844   0.607   0.768
 3382SOL    HW111045   0.879   0.518   0.739
 3382SOL    HW211046   0.817   0.602   0.865
 3383SOL     OW11047   4.126   5.650   3.104
 3383SOL    HW111048   4.182   5.694   3.174
 3383SOL    HW211049   4.064   5.585   3.148
 3384SOL     OW11050   2.550   3.373   5.428
 3384SOL    HW111051   2.461   3.356   5.469
 3384SOL    HW211052   2.580   3.291   5.378
 3385SOL     OW11053   0.247   4.148   3.720
 3385SOL    HW111054   0.336   4.165   3.676
 3385SOL    HW211055   0.225   4.050   3.714
 3386SOL     OW11056   6.362   3.818   6.318
 3386SOL    HW111057   6.369   3.828   6.219
 3386SOL    HW211058   6.394   3.902   6.362
 3387SOL     OW11059   3.038   1.153   3.504
 3387SOL    HW111060   3.013   1.057   3.520
 3387SOL    HW211061   3.093   1.159   3.421
 3388SOL     OW11062   5.634   3.516   1.920
 3388SOL    HW111063   5.563   3.520   1.991
 3388SOL    HW211064   5.601   3.559   1.837
 3389SOL     OW11065   5.029   5.349   4.673
 3389SOL    HW111066   5.103   5.316   4.614
 3389SOL    HW211067   5.067   5.412   4.741
 3390SOL     OW11068   5.298   4.728   5.519
 3390SOL    HW111069   5.258   4.714   5.428
 3390SOL    HW211070   5.225   4.749   5.584
 3391SOL     OW11071   5.323   2.883   4.939
 3391SOL    HW111072   5.408   2.876   4.991
 3391SOL    HW211073   5.279   2.971   4.959
 3392SOL     OW11074   2.805   0.068   3.792
 3392SOL    HW111075   2.779   0.127   3.868
 3392SOL    HW211076   2.814   6.994   3.824
 3393SOL     OW11077   0.122   6.328   6.843
 3393SOL    HW111078   0.142   6.256   6.776
 3393SOL    HW211079   0.192   6.328   6.914
 3394SOL     OW11080   5.714   2.717   0.764
 3394SOL    HW111081   5.653   2.785   0.723
 3394SOL    HW211082   5.735   2.646   0.697
 3395SOL     OW11083   5.869   3.618   3.589
 3395SOL    HW111084   5.788   3.579   3.545
 3395SOL    HW211085   5.875   3.715   3.567
 3396SOL     OW11086   5.808   2.247   3.451
 3396SOL    HW111087   5.838   2.300   3.529
 3396SOL    HW211088   5.808   2.150   3.475
 3397SOL     OW11089   2.610   1.218   5.383
 3397SOL    HW111090   2.520   1.239   5.345
 3397SOL    HW211091   2.680   1.271   5.335
 3398SOL     OW11092   1.288   6.614   4.154
 3398SOL    HW111093   1.206   6.671   4.160
 3398SOL    HW211094   1.368   6.672   4.141
 3399SOL     OW11095   5.649   4.269   5.076
 3399SOL    HW111096   5.725   4.287   5.013
 3399SOL    HW211097   5.668   4.310   5.165
 3400SOL     OW11098   4.694   1.897   5.882
 3400SOL    HW111099   4.732   1.961   5.816
 3400SOL    HW211100   4.634   1.832   5.836
 3401SOL     OW11101   6.852   3.161   0.521
 3401SOL    HW111102   6.898   3.249   0.513
 3401SOL    HW211103   6.777   3.167   0.588
 3402SOL     OW11104   3.945   6.212   0.157
 3402SOL    HW111105   3.874   6.217   0.227
 3402SOL    HW211106   4.011   6.286   0.172
 3403SOL     OW11107   4.535   6.867   4.942
 3403SOL    HW111108   4.536   6.770   4.967
 3403SOL    HW211109   4.521   6.922   5.024
 3404SOL     OW11110   5.394   1.623   6.692
 3404SOL    HW111111   5.396   1.722   6.680
 3404SOL    HW211112   5.483   1.592   6.725
 3405SOL     OW11113   6.617   4.422   4.519
 3405SOL    HW111114   6.528   4.465   4.508
 3405SOL    HW211115   6.629   4.350   4.451
 3406SOL     OW11116   0.813   4.281   2.512
 3406SOL    HW111117   0.803   4.379   2.491
 3406SOL    HW211118   0.901   4.249   2.479
 3407SOL     OW11119   1.575   5.432   0.195
 3407SOL    HW111120   1.479   5.408   0.204
 3407SOL    HW211121   1.592   5.468   0.103
 3408SOL     OW11122   4.970   4.033   5.177
 3408SOL    HW111123   5.065   4.059   5.192
 3408SOL    HW211124   4.937   3.979   5.255
 3409SOL     OW11125   3.902   6.269   6.432
 3409SOL    HW111126   3.978   6.206   6.419
 3409SOL    HW211127   3.832   6.226   6.488
 3410SOL     OW11128   6.643   5.551   0.015
 3410SOL    HW111129   6.558   5.584   0.055
 3410SOL    HW211130   6.720   5.577   0.074
 3411SOL     OW11131   0.222   2.579   1.707
 3411SOL    HW111132   0.173   2.492   1.714
 3411SOL    HW211133   0.225   2.608   1.612
 3412SOL     OW11134   4.566   2.782   6.411
 3412SOL    HW111135   4.546   2.815   6.503
 3412SOL    HW211136   4.609   2.856   6.358
 3413SOL     OW11137   5.395   0.509   2.342
 3413SOL    HW111138   5.403   0.458   2.256
 3413SOL    HW211139   5.409   0.447   2.419
 3414SOL     OW11140   1.801   0.961   5.702
 3414SOL    HW111141   1.825   1.056   5.684
 3414SOL    HW211142   1.742   0.927   5.629
 3415SOL     OW11143   1.725   4.104   4.598
 3415SOL    HW111144   1.699   4.017   4.555
 3415SOL    HW211145   1.793   4.086   4.669
 3416SOL     OW11146   6.902   5.770   0.768
 3416SOL    HW111147   6.872   5.757   0.674
 3416SOL    HW211148   6.986   5.718   0.784
 3417SOL     OW11149   0.742   5.856   3.809
 3417SOL    HW111150   0.839   5.876   3.799
 3417SOL    HW211151   0.689   5.938   3.790
 3418SOL     OW11152   3.876   0.211   5.015
 3418SOL    HW111153   3.902   0.124   5.057
 3418SOL    HW211154   3.924   0.221   4.928
 3419SOL     OW11155   4.020   5.345   5.037
 3419SOL    HW111156   4.053   5.365   4.944
 3419SOL    HW211157   3.922   5.364   5.041
 3420SOL     OW11158   5.386   3.331   3.705
 3420SOL    HW111159   5.403   3.398   3.634
 3420SOL    HW211160   5.418   3.241   3.675
 3421SOL     OW11161   5.727   0.507   6.454
 3421SOL    HW111162   5.635   0.541   6.433
 3421SOL    HW211163   5.792   0.549   6.390
 3422SOL     OW11164   1.756   6.753   1.389
 3422SOL    HW111165   1.837   6.801   1.358
 3422SOL    HW211166   1.765   6.655   1.369
 3423SOL     OW11167   2.192   6.387   0.608
 3423SOL    HW111168   2.158   6.452   0.676
 3423SOL    HW211169   2.288   6.366   0.627
 3424SOL     OW11170   2.939   0.153   2.486
 3424SOL    HW111171   2.856   0.099   2.467
 3424SOL    HW211172   3.020   0.098   2.465
 3425SOL     OW11173   5.426   4.168   2.471
 3425SOL    HW111174   5.458   4.126   2.555
 3425SOL    HW211175   5.369   4.103   2.420
 3426SOL     OW11176   3.333   3.022   0.202
 3426SOL    HW111177   3.362   3.091   0.136
 3426SOL    HW211178   3.233   3.014   0.201
 3427SOL     OW11179   6.445   6.403   0.154
 3427SOL    HW111180   6.532   6.430   0.114
 3427SOL    HW211181   6.373   6.408   0.085
 3428SOL     OW11182   2.968   4.914   1.166
 3428SOL    HW111183   3.014   4.848   1.226
 3428SOL    HW211184   2.963   5.002   1.212
 3429SOL     OW11185   0.816   1.699   0.044
 3429SOL    HW111186   0.829   1.603   0.070
 3429SOL    HW211187   0.754   1.743   0.108
 3430SOL     OW11188   0.090   6.420   5.271
 3430SOL    HW111189   0.047   6.504   5.238
 3430SOL    HW211190   0.021   6.348   5.277
 3431SOL     OW11191   1.951   6.882   1.224
 3431SOL    HW111192   2.045   6.910   1.243
 3431SOL    HW211193   1.900   6.960   1.188
 3432SOL     OW11194   2.483   2.721   0.051
 3432SOL    HW111195   2.566   2.744   0.101
 3432SOL    HW211196   2.484   2.625   0.024
 3433SOL     OW11197   1.133   6.690   6.851
 3433SOL    HW111198   1.110   6.743   6.933
 3433SOL    HW211199   1.079   6.722   6.774
 3434SOL     OW11200   4.438   2.151   0.659
 3434SOL    HW111201   4.382   2.069   0.660
 3434SOL    HW211202   4.420   2.204   0.742
 3435SOL     OW11203   1.513   1.564   1.285
 3435SOL    HW111204   1.562   1.559   1.198
 3435SOL    HW211205   1.418   1.536   1.271
 3436SOL     OW11206   3.400   6.678   5.749
 3436SOL    HW111207   3.426   6.766   5.789
 3436SOL    HW211208   3.466   6.608   5.774
 3437SOL     OW11209   3.219   0.731   6.165
 3437SOL    HW111210   3.223   0.717   6.264
 3437SOL    HW211211   3.171   0.654   6.122
 3438SOL     OW11212   1.360   2.242   0.576
 3438SOL    HW111213   1.333   2.238   0.480
 3438SOL    HW211214   1.288   2.204   0.633
 3439SOL     OW11215   1.951   6.308   5.390
 3439SOL    HW111216   2.032   6.303   5.448
 3439SOL    HW211217   1.935   6.403   5.362
 3440SOL     OW11218   4.225   3.447   1.851
 3440SOL    HW111219   4.199   3.528   1.799
 3440SOL    HW211220   4.148   3.416   1.906
 3441SOL     OW11221   5.184   0.031   3.802
 3441SOL    HW111222   5.244   6.996   3.860
 3441SOL    HW211223   5.199   0.128   3.823
 3442SOL     OW11224   2.944   4.924   2.946
 3442SOL    HW111225   2.902   5.015   2.944
 3442SOL    HW211226   3.018   4.923   3.013
 3443SOL     OW11227   5.658   0.017   1.760
 3443SOL    HW111228   5.590   6.996   1.700
 3443SOL    HW211229   5.708   0.088   1.709
 3444SOL     OW11230   5.455   5.570   0.319
 3444SOL    HW111231   5.517   5.492   0.305
 3444SOL    HW211232   5.421   5.602   0.230
 3445SOL     OW11233   5.997   5.697   4.679
 3445SOL    HW111234   5.974   5.605   4.651
 3445SOL    HW211235   5.986   5.760   4.603
 3446SOL     OW11236   5.850   0.328   2.487
 3446SOL    HW111237   5.762   0.324   2.439
 3446SOL    HW211238   5.910   0.392   2.440
 3447SOL     OW11239   4.898   5.197   1.274
 3447SOL    HW111240   4.850   5.215   1.359
 3447SOL    HW211241   4.982   5.251   1.270
 3448SOL     OW11242   3.347   0.450   0.661
 3448SOL    HW111243   3.296   0.505   0.728
 3448SOL    HW211244   3.358   0.503   0.577
 3449SOL     OW11245   6.115   6.589   3.710
 3449SOL    HW111246   6.170   6.668   3.683
 3449SOL    HW211247   6.156   6.506   3.675
 3450SOL     OW11248   0.520   2.457   6.678
 3450SOL    HW111249   0.554   2.544   6.715
 3450SOL    HW211250   0.430   2.471   6.637
 3451SOL     OW11251   1.438   5.835   3.018
 3451SOL    HW111252   1.370   5.858   2.948
 3451SOL    HW211253   1.398   5.849   3.108
 3452SOL     OW11254   6.088   1.568   6.499
 3452SOL    HW111255   6.146   1.634   6.548
 3452SOL    HW211256   6.015   1.537   6.560
 3453SOL     OW11257   6.787   5.854   6.307
 3453SOL    HW111258   6.773   5.813   6.217
 3453SOL    HW211259   6.778   5.783   6.377
 3454SOL     OW11260   1.338   1.370   6.654
 3454SOL    HW111261   1.406   1.364   6.727
 3454SOL    HW211262   1.343   1.460   6.611
 3455SOL     OW11263   2.089   2.794   4.107
 3455SOL    HW111264   1.989   2.797   4.107
 3455SOL    HW211265   2.124   2.832   4.192
 3456SOL     OW11266   5.314   5.667   2.198
 3456SOL    HW111267   5.246   5.645   2.267
 3456SOL    HW211268   5.389   5.719   2.239
 3457SOL     OW11269   2.785   5.997   3.815
 3457SOL    HW111270   2.749   6.035   3.900
 3457SOL    HW211271   2.790   5.898   3.822
 3458SOL     OW11272   4.361   0.081   0.338
 3458SOL    HW111273   4.349   0.014   0.265
 3458SOL    HW211274   4.412   0.160   0.304
 3459SOL     OW11275   6.535   3.830   2.789
 3459SOL    HW111276   6.441   3.840   2.755
 3459SOL    HW211277   6.595   3.805   2.712
 3460SOL     OW11278   2.206   2.805   0.193
 3460SOL    HW111279   2.261   2.759   0.123
 3460SOL    HW211280   2.256   2.805   0.280
 3461SOL     OW11281   4.490   6.267   4.714
 3461SOL    HW111282   4.423   6.305   4.650
 3461SOL    HW211283   4.508   6.172   4.689
 3462SOL     OW11284   0.487   3.752   2.060
 3462SOL    HW111285   0.478   3.848   2.087
 3462SOL    HW211286   0.556   3.708   2.117
 3463SOL     OW11287   1.318   3.415   3.588
 3463SOL    HW111288   1.286   3.420   3.682
 3463SOL    HW211289   1.396   3.353   3.582
 3464SOL     OW11290   6.826   2.944   6.777
 3464SOL    HW111291   6.752   2.877   6.768
 3464SOL    HW211292   6.909   2.897   6.806
 3465SOL     OW11293   0.938   2.831   2.012
 3465SOL    HW111294   0.917   2.922   1.977
 3465SOL    HW211295   1.031   2.806   1.987
 3466SOL     OW11296   6.542   4.878   6.681
 3466SOL    HW111297   6.550   4.801   6.745
 3466SOL    HW211298   6.632   4.919   6.665
 3467SOL     OW11299   2.159   2.071   0.823
 3467SOL    HW111300   2.148   2.081   0.922
 3467SOL    HW211301   2.228   2.001   0.804
 3468SOL     OW11302   5.928   0.691   2.629
 3468SOL    HW111303   5.883   0.622   2.685
 3468SOL    HW211304   5.883   0.698   2.540
 3469SOL     OW11305   4.697   0.833   4.110
 3469SOL    HW111306   4.628   0.773   4.069
 3469SOL    HW211307   4.662   0.926   4.115
 3470SOL     OW11308   0.036   2.355   1.722
 3470SOL    HW111309   0.065   2.281   1.662
 3470SOL    HW211310   6.965   2.337   1.756
 3471SOL     OW11311   4.580   4.589   4.554
 3471SOL    HW111312   4.514   4.597   4.629
 3471SOL    HW211313   4.658   4.535   4.584
 3472SOL     OW11314   2.818   1.534   3.001
 3472SOL    HW111315   2.745   1.496   3.058
 3472SOL    HW211316   2.786   1.543   2.907
 3473SOL     OW11317   0.217   2.618   1.964
 3473SOL    HW111318   0.216   2.612   1.864
 3473SOL    HW211319   0.213   2.526   2.004
 3474SOL     OW11320   0.558   4.544   3.154
 3474SOL    HW111321   0.635   4.482   3.138
 3474SOL    HW211322   0.526   4.532   3.248
 3475SOL     OW11323   1.298   4.216   3.689
 3475SOL    HW111324   1.263   4.165   3.611
 3475SOL    HW211325   1.230   4.216   3.762
 3476SOL     OW11326   2.400   1.863   2.672
 3476SOL    HW111327   2.354   1.943   2.710
 3476SOL    HW211328   2.358   1.838   2.585
 3477SOL     OW11329   2.041   4.968   0.937
 3477SOL    HW111330   2.036   5.058   0.894
 3477SOL    HW211331   2.123   4.964   0.994
 3478SOL     OW11332   2.287   5.325   5.914
 3478SOL    HW111333   2.215   5.360   5.853
 3478SOL    HW211334   2.252   5.322   6.008
 3479SOL     OW11335   0.951   0.692   2.897
 3479SOL    HW111336   0.903   0.731   2.819
 3479SOL    HW211337   0.932   0.746   2.979
 3480SOL     OW11338   6.874   5.906   4.726
 3480SOL    HW111339   6.914   5.814   4.727
 3480SOL    HW211340   6.774   5.898   4.733
 3481SOL     OW11341   5.243   0.640   0.282
 3481SOL    HW111342   5.183   0.663   0.358
 3481SOL    HW211343   5.187   0.622   0.200
 3482SOL     OW11344   6.117   1.149   1.903
 3482SOL    HW111345   6.214   1.169   1.891
 3482SOL    HW211346   6.083   1.101   1.822
 3483SOL     OW11347   4.888   2.100   1.716
 3483SOL    HW111348   4.966   2.068   1.662
 3483SOL    HW211349   4.911   2.188   1.758
 3484SOL     OW11350   0.631   2.866   0.574
 3484SOL    HW111351   0.711   2.832   0.624
 3484SOL    HW211352   0.650   2.867   0.476
 3485SOL     OW11353   1.682   2.087   4.297
 3485SOL    HW111354   1.771   2.092   4.343
 3485SOL    HW211355   1.609   2.099   4.364
 3486SOL     OW11356   2.550   0.262   3.632
 3486SOL    HW111357   2.499   0.183   3.668
 3486SOL    HW211358   2.486   0.337   3.615
 3487SOL     OW11359   6.610   1.832   0.343
 3487SOL    HW111360   6.646   1.794   0.258
 3487SOL    HW211361   6.683   1.880   0.391
 3488SOL     OW11362   6.663   0.499   4.785
 3488SOL    HW111363   6.591   0.557   4.746
 3488SOL    HW211364   6.668   0.512   4.883
 3489SOL     OW11365   3.611   0.442   1.896
 3489SOL    HW111366   3.701   0.481   1.876
 3489SOL    HW211367   3.553   0.447   1.815
 3490SOL     OW11368   3.924   4.183   1.014
 3490SOL    HW111369   3.919   4.278   0.986
 3490SOL    HW211370   3.930   4.177   1.114
 3491SOL     OW11371   4.615   2.573   5.881
 3491SOL    HW111372   4.580   2.505   5.817
 3491SOL    HW211373   4.599   2.541   5.975
 3492SOL     OW11374   6.622   4.449   1.146
 3492SOL    HW111375   6.712   4.473   1.110
 3492SOL    HW211376   6.552   4.471   1.078
 3493SOL     OW11377   4.811   4.023   4.774
 3493SOL    HW111378   4.793   4.113   4.815
 3493SOL    HW211379   4.804   3.952   4.844
 3494SOL     OW11380   3.139   1.217   1.969
 3494SOL    HW111381   3.097   1.204   2.058
 3494SOL    HW211382   3.194   1.137   1.946
 3495SOL     OW11383   6.012   4.544   1.672
 3495SOL    HW111384   5.943   4.614   1.655
 3495SOL    HW211385   5.992   4.464   1.616
 3496SOL     OW11386   6.180   5.227   1.115
 3496SOL    HW111387   6.146   5.250   1.024
 3496SOL    HW211388   6.255   5.288   1.139
 3497SOL     OW11389   2.437   1.062   3.968
 3497SOL    HW111390   2.525   1.017   3.955
 3497SOL    HW211391   2.451   1.159   3.983
 3498SOL     OW11392   3.002   1.930   1.146
 3498SOL    HW111393   2.959   1.893   1.228
 3498SOL    HW211394   2.954   1.897   1.065
 3499SOL     OW11395   5.725   4.001   4.292
 3499SOL    HW111396   5.813   4.043   4.311
 3499SOL    HW211397   5.729   3.953   4.204
 3500SOL     OW11398   2.108   3.492   4.957
 3500SOL    HW111399   2.197   3.460   4.989
 3500SOL    HW211400   2.098   3.589   4.976
 3501SOL     OW11401   2.127   5.870   5.573
 3501SOL    HW111402   2.203   5.805   5.579
 3501SOL    HW211403   2.085   5.863   5.483
 3502SOL     OW11404   6.582   3.027   1.890
 3502SOL    HW111405   6.637   3.099   1.848
 3502SOL    HW211406   6.622   3.004   1.979
 3503SOL     OW11407   5.969   6.217   4.743
 3503SOL    HW111408   5.932   6.135   4.699
 3503SOL    HW211409   5.893   6.275   4.775
 3504SOL     OW11410   2.485   0.964   2.064
 3504SOL    HW111411   2.501   0.963   1.965
 3504SOL    HW211412   2.406   1.022   2.084
 3505SOL     OW11413   5.738   4.376   5.616
 3505SOL    HW111414   5.759   4.355   5.520
 3505SOL    HW211415   5.639   4.379   5.629
 3506SOL     OW11416   4.952   4.862   5.504
 3506SOL    HW111417   5.016   4.840   5.578
 3506SOL    HW211418   4.876   4.916   5.542
 3507SOL     OW11419   2.533   0.644   1.062
 3507SOL    HW111420   2.566   0.719   1.120
 3507SOL    HW211421   2.566   0.557   1.099
 3508SOL     OW11422   2.433   1.772   6.044
 3508SOL    HW111423   2.433   1.706   6.120
 3508SOL    HW211424   2.414   1.863   6.079
 3509SOL     OW11425   4.824   0.755   6.752
 3509SOL    HW111426   4.866   0.681   6.699
 3509SOL    HW211427   4.893   0.798   6.811
 3510SOL     OW11428   1.132   1.419   2.087
 3510SOL    HW111429   1.112   1.321   2.095
 3510SOL    HW211430   1.211   1.441   2.145
 3511SOL     OW11431   2.224   4.853   1.144
 3511SOL    HW111432   2.261   4.779   1.088
 3511SOL    HW211433   2.243   4.835   1.241
 3512SOL     OW11434   0.355   4.623   0.641
 3512SOL    HW111435   0.349   4.561   0.562
 3512SOL    HW211436   0.350   4.569   0.725
 3513SOL     OW11437   5.650   2.578   6.649
 3513SOL    HW111438   5.722   2.594   6.582
 3513SOL    HW211439   5.597   2.662   6.662
 3514SOL     OW11440   0.028   1.910   2.000
 3514SOL    HW111441   0.122   1.881   1.980
 3514SOL    HW211442   0.029   1.988   2.063
 3515SOL     OW11443   4.451   6.004   3.532
 3515SOL    HW111444   4.466   5.907   3.514
 3515SOL    HW211445   4.507   6.058   3.468
 3516SOL     OW11446   5.079   6.805   1.038
 3516SOL    HW111447   4.990   6.760   1.032
 3516SOL    HW211448   5.067   6.901   1.062
 3517SOL     OW11449   1.355   2.083   1.601
 3517SOL    HW111450   1.306   2.161   1.641
 3517SOL    HW211451   1.452   2.089   1.624
 3518SOL     OW11452   5.315   2.928   4.274
 3518SOL    HW111453   5.355   2.871   4.202
 3518SOL    HW211454   5.256   2.871   4.332
 3519SOL     OW11455   1.476   0.637   6.128
 3519SOL    HW111456   1.553   0.631   6.193
 3519SOL    HW211457   1.398   0.587   6.164
 3520SOL     OW11458   3.171   5.263   6.728
 3520SOL    HW111459   3.256   5.311   6.752
 3520SOL    HW211460   3.191   5.191   6.661
 3521SOL     OW11461   5.206   2.418   0.228
 3521SOL    HW111462   5.198   2.511   0.263
 3521SOL    HW211463   5.274   2.414   0.156
 3522SOL     OW11464   6.828   4.813   1.357
 3522SOL    HW111465   6.907   4.752   1.362
 3522SOL    HW211466   6.744   4.759   1.364
 3523SOL     OW11467   1.421   4.811   5.973
 3523SOL    HW111468   1.434   4.724   6.021
 3523SOL    HW211469   1.510   4.857   5.963
 3524SOL     OW11470   4.781   1.583   2.080
 3524SOL    HW111471   4.802   1.485   2.076
 3524SOL    HW211472   4.802   1.625   1.992
 3525SOL     OW11473   0.627   4.618   2.867
 3525SOL    HW111474   0.590   4.590   2.955
 3525SOL    HW211475   0.710   4.566   2.847
 3526SOL     OW11476   2.539   6.495   4.057
 3526SOL    HW111477   2.484   6.485   4.140
 3526SOL    HW211478   2.512   6.425   3.990
 3527SOL     OW11479   5.762   3.301   6.409
 3527SOL    HW111480   5.770   3.319   6.311
 3527SOL    HW211481   5.668   3.273   6.430
 3528SOL     OW11482   1.137   6.177   5.176
 3528SOL    HW111483   1.180   6.257   5.218
 3528SOL    HW211484   1.134   6.102   5.243
 3529SOL     OW11485   3.677   0.357   6.231
 3529SOL    HW111486   3.737   0.359   6.311
 3529SOL    HW211487   3.731   0.369   6.148
 3530SOL     OW11488   6.847   4.750   2.316
 3530SOL    HW111489   6.854   4.808   2.398
 3530SOL    HW211490   6.930   4.759   2.262
 3531SOL     OW11491   4.901   3.298   0.184
 3531SOL    HW111492   4.939   3.389   0.204
 3531SOL    HW211493   4.881   3.292   0.086
 3532SOL     OW11494   2.744   0.490   1.742
 3532SOL    HW111495   2.783   0.421   1.803
 3532SOL    HW211496   2.691   0.556   1.795
 3533SOL     OW11497   1.830   1.655   2.720
 3533SOL    HW111498   1.922   1.696   2.717
 3533SOL    HW211499   1.761   1.727   2.712
 3534SOL     OW11500   6.985   1.677   0.519
 3534SOL    HW111501   6.997   1.625   0.434
 3534SOL    HW211502   6.897   1.652   0.561
 3535SOL     OW11503   1.714   5.910   0.991
 3535SOL    HW111504   1.622   5.872   0.984
 3535SOL    HW211505   1.714   5.987   1.054
 3536SOL     OW11506   2.856   2.221   3.133
 3536SOL    HW111507   2.786   2.193   3.198
 3536SOL    HW211508   2.812   2.248   3.047
 3537SOL     OW11509   3.359   5.946   1.788
 3537SOL    HW111510   3.366   5.960   1.887
 3537SOL    HW211511   3.321   6.029   1.746
 3538SOL     OW11512   1.477   0.141   6.397
 3538SOL    HW111513   1.441   0.084   6.472
 3538SOL    HW211514   1.488   0.085   6.315
 3539SOL     OW11515   5.028   3.258   5.938
 3539SOL    HW111516   4.950   3.234   5.880
 3539SOL    HW211517   5.074   3.174   5.968
 3540SOL     OW11518   2.384   1.911   5.376
 3540SOL    HW111519   2.301   1.941   5.330
 3540SOL    HW211520   2.448   1.988   5.382
 3541SOL     OW11521   2.104   2.322   6.102
 3541SOL    HW111522   2.085   2.302   6.198
 3541SOL    HW211523   2.171   2.396   6.096
 3542SOL     OW11524   1.886   5.420   2.895
 3542SOL    HW111525   1.825   5.348   2.926
 3542SOL    HW211526   1.912   5.477   2.973
 3543SOL     OW11527   0.953   2.363   4.506
 3543SOL    HW111528   1.010   2.400   4.432
 3543SOL    HW211529   1.006   2.294   4.556
 3544SOL     OW11530   2.767   4.374   6.376
 3544SOL    HW111531   2.790   4.303   6.309
 3544SOL    HW211532   2.791   4.464   6.340
 3545SOL     OW11533   4.307   5.397   0.921
 3545SOL    HW111534   4.315   5.315   0.978
 3545SOL    HW211535   4.289   5.370   0.827
 3546SOL     OW11536   1.364   4.450   4.342
 3546SOL    HW111537   1.335   4.365   4.385
 3546SOL    HW211538   1.447   4.484   4.387
 3547SOL     OW11539   6.620   5.034   4.445
 3547SOL    HW111540   6.531   5.071   4.472
 3547SOL    HW211541   6.659   5.091   4.373
 3548SOL     OW11542   5.611   1.779   6.006
 3548SOL    HW111543   5.607   1.704   5.940
 3548SOL    HW211544   5.665   1.854   5.967
 3549SOL     OW11545   6.600   5.481   5.852
 3549SOL    HW111546   6.508   5.444   5.847
 3549SOL    HW211547   6.656   5.442   5.779
 3550SOL     OW11548   6.328   2.732   2.747
 3550SOL    HW111549   6.396   2.707   2.678
 3550SOL    HW211550   6.371   2.789   2.817
 3551SOL     OW11551   3.835   0.843   2.101
 3551SOL    HW111552   3.843   0.813   2.006
 3551SOL    HW211553   3.780   0.927   2.106
 3552SOL     OW11554   5.586   6.240   2.418
 3552SOL    HW111555   5.524   6.230   2.340
 3552SOL    HW211556   5.677   6.208   2.393
 3553SOL     OW11557   4.624   4.623   1.067
 3553SOL    HW111558   4.633   4.723   1.060
 3553SOL    HW211559   4.661   4.593   1.155
 3554SOL     OW11560   4.777   2.154   1.277
 3554SOL    HW111561   4.812   2.075   1.328
 3554SOL    HW211562   4.764   2.128   1.181
 3555SOL     OW11563   1.211   4.434   4.101
 3555SOL    HW111564   1.298   4.410   4.146
 3555SOL    HW211565   1.215   4.530   4.071
 3556SOL     OW11566   4.378   1.415   3.658
 3556SOL    HW111567   4.333   1.503   3.672
 3556SOL    HW211568   4.354   1.354   3.733
 3557SOL     OW11569   0.966   0.756   4.284
 3557SOL    HW111570   1.003   0.777   4.194
 3557SOL    HW211571   0.867   0.767   4.284
 3558SOL     OW11572   1.828   6.277   1.716
 3558SOL    HW111573   1.850   6.373   1.734
 3558SOL    HW211574   1.811   6.264   1.619
 3559SOL     OW11575   0.595   6.383   5.487
 3559SOL    HW111576   0.547   6.296   5.498
 3559SOL    HW211577   0.666   6.373   5.417
 3560SOL     OW11578   0.188   5.578   1.541
 3560SOL    HW111579   0.217   5.581   1.445
 3560SOL    HW211580   0.182   5.483   1.571
 3561SOL     OW11581   4.173   4.801   5.018
 3561SOL    HW111582   4.142   4.784   5.111
 3561SOL    HW211583   4.228   4.723   4.986
 3562SOL     OW11584   5.065   0.665   3.377
 3562SOL    HW111585   5.164   0.662   3.390
 3562SOL    HW211586   5.044   0.669   3.280
 3563SOL     OW11587   5.860   1.933   0.195
 3563SOL    HW111588   5.944   1.928   0.248
 3563SOL    HW211589   5.851   2.024   0.155
 3564SOL     OW11590   1.724   4.613   3.831
 3564SOL    HW111591   1.722   4.590   3.928
 3564SOL    HW211592   1.649   4.676   3.810
 3565SOL     OW11593   2.824   5.653   5.417
 3565SOL    HW111594   2.779   5.716   5.354
 3565SOL    HW211595   2.885   5.705   5.478
 3566SOL     OW11596   6.691   3.486   5.714
 3566SOL    HW111597   6.652   3.452   5.628
 3566SOL    HW211598   6.629   3.463   5.789
 3567SOL     OW11599   0.387   3.254   0.243
 3567SOL    HW111600   0.300   3.218   0.277
 3567SOL    HW211601   0.453   3.256   0.318
 3568SOL     OW11602   4.969   5.728   4.174
 3568SOL    HW111603   4.991   5.631   4.162
 3568SOL    HW211604   5.047   5.784   4.145
 3569SOL     OW11605   2.510   2.054   5.739
 3569SOL    HW111606   2.543   2.034   5.832
 3569SOL    HW211607   2.547   2.142   5.709
 3570SOL     OW11608   5.076   0.689   4.943
 3570SOL    HW111609   5.081   0.599   4.986
 3570SOL    HW211610   5.167   0.717   4.913
 3571SOL     OW11611   1.103   7.019   5.245
 3571SOL    HW111612   1.178   6.960   5.214
 3571SOL    HW211613   1.135   0.093   5.251
 3572SOL     OW11614   5.764   3.157   2.962
 3572SOL    HW111615   5.831   3.181   2.892
 3572SOL    HW211616   5.724   3.068   2.939
 3573SOL     OW11617   6.674   4.226   3.375
 3573SOL    HW111618   6.637   4.142   3.334
 3573SOL    HW211619   6.774   4.224   3.369
 3574SOL     OW11620   0.627   2.863   1.010
 3574SOL    HW111621   0.609   2.928   0.936
 3574SOL    HW211622   0.666   2.912   1.088
 3575SOL     OW11623   5.217   6.090   2.723
 3575SOL    HW111624   5.313   6.063   2.725
 3575SOL    HW211625   5.183   6.097   2.817
 3576SOL     OW11626   0.742   2.352   6.922
 3576SOL    HW111627   0.723   2.327   6.827
 3576SOL    HW211628   0.835   2.390   6.927
 3577SOL     OW11629   1.788   2.679   6.646
 3577SOL    HW111630   1.828   2.719   6.563
 3577SOL    HW211631   1.704   2.727   6.669
 3578SOL     OW11632   4.610   1.514   0.751
 3578SOL    HW111633   4.681   1.467   0.804
 3578SOL    HW211634   4.551   1.447   0.707
 3579SOL     OW11635   6.669   2.616   2.864
 3579SOL    HW111636   6.576   2.579   2.860
 3579SOL    HW211637   6.735   2.544   2.846
 3580SOL     OW11638   5.918   3.006   0.787
 3580SOL    HW111639   5.944   2.911   0.800
 3580SOL    HW211640   5.875   3.041   0.871
 3581SOL     OW11641   0.762   4.940   3.107
 3581SOL    HW111642   0.752   5.027   3.156
 3581SOL    HW211643   0.672   4.908   3.077
 3582SOL     OW11644   1.255   3.596   6.206
 3582SOL    HW111645   1.196   3.557   6.136
 3582SOL    HW211646   1.200   3.629   6.282
 3583SOL     OW11647   1.521   4.632   6.736
 3583SOL    HW111648   1.507   4.730   6.728
 3583SOL    HW211649   1.568   4.611   6.821
 3584SOL     OW11650   5.955   4.511   5.924
 3584SOL    HW111651   5.990   4.501   5.831
 3584SOL    HW211652   5.855   4.509   5.923
 3585SOL     OW11653   2.872   2.301   4.667
 3585SOL    HW111654   2.809   2.253   4.727
 3585SOL    HW211655   2.831   2.310   4.576
 3586SOL     OW11656   5.928   1.439   4.817
 3586SOL    HW111657   5.878   1.403   4.738
 3586SOL    HW211658   6.026   1.424   4.804
 3587SOL     OW11659   2.100   4.933   5.881
 3587SOL    HW111660   2.133   4.990   5.956
 3587SOL    HW211661   2.049   4.990   5.816
 3588SOL     OW11662   0.312   3.027   5.123
 3588SOL    HW111663   0.356   3.001   5.208
 3588SOL    HW211664   0.380   3.061   5.059
 3589SOL     OW11665   5.806   0.702   5.770
 3589SOL    HW111666   5.730   0.768   5.768
 3589SOL    HW211667   5.774   0.616   5.809
 3590SOL     OW11668   6.960   3.396   0.407
 3590SOL    HW111669   6.990   3.476   0.458
 3590SOL    HW211670   6.954   3.419   0.310
 3591SOL     OW11671   5.714   3.592   0.165
 3591SOL    HW111672   5.793   3.535   0.186
 3591SOL    HW211673   5.732   3.645   0.082
 3592SOL     OW11674   0.653   6.080   2.415
 3592SOL    HW111675   0.555   6.097   2.422
 3592SOL    HW211676   0.703   6.166   2.419
 3593SOL     OW11677   0.989   4.569   5.753
 3593SOL    HW111678   1.068   4.620   5.786
 3593SOL    HW211679   0.939   4.531   5.831
 3594SOL     OW11680   4.716   6.976   3.194
 3594SOL    HW111681   4.619   6.999   3.184
 3594SOL    HW211682   4.739   6.970   3.292
 3595SOL     OW11683   4.883   5.949   6.615
 3595SOL    HW111684   4.905   5.909   6.526
 3595SOL    HW211685   4.788   5.928   6.638
 3596SOL     OW11686   4.938   3.437   2.804
 3596SOL    HW111687   4.980   3.401   2.721
 3596SOL    HW211688   4.880   3.366   2.845
 3597SOL     OW11689   1.834   2.207   5.758
 3597SOL    HW111690   1.896   2.187   5.683
 3597SOL    HW211691   1.822   2.125   5.814
 3598SOL     OW11692   1.705   6.521   5.814
 3598SOL    HW111693   1.609   6.503   5.835
 3598SOL    HW211694   1.739   6.451   5.751
 3599SOL     OW11695   4.902   1.984   0.080
 3599SOL    HW111696   4.922   2.029   0.167
 3599SOL    HW211697   4.805   1.992   0.060
 3600SOL     OW11698   0.824   2.723   2.604
 3600SOL    HW111699   0.897   2.757   2.544
 3600SOL    HW211700   0.795   2.796   2.667
 3601SOL     OW11701   5.186   2.657   6.056
 3601SOL    HW111702   5.148   2.615   6.138
 3601SOL    HW211703   5.201   2.755   6.071
 3602SOL     OW11704   1.584   3.976   0.485
 3602SOL    HW111705   1.494   4.003   0.451
 3602SOL    HW211706   1.580   3.967   0.585
 3603SOL     OW11707   3.839   0.801   4.161
 3603SOL    HW111708   3.764   0.780   4.224
 3603SOL    HW211709   3.801   0.832   4.074
 3604SOL     OW11710   6.695   6.700   3.597
 3604SOL    HW111711   6.774   6.711   3.536
 3604SOL    HW211712   6.684   6.783   3.652
 3605SOL     OW11713   0.853   4.619   3.870
 3605SOL    HW111714   0.894   4.582   3.953
 3605SOL    HW211715   0.766   4.573   3.852
 3606SOL     OW11716   0.661   6.984   4.395
 3606SOL    HW111717   0.673   6.887   4.415
 3606SOL    HW211718   0.705   0.018   4.467
 3607SOL     OW11719   5.393   5.037   2.123
 3607SOL    HW111720   5.349   5.114   2.169
 3607SOL    HW211721   5.331   5.000   2.054
 3608SOL     OW11722   4.789   1.951   4.315
 3608SOL    HW111723   4.752   1.898   4.390
 3608SOL    HW211724   4.886   1.972   4.332
 3609SOL     OW11725   1.838   0.173   4.454
 3609SOL    HW111726   1.830   0.240   4.380
 3609SOL    HW211727   1.916   0.196   4.512
 3610SOL     OW11728   1.473   0.360   6.230
 3610SOL    HW111729   1.565   0.382   6.265
 3610SOL    HW211730   1.444   0.271   6.266
 3611SOL     OW11731   4.569   5.279   4.289
 3611SOL    HW111732   4.618   5.354   4.246
 3611SOL    HW211733   4.607   5.192   4.258
 3612SOL     OW11734   0.606   0.830   6.961
 3612SOL    HW111735   0.698   0.792   6.969
 3612SOL    HW211736   0.605   0.899   6.889
 3613SOL     OW11737   4.875   4.421   2.285
 3613SOL    HW111738   4.790   4.397   2.239
 3613SOL    HW211739   4.935   4.341   2.287
 3614SOL     OW11740   3.487   3.757   0.756
 3614SOL    HW111741   3.539   3.756   0.842
 3614SOL    HW211742   3.427   3.837   0.755
 3615SOL     OW11743   5.230   2.959   6.073
 3615SOL    HW111744   5.299   2.976   6.002
 3615SOL    HW211745   5.240   3.026   6.146
 3616SOL     OW11746   0.828   0.858   6.247
 3616SOL    HW111747   0.886   0.817   6.318
 3616SOL    HW211748   0.875   0.936   6.207
 3617SOL     OW11749   4.197   0.802   6.591
 3617SOL    HW111750   4.243   0.739   6.654
 3617SOL    HW211751   4.134   0.751   6.532
 3618SOL     OW11752   2.276   3.086   5.378
 3618SOL    HW111753   2.346   3.053   5.315
 3618SOL    HW211754   2.319   3.114   5.464
 3619SOL     OW11755   5.882   2.528   5.718
 3619SOL    HW111756   5.938   2.474   5.781
 3619SOL    HW211757   5.893   2.494   5.625
 3620SOL     OW11758   6.067   5.477   5.439
 3620SOL    HW111759   6.163   5.475   5.465
 3620SOL    HW211760   6.011   5.488   5.521
 3621SOL     OW11761   3.012   3.478   4.777
 3621SOL    HW111762   2.958   3.413   4.722
 3621SOL    HW211763   3.106   3.479   4.744
 3622SOL     OW11764   1.546   0.961   0.097
 3622SOL    HW111765   1.522   0.878   0.146
 3622SOL    HW211766   1.636   0.993   0.127
 3623SOL     OW11767   6.785   6.126   4.235
 3623SOL    HW111768   6.885   6.135   4.230
 3623SOL    HW211769   6.761   6.039   4.278
 3624SOL     OW11770   1.529   0.196   2.583
 3624SOL    HW111771   1.531   0.109   2.634
 3624SOL    HW211772   1.440   0.206   2.539
 3625SOL     OW11773   0.662   3.545   6.262
 3625SOL    HW111774   0.579   3.527   6.209
 3625SOL    HW211775   0.741   3.506   6.215
 3626SOL     OW11776   0.624   2.875   5.605
 3626SOL    HW111777   0.603   2.870   5.508
 3626SOL    HW211778   0.707   2.929   5.618
 3627SOL     OW11779   4.279   3.200   1.489
 3627SOL    HW111780   4.321   3.214   1.579
 3627SOL    HW211781   4.324   3.124   1.443
 3628SOL     OW11782   0.778   1.763   1.984
 3628SOL    HW111783   0.861   1.814   1.960
 3628SOL    HW211784   0.713   1.766   1.908
 3629SOL     OW11785   0.597   0.456   5.362
 3629SOL    HW111786   0.567   0.486   5.453
 3629SOL    HW211787   0.691   0.487   5.346
 3630SOL     OW11788   5.604   2.769   3.514
 3630SOL    HW111789   5.562   2.765   3.423
 3630SOL    HW211790   5.610   2.677   3.552
 3631SOL     OW11791   1.939   0.289   2.742
 3631SOL    HW111792   1.879   0.290   2.662
 3631SOL    HW211793   1.913   0.213   2.802
 3632SOL     OW11794   5.464   4.759   1.121
 3632SOL    HW111795   5.387   4.763   1.184
 3632SOL    HW211796   5.460   4.835   1.057
 3633SOL     OW11797   4.289   2.597   5.927
 3633SOL    HW111798   4.315   2.655   5.849
 3633SOL    HW211799   4.333   2.507   5.918
 3634SOL     OW11800   2.255   5.609   6.182
 3634SOL    HW111801   2.339   5.660   6.204
 3634SOL    HW211802   2.207   5.653   6.106
 3635SOL     OW11803   2.863   0.725   1.134
 3635SOL    HW111804   2.877   0.801   1.198
 3635SOL    HW211805   2.892   0.639   1.178
 3636SOL     OW11806   6.342   5.467   0.845
 3636SOL    HW111807   6.315   5.380   0.804
 3636SOL    HW211808   6.365   5.453   0.941
 3637SOL     OW11809   0.168   2.151   1.599
 3637SOL    HW111810   0.218   2.105   1.672
 3637SOL    HW211811   0.225   2.156   1.517
 3638SOL     OW11812   6.855   4.167   2.641
 3638SOL    HW111813   6.864   4.245   2.702
 3638SOL    HW211814   6.771   4.175   2.588
 3639SOL     OW11815   4.859   4.964   0.286
 3639SOL    HW111816   4.796   4.917   0.224
 3639SOL    HW211817   4.953   4.943   0.259
 3640SOL     OW11818   4.927   1.636   0.286
 3640SOL    HW111819   5.025   1.646   0.304
 3640SOL    HW211820   4.913   1.615   0.189
 3641SOL     OW11821   6.336   3.608   1.875
 3641SOL    HW111822   6.238   3.593   1.864
 3641SOL    HW211823   6.357   3.624   1.972
 3642SOL     OW11824   4.622   2.429   0.217
 3642SOL    HW111825   4.587   2.401   0.306
 3642SOL    HW211826   4.549   2.473   0.165
 3643SOL     OW11827   3.683   5.951   5.086
 3643SOL    HW111828   3.703   6.049   5.097
 3643SOL    HW211829   3.615   5.939   5.015
 3644SOL     OW11830   2.190   1.608   1.829
 3644SOL    HW111831   2.190   1.687   1.768
 3644SOL    HW211832   2.283   1.571   1.836
 3645SOL     OW11833   1.737   2.813   4.169
 3645SOL    HW111834   1.727   2.831   4.071
 3645SOL    HW211835   1.713   2.896   4.220
 3646SOL     OW11836   1.325   4.094   5.725
 3646SOL    HW111837   1.406   4.095   5.667
 3646SOL    HW211838   1.309   4.185   5.762
 3647SOL     OW11839   2.584   5.722   6.901
 3647SOL    HW111840   2.678   5.755   6.898
 3647SOL    HW211841   2.537   5.764   6.978
 3648SOL     OW11842   4.837   6.024   3.737
 3648SOL    HW111843   4.833   6.025   3.837
 3648SOL    HW211844   4.790   6.104   3.700
 3649SOL     OW11845   6.066   3.193   7.020
 3649SOL    HW111846   6.155   3.148   7.017
 3649SOL    HW211847   5.994   3.125   7.001
 3650SOL     OW11848   5.810   5.353   1.681
 3650SOL    HW111849   5.759   5.359   1.594
 3650SOL    HW211850   5.758   5.298   1.746
 3651SOL     OW11851   1.977   0.579   4.625
 3651SOL    HW111852   1.998   0.635   4.705
 3651SOL    HW211853   1.958   0.638   4.547
 3652SOL     OW11854   6.149   6.790   3.244
 3652SOL    HW111855   6.153   6.752   3.336
 3652SOL    HW211856   6.124   6.718   3.179
 3653SOL     OW11857   1.456   1.366   2.667
 3653SOL    HW111858   1.430   1.453   2.625
 3653SOL    HW211859   1.551   1.370   2.696
 3654SOL     OW11860   4.493   5.415   0.643
 3654SOL    HW111861   4.568   5.389   0.704
 3654SOL    HW211862   4.408   5.371   0.675
 3655SOL     OW11863   3.491   0.723   3.968
 3655SOL    HW111864   3.442   0.735   4.055
 3655SOL    HW211865   3.425   0.703   3.896
 3656SOL     OW11866   0.417   5.216   1.451
 3656SOL    HW111867   0.327   5.238   1.489
 3656SOL    HW211868   0.483   5.286   1.478
 3657SOL     OW11869   4.748   5.409   4.681
 3657SOL    HW111870   4.840   5.395   4.643
 3657SOL    HW211871   4.755   5.452   4.770
 3658SOL     OW11872   2.590   4.847   6.471
 3658SOL    HW111873   2.552   4.791   6.398
 3658SOL    HW211874   2.576   4.801   6.559
 3659SOL     OW11875   1.504   2.525   5.600
 3659SOL    HW111876   1.525   2.469   5.681
 3659SOL    HW211877   1.547   2.484   5.520
 3660SOL     OW11878   6.214   6.020   4.566
 3660SOL    HW111879   6.207   6.092   4.635
 3660SOL    HW211880   6.260   5.941   4.605
 3661SOL     OW11881   0.203   0.579   5.271
 3661SOL    HW111882   0.274   0.647   5.254
 3661SOL    HW211883   0.118   0.608   5.227
 3662SOL     OW11884   4.313   0.794   4.610
 3662SOL    HW111885   4.222   0.836   4.615
 3662SOL    HW211886   4.331   0.742   4.693
 3663SOL     OW11887   1.568   2.761   6.762
 3663SOL    HW111888   1.528   2.843   6.722
 3663SOL    HW211889   1.513   2.733   6.841
 3664SOL     OW11890   4.711   2.248   2.025
 3664SOL    HW111891   4.685   2.260   1.930
 3664SOL    HW211892   4.769   2.166   2.034
 3665SOL     OW11893   0.474   6.038   5.202
 3665SOL    HW111894   0.536   5.961   5.219
 3665SOL    HW211895   0.527   6.120   5.183
 3666SOL     OW11896   1.073   3.785   3.138
 3666SOL    HW111897   1.062   3.751   3.231
 3666SOL    HW211898   0.983   3.802   3.097
 3667SOL     OW11899   0.033   0.973   3.379
 3667SOL    HW111900   0.023   0.886   3.427
 3667SOL    HW211901   6.991   0.975   3.301
 3668SOL     OW11902   1.154   0.369   1.393
 3668SOL    HW111903   1.068   0.348   1.346
 3668SOL    HW211904   1.193   0.453   1.355
 3669SOL     OW11905   5.609   1.752   3.655
 3669SOL    HW111906   5.568   1.706   3.577
 3669SOL    HW211907   5.709   1.754   3.645
 3670SOL     OW11908   2.705   5.172   0.267
 3670SOL    HW111909   2.678   5.265   0.244
 3670SOL    HW211910   2.804   5.164   0.264
 3671SOL     OW11911   6.961   2.216   3.958
 3671SOL    HW111912   0.013   2.272   3.918
 3671SOL    HW211913   7.001   2.155   4.027
 3672SOL     OW11914   4.703   2.376   2.809
 3672SOL    HW111915   4.719   2.329   2.896
 3672SOL    HW211916   4.768   2.452   2.800
 3673SOL     OW11917   4.087   5.820   6.653
 3673SOL    HW111918   4.117   5.778   6.568
 3673SOL    HW211919   4.136   5.779   6.730
 3674SOL     OW11920   1.512   6.177   5.394
 3674SOL    HW111921   1.531   6.275   5.405
 3674SOL    HW211922   1.444   6.148   5.461
 3675SOL     OW11923   1.341   2.443   4.036
 3675SOL    HW111924   1.419   2.447   4.098
 3675SOL    HW211925   1.353   2.510   3.963
 3676SOL     OW11926   5.845   3.395   2.223
 3676SOL    HW111927   5.906   3.426   2.151
 3676SOL    HW211928   5.850   3.295   2.230
 3677SOL     OW11929   3.198   7.003   4.291
 3677SOL    HW111930   3.266   6.961   4.351
 3677SOL    HW211931   3.129   0.029   4.347
 3678SOL     OW11932   1.687   0.507   4.122
 3678SOL    HW111933   1.752   0.564   4.072
 3678SOL    HW211934   1.603   0.497   4.068
 3679SOL     OW11935   6.967   0.428   2.799
 3679SOL    HW111936   6.983   0.401   2.894
 3679SOL    HW211937   6.914   0.513   2.797
 3680SOL     OW11938   4.777   2.738   4.669
 3680SOL    HW111939   4.697   2.745   4.608
 3680SOL    HW211940   4.811   2.644   4.668
 3681SOL     OW11941   1.106   1.420   6.888
 3681SOL    HW111942   1.159   1.414   6.804
 3681SOL    HW211943   1.149   1.486   6.950
 3682SOL     OW11944   5.751   2.456   0.305
 3682SOL    HW111945   5.826   2.425   0.363
 3682SOL    HW211946   5.675   2.487   0.362
 3683SOL     OW11947   0.032   0.458   3.748
 3683SOL    HW111948   6.991   0.391   3.789
 3683SOL    HW211949   0.089   0.499   3.819
 3684SOL     OW11950   1.087   5.467   0.046
 3684SOL    HW111951   1.139   5.542   0.088
 3684SOL    HW211952   1.100   5.469   6.968
 3685SOL     OW11953   2.210   5.954   5.803
 3685SOL    HW111954   2.169   5.923   5.718
 3685SOL    HW211955   2.288   5.895   5.826
 3686SOL     OW11956   6.306   5.317   4.233
 3686SOL    HW111957   6.249   5.332   4.152
 3686SOL    HW211958   6.397   5.287   4.205
 3687SOL     OW11959   5.015   6.619   3.826
 3687SOL    HW111960   4.978   6.708   3.853
 3687SOL    HW211961   5.050   6.572   3.908
 3688SOL     OW11962   6.475   3.347   0.026
 3688SOL    HW111963   6.416   3.326   6.969
 3688SOL    HW211964   6.453   3.438   0.061
 3689SOL     OW11965   2.075   1.551   5.476
 3689SOL    HW111966   2.005   1.480   5.485
 3689SOL    HW211967   2.142   1.541   5.549
 3690SOL     OW11968   4.555   6.107   0.667
 3690SOL    HW111969   4.639   6.122   0.615
 3690SOL    HW211970   4.523   6.013   0.651
 3691SOL     OW11971   2.440   1.775   6.730
 3691SOL    HW111972   2.518   1.836   6.744
 3691SOL    HW211973   2.464   1.682   6.759
 3692SOL     OW11974   6.758   5.196   5.524
 3692SOL    HW111975   6.795   5.105   5.541
 3692SOL    HW211976   6.787   5.258   5.597
 3693SOL     OW11977   1.903   2.042   2.643
 3693SOL    HW111978   1.940   2.069   2.733
 3693SOL    HW211979   1.820   1.988   2.656
 3694SOL     OW11980   1.341   6.669   2.381
 3694SOL    HW111981   1.368   6.591   2.439
 3694SOL    HW211982   1.409   6.742   2.390
 3695SOL     OW11983   5.551   1.346   1.426
 3695SOL    HW111984   5.633   1.308   1.470
 3695SOL    HW211985   5.557   1.334   1.327
 3696SOL     OW11986   4.274   0.113   4.929
 3696SOL    HW111987   4.301   0.126   4.833
 3696SOL    HW211988   4.183   0.072   4.931
 3697SOL     OW11989   6.691   6.152   2.824
 3697SOL    HW111990   6.786   6.130   2.802
 3697SOL    HW211991   6.676   6.140   2.922
 3698SOL     OW11992   2.342   0.719   3.670
 3698SOL    HW111993   2.288   0.790   3.716
 3698SOL    HW211994   2.433   0.755   3.651
 3699SOL     OW11995   1.770   1.375   3.639
 3699SOL    HW111996   1.856   1.416   3.609
 3699SOL    HW211997   1.694   1.416   3.589
 3700SOL     OW11998   1.463   4.990   5.043
 3700SOL    HW111999   1.402   4.941   5.105
 3700SOL    HW212000   1.502   5.069   5.090
 3701SOL     OW12001   1.203   6.509   3.043
 3701SOL    HW112002   1.163   6.444   3.107
 3701SOL    HW212003   1.133   6.575   3.014
 3702SOL     OW12004   5.208   6.519   3.281
 3702SOL    HW112005   5.227   6.611   3.315
 3702SOL    HW212006   5.159   6.466   3.350
 3703SOL     OW12007   0.713   0.187   6.469
 3703SOL    HW112008   0.632   0.181   6.412
 3703SOL    HW212009   0.748   0.281   6.469
 3704SOL     OW12010   4.900   2.383   1.342
 3704SOL    HW112011   4.862   2.305   1.292
 3704SOL    HW212012   4.985   2.355   1.387
 3705SOL     OW12013   5.129   4.609   4.172
 3705SOL    HW112014   5.133   4.509   4.179
 3705SOL    HW212015   5.096   4.635   4.081
 3706SOL     OW12016   0.627   4.138   6.638
 3706SOL    HW112017   0.544   4.162   6.688
 3706SOL    HW212018   0.603   4.082   6.558
 3707SOL     OW12019   4.580   6.284   3.997
 3707SOL    HW112020   4.581   6.372   3.950
 3707SOL    HW212021   4.542   6.214   3.936
 3708SOL     OW12022   4.253   6.727   1.330
 3708SOL    HW112023   4.291   6.650   1.381
 3708SOL    HW212024   4.235   6.700   1.236
 3709SOL     OW12025   2.829   0.273   1.873
 3709SOL    HW112026   2.750   0.230   1.917
 3709SOL    HW212027   2.851   0.224   1.789
 3710SOL     OW12028   0.351   5.403   4.419
 3710SOL    HW112029   0.445   5.427   4.443
 3710SOL    HW212030   0.290   5.424   4.496
 3711SOL     OW12031   1.183   5.552   4.869
 3711SOL    HW112032   1.188   5.452   4.876
 3711SOL    HW212033   1.087   5.579   4.859
 3712SOL     OW12034   1.685   6.051   0.029
 3712SOL    HW112035   1.699   5.978   0.096
 3712SOL    HW212036   1.663   6.012   6.961
 3713SOL     OW12037   0.316   0.104   5.002
 3713SOL    HW112038   0.291   0.199   5.018
 3713SOL    HW212039   0.234   0.047   5.002
 3714SOL     OW12040   5.774   5.322   6.855
 3714SOL    HW112041   5.697   5.387   6.849
 3714SOL    HW212042   5.808   5.320   6.949
 3715SOL     OW12043   1.246   4.915   1.944
 3715SOL    HW112044   1.168   4.858   1.918
 3715SOL    HW212045   1.331   4.870   1.915
 3716SOL     OW12046   5.969   5.891   4.892
 3716SOL    HW112047   5.904   5.901   4.817
 3716SOL    HW212048   6.043   5.830   4.864
 3717SOL     OW12049   5.406   0.938   0.361
 3717SOL    HW112050   5.448   1.007   0.420
 3717SOL    HW212051   5.382   0.857   0.415
 3718SOL     OW12052   6.958   6.813   0.084
 3718SOL    HW112053   7.020   6.858   0.020
 3718SOL    HW212054   7.008   6.746   0.139
 3719SOL     OW12055   3.923   2.827   6.584
 3719SOL    HW112056   3.912   2.773   6.667
 3719SOL    HW212057   4.020   2.829   6.558
 3720SOL     OW12058   5.621   3.556   1.094
 3720SOL    HW112059   5.603   3.611   1.176
 3720SOL    HW212060   5.560   3.477   1.093
 3721SOL     OW12061   0.386   5.004   0.599
 3721SOL    HW112062   0.288   5.023   0.603
 3721SOL    HW212063   0.420   4.989   0.692
 3722SOL     OW12064   5.450   6.176   1.451
 3722SOL    HW112065   5.357   6.148   1.472
 3722SOL    HW212066   5.450   6.272   1.422
 3723SOL     OW12067   4.472   5.070   0.725
 3723SOL    HW112068   4.535   5.090   0.650
 3723SOL    HW212069   4.461   4.971   0.733
 3724SOL     OW12070   1.500   4.239   6.042
 3724SOL    HW112071   1.583   4.210   6.088
 3724SOL    HW212072   1.420   4.197   6.086
 3725SOL     OW12073   0.535   5.737   6.631
 3725SOL    HW112074   0.585   5.823   6.623
 3725SOL    HW212075   0.488   5.733   6.719
 3726SOL     OW12076   5.225   3.776   6.103
 3726SOL    HW112077   5.246   3.719   6.183
 3726SOL    HW212078   5.175   3.721   6.036
 3727SOL     OW12079   6.714   2.938   5.547
 3727SOL    HW112080   6.746   2.847   5.521
 3727SOL    HW212081   6.615   2.941   5.544
 3728SOL     OW12082   2.070   3.269   6.493
 3728SOL    HW112083   1.981   3.223   6.490
 3728SOL    HW212084   2.142   3.202   6.473
 3729SOL     OW12085   1.377   1.707   4.162
 3729SOL    HW112086   1.458   1.724   4.106
 3729SOL    HW212087   1.345   1.614   4.147
 3730SOL     OW12088   3.909   6.315   5.683
 3730SOL    HW112089   4.008   6.324   5.690
 3730SOL    HW212090   3.885   6.219   5.666
 3731SOL     OW12091   0.240   1.248   0.238
 3731SOL    HW112092   0.316   1.186   0.219
 3731SOL    HW212093   0.271   1.322   0.299
 3732SOL     OW12094   2.515   2.414   0.483
 3732SOL    HW112095   2.508   2.464   0.570
 3732SOL    HW212096   2.481   2.321   0.496
 3733SOL     OW12097   2.147   1.906   3.185
 3733SOL    HW112098   2.177   1.921   3.091
 3733SOL    HW212099   2.182   1.978   3.244
 3734SOL     OW12100   4.395   0.834   1.760
 3734SOL    HW112101   4.335   0.914   1.763
 3734SOL    HW212102   4.451   0.831   1.842
 3735SOL     OW12103   3.323   0.453   2.464
 3735SOL    HW112104   3.303   0.551   2.474
 3735SOL    HW212105   3.421   0.440   2.449
 3736SOL     OW12106   6.756   1.230   0.920
 3736SOL    HW112107   6.733   1.320   0.884
 3736SOL    HW212108   6.847   1.204   0.887
 3737SOL     OW12109   6.007   1.166   3.280
 3737SOL    HW112110   5.917   1.134   3.309
 3737SOL    HW212111   6.003   1.194   3.184
 3738SOL     OW12112   6.260   0.056   1.388
 3738SOL    HW112113   6.325   0.130   1.371
 3738SOL    HW212114   6.230   0.059   1.483
 3739SOL     OW12115   2.302   4.383   1.503
 3739SOL    HW112116   2.362   4.409   1.579
 3739SOL    HW212117   2.351   4.394   1.416
 3740SOL     OW12118   6.465   5.275   0.421
 3740SOL    HW112119   6.372   5.263   0.457
 3740SOL    HW212120   6.529   5.225   0.479
 3741SOL     OW12121   4.971   2.714   6.916
 3741SOL    HW112122   5.009   2.779   6.983
 3741SOL    HW212123   4.975   2.755   6.825
 3742SOL     OW12124   3.974   6.927   0.415
 3742SOL    HW112125   3.989   7.020   0.381
 3742SOL    HW212126   4.054   6.898   0.468
 3743SOL     OW12127   5.283   3.626   1.472
 3743SOL    HW112128   5.190   3.635   1.437
 3743SOL    HW212129   5.280   3.596   1.568
 3744SOL     OW12130   1.609   5.984   2.166
 3744SOL    HW112131   1.621   5.889   2.138
 3744SOL    HW212132   1.685   6.011   2.226
 3745SOL     OW12133   5.520   4.070   2.711
 3745SOL    HW112134   5.450   4.025   2.767
 3745SOL    HW212135   5.521   4.168   2.731
 3746SOL     OW12136   6.252   0.449   4.104
 3746SOL    HW112137   6.178   0.405   4.053
 3746SOL    HW212138   6.340   0.426   4.063
 3747SOL     OW12139   4.460   6.320   5.264
 3747SOL    HW112140   4.468   6.312   5.165
 3747SOL    HW212141   4.546   6.292   5.307
 3748SOL     OW12142   4.988   0.976   2.027
 3748SOL    HW112143   5.018   0.912   1.956
 3748SOL    HW212144   5.021   0.944   2.116
 3749SOL     OW12145   2.373   4.833   3.287
 3749SOL    HW112146   2.342   4.869   3.375
 3749SOL    HW212147   2.330   4.745   3.270
 3750SOL     OW12148   6.189   4.465   0.934
 3750SOL    HW112149   6.170   4.398   0.862
 3750SOL    HW212150   6.185   4.421   1.023
 3751SOL     OW12151   6.632   3.150   0.721
 3751SOL    HW112152   6.659   3.054   0.708
 3751SOL    HW212153   6.580   3.159   0.806
 3752SOL     OW12154   1.003   0.065   0.870
 3752SOL    HW112155   0.935   0.019   0.813
 3752SOL    HW212156   1.071   7.020   0.900
 3753SOL     OW12157   6.545   1.019   3.862
 3753SOL    HW112158   6.560   1.082   3.786
 3753SOL    HW212159   6.561   1.067   3.948
 3754SOL     OW12160   4.155   6.379   1.487
 3754SOL    HW112161   4.146   6.360   1.585
 3754SOL    HW212162   4.229   6.445   1.473
 3755SOL     OW12163   5.445   5.857   4.351
 3755SOL    HW112164   5.512   5.803   4.401
 3755SOL    HW212165   5.454   5.838   4.253
 3756SOL     OW12166   2.127   6.429   6.035
 3756SOL    HW112167   2.170   6.509   6.075
 3756SOL    HW212168   2.032   6.422   6.066
 3757SOL     OW12169   3.774   6.319   6.752
 3757SOL    HW112170   3.754   6.388   6.822
 3757SOL    HW212171   3.865   6.280   6.769
 3758SOL     OW12172   1.940   1.263   4.191
 3758SOL    HW112173   1.910   1.257   4.096
 3758SOL    HW212174   2.037   1.285   4.195
 3759SOL     OW12175   4.551   5.078   6.335
 3759SOL    HW112176   4.540   5.100   6.238
 3759SOL    HW212177   4.463   5.054   6.374
 3760SOL     OW12178   1.433   2.701   4.234
 3760SOL    HW112179   1.358   2.762   4.259
 3760SOL    HW212180   1.460   2.719   4.139
 3761SOL     OW12181   0.376   0.321   5.254
 3761SOL    HW112182   0.456   0.365   5.295
 3761SOL    HW212183   0.314   0.392   5.220
 3762SOL     OW12184   0.485   5.467   6.906
 3762SOL    HW112185   0.499   5.429   6.814
 3762SOL    HW212186   0.501   5.565   6.904
 3763SOL     OW12187   6.945   4.699   0.173
 3763SOL    HW112188   6.890   4.622   0.206
 3763SOL    HW212189   6.885   4.773   0.143
 3764SOL     OW12190   1.729   0.366   3.562
 3764SOL    HW112191   1.827   0.372   3.546
 3764SOL    HW212192   1.680   0.394   3.480
 3765SOL     OW12193   5.076   1.274   1.032
 3765SOL    HW112194   5.104   1.185   1.068
 3765SOL    HW212195   5.119   1.347   1.085
 3766SOL     OW12196   1.310   1.114   4.008
 3766SOL    HW112197   1.349   1.032   4.049
 3766SOL    HW212198   1.214   1.096   3.984
 3767SOL     OW12199   2.478   5.070   0.145
 3767SOL    HW112200   2.567   5.092   0.186
 3767SOL    HW212201   2.460   4.973   0.154
 3768SOL     OW12202   2.540   5.936   5.605
 3768SOL    HW112203   2.467   5.874   5.576
 3768SOL    HW212204   2.621   5.883   5.630
 3769SOL     OW12205   5.470   5.534   5.048
 3769SOL    HW112206   5.397   5.476   5.013
 3769SOL    HW212207   5.469   5.622   5.001
 3770SOL     OW12208   1.916   6.992   6.948
 3770SOL    HW112209   1.903   6.951   6.858
 3770SOL    HW212210   1.841   6.964   7.008
 3771SOL     OW12211   6.385   2.670   6.849
 3771SOL    HW112212   6.301   2.625   6.879
 3771SOL    HW212213   6.377   2.769   6.865
 3772SOL     OW12214   6.941   1.321   0.040
 3772SOL    HW112215   6.860   1.288   0.087
 3772SOL    HW212216   6.983   1.247   7.008
 3773SOL     OW12217   6.587   3.162   6.315
 3773SOL    HW112218   6.574   3.063   6.308
 3773SOL    HW212219   6.502   3.209   6.293
 3774SOL     OW12220   0.195   5.890   6.941
 3774SOL    HW112221   0.143   5.956   6.887
 3774SOL    HW212222   0.133   5.828   6.988
 3775SOL     OW12223   5.029   4.626   2.210
 3775SOL    HW112224   5.102   4.655   2.272
 3775SOL    HW212225   4.981   4.548   2.250
 3776SOL     OW12226   4.108   1.074   0.541
 3776SOL    HW112227   4.077   1.165   0.512
 3776SOL    HW212228   4.207   1.067   0.527
 3777SOL     OW12229   3.135   4.873   4.509
 3777SOL    HW112230   3.187   4.853   4.592
 3777SOL    HW212231   3.047   4.826   4.513
 3778SOL     OW12232   2.824   5.214   2.988
 3778SOL    HW112233   2.739   5.259   3.014
 3778SOL    HW212234   2.842   5.232   2.891
 3779SOL     OW12235   1.782   4.618   0.977
 3779SOL    HW112236   1.776   4.521   0.952
 3779SOL    HW212237   1.856   4.661   0.926
 3780SOL     OW12238   4.527   5.152   5.836
 3780SOL    HW112239   4.528   5.246   5.801
 3780SOL    HW212240   4.535   5.154   5.936
 3781SOL     OW12241   1.833   6.945   4.728
 3781SOL    HW112242   1.867   6.973   4.818
 3781SOL    HW212243   1.911   6.924   4.669
 3782SOL     OW12244   2.523   1.526   4.294
 3782SOL    HW112245   2.584   1.493   4.221
 3782SOL    HW212246   2.576   1.580   4.360
 3783SOL     OW12247   5.751   6.390   4.794
 3783SOL    HW112248   5.656   6.409   4.817
 3783SOL    HW212249   5.756   6.355   4.700
 3784SOL     OW12250   4.895   2.319   3.550
 3784SOL    HW112251   4.851   2.284   3.468
 3784SOL    HW212252   4.964   2.254   3.581
 3785SOL     OW12253   0.978   1.009   6.774
 3785SOL    HW112254   0.948   0.989   6.868
 3785SOL    HW212255   0.922   1.084   6.737
 3786SOL     OW12256   2.296   6.844   2.738
 3786SOL    HW112257   2.301   6.929   2.687
 3786SOL    HW212258   2.365   6.844   2.811
 3787SOL     OW12259   6.002   6.622   3.083
 3787SOL    HW112260   6.053   6.556   3.028
 3787SOL    HW212261   5.938   6.572   3.142
 3788SOL     OW12262   0.681   3.370   4.028
 3788SOL    HW112263   0.653   3.423   4.108
 3788SOL    HW212264   0.693   3.274   4.053
 3789SOL     OW12265   0.594   3.269   4.389
 3789SOL    HW112266   0.688   3.240   4.409
 3789SOL    HW212267   0.596   3.359   4.345
 3790SOL     OW12268   2.147   3.952   5.578
 3790SOL    HW112269   2.187   3.946   5.486
 3790SOL    HW212270   2.147   3.861   5.620
 3791SOL     OW12271   6.358   0.132   0.413
 3791SOL    HW112272   6.328   0.052   0.360
 3791SOL    HW212273   6.338   0.215   0.361
 3792SOL     OW12274   6.863   0.874   3.734
 3792SOL    HW112275   6.898   0.963   3.762
 3792SOL    HW212276   6.769   0.863   3.765
 3793SOL     OW12277   3.596   0.456   2.427
 3793SOL    HW112278   3.649   0.481   2.508
 3793SOL    HW212279   3.601   0.530   2.360
 3794SOL     OW12280   2.193   4.183   1.059
 3794SOL    HW112281   2.280   4.137   1.039
 3794SOL    HW212282   2.153   4.144   1.142
 3795SOL     OW12283   3.429   6.476   6.861
 3795SOL    HW112284   3.447   6.448   6.767
 3795SOL    HW212285   3.460   6.404   6.924
 3796SOL     OW12286   2.683   1.746   1.179
 3796SOL    HW112287   2.643   1.672   1.234
 3796SOL    HW212288   2.705   1.711   1.088
 3797SOL     OW12289   6.602   4.281   2.930
 3797SOL    HW112290   6.563   4.244   2.846
 3797SOL    HW212291   6.549   4.249   3.008
 3798SOL     OW12292   3.769   6.070   2.752
 3798SOL    HW112293   3.768   6.079   2.653
 3798SOL    HW212294   3.779   6.161   2.793
 3799SOL     OW12295   0.133   2.720   3.837
 3799SOL    HW112296   0.066   2.675   3.778
 3799SOL    HW212297   0.211   2.750   3.781
 3800SOL     OW12298   5.141   3.265   4.521
 3800SOL    HW112299   5.163   3.362   4.529
 3800SOL    HW212300   5.217   3.210   4.555
 3801SOL     OW12301   6.410   6.249   3.346
 3801SOL    HW112302   6.471   6.302   3.404
 3801SOL    HW212303   6.320   6.293   3.343
 3802SOL     OW12304   0.707   2.662   3.676
 3802SOL    HW112305   0.686   2.650   3.579
 3802SOL    HW212306   0.639   2.722   3.718
 3803SOL     OW12307   3.741   2.159   1.056
 3803SOL    HW112308   3.672   2.108   1.006
 3803SOL    HW212309   3.823   2.104   1.066
 3804SOL     OW12310   5.122   1.935   3.751
 3804SOL    HW112311   5.093   2.002   3.683
 3804SOL    HW212312   5.044   1.907   3.807
 3805SOL     OW12313   2.819   3.500   1.590
 3805SOL    HW112314   2.830   3.579   1.650
 3805SOL    HW212315   2.899   3.492   1.531
 3806SOL     OW12316   2.981   4.100   6.723
 3806SOL    HW112317   3.046   4.040   6.676
 3806SOL    HW212318   2.938   4.160   6.656
 3807SOL     OW12319   2.540   6.787   3.781
 3807SOL    HW112320   2.445   6.806   3.806
 3807SOL    HW212321   2.601   6.822   3.853
 3808SOL     OW12322   4.195   0.286   1.051
 3808SOL    HW112323   4.112   0.258   1.004
 3808SOL    HW212324   4.194   0.385   1.064
 3809SOL     OW12325   5.929   2.760   0.483
 3809SOL    HW112326   5.870   2.703   0.426
 3809SOL    HW212327   5.874   2.802   0.556
 3810SOL     OW12328   4.455   2.187   5.171
 3810SOL    HW112329   4.488   2.198   5.077
 3810SOL    HW212330   4.390   2.111   5.174
 3811SOL     OW12331   1.137   4.193   3.905
 3811SOL    HW112332   1.164   4.226   3.995
 3811SOL    HW212333   1.052   4.140   3.913
 3812SOL     OW12334   5.451   0.746   5.254
 3812SOL    HW112335   5.364   0.720   5.213
 3812SOL    HW212336   5.492   0.821   5.202
 3813SOL     OW12337   4.088   4.290   0.480
 3813SOL    HW112338   4.009   4.259   0.428
 3813SOL    HW212339   4.138   4.359   0.427
 3814SOL     OW12340   0.408   6.672   1.338
 3814SOL    HW112341   0.474   6.745   1.317
 3814SOL    HW212342   0.458   6.587   1.353
 3815SOL     OW12343   4.922   2.992   0.463
 3815SOL    HW112344   4.945   3.015   0.557
 3815SOL    HW212345   4.824   3.002   0.449
 3816SOL     OW12346   0.332   5.908   0.316
 3816SOL    HW112347   0.269   5.831   0.313
 3816SOL    HW212348   0.423   5.876   0.344
 3817SOL     OW12349   5.315   3.956   3.478
 3817SOL    HW112350   5.286   3.917   3.391
 3817SOL    HW212351   5.362   3.886   3.532
 3818SOL     OW12352   4.952   0.442   0.367
 3818SOL    HW112353   5.035   0.442   0.422
 3818SOL    HW212354   4.915   0.535   0.362
 3819SOL     OW12355   5.257   5.480   0.945
 3819SOL    HW112356   5.305   5.414   1.003
 3819SOL    HW212357   5.271   5.457   0.849
 3820SOL     OW12358   6.951   0.017   3.607
 3820SOL    HW112359   6.971   6.957   3.552
 3820SOL    HW212360   0.016   0.059   3.637
 3821SOL     OW12361   2.143   2.646   1.063
 3821SOL    HW112362   2.173   2.560   1.104
 3821SOL    HW212363   2.043   2.651   1.065
 3822SOL     OW12364   1.665   5.829   2.777
 3822SOL    HW112365   1.597   5.764   2.743
 3822SOL    HW212366   1.756   5.789   2.770
 3823SOL     OW12367   4.198   2.331   5.924
 3823SOL    HW112368   4.237   2.245   5.892
 3823SOL    HW212369   4.137   2.313   6.001
 3824SOL     OW12370   5.499   1.733   6.267
 3824SOL    HW112371   5.547   1.746   6.180
 3824SOL    HW212372   5.549   1.777   6.341
 3825SOL     OW12373   0.574   6.810   0.814
 3825SOL    HW112374   0.599   6.724   0.857
 3825SOL    HW212375   0.528   6.792   0.727
 3826SOL     OW12376   0.623   3.760   0.248
 3826SOL    HW112377   0.677   3.756   0.164
 3826SOL    HW212378   0.579   3.849   0.255
 3827SOL     OW12379   3.072   3.241   1.033
 3827SOL    HW112380   3.163   3.280   1.031
 3827SOL    HW212381   3.077   3.142   1.016
 3828SOL     OW12382   4.745   2.555   1.475
 3828SOL    HW112383   4.795   2.470   1.458
 3828SOL    HW212384   4.735   2.569   1.574
 3829SOL     OW12385   1.956   4.733   4.384
 3829SOL    HW112386   2.028   4.687   4.333
 3829SOL    HW212387   1.997   4.786   4.459
 3830SOL     OW12388   1.028   0.180   4.750
 3830SOL    HW112389   0.988   0.270   4.728
 3830SOL    HW212390   1.001   0.154   4.842
 3831SOL     OW12391   4.529   1.709   2.096
 3831SOL    HW112392   4.549   1.804   2.073
 3831SOL    HW212393   4.611   1.653   2.084
 3832SOL     OW12394   5.823   1.098   2.072
 3832SOL    HW112395   5.884   1.169   2.037
 3832SOL    HW212396   5.876   1.016   2.094
 3833SOL     OW12397   1.491   6.015   6.301
 3833SOL    HW112398   1.401   6.052   6.321
 3833SOL    HW212399   1.522   6.046   6.211
 3834SOL     OW12400   3.655   2.650   0.983
 3834SOL    HW112401   3.608   2.564   0.966
 3834SOL    HW212402   3.636   2.681   1.076
 3835SOL     OW12403   2.876   5.514   5.157
 3835SOL    HW112404   2.871   5.528   5.256
 3835SOL    HW212405   2.972   5.506   5.130
 3836SOL     OW12406   1.923   3.867   5.119
 3836SOL    HW112407   2.010   3.827   5.089
 3836SOL    HW212408   1.937   3.919   5.203
 3837SOL     OW12409   5.117   3.803   6.716
 3837SOL    HW112410   5.042   3.849   6.669
 3837SOL    HW212411   5.095   3.794   6.814
 3838SOL     OW12412   6.131   4.158   4.103
 3838SOL    HW112413   6.167   4.082   4.049
 3838SOL    HW212414   6.045   4.130   4.147
 3839SOL     OW12415   4.307   0.667   4.352
 3839SOL    HW112416   4.289   0.710   4.440
 3839SOL    HW212417   4.223   0.667   4.297
 3840SOL     OW12418   1.768   1.443   5.140
 3840SOL    HW112419   1.789   1.505   5.063
 3840SOL    HW212420   1.693   1.481   5.193
 3841SOL     OW12421   6.868   3.260   4.895
 3841SOL    HW112422   6.773   3.227   4.891
 3841SOL    HW212423   6.872   3.356   4.870
 3842SOL     OW12424   1.275   4.597   6.865
 3842SOL    HW112425   1.215   4.524   6.832
 3842SOL    HW212426   1.351   4.609   6.802
 3843SOL     OW12427   6.796   4.715   1.987
 3843SOL    HW112428   6.761   4.805   1.961
 3843SOL    HW212429   6.873   4.726   2.049
 3844SOL     OW12430   6.979   4.227   5.878
 3844SOL    HW112431   6.897   4.280   5.855
 3844SOL    HW212432   0.011   4.211   5.795
 3845SOL     OW12433   3.921   2.987   2.980
 3845SOL    HW112434   3.965   3.063   2.932
 3845SOL    HW212435   3.976   2.962   3.059
 3846SOL     OW12436   0.506   4.881   3.947
 3846SOL    HW112437   0.461   4.956   3.899
 3846SOL    HW212438   0.446   4.846   4.019
 3847SOL     OW12439   6.065   1.244   5.131
 3847SOL    HW112440   6.086   1.204   5.220
 3847SOL    HW212441   6.010   1.180   5.077
 3848SOL     OW12442   3.054   5.788   3.050
 3848SOL    HW112443   3.012   5.698   3.056
 3848SOL    HW212444   2.983   5.858   3.044
 3849SOL     OW12445   0.427   1.601   5.561
 3849SOL    HW112446   0.474   1.685   5.590
 3849SOL    HW212447   0.484   1.522   5.582
 3850SOL     OW12448   2.661   3.509   1.376
 3850SOL    HW112449   2.713   3.495   1.460
 3850SOL    HW212450   2.564   3.523   1.398
 3851SOL     OW12451   1.261   4.527   3.278
 3851SOL    HW112452   1.350   4.532   3.231
 3851SOL    HW212453   1.233   4.431   3.284
 3852SOL     OW12454   4.598   6.601   4.723
 3852SOL    HW112455   4.618   6.632   4.630
 3852SOL    HW212456   4.666   6.637   4.786
 3853SOL     OW12457   1.593   3.159   2.528
 3853SOL    HW112458   1.682   3.124   2.498
 3853SOL    HW212459   1.561   3.105   2.606
 3854SOL     OW12460   0.993   4.292   2.849
 3854SOL    HW112461   1.056   4.270   2.923
 3854SOL    HW212462   1.044   4.308   2.765
 3855SOL     OW12463   5.060   5.729   6.759
 3855SOL    HW112464   5.048   5.717   6.660
 3855SOL    HW212465   5.063   5.827   6.779
 3856SOL     OW12466   6.732   6.310   4.990
 3856SOL    HW112467   6.642   6.352   4.978
 3856SOL    HW212468   6.723   6.227   5.044
 3857SOL     OW12469   1.012   6.314   5.476
 3857SOL    HW112470   0.981   6.219   5.474
 3857SOL    HW212471   1.111   6.317   5.489
 3858SOL     OW12472   1.624   6.155   6.096
 3858SOL    HW112473   1.714   6.170   6.138
 3858SOL    HW212474   1.596   6.238   6.048
 3859SOL     OW12475   0.097   1.769   3.221
 3859SOL    HW112476   0.113   1.863   3.191
 3859SOL    HW212477   0.067   1.769   3.316
 3860SOL     OW12478   1.184   6.726   4.681
 3860SOL    HW112479   1.147   6.801   4.626
 3860SOL    HW212480   1.136   6.641   4.659
 3861SOL     OW12481   5.190   4.226   1.775
 3861SOL    HW112482   5.116   4.275   1.819
 3861SOL    HW212483   5.268   4.219   1.838
 3862SOL     OW12484   6.592   0.036   5.341
 3862SOL    HW112485   6.572   6.963   5.313
 3862SOL    HW212486   6.520   0.069   5.402
 3863SOL     OW12487   3.954   4.342   6.459
 3863SOL    HW112488   3.954   4.422   6.399
 3863SOL    HW212489   3.963   4.259   6.404
 3864SOL     OW12490   4.116   1.947   5.426
 3864SOL    HW112491   4.101   1.965   5.523
 3864SOL    HW212492   4.056   1.872   5.397
 3865SOL     OW12493   3.934   0.350   1.489
 3865SOL    HW112494   3.965   0.443   1.510
 3865SOL    HW212495   3.990   0.285   1.540
 3866SOL     OW12496   3.694   0.712   0.239
 3866SOL    HW112497   3.787   0.718   0.200
 3866SOL    HW212498   3.644   0.638   0.194
 3867SOL     OW12499   2.114   3.594   4.152
 3867SOL    HW112500   2.021   3.593   4.115
 3867SOL    HW212501   2.124   3.521   4.220
 3868SOL     OW12502   2.287   6.268   2.152
 3868SOL    HW112503   2.214   6.200   2.152
 3868SOL    HW212504   2.276   6.329   2.231
 3869SOL     OW12505   0.151   3.017   4.235
 3869SOL    HW112506   0.219   3.071   4.284
 3869SOL    HW212507   0.196   2.965   4.162
 3870SOL     OW12508   4.333   4.884   0.413
 3870SOL    HW112509   4.373   4.861   0.324
 3870SOL    HW212510   4.235   4.864   0.411
 3871SOL     OW12511   3.122   1.073   2.640
 3871SOL    HW112512   3.123   1.077   2.740
 3871SOL    HW212513   3.049   1.011   2.610
 3872SOL     OW12514   3.299   2.738   1.549
 3872SOL    HW112515   3.289   2.675   1.626
 3872SOL    HW212516   3.395   2.742   1.521
 3873SOL     OW12517   5.577   5.550   1.307
 3873SOL    HW112518   5.653   5.566   1.245
 3873SOL    HW212519   5.572   5.624   1.374
 3874SOL     OW12520   4.523   6.577   0.374
 3874SOL    HW112521   4.505   6.548   0.280
 3874SOL    HW212522   4.578   6.508   0.420
 3875SOL     OW12523   0.977   3.499   2.578
 3875SOL    HW112524   1.003   3.592   2.605
 3875SOL    HW212525   0.976   3.441   2.659
 3876SOL     OW12526   5.104   5.142   6.633
 3876SOL    HW112527   5.190   5.162   6.680
 3876SOL    HW212528   5.054   5.227   6.618
 3877SOL     OW12529   6.509   1.294   0.606
 3877SOL    HW112530   6.441   1.356   0.644
 3877SOL    HW212531   6.588   1.347   0.576
 3878SOL     OW12532   2.447   5.853   5.959
 3878SOL    HW112533   2.424   5.871   6.055
 3878SOL    HW212534   2.545   5.866   5.945
 3879SOL     OW12535   5.153   6.035   1.228
 3879SOL    HW112536   5.178   6.099   1.155
 3879SOL    HW212537   5.227   5.969   1.241
 3880SOL     OW12538   6.257   4.260   2.913
 3880SOL    HW112539   6.325   4.254   2.986
 3880SOL    HW212540   6.300   4.238   2.825
 3881SOL     OW12541   1.440   5.438   0.813
 3881SOL    HW112542   1.366   5.449   0.747
 3881SOL    HW212543   1.499   5.363   0.785
 3882SOL     OW12544   6.491   1.058   5.269
 3882SOL    HW112545   6.503   1.065   5.368
 3882SOL    HW212546   6.447   1.141   5.234
 3883SOL     OW12547   5.341   1.737   3.859
 3883SOL    HW112548   5.269   1.795   3.823
 3883SOL    HW212549   5.360   1.663   3.793
 3884SOL     OW12550   1.549   6.353   4.588
 3884SOL    HW112551   1.478   6.284   4.576
 3884SOL    HW212552   1.541   6.422   4.517
 3885SOL     OW12553   6.541   1.157   4.439
 3885SOL    HW112554   6.596   1.142   4.521
 3885SOL    HW212555   6.562   1.088   4.370
 3886SOL     OW12556   5.940   0.088   5.832
 3886SOL    HW112557   5.925   0.051   5.740
 3886SOL    HW212558   5.868   0.056   5.893
 3887SOL     OW12559   5.064   2.170   5.451
 3887SOL    HW112560   4.979   2.195   5.496
 3887SOL    HW212561   5.089   2.242   5.385
 3888SOL     OW12562   0.100   0.944   6.249
 3888SOL    HW112563   0.183   0.968   6.301
 3888SOL    HW212564   0.044   1.026   6.236
 3889SOL     OW12565   0.759   5.361   6.298
 3889SOL    HW112566   0.709   5.425   6.355
 3889SOL    HW212567   0.733   5.267   6.322
 3890SOL     OW12568   6.476   6.526   3.015
 3890SOL    HW112569   6.529   6.442   3.032
 3890SOL    HW212570   6.484   6.552   2.919
 3891SOL     OW12571   5.769   4.791   4.471
 3891SOL    HW112572   5.808   4.852   4.402
 3891SOL    HW212573   5.692   4.740   4.431
 3892SOL     OW12574   1.521   0.482   2.302
 3892SOL    HW112575   1.535   0.578   2.277
 3892SOL    HW212576   1.604   0.446   2.344
 3893SOL     OW12577   3.430   5.903   3.388
 3893SOL    HW112578   3.522   5.921   3.422
 3893SOL    HW212579   3.423   5.807   3.362
 3894SOL     OW12580   3.827   2.607   0.468
 3894SOL    HW112581   3.809   2.516   0.431
 3894SOL    HW212582   3.909   2.645   0.425
 3895SOL     OW12583   1.322   1.144   5.285
 3895SOL    HW112584   1.279   1.223   5.329
 3895SOL    HW212585   1.379   1.177   5.209
 3896SOL     OW12586   0.798   2.055   6.202
 3896SOL    HW112587   0.849   2.121   6.147
 3896SOL    HW212588   0.712   2.096   6.232
 3897SOL     OW12589   2.946   6.629   2.374
 3897SOL    HW112590   2.863   6.612   2.428
 3897SOL    HW212591   2.939   6.581   2.287
 3898SOL     OW12592   3.262   3.041   3.785
 3898SOL    HW112593   3.337   2.990   3.828
 3898SOL    HW212594   3.288   3.065   3.692
 3899SOL     OW12595   5.538   1.241   5.101
 3899SOL    HW112596   5.478   1.307   5.146
 3899SOL    HW212597   5.602   1.290   5.041
 3900SOL     OW12598   5.956   2.818   3.305
 3900SOL    HW112599   5.994   2.753   3.372
 3900SOL    HW212600   6.027   2.884   3.280
 3901SOL     OW12601   1.825   6.707   5.682
 3901SOL    HW112602   1.778   6.641   5.741
 3901SOL    HW212603   1.913   6.669   5.654
 3902SOL     OW12604   5.121   4.590   3.024
 3902SOL    HW112605   5.196   4.564   3.085
 3902SOL    HW212606   5.150   4.578   2.929
 3903SOL     OW12607   4.633   3.317   0.243
 3903SOL    HW112608   4.589   3.228   0.238
 3903SOL    HW212609   4.732   3.306   0.232
 3904SOL     OW12610   0.899   6.818   0.482
 3904SOL    HW112611   0.823   6.787   0.424
 3904SOL    HW212612   0.864   6.863   0.563
 3905SOL     OW12613   6.351   6.244   6.327
 3905SOL    HW112614   6.394   6.185   6.396
 3905SOL    HW212615   6.258   6.266   6.355
 3906SOL     OW12616   1.541   4.711   4.137
 3906SOL    HW112617   1.534   4.749   4.045
 3906SOL    HW212618   1.478   4.761   4.198
 3907SOL     OW12619   0.082   0.912   4.714
 3907SOL    HW112620   0.090   0.912   4.813
 3907SOL    HW212621   0.027   0.833   4.685
 3908SOL     OW12622   1.146   0.875   5.549
 3908SOL    HW112623   1.095   0.880   5.463
 3908SOL    HW212624   1.128   0.957   5.603
 3909SOL     OW12625   4.908   3.490   6.010
 3909SOL    HW112626   4.931   3.393   6.017
 3909SOL    HW212627   4.911   3.532   6.101
 3910SOL     OW12628   3.678   3.903   1.993
 3910SOL    HW112629   3.614   3.839   2.036
 3910SOL    HW212630   3.766   3.898   2.041
 3911SOL     OW12631   5.331   0.436   0.802
 3911SOL    HW112632   5.274   0.419   0.882
 3911SOL    HW212633   5.408   0.372   0.801
 3912SOL     OW12634   3.159   1.849   5.916
 3912SOL    HW112635   3.253   1.819   5.930
 3912SOL    HW212636   3.111   1.782   5.859
 3913SOL     OW12637   3.800   6.579   0.579
 3913SOL    HW112638   3.719   6.636   0.594
 3913SOL    HW212639   3.820   6.527   0.662
 3914SOL     OW12640   5.754   1.605   0.973
 3914SOL    HW112641   5.727   1.544   0.899
 3914SOL    HW212642   5.685   1.676   0.986
 3915SOL     OW12643   3.163   6.194   0.394
 3915SOL    HW112644   3.245   6.249   0.388
 3915SOL    HW212645   3.153   6.158   0.487
 3916SOL     OW12646   3.237   0.511   2.805
 3916SOL    HW112647   3.275   0.421   2.783
 3916SOL    HW212648   3.237   0.524   2.905
 3917SOL     OW12649   2.470   5.099   0.799
 3917SOL    HW112650   2.500   5.132   0.710
 3917SOL    HW212651   2.383   5.142   0.824
 3918SOL     OW12652   5.163   1.104   0.333
 3918SOL    HW112653   5.142   1.084   0.428
 3918SOL    HW212654   5.241   1.050   0.303
 3919SOL     OW12655   4.835   1.330   0.887
 3919SOL    HW112656   4.765   1.260   0.899
 3919SOL    HW212657   4.915   1.307   0.942
 3920SOL     OW12658   3.098   1.458   0.162
 3920SOL    HW112659   3.183   1.426   0.203
 3920SOL    HW212660   3.117   1.495   0.071
 3921SOL     OW12661   6.952   2.640   6.565
 3921SOL    HW112662   6.935   2.581   6.486
 3921SOL    HW212663   6.903   2.726   6.553
 3922SOL     OW12664   4.741   4.791   2.213
 3922SOL    HW112665   4.674   4.783   2.140
 3922SOL    HW212666   4.702   4.756   2.298
 3923SOL     OW12667   6.092   1.054   1.642
 3923SOL    HW112668   6.079   1.111   1.561
 3923SOL    HW212669   6.065   0.960   1.620
 3924SOL     OW12670   0.267   4.523   3.975
 3924SOL    HW112671   0.228   4.442   3.931
 3924SOL    HW212672   0.350   4.497   4.024
 3925SOL     OW12673   4.750   3.695   0.499
 3925SOL    HW112674   4.816   3.768   0.515
 3925SOL    HW212675   4.662   3.720   0.540
 3926SOL     OW12676   1.600   0.776   5.869
 3926SOL    HW112677   1.679   0.833   5.845
 3926SOL    HW212678   1.565   0.803   5.959
 3927SOL     OW12679   0.299   2.522   4.644
 3927SOL    HW112680   0.308   2.514   4.743
 3927SOL    HW212681   0.364   2.462   4.598
 3928SOL     OW12682   2.348   0.074   3.451
 3928SOL    HW112683   2.269   0.015   3.434
 3928SOL    HW212684   2.379   0.062   3.545
 3929SOL     OW12685   6.699   1.887   5.928
 3929SOL    HW112686   6.604   1.919   5.933
 3929SOL    HW212687   6.756   1.960   5.889
 3930SOL     OW12688   1.452   2.437   3.677
 3930SOL    HW112689   1.372   2.377   3.681
 3930SOL    HW212690   1.429   2.520   3.627
 3931SOL     OW12691   1.557   1.896   1.947
 3931SOL    HW112692   1.626   1.960   1.981
 3931SOL    HW212693   1.549   1.819   2.011
 3932SOL     OW12694   1.815   5.624   4.044
 3932SOL    HW112695   1.731   5.570   4.054
 3932SOL    HW212696   1.892   5.574   4.084
 3933SOL     OW12697   1.695   5.210   0.341
 3933SOL    HW112698   1.652   5.284   0.289
 3933SOL    HW212699   1.673   5.219   0.438
 3934SOL     OW12700   0.901   1.402   2.390
 3934SOL    HW112701   0.847   1.486   2.396
 3934SOL    HW212702   0.844   1.324   2.415
 3935SOL     OW12703   6.173   3.376   6.538
 3935SOL    HW112704   6.124   3.352   6.622
 3935SOL    HW212705   6.259   3.421   6.561
 3936SOL     OW12706   6.426   5.628   5.061
 3936SOL    HW112707   6.358   5.560   5.088
 3936SOL    HW212708   6.509   5.582   5.029
 3937SOL     OW12709   0.245   5.299   2.526
 3937SOL    HW112710   0.257   5.365   2.600
 3937SOL    HW212711   0.213   5.212   2.564
 3938SOL     OW12712   6.771   3.906   4.410
 3938SOL    HW112713   6.793   3.847   4.332
 3938SOL    HW212714   6.848   3.908   4.473
 3939SOL     OW12715   0.724   1.467   2.001
 3939SOL    HW112716   0.736   1.563   1.976
 3939SOL    HW212717   0.637   1.433   1.966
 3940SOL     OW12718   3.031   4.713   1.815
 3940SOL    HW112719   3.050   4.760   1.902
 3940SOL    HW212720   2.989   4.625   1.834
 3941SOL     OW12721   6.091   7.021   4.283
 3941SOL    HW112722   6.190   0.013   4.284
 3941SOL    HW212723   6.050   0.059   4.214
 3942SOL     OW12724   0.955   6.273   6.455
 3942SOL    HW112725   0.932   6.368   6.472
 3942SOL    HW212726   1.036   6.248   6.510
 3943SOL     OW12727   1.010   3.953   1.695
 3943SOL    HW112728   0.972   3.949   1.603
 3943SOL    HW212729   1.025   4.048   1.722
 3944SOL     OW12730   6.326   3.030   6.480
 3944SOL    HW112731   6.415   3.005   6.442
 3944SOL    HW212732   6.290   3.109   6.431
 3945SOL     OW12733   0.995   1.804   3.496
 3945SOL    HW112734   1.007   1.784   3.399
 3945SOL    HW212735   0.898   1.804   3.519
 3946SOL     OW12736   6.753   3.586   0.629
 3946SOL    HW112737   6.756   3.507   0.689
 3946SOL    HW212738   6.699   3.565   0.548
 3947SOL     OW12739   5.765   6.137   0.529
 3947SOL    HW112740   5.685   6.196   0.524
 3947SOL    HW212741   5.846   6.191   0.551
 3948SOL     OW12742   2.055   2.633   6.041
 3948SOL    HW112743   2.017   2.614   6.131
 3948SOL    HW212744   1.998   2.589   5.971
 3949SOL     OW12745   6.522   6.539   2.727
 3949SOL    HW112746   6.529   6.452   2.678
 3949SOL    HW212747   6.606   6.591   2.712
 3950SOL     OW12748   4.218   4.697   1.464
 3950SOL    HW112749   4.288   4.730   1.527
 3950SOL    HW212750   4.257   4.628   1.404
 3951SOL     OW12751   0.098   2.031   5.355
 3951SOL    HW112752   0.113   1.957   5.290
 3951SOL    HW212753   0.062   2.111   5.307
 3952SOL     OW12754   5.622   2.372   5.116
 3952SOL    HW112755   5.562   2.302   5.154
 3952SOL    HW212756   5.567   2.446   5.077
 3953SOL     OW12757   2.994   3.859   6.062
 3953SOL    HW112758   3.002   3.948   6.017
 3953SOL    HW212759   2.930   3.867   6.139
 3954SOL     OW12760   0.029   3.859   5.102
 3954SOL    HW112761   0.112   3.817   5.137
 3954SOL    HW212762   6.973   3.839   5.163
 3955SOL     OW12763   5.341   6.200   6.991
 3955SOL    HW112764   5.309   6.289   0.004
 3955SOL    HW212765   5.341   6.200   6.891
 3956SOL     OW12766   0.657   2.625   5.723
 3956SOL    HW112767   0.668   2.648   5.820
 3956SOL    HW212768   0.651   2.709   5.670
 3957SOL     OW12769   2.826   6.822   3.908
 3957SOL    HW112770   2.901   6.855   3.966
 3957SOL    HW212771   2.864   6.788   3.822
 3958SOL     OW12772   6.584   5.765   0.346
 3958SOL    HW112773   6.608   5.861   0.332
 3958SOL    HW212774   6.557   5.751   0.441
 3959SOL     OW12775   2.659   5.741   0.958
 3959SOL    HW112776   2.663   5.732   0.858
 3959SOL    HW212777   2.571   5.780   0.984
 3960SOL     OW12778   4.146   2.827   6.881
 3960SOL    HW112779   4.176   2.768   6.806
 3960SOL    HW212780   4.138   2.774   6.965
 3961SOL     OW12781   5.038   1.577   2.436
 3961SOL    HW112782   4.941   1.553   2.429
 3961SOL    HW212783   5.085   1.510   2.494
 3962SOL     OW12784   1.145   6.490   0.114
 3962SOL    HW112785   1.212   6.528   0.050
 3962SOL    HW212786   1.160   6.529   0.205
 3963SOL     OW12787   5.135   5.353   3.681
 3963SOL    HW112788   5.159   5.362   3.584
 3963SOL    HW212789   5.045   5.312   3.689
 3964SOL     OW12790   5.378   5.950   5.235
 3964SOL    HW112791   5.305   6.015   5.259
 3964SOL    HW212792   5.457   5.999   5.199
 3965SOL     OW12793   4.158   5.044   6.804
 3965SOL    HW112794   4.195   5.131   6.838
 3965SOL    HW212795   4.118   5.058   6.714
 3966SOL     OW12796   6.175   5.095   6.019
 3966SOL    HW112797   6.095   5.044   6.049
 3966SOL    HW212798   6.254   5.070   6.075
 3967SOL     OW12799   0.245   5.654   4.983
 3967SOL    HW112800   0.310   5.636   5.057
 3967SOL    HW212801   0.241   5.752   4.966
 3968SOL     OW12802   4.942   0.537   2.573
 3968SOL    HW112803   4.876   0.558   2.501
 3968SOL    HW212804   5.019   0.486   2.535
 3969SOL     OW12805   1.430   4.874   2.991
 3969SOL    HW112806   1.515   4.878   3.044
 3969SOL    HW212807   1.397   4.966   2.975
 3970SOL     OW12808   4.735   5.013   4.010
 3970SOL    HW112809   4.739   4.927   3.958
 3970SOL    HW212810   4.719   5.089   3.948
 3971SOL     OW12811   2.600   5.488   3.576
 3971SOL    HW112812   2.664   5.514   3.504
 3971SOL    HW212813   2.623   5.397   3.610
 3972SOL     OW12814   0.654   6.603   0.622
 3972SOL    HW112815   0.664   6.560   0.533
 3972SOL    HW212816   0.729   6.574   0.682
 3973SOL     OW12817   3.408   3.708   4.150
 3973SOL    HW112818   3.416   3.749   4.059
 3973SOL    HW212819   3.487   3.732   4.206
 3974SOL     OW12820   0.149   1.458   5.924
 3974SOL    HW112821   0.191   1.455   5.833
 3974SOL    HW212822   0.050   1.467   5.914
 3975SOL     OW12823   6.565   1.039   6.401
 3975SOL    HW112824   6.466   1.033   6.388
 3975SOL    HW212825   6.592   0.986   6.482
 3976SOL     OW12826   0.808   4.360   0.741
 3976SOL    HW112827   0.882   4.387   0.803
 3976SOL    HW212828   0.782   4.437   0.684
 3977SOL     OW12829   2.406   5.850   6.248
 3977SOL    HW112830   2.485   5.904   6.276
 3977SOL    HW212831   2.338   5.850   6.322
 3978SOL     OW12832   5.813   1.767   5.671
 3978SOL    HW112833   5.827   1.759   5.572
 3978SOL    HW212834   5.902   1.774   5.716
 3979SOL     OW12835   1.208   6.967   1.812
 3979SOL    HW112836   1.177   6.892   1.870
 3979SOL    HW212837   1.255   0.015   1.867
 3980SOL     OW12838   5.196   3.523   4.533
 3980SOL    HW112839   5.196   3.582   4.453
 3980SOL    HW212840   5.201   3.579   4.616
 3981SOL     OW12841   0.414   2.008   6.331
 3981SOL    HW112842   0.415   1.965   6.241
 3981SOL    HW212843   0.431   2.106   6.321
 3982SOL     OW12844   2.033   0.852   4.504
 3982SOL    HW112845   2.120   0.805   4.518
 3982SOL    HW212846   2.014   0.858   4.406
 3983SOL     OW12847   3.237   6.902   4.649
 3983SOL    HW112848   3.171   6.828   4.637
 3983SOL    HW212849   3.205   6.964   4.721
 3984SOL     OW12850   1.394   6.616   1.895
 3984SOL    HW112851   1.318   6.616   1.960
 3984SOL    HW212852   1.364   6.656   1.809
 3985SOL     OW12853   1.292   3.575   6.990
 3985SOL    HW112854   1.365   3.525   6.945
 3985SOL    HW212855   1.231   3.616   6.922
 3986SOL     OW12856   0.302   2.085   1.349
 3986SOL    HW112857   0.263   2.010   1.296
 3986SOL    HW212858   0.303   2.169   1.294
 3987SOL     OW12859   2.026   5.811   5.332
 3987SOL    HW112860   2.100   5.841   5.273
 3987SOL    HW212861   2.013   5.712   5.322
 3988SOL     OW12862   4.153   1.993   6.429
 3988SOL    HW112863   4.166   1.909   6.482
 3988SOL    HW212864   4.223   1.999   6.358
 3989SOL     OW12865   6.549   0.066   6.599
 3989SOL    HW112866   6.613   0.132   6.559
 3989SOL    HW212867   6.455   0.095   6.580
 3990SOL     OW12868   6.968   2.565   4.739
 3990SOL    HW112869   6.944   2.612   4.653
 3990SOL    HW212870   6.968   2.632   4.814
 3991SOL     OW12871   0.632   2.163   3.863
 3991SOL    HW112872   0.718   2.117   3.888
 3991SOL    HW212873   0.649   2.224   3.786
 3992SOL     OW12874   4.096   3.367   6.591
 3992SOL    HW112875   4.155   3.406   6.520
 3992SOL    HW212876   4.153   3.323   6.661
 3993SOL     OW12877   2.861   1.962   2.408
 3993SOL    HW112878   2.800   2.002   2.477
 3993SOL    HW212879   2.899   2.035   2.351
 3994SOL     OW12880   2.605   2.467   4.829
 3994SOL    HW112881   2.605   2.489   4.732
 3994SOL    HW212882   2.682   2.407   4.851
 3995SOL     OW12883   1.905   4.038   3.490
 3995SOL    HW112884   1.941   4.025   3.582
 3995SOL    HW212885   1.915   4.133   3.463
 3996SOL     OW12886   0.762   1.089   4.120
 3996SOL    HW112887   0.810   1.049   4.042
 3996SOL    HW212888   0.783   1.187   4.126
 3997SOL     OW12889   4.997   3.607   3.401
 3997SOL    HW112890   5.091   3.609   3.369
 3997SOL    HW212891   4.954   3.521   3.373
 3998SOL     OW12892   6.204   2.001   2.521
 3998SOL    HW112893   6.125   2.004   2.461
 3998SOL    HW212894   6.287   1.985   2.467
 3999SOL     OW12895   5.711   4.078   3.263
 3999SOL    HW112896   5.715   4.001   3.327
 3999SOL    HW212897   5.758   4.157   3.302
 4000SOL     OW12898   3.041   6.130   2.612
 4000SOL    HW112899   2.949   6.158   2.583
 4000SOL    HW212900   3.107   6.156   2.542
 4001SOL     OW12901   2.597   4.282   6.114
 4001SOL    HW112902   2.667   4.336   6.068
 4001SOL    HW212903   2.523   4.262   6.050
 4002SOL     OW12904   3.689   3.178   5.194
 4002SOL    HW112905   3.705   3.092   5.145
 4002SOL    HW212906   3.746   3.250   5.154
 4003SOL     OW12907   2.375   1.240   6.238
 4003SOL    HW112908   2.299   1.294   6.273
 4003SOL    HW212909   2.345   1.147   6.219
 4004SOL     OW12910   6.495   4.020   3.228
 4004SOL    HW112911   6.440   3.959   3.286
 4004SOL    HW212912   6.533   3.967   3.152
 4005SOL     OW12913   3.942   4.622   1.187
 4005SOL    HW112914   4.032   4.584   1.164
 4005SOL    HW212915   3.943   4.720   1.169
 4006SOL     OW12916   5.419   4.700   1.892
 4006SOL    HW112917   5.336   4.645   1.881
 4006SOL    HW212918   5.405   4.789   1.848
 4007SOL     OW12919   6.964   1.971   3.821
 4007SOL    HW112920   6.887   1.914   3.794
 4007SOL    HW212921   6.930   2.055   3.863
 4008SOL     OW12922   2.742   6.676   0.403
 4008SOL    HW112923   2.836   6.667   0.434
 4008SOL    HW212924   2.720   6.773   0.390
 4009SOL     OW12925   4.847   2.059   1.003
 4009SOL    HW112926   4.913   2.091   0.935
 4009SOL    HW212927   4.887   1.984   1.056
 4010SOL     OW12928   3.189   3.663   1.635
 4010SOL    HW112929   3.130   3.624   1.564
 4010SOL    HW212930   3.226   3.589   1.691
 4011SOL     OW12931   6.584   6.063   1.599
 4011SOL    HW112932   6.626   6.150   1.623
 4011SOL    HW212933   6.561   6.013   1.683
 4012SOL     OW12934   3.718   6.571   2.423
 4012SOL    HW112935   3.621   6.574   2.400
 4012SOL    HW212936   3.772   6.563   2.340
 4013SOL     OW12937   1.734   0.078   1.481
 4013SOL    HW112938   1.711   0.175   1.491
 4013SOL    HW212939   1.833   0.067   1.485
 4014SOL     OW12940   3.862   6.470   4.026
 4014SOL    HW112941   3.837   6.387   4.075
 4014SOL    HW212942   3.809   6.547   4.062
 4015SOL     OW12943   4.629   4.731   6.294
 4015SOL    HW112944   4.598   4.743   6.389
 4015SOL    HW212945   4.717   4.778   6.282
 4016SOL     OW12946   2.806   5.293   0.528
 4016SOL    HW112947   2.855   5.369   0.484
 4016SOL    HW212948   2.870   5.221   0.551
 4017SOL     OW12949   0.089   4.750   5.064
 4017SOL    HW112950   0.004   4.745   5.011
 4017SOL    HW212951   0.163   4.707   5.012
 4018SOL     OW12952   3.884   6.975   1.631
 4018SOL    HW112953   3.900   6.950   1.727
 4018SOL    HW212954   3.786   6.978   1.614
 4019SOL     OW12955   5.718   4.033   2.511
 4019SOL    HW112956   5.627   4.043   2.552
 4019SOL    HW212957   5.743   3.936   2.511
 4020SOL     OW12958   6.961   3.102   5.547
 4020SOL    HW112959   0.018   3.110   5.609
 4020SOL    HW212960   6.915   3.015   5.563
 4021SOL     OW12961   3.468   3.907   5.215
 4021SOL    HW112962   3.481   3.808   5.222
 4021SOL    HW212963   3.409   3.928   5.137
 4022SOL     OW12964   4.111   6.399   0.200
 4022SOL    HW112965   4.050   6.468   0.240
 4022SOL    HW212966   4.193   6.444   0.165
 4023SOL     OW12967   6.952   1.173   6.267
 4023SOL    HW112968   6.859   1.138   6.253
 4023SOL    HW212969   6.947   1.260   6.315
 4024SOL     OW12970   2.544   5.040   4.389
 4024SOL    HW112971   2.636   5.060   4.423
 4024SOL    HW212972   2.531   4.941   4.383
 4025SOL     OW12973   0.392   6.618   4.582
 4025SOL    HW112974   0.316   6.556   4.560
 4025SOL    HW212975   0.461   6.568   4.634
 4026SOL     OW12976   6.384   6.318   4.175
 4026SOL    HW112977   6.330   6.331   4.258
 4026SOL    HW212978   6.330   6.343   4.095
 4027SOL     OW12979   2.649   2.050   7.011
 4027SOL    HW112980   2.551   2.066   7.005
 4027SOL    HW212981   2.690   2.116   0.053
 4028SOL     OW12982   4.226   1.693   3.589
 4028SOL    HW112983   4.130   1.677   3.608
 4028SOL    HW212984   4.249   1.788   3.610
 4029SOL     OW12985   2.958   4.373   5.972
 4029SOL    HW112986   2.899   4.452   5.955
 4029SOL    HW212987   3.052   4.395   5.945
 4030SOL     OW12988   6.646   0.965   1.552
 4030SOL    HW112989   6.687   1.051   1.583
 4030SOL    HW212990   6.649   0.898   1.626
 4031SOL     OW12991   4.882   6.201   3.158
 4031SOL    HW112992   4.903   6.161   3.247
 4031SOL    HW212993   4.788   6.179   3.133
 4032SOL     OW12994   0.249   6.820   2.704
 4032SOL    HW112995   0.339   6.782   2.720
 4032SOL    HW212996   0.231   6.824   2.605
 4033SOL     OW12997   1.593   2.677   1.892
 4033SOL    HW112998   1.642   2.689   1.978
 4033SOL    HW212999   1.506   2.632   1.909
 4034SOL     OW13000   5.618   2.046   5.363
 4034SOL    HW113001   5.692   1.998   5.317
 4034SOL    HW213002   5.628   2.036   5.462
 4035SOL     OW13003   6.328   0.940   0.407
 4035SOL    HW113004   6.368   0.966   0.494
 4035SOL    HW213005   6.235   0.908   0.421
 4036SOL     OW13006   3.821   4.871   2.426
 4036SOL    HW113007   3.822   4.951   2.487
 4036SOL    HW213008   3.893   4.808   2.454
 4037SOL     OW13009   2.000   1.230   6.198
 4037SOL    HW113010   2.057   1.281   6.134
 4037SOL    HW213011   2.043   1.143   6.219
 4038SOL     OW13012   4.108   3.067   0.876
 4038SOL    HW113013   4.074   2.977   0.901
 4038SOL    HW213014   4.099   3.129   0.954
 4039SOL     OW13015   4.681   5.722   1.701
 4039SOL    HW113016   4.677   5.647   1.636
 4039SOL    HW213017   4.599   5.721   1.759
 4040SOL     OW13018   2.948   6.741   5.189
 4040SOL    HW113019   3.006   6.733   5.108
 4040SOL    HW213020   2.900   6.654   5.204
 4041SOL     OW13021   1.646   5.117   0.822
 4041SOL    HW113022   1.671   5.168   0.905
 4041SOL    HW213023   1.649   5.178   0.743
 4042SOL     OW13024   6.244   6.029   4.166
 4042SOL    HW113025   6.162   6.041   4.222
 4042SOL    HW213026   6.315   6.091   4.199
 4043SOL     OW13027   6.877   1.915   6.412
 4043SOL    HW113028   6.907   1.831   6.457
 4043SOL    HW213029   6.787   1.900   6.371
 4044SOL     OW13030   5.272   5.882   3.633
 4044SOL    HW113031   5.202   5.840   3.576
 4044SOL    HW213032   5.288   5.825   3.713
 4045SOL     OW13033   3.882   6.289   6.129
 4045SOL    HW113034   3.815   6.359   6.104
 4045SOL    HW213035   3.882   6.277   6.229
 4046SOL     OW13036   0.969   2.000   3.176
 4046SOL    HW113037   0.967   2.017   3.275
 4046SOL    HW213038   0.885   2.035   3.135
 4047SOL     OW13039   2.381   2.079   6.990
 4047SOL    HW113040   2.370   2.090   6.891
 4047SOL    HW213041   2.310   2.132   0.016
 4048SOL     OW13042   5.168   1.450   1.513
 4048SOL    HW113043   5.175   1.355   1.484
 4048SOL    HW213044   5.210   1.509   1.445
 4049SOL     OW13045   5.286   4.958   6.813
 4049SOL    HW113046   5.334   5.044   6.798
 4049SOL    HW213047   5.303   4.896   6.737
 4050SOL     OW13048   0.967   6.303   2.189
 4050SOL    HW113049   1.050   6.358   2.202
 4050SOL    HW213050   0.887   6.358   2.211
 4051SOL     OW13051   3.783   1.605   6.482
 4051SOL    HW113052   3.876   1.568   6.489
 4051SOL    HW213053   3.764   1.627   6.386
 4052SOL     OW13054   5.906   1.347   2.741
 4052SOL    HW113055   5.856   1.434   2.742
 4052SOL    HW213056   6.003   1.365   2.759
 4053SOL     OW13057   2.761   7.002   4.466
 4053SOL    HW113058   2.749   7.009   4.367
 4053SOL    HW213059   2.704   0.050   4.511
 4054SOL     OW13060   4.971   4.332   0.985
 4054SOL    HW113061   4.912   4.408   0.958
 4054SOL    HW213062   5.000   4.343   1.080
 4055SOL     OW13063   3.114   3.786   0.673
 4055SOL    HW113064   3.016   3.788   0.654
 4055SOL    HW213065   3.131   3.821   0.765
 4056SOL     OW13066   5.700   4.040   0.997
 4056SOL    HW113067   5.669   4.133   1.015
 4056SOL    HW213068   5.621   3.982   0.975
 4057SOL     OW13069   6.965   2.652   0.694
 4057SOL    HW113070   6.906   2.698   0.760
 4057SOL    HW213071   0.039   2.659   0.723
 4058SOL     OW13072   2.905   6.575   4.915
 4058SOL    HW113073   2.898   6.531   5.005
 4058SOL    HW213074   2.988   6.544   4.869
 4059SOL     OW13075   1.169   1.738   2.434
 4059SOL    HW113076   1.190   1.641   2.425
 4059SOL    HW213077   1.099   1.763   2.367
 4060SOL     OW13078   5.316   5.153   5.387
 4060SOL    HW113079   5.219   5.128   5.386
 4060SOL    HW213080   5.328   5.240   5.434
 4061SOL     OW13081   2.009   4.800   2.160
 4061SOL    HW113082   2.011   4.864   2.237
 4061SOL    HW213083   1.924   4.748   2.162
 4062SOL     OW13084   2.398   0.595   1.789
 4062SOL    HW113085   2.484   0.640   1.815
 4062SOL    HW213086   2.412   0.496   1.784
 4063SOL     OW13087   6.166   6.259   0.339
 4063SOL    HW113088   6.111   6.298   0.412
 4063SOL    HW213089   6.263   6.269   0.361
 4064SOL     OW13090   2.327   0.589   4.058
 4064SOL    HW113091   2.372   0.501   4.042
 4064SOL    HW213092   2.266   0.581   4.137
 4065SOL     OW13093   1.269   6.343   1.535
 4065SOL    HW113094   1.331   6.401   1.482
 4065SOL    HW213095   1.306   6.250   1.538
 4066SOL     OW13096   6.622   4.525   3.107
 4066SOL    HW113097   6.623   4.466   3.187
 4066SOL    HW213098   6.571   4.481   3.033
 4067SOL     OW13099   6.265   3.259   2.730
 4067SOL    HW113100   6.310   3.282   2.816
 4067SOL    HW213101   6.280   3.331   2.663
 4068SOL     OW13102   1.943   1.264   4.550
 4068SOL    HW113103   1.865   1.277   4.488
 4068SOL    HW213104   2.025   1.244   4.496
 4069SOL     OW13105   3.393   5.390   6.586
 4069SOL    HW113106   3.422   5.458   6.654
 4069SOL    HW213107   3.359   5.437   6.505
 4070SOL     OW13108   0.463   2.580   3.027
 4070SOL    HW113109   0.525   2.658   3.025
 4070SOL    HW213110   0.419   2.570   2.938
 4071SOL     OW13111   0.834   1.632   5.395
 4071SOL    HW113112   0.850   1.543   5.352
 4071SOL    HW213113   0.879   1.634   5.484
 4072SOL     OW13114   0.975   5.575   4.655
 4072SOL    HW113115   0.953   5.670   4.635
 4072SOL    HW213116   1.054   5.546   4.602
 4073SOL     OW13117   2.935   6.538   6.630
 4073SOL    HW113118   3.035   6.538   6.640
 4073SOL    HW213119   2.896   6.615   6.679
 4074SOL     OW13120   0.245   3.927   1.449
 4074SOL    HW113121   0.330   3.878   1.426
 4074SOL    HW213122   0.180   3.916   1.374
 4075SOL     OW13123   4.866   1.915   1.427
 4075SOL    HW113124   4.812   1.940   1.508
 4075SOL    HW213125   4.903   1.824   1.439
 4076SOL     OW13126   2.812   3.393   6.176
 4076SOL    HW113127   2.870   3.397   6.094
 4076SOL    HW213128   2.720   3.424   6.152
 4077SOL     OW13129   3.836   1.564   6.950
 4077SOL    HW113130   3.831   1.564   0.029
 4077SOL    HW213131   3.927   1.594   6.922
 4078SOL     OW13132   0.683   5.316   1.151
 4078SOL    HW113133   0.711   5.317   1.247
 4078SOL    HW213134   0.631   5.400   1.131
 4079SOL     OW13135   1.797   1.005   3.424
 4079SOL    HW113136   1.762   0.986   3.332
 4079SOL    HW213137   1.815   0.919   3.472
 4080SOL     OW13138   4.314   4.074   6.166
 4080SOL    HW113139   4.408   4.107   6.173
 4080SOL    HW213140   4.254   4.149   6.139
 4081SOL     OW13141   2.107   2.982   4.311
 4081SOL    HW113142   2.019   3.014   4.346
 4081SOL    HW213143   2.177   2.992   4.382
 4082SOL     OW13144   1.031   3.901   0.130
 4082SOL    HW113145   0.966   3.832   0.098
 4082SOL    HW213146   1.002   3.991   0.099
 4083SOL     OW13147   6.927   2.937   2.319
 4083SOL    HW113148   6.990   2.863   2.298
 4083SOL    HW213149   6.839   2.899   2.347
 4084SOL     OW13150   5.362   2.423   3.792
 4084SOL    HW113151   5.369   2.324   3.808
 4084SOL    HW213152   5.281   2.441   3.737
 4085SOL     OW13153   3.004   5.901   1.901
 4085SOL    HW113154   3.021   5.998   1.915
 4085SOL    HW213155   2.987   5.883   1.804
 4086SOL     OW13156   1.727   5.758   1.739
 4086SOL    HW113157   1.760   5.715   1.822
 4086SOL    HW213158   1.645   5.811   1.758
 4087SOL     OW13159   1.872   1.869   3.466
 4087SOL    HW113160   1.867   1.837   3.561
 4087SOL    HW213161   1.850   1.966   3.462
 4088SOL     OW13162   0.302   1.673   0.590
 4088SOL    HW113163   0.319   1.740   0.662
 4088SOL    HW213164   0.368   1.598   0.598
 4089SOL     OW13165   5.993   6.304   4.307
 4089SOL    HW113166   6.092   6.313   4.317
 4089SOL    HW213167   5.952   6.395   4.301
 4090SOL     OW13168   1.088   4.278   5.854
 4090SOL    HW113169   1.177   4.323   5.853
 4090SOL    HW213170   1.047   4.283   5.762
 4091SOL     OW13171   0.175   6.397   0.339
 4091SOL    HW113172   0.251   6.387   0.403
 4091SOL    HW213173   0.140   6.307   0.314
 4092SOL     OW13174   6.469   2.454   5.938
 4092SOL    HW113175   6.464   2.495   5.847
 4092SOL    HW213176   6.531   2.507   5.996
 4093SOL     OW13177   4.448   0.210   2.660
 4093SOL    HW113178   4.427   0.149   2.737
 4093SOL    HW213179   4.507   0.162   2.595
 4094SOL     OW13180   2.762   5.994   4.265
 4094SOL    HW113181   2.833   6.058   4.234
 4094SOL    HW213182   2.711   6.035   4.340
 4095SOL     OW13183   0.516   4.031   0.325
 4095SOL    HW113184   0.570   4.114   0.336
 4095SOL    HW213185   0.473   4.007   0.412
 4096SOL     OW13186   4.512   5.931   6.038
 4096SOL    HW113187   4.502   5.841   5.996
 4096SOL    HW213188   4.607   5.960   6.033
 4097SOL     OW13189   3.500   4.817   5.419
 4097SOL    HW113190   3.438   4.835   5.496
 4097SOL    HW213191   3.451   4.829   5.333
 4098SOL     OW13192   0.670   2.933   1.811
 4098SOL    HW113193   0.650   2.978   1.724
 4098SOL    HW213194   0.754   2.970   1.849
 4099SOL     OW13195   2.699   4.944   1.834
 4099SOL    HW113196   2.740   4.963   1.923
 4099SOL    HW213197   2.704   4.846   1.815
 4100SOL     OW13198   6.682   5.534   4.352
 4100SOL    HW113199   6.643   5.442   4.352
 4100SOL    HW213200   6.782   5.529   4.354
 4101SOL     OW13201   6.356   1.030   0.023
 4101SOL    HW113202   6.440   0.977   0.029
 4101SOL    HW213203   6.326   1.034   6.949
 4102SOL     OW13204   6.553   0.566   1.008
 4102SOL    HW113205   6.575   0.469   1.022
 4102SOL    HW213206   6.543   0.584   0.910
 4103SOL     OW13207   0.151   0.917   0.371
 4103SOL    HW113208   0.082   0.962   0.427
 4103SOL    HW213209   0.121   0.916   0.275
 4104SOL     OW13210   0.753   4.575   2.325
 4104SOL    HW113211   0.725   4.512   2.253
 4104SOL    HW213212   0.845   4.610   2.305
 4105SOL     OW13213   4.477   6.968   1.655
 4105SOL    HW113214   4.474   6.917   1.568
 4105SOL    HW213215   4.437   6.912   1.727
 4106SOL     OW13216   6.796   2.519   3.496
 4106SOL    HW113217   6.759   2.451   3.559
 4106SOL    HW213218   6.720   2.571   3.456
 4107SOL     OW13219   1.323   6.011   1.447
 4107SOL    HW113220   1.415   6.042   1.469
 4107SOL    HW213221   1.268   6.008   1.531
 4108SOL     OW13222   6.261   4.478   5.141
 4108SOL    HW113223   6.183   4.480   5.078
 4108SOL    HW213224   6.228   4.470   5.235
 4109SOL     OW13225   5.658   6.805   5.272
 4109SOL    HW113226   5.587   6.863   5.231
 4109SOL    HW213227   5.652   6.811   5.371
 4110SOL     OW13228   4.355   3.816   6.188
 4110SOL    HW113229   4.334   3.913   6.173
 4110SOL    HW213230   4.338   3.793   6.284
 4111SOL     OW13231   3.825   3.630   6.867
 4111SOL    HW113232   3.819   3.552   6.805
 4111SOL    HW213233   3.916   3.632   6.909
 4112SOL     OW13234   4.929   6.842   5.151
 4112SOL    HW113235   4.848   6.873   5.201
 4112SOL    HW213236   5.003   6.908   5.163
 4113SOL     OW13237   4.824   6.403   4.494
 4113SOL    HW113238   4.773   6.340   4.436
 4113SOL    HW213239   4.778   6.492   4.495
 4114SOL     OW13240   3.358   1.946   4.350
 4114SOL    HW113241   3.441   1.998   4.373
 4114SOL    HW213242   3.279   2.006   4.355
 4115SOL     OW13243   3.515   4.880   2.536
 4115SOL    HW113244   3.463   4.916   2.458
 4115SOL    HW213245   3.612   4.877   2.513
 4116SOL     OW13246   3.928   2.077   1.892
 4116SOL    HW113247   3.913   2.159   1.838
 4116SOL    HW213248   3.852   2.065   1.957
 4117SOL     OW13249   1.243   4.756   2.177
 4117SOL    HW113250   1.295   4.797   2.252
 4117SOL    HW213251   1.241   4.819   2.099
 4118SOL     OW13252   2.675   6.676   0.793
 4118SOL    HW113253   2.616   6.737   0.739
 4118SOL    HW213254   2.723   6.613   0.731
 4119SOL     OW13255   3.594   1.730   3.872
 4119SOL    HW113256   3.556   1.639   3.853
 4119SOL    HW213257   3.541   1.773   3.945
 4120SOL     OW13258   3.700   6.986   0.449
 4120SOL    HW113259   3.796   6.960   0.459
 4120SOL    HW213260   3.669   6.966   0.356
 4121SOL     OW13261   6.443   0.743   4.895
 4121SOL    HW113262   6.488   0.783   4.975
 4121SOL    HW213263   6.379   0.672   4.926
 4122SOL     OW13264   0.581   5.303   5.200
 4122SOL    HW113265   0.607   5.209   5.178
 4122SOL    HW213266   0.517   5.303   5.277
 4123SOL     OW13267   4.119   4.971   5.955
 4123SOL    HW113268   4.088   4.918   5.876
 4123SOL    HW213269   4.178   5.045   5.925
 4124SOL     OW13270   5.546   5.124   6.756
 4124SOL    HW113271   5.574   5.127   6.660
 4124SOL    HW213272   5.614   5.171   6.812
 4125SOL     OW13273   4.440   1.468   2.583
 4125SOL    HW113274   4.502   1.526   2.636
 4125SOL    HW213275   4.487   1.383   2.559
 4126SOL     OW13276   1.289   3.523   4.184
 4126SOL    HW113277   1.387   3.510   4.200
 4126SOL    HW213278   1.250   3.579   4.256
 4127SOL     OW13279   4.287   4.759   4.521
 4127SOL    HW113280   4.351   4.744   4.596
 4127SOL    HW213281   4.193   4.748   4.554
 4128SOL     OW13282   1.752   3.020   2.031
 4128SOL    HW113283   1.827   3.011   2.097
 4128SOL    HW213284   1.772   3.095   1.968
 4129SOL     OW13285   4.482   1.831   6.642
 4129SOL    HW113286   4.435   1.749   6.609
 4129SOL    HW213287   4.455   1.849   6.737
 4130SOL     OW13288   6.502   2.588   5.690
 4130SOL    HW113289   6.406   2.583   5.662
 4130SOL    HW213290   6.520   2.675   5.734
 4131SOL     OW13291   1.836   0.091   2.913
 4131SOL    HW113292   1.851   0.006   2.863
 4131SOL    HW213293   1.778   0.073   2.993
 4132SOL     OW13294   4.939   4.335   3.681
 4132SOL    HW113295   4.947   4.329   3.581
 4132SOL    HW213296   4.878   4.262   3.713
 4133SOL     OW13297   3.038   0.031   1.394
 4133SOL    HW113298   3.125   7.005   1.397
 4133SOL    HW213299   2.972   7.005   1.453
 4134SOL     OW13300   2.663   2.961   0.216
 4134SOL    HW113301   2.569   2.996   0.217
 4134SOL    HW213302   2.711   2.995   0.297
 4135SOL     OW13303   1.461   1.636   2.959
 4135SOL    HW113304   1.559   1.636   2.978
 4135SOL    HW213305   1.424   1.727   2.979
 4136SOL     OW13306   1.641   2.231   2.818
 4136SOL    HW113307   1.661   2.135   2.836
 4136SOL    HW213308   1.726   2.283   2.817
 4137SOL     OW13309   0.774   4.568   0.587
 4137SOL    HW113310   0.832   4.644   0.617
 4137SOL    HW213311   0.725   4.595   0.504
 4138SOL     OW13312   3.927   5.122   3.191
 4138SOL    HW113313   4.003   5.080   3.141
 4138SOL    HW213314   3.928   5.221   3.179
 4139SOL     OW13315   2.384   2.320   4.854
 4139SOL    HW113316   2.465   2.369   4.823
 4139SOL    HW213317   2.312   2.386   4.877
 4140SOL     OW13318   2.949   0.863   5.461
 4140SOL    HW113319   2.922   0.958   5.476
 4140SOL    HW213320   2.872   0.803   5.482
 4141SOL     OW13321   5.842   6.311   1.527
 4141SOL    HW113322   5.835   6.260   1.441
 4141SOL    HW213323   5.782   6.270   1.595
 4142SOL     OW13324   6.263   5.699   0.739
 4142SOL    HW113325   6.181   5.653   0.705
 4142SOL    HW213326   6.324   5.632   0.780
 4143SOL     OW13327   6.827   2.782   0.902
 4143SOL    HW113328   6.812   2.834   0.986
 4143SOL    HW213329   6.789   2.832   0.824
 4144SOL     OW13330   4.798   4.177   5.978
 4144SOL    HW113331   4.772   4.091   5.933
 4144SOL    HW213332   4.873   4.219   5.928
 4145SOL     OW13333   6.592   5.786   1.117
 4145SOL    HW113334   6.548   5.872   1.094
 4145SOL    HW213335   6.691   5.798   1.117
 4146SOL     OW13336   6.542   0.816   5.139
 4146SOL    HW113337   6.566   0.767   5.222
 4146SOL    HW213338   6.501   0.904   5.162
 4147SOL     OW13339   4.563   3.328   5.630
 4147SOL    HW113340   4.481   3.283   5.664
 4147SOL    HW213341   4.557   3.338   5.531
 4148SOL     OW13342   0.869   0.323   5.219
 4148SOL    HW113343   0.807   0.298   5.144
 4148SOL    HW213344   0.924   0.401   5.191
 4149SOL     OW13345   0.042   2.558   0.092
 4149SOL    HW113346   0.136   2.525   0.105
 4149SOL    HW213347   7.014   2.550   0.179
 4150SOL     OW13348   0.621   0.714   5.726
 4150SOL    HW113349   0.570   0.638   5.767
 4150SOL    HW213350   0.700   0.677   5.676
 4151SOL     OW13351   3.577   6.042   5.913
 4151SOL    HW113352   3.677   6.033   5.918
 4151SOL    HW213353   3.534   5.963   5.958
 4152SOL     OW13354   3.195   6.217   1.382
 4152SOL    HW113355   3.274   6.231   1.323
 4152SOL    HW213356   3.168   6.304   1.424
 4153SOL     OW13357   4.668   4.813   0.152
 4153SOL    HW113358   4.574   4.797   0.120
 4153SOL    HW213359   4.714   4.725   0.164
 4154SOL     OW13360   0.741   4.822   4.340
 4154SOL    HW113361   0.781   4.782   4.423
 4154SOL    HW213362   0.660   4.770   4.314
 4155SOL     OW13363   6.824   1.731   2.001
 4155SOL    HW113364   6.734   1.762   2.031
 4155SOL    HW213365   6.883   1.811   1.984
 4156SOL     OW13366   5.463   6.397   4.818
 4156SOL    HW113367   5.373   6.361   4.843
 4156SOL    HW213368   5.458   6.497   4.809
 4157SOL     OW13369   4.327   6.046   4.417
 4157SOL    HW113370   4.415   6.029   4.371
 4157SOL    HW213371   4.330   6.137   4.460
 4158SOL     OW13372   1.629   4.807   3.173
 4158SOL    HW113373   1.614   4.843   3.265
 4158SOL    HW213374   1.721   4.767   3.167
 4159SOL     OW13375   2.091   3.413   4.377
 4159SOL    HW113376   2.109   3.343   4.447
 4159SOL    HW213377   2.125   3.502   4.409
 4160SOL     OW13378   6.205   0.726   0.706
 4160SOL    HW113379   6.248   0.816   0.699
 4160SOL    HW213380   6.212   0.678   0.618
 4161SOL     OW13381   1.019   0.708   0.086
 4161SOL    HW113382   1.119   0.700   0.085
 4161SOL    HW213383   0.994   0.804   0.100
 4162SOL     OW13384   5.991   6.671   5.881
 4162SOL    HW113385   6.055   6.747   5.888
 4162SOL    HW213386   6.026   6.605   5.814
 4163SOL     OW13387   6.337   6.959   3.120
 4163SOL    HW113388   6.321   0.030   3.157
 4163SOL    HW213389   6.265   6.898   3.152
 4164SOL     OW13390   1.411   6.594   0.073
 4164SOL    HW113391   1.408   6.627   7.000
 4164SOL    HW213392   1.506   6.594   0.105
 4165SOL     OW13393   3.993   0.152   6.780
 4165SOL    HW113394   3.944   0.101   6.709
 4165SOL    HW213395   3.971   0.114   6.870
 4166SOL     OW13396   6.057   3.806   1.023
 4166SOL    HW113397   6.139   3.801   0.966
 4166SOL    HW213398   5.980   3.764   0.975
 4167SOL     OW13399   1.093   3.971   1.059
 4167SOL    HW113400   1.182   4.014   1.078
 4167SOL    HW213401   1.080   3.963   0.961
 4168SOL     OW13402   6.612   5.234   1.183
 4168SOL    HW113403   6.599   5.141   1.218
 4168SOL    HW213404   6.633   5.295   1.259
 4169SOL     OW13405   5.838   4.274   3.962
 4169SOL    HW113406   5.818   4.301   4.056
 4169SOL    HW213407   5.907   4.337   3.924
 4170SOL     OW13408   2.983   3.963   4.851
 4170SOL    HW113409   2.913   3.955   4.780
 4170SOL    HW213410   2.942   3.948   4.941
 4171SOL     OW13411   4.894   5.216   1.596
 4171SOL    HW113412   4.832   5.139   1.586
 4171SOL    HW213413   4.971   5.206   1.532
 4172SOL     OW13414   0.469   1.968   6.056
 4172SOL    HW113415   0.507   2.010   5.974
 4172SOL    HW213416   0.381   1.926   6.035
 4173SOL     OW13417   5.273   3.600   5.429
 4173SOL    HW113418   5.188   3.588   5.480
 4173SOL    HW213419   5.344   3.636   5.490
 4174SOL     OW13420   5.390   0.664   3.436
 4174SOL    HW113421   5.420   0.691   3.344
 4174SOL    HW213422   5.449   0.706   3.504
 4175SOL     OW13423   2.227   5.825   4.533
 4175SOL    HW113424   2.200   5.729   4.538
 4175SOL    HW213425   2.161   5.876   4.477
 4176SOL     OW13426   2.800   6.763   1.981
 4176SOL    HW113427   2.806   6.816   2.066
 4176SOL    HW213428   2.706   6.736   1.965
 4177SOL     OW13429   6.862   4.216   4.595
 4177SOL    HW113430   6.877   4.253   4.503
 4177SOL    HW213431   6.921   4.264   4.660
 4178SOL     OW13432   4.581   1.242   4.278
 4178SOL    HW113433   4.495   1.261   4.324
 4178SOL    HW213434   4.654   1.229   4.346
 4179SOL     OW13435   5.239   2.210   3.353
 4179SOL    HW113436   5.217   2.194   3.257
 4179SOL    HW213437   5.311   2.279   3.360
 4180SOL     OW13438   5.521   3.615   1.672
 4180SOL    HW113439   5.604   3.624   1.617
 4180SOL    HW213440   5.474   3.529   1.650
 4181SOL     OW13441   2.267   1.970   6.713
 4181SOL    HW113442   2.189   1.957   6.774
 4181SOL    HW213443   2.327   1.890   6.717
 4182SOL     OW13444   0.188   6.214   2.834
 4182SOL    HW113445   0.250   6.168   2.898
 4182SOL    HW213446   0.213   6.311   2.829
 4183SOL     OW13447   4.480   0.355   0.544
 4183SOL    HW113448   4.463   0.301   0.462
 4183SOL    HW213449   4.579   0.365   0.558
 4184SOL     OW13450   4.483   5.568   1.402
 4184SOL    HW113451   4.489   5.500   1.329
 4184SOL    HW213452   4.387   5.583   1.425
 4185SOL     OW13453   1.274   5.777   1.999
 4185SOL    HW113454   1.290   5.834   2.080
 4185SOL    HW213455   1.197   5.813   1.947
 4186SOL     OW13456   1.899   4.753   1.194
 4186SOL    HW113457   1.992   4.727   1.222
 4186SOL    HW213458   1.872   4.699   1.114
 4187SOL     OW13459   3.403   4.117   6.018
 4187SOL    HW113460   3.412   4.018   6.031
 4187SOL    HW213461   3.463   4.146   5.943
 4188SOL     OW13462   5.311   6.901   3.967
 4188SOL    HW113463   5.280   6.806   3.969
 4188SOL    HW213464   5.402   6.908   4.007
 4189SOL     OW13465   3.210   0.527   5.165
 4189SOL    HW113466   3.260   0.575   5.093
 4189SOL    HW213467   3.272   0.508   5.242
 4190SOL     OW13468   0.931   0.038   0.048
 4190SOL    HW113469   0.924   0.107   6.997
 4190SOL    HW213470   0.843   0.029   0.093
 4191SOL     OW13471   5.506   3.653   2.831
 4191SOL    HW113472   5.482   3.606   2.745
 4191SOL    HW213473   5.562   3.733   2.810
 4192SOL     OW13474   0.370   0.221   3.399
 4192SOL    HW113475   0.363   0.319   3.413
 4192SOL    HW213476   0.369   0.201   3.301
 4193SOL     OW13477   2.526   6.790   2.469
 4193SOL    HW113478   2.526   6.766   2.372
 4193SOL    HW213479   2.462   6.864   2.486
 4194SOL     OW13480   6.010   0.999   5.526
 4194SOL    HW113481   5.957   0.970   5.606
 4194SOL    HW213482   6.001   1.098   5.514
 4195SOL     OW13483   4.093   0.567   1.580
 4195SOL    HW113484   4.071   0.556   1.677
 4195SOL    HW213485   4.087   0.664   1.555
 4196SOL     OW13486   6.067   2.618   3.976
 4196SOL    HW113487   5.983   2.646   4.022
 4196SOL    HW213488   6.046   2.551   3.905
 4197SOL     OW13489   5.310   5.388   5.504
 4197SOL    HW113490   5.394   5.403   5.557
 4197SOL    HW213491   5.307   5.455   5.429
 4198SOL     OW13492   5.505   2.808   6.673
 4198SOL    HW113493   5.525   2.838   6.766
 4198SOL    HW213494   5.407   2.787   6.666
 4199SOL     OW13495   2.019   4.174   6.469
 4199SOL    HW113496   2.016   4.087   6.420
 4199SOL    HW213497   1.976   4.245   6.413
 4200SOL     OW13498   3.288   6.553   4.873
 4200SOL    HW113499   3.374   6.508   4.847
 4200SOL    HW213500   3.211   6.500   4.838
 4201SOL     OW13501   5.675   6.055   4.102
 4201SOL    HW113502   5.629   5.966   4.099
 4201SOL    HW213503   5.644   6.106   4.182
 4202SOL     OW13504   3.848   6.043   5.833
 4202SOL    HW113505   3.938   6.047   5.876
 4202SOL    HW213506   3.853   5.988   5.750
 4203SOL     OW13507   4.717   5.502   1.526
 4203SOL    HW113508   4.649   5.539   1.463
 4203SOL    HW213509   4.697   5.405   1.543
 4204SOL     OW13510   3.722   3.192   2.316
 4204SOL    HW113511   3.815   3.155   2.317
 4204SOL    HW213512   3.656   3.117   2.313
 4205SOL     OW13513   3.933   5.272   4.497
 4205SOL    HW113514   3.920   5.253   4.400
 4205SOL    HW213515   3.892   5.199   4.552
 4206SOL     OW13516   5.867   0.612   5.486
 4206SOL    HW113517   5.862   0.639   5.582
 4206SOL    HW213518   5.833   0.687   5.429
 4207SOL     OW13519   2.453   1.515   1.840
 4207SOL    HW113520   2.539   1.543   1.797
 4207SOL    HW213521   2.464   1.424   1.881
 4208SOL     OW13522   1.679   2.748   6.062
 4208SOL    HW113523   1.678   2.663   6.114
 4208SOL    HW213524   1.672   2.826   6.124
 4209SOL     OW13525   0.822   1.452   5.164
 4209SOL    HW113526   0.850   1.377   5.223
 4209SOL    HW213527   0.833   1.425   5.068
 4210SOL     OW13528   2.960   3.544   1.944
 4210SOL    HW113529   2.915   3.612   1.887
 4210SOL    HW213530   2.926   3.453   1.921
 4211SOL     OW13531   3.865   5.571   5.293
 4211SOL    HW113532   3.916   5.628   5.229
 4211SOL    HW213533   3.767   5.580   5.274
 4212SOL     OW13534   5.741   2.003   2.351
 4212SOL    HW113535   5.714   1.907   2.361
 4212SOL    HW213536   5.799   2.029   2.428
 4213SOL     OW13537   2.561   1.113   2.941
 4213SOL    HW113538   2.463   1.094   2.951
 4213SOL    HW213539   2.613   1.034   2.973
 4214SOL     OW13540   0.465   4.091   5.861
 4214SOL    HW113541   0.399   4.164   5.880
 4214SOL    HW213542   0.557   4.124   5.881
 4215SOL     OW13543   6.474   5.622   4.505
 4215SOL    HW113544   6.393   5.612   4.448
 4215SOL    HW213545   6.556   5.610   4.449
 4216SOL     OW13546   2.098   1.720   2.752
 4216SOL    HW113547   2.108   1.820   2.749
 4216SOL    HW213548   2.174   1.681   2.803
 4217SOL     OW13549   6.366   6.988   2.488
 4217SOL    HW113550   6.384   0.049   2.543
 4217SOL    HW213551   6.267   6.972   2.484
 4218SOL     OW13552   4.802   0.049   1.371
 4218SOL    HW113553   4.758   6.991   1.413
 4218SOL    HW213554   4.763   0.064   1.280
 4219SOL     OW13555   2.757   5.450   4.540
 4219SOL    HW113556   2.725   5.425   4.632
 4219SOL    HW213557   2.780   5.367   4.489
 4220SOL     OW13558   6.216   2.630   3.135
 4220SOL    HW113559   6.220   2.727   3.159
 4220SOL    HW213560   6.214   2.575   3.218
 4221SOL     OW13561   6.114   5.536   6.419
 4221SOL    HW113562   6.036   5.486   6.456
 4221SOL    HW213563   6.117   5.524   6.320
 4222SOL     OW13564   6.108   2.266   2.604
 4222SOL    HW113565   6.171   2.215   2.545
 4222SOL    HW213566   6.080   2.350   2.557
 4223SOL     OW13567   2.980   3.518   4.028
 4223SOL    HW113568   2.948   3.582   4.098
 4223SOL    HW213569   3.058   3.466   4.064
 4224SOL     OW13570   4.700   2.901   3.567
 4224SOL    HW113571   4.619   2.905   3.626
 4224SOL    HW213572   4.782   2.891   3.623
 4225SOL     OW13573   5.078   0.206   5.384
 4225SOL    HW113574   5.073   0.306   5.386
 4225SOL    HW213575   5.003   0.167   5.438
 4226SOL     OW13576   1.080   0.781   3.190
 4226SOL    HW113577   1.058   0.683   3.194
 4226SOL    HW213578   1.038   0.827   3.268
 4227SOL     OW13579   3.412   4.946   6.988
 4227SOL    HW113580   3.420   4.916   6.894
 4227SOL    HW213581   3.386   4.869   0.026
 4228SOL     OW13582   6.901   4.206   3.009
 4228SOL    HW113583   6.984   4.263   3.008
 4228SOL    HW213584   6.844   4.230   2.930
 4229SOL     OW13585   4.713   4.663   5.571
 4229SOL    HW113586   4.684   4.722   5.496
 4229SOL    HW213587   4.687   4.568   5.551
 4230SOL     OW13588   2.309   0.800   4.779
 4230SOL    HW113589   2.284   0.719   4.725
 4230SOL    HW213590   2.245   0.810   4.855
 4231SOL     OW13591   5.415   6.718   4.819
 4231SOL    HW113592   5.492   6.771   4.855
 4231SOL    HW213593   5.372   6.667   4.894
 4232SOL     OW13594   0.512   4.737   2.016
 4232SOL    HW113595   0.572   4.796   1.963
 4232SOL    HW213596   0.514   4.645   1.979
 4233SOL     OW13597   0.002   0.028   6.859
 4233SOL    HW113598   6.979   6.976   6.807
 4233SOL    HW213599   6.956   0.101   6.876
 4234SOL     OW13600   1.190   0.678   5.734
 4234SOL    HW113601   1.202   0.746   5.662
 4234SOL    HW213602   1.135   0.717   5.808
 4235SOL     OW13603   6.392   3.652   5.280
 4235SOL    HW113604   6.313   3.606   5.321
 4235SOL    HW213605   6.447   3.694   5.353
 4236SOL     OW13606   0.215   3.268   3.251
 4236SOL    HW113607   0.213   3.366   3.234
 4236SOL    HW213608   0.184   3.219   3.170
 4237SOL     OW13609   6.237   4.637   3.934
 4237SOL    HW113610   6.168   4.701   3.902
 4237SOL    HW213611   6.325   4.684   3.944
 4238SOL     OW13612   4.293   5.098   3.988
 4238SOL    HW113613   4.342   5.033   4.047
 4238SOL    HW213614   4.282   5.057   3.897
 4239SOL     OW13615   5.692   0.969   3.819
 4239SOL    HW113616   5.654   1.010   3.902
 4239SOL    HW213617   5.790   0.955   3.831
 4240SOL     OW13618   1.971   6.609   6.593
 4240SOL    HW113619   2.055   6.612   6.540
 4240SOL    HW213620   1.962   6.519   6.636
 4241SOL     OW13621   4.951   0.792   0.739
 4241SOL    HW113622   4.911   0.882   0.757
 4241SOL    HW213623   4.878   0.729   0.712
 4242SOL     OW13624   1.764   0.478   2.924
 4242SOL    HW113625   1.813   0.431   2.851
 4242SOL    HW213626   1.711   0.412   2.977
 4243SOL     OW13627   1.000   3.718   3.395
 4243SOL    HW113628   0.967   3.626   3.372
 4243SOL    HW213629   1.085   3.709   3.448
 4244SOL     OW13630   4.474   5.372   1.234
 4244SOL    HW113631   4.479   5.435   1.157
 4244SOL    HW213632   4.427   5.288   1.205
 4245SOL     OW13633   0.075   1.562   6.848
 4245SOL    HW113634   0.144   1.621   6.806
 4245SOL    HW213635   0.121   1.488   6.898
 4246SOL     OW13636   5.803   2.941   3.501
 4246SOL    HW113637   5.852   2.901   3.423
 4246SOL    HW213638   5.717   2.892   3.515
 4247SOL     OW13639   2.394   5.164   4.201
 4247SOL    HW113640   2.432   5.256   4.191
 4247SOL    HW213641   2.443   5.116   4.274
 4248SOL     OW13642   1.389   1.153   3.054
 4248SOL    HW113643   1.292   1.153   3.028
 4248SOL    HW213644   1.444   1.127   2.975
 4249SOL     OW13645   6.626   1.321   3.237
 4249SOL    HW113646   6.626   1.276   3.327
 4249SOL    HW213647   6.555   1.392   3.236
 4250SOL     OW13648   0.236   6.025   3.666
 4250SOL    HW113649   0.233   6.061   3.759
 4250SOL    HW213650   0.143   6.010   3.632
 4251SOL     OW13651   6.569   2.786   0.108
 4251SOL    HW113652   6.541   2.866   0.054
 4251SOL    HW213653   6.621   2.816   0.188
 4252SOL     OW13654   5.561   6.105   6.291
 4252SOL    HW113655   5.659   6.114   6.273
 4252SOL    HW213656   5.517   6.194   6.281
 4253SOL     OW13657   4.179   5.843   2.285
 4253SOL    HW113658   4.167   5.751   2.246
 4253SOL    HW213659   4.092   5.874   2.323
 4254SOL     OW13660   1.989   4.386   2.041
 4254SOL    HW113661   2.079   4.345   2.059
 4254SOL    HW213662   1.996   4.450   1.965
 4255SOL     OW13663   0.322   4.044   4.094
 4255SOL    HW113664   0.279   4.121   4.045
 4255SOL    HW213665   0.417   4.035   4.065
 4256SOL     OW13666   1.497   5.918   1.816
 4256SOL    HW113667   1.477   5.999   1.871
 4256SOL    HW213668   1.434   5.844   1.842
 4257SOL     OW13669   5.671   1.060   4.284
 4257SOL    HW113670   5.647   1.052   4.187
 4257SOL    HW213671   5.617   1.132   4.326
 4258SOL     OW13672   3.082   5.888   1.451
 4258SOL    HW113673   3.030   5.950   1.392
 4258SOL    HW213674   3.179   5.892   1.427
 4259SOL     OW13675   1.658   6.316   1.047
 4259SOL    HW113676   1.688   6.228   1.086
 4259SOL    HW213677   1.565   6.335   1.077
 4260SOL     OW13678   5.611   6.948   3.952
 4260SOL    HW113679   5.601   6.940   3.853
 4260SOL    HW213680   5.695   6.903   3.981
 4261SOL     OW13681   1.495   0.777   2.596
 4261SOL    HW113682   1.457   0.754   2.506
 4261SOL    HW213683   1.502   0.695   2.652
 4262SOL     OW13684   1.352   4.361   5.828
 4262SOL    HW113685   1.373   4.456   5.805
 4262SOL    HW213686   1.422   4.325   5.889
 4263SOL     OW13687   2.703   1.179   3.467
 4263SOL    HW113688   2.798   1.152   3.450
 4263SOL    HW213689   2.670   1.233   3.390
 4264SOL     OW13690   5.943   1.715   3.884
 4264SOL    HW113691   6.003   1.783   3.926
 4264SOL    HW213692   5.881   1.679   3.953
 4265SOL     OW13693   3.817   0.705   0.657
 4265SOL    HW113694   3.882   0.669   0.723
 4265SOL    HW213695   3.835   0.802   0.642
 4266SOL     OW13696   1.214   6.884   0.236
 4266SOL    HW113697   1.182   6.968   0.281
 4266SOL    HW213698   1.146   6.852   0.171
 4267SOL     OW13699   1.729   3.540   3.761
 4267SOL    HW113700   1.650   3.592   3.728
 4267SOL    HW213701   1.742   3.459   3.703
 4268SOL     OW13702   2.163   5.350   6.946
 4268SOL    HW113703   2.070   5.375   6.920
 4268SOL    HW213704   2.207   5.302   6.871
 4269SOL     OW13705   2.948   1.057   3.858
 4269SOL    HW113706   3.037   1.097   3.835
 4269SOL    HW213707   2.877   1.127   3.848
 4270SOL     OW13708   3.353   2.802   1.981
 4270SOL    HW113709   3.421   2.815   1.910
 4270SOL    HW213710   3.398   2.772   2.065
 4271SOL     OW13711   0.014   0.677   6.998
 4271SOL    HW113712   0.095   0.728   6.968
 4271SOL    HW213713   6.965   0.679   6.927
 4272SOL     OW13714   6.846   3.055   5.265
 4272SOL    HW113715   6.871   3.152   5.266
 4272SOL    HW213716   6.854   3.018   5.357
 4273SOL     OW13717   4.894   5.899   5.228
 4273SOL    HW113718   4.825   5.930   5.163
 4273SOL    HW213719   4.965   5.969   5.238
 4274SOL     OW13720   0.784   6.989   2.167
 4274SOL    HW113721   0.704   7.015   2.221
 4274SOL    HW213722   0.779   0.012   2.077
 4275SOL     OW13723   0.574   2.063   4.194
 4275SOL    HW113724   0.636   2.062   4.272
 4275SOL    HW213725   0.627   2.056   4.109
 4276SOL     OW13726   3.004   5.452   3.723
 4276SOL    HW113727   2.980   5.368   3.773
 4276SOL    HW213728   2.981   5.440   3.627
 4277SOL     OW13729   0.146   4.236   2.684
 4277SOL    HW113730   0.158   4.310   2.750
 4277SOL    HW213731   0.049   4.221   2.667
 4278SOL     OW13732   0.759   6.805   3.506
 4278SOL    HW113733   0.801   6.896   3.500
 4278SOL    HW213734   0.660   6.814   3.503
 4279SOL     OW13735   1.056   1.098   2.171
 4279SOL    HW113736   1.086   1.097   2.266
 4279SOL    HW213737   0.971   1.150   2.163
 4280SOL     OW13738   6.135   6.903   5.937
 4280SOL    HW113739   6.101   6.995   5.918
 4280SOL    HW213740   6.219   6.909   5.992
 4281SOL     OW13741   5.292   4.975   3.771
 4281SOL    HW113742   5.198   4.977   3.736
 4281SOL    HW213743   5.324   4.881   3.777
 4282SOL     OW13744   3.006   4.864   0.896
 4282SOL    HW113745   3.084   4.909   0.853
 4282SOL    HW213746   2.991   4.903   0.987
 4283SOL     OW13747   4.830   1.075   3.599
 4283SOL    HW113748   4.881   1.161   3.607
 4283SOL    HW213749   4.773   1.062   3.680
 4284SOL     OW13750   4.688   5.546   0.515
 4284SOL    HW113751   4.612   5.521   0.575
 4284SOL    HW213752   4.756   5.597   0.568
 4285SOL     OW13753   2.651   0.910   6.181
 4285SOL    HW113754   2.739   0.872   6.210
 4285SOL    HW213755   2.605   0.844   6.121
 4286SOL     OW13756   5.989   6.998   6.388
 4286SOL    HW113757   5.932   0.053   6.416
 4286SOL    HW213758   5.940   6.942   6.320
 4287SOL     OW13759   4.722   1.231   6.138
 4287SOL    HW113760   4.627   1.219   6.110
 4287SOL    HW213761   4.770   1.143   6.132
 4288SOL     OW13762   0.365   6.087   2.998
 4288SOL    HW113763   0.454   6.041   2.997
 4288SOL    HW213764   0.356   6.141   3.082
 4289SOL     OW13765   1.614   2.531   6.203
 4289SOL    HW113766   1.572   2.509   6.292
 4289SOL    HW213767   1.683   2.462   6.181
 4290SOL     OW13768   0.467   6.839   4.963
 4290SOL    HW113769   0.453   6.751   5.008
 4290SOL    HW213770   0.497   6.906   5.030
 4291SOL     OW13771   4.903   3.864   6.103
 4291SOL    HW113772   4.970   3.920   6.151
 4291SOL    HW213773   4.946   3.821   6.023
 4292SOL     OW13774   6.293   3.298   6.855
 4292SOL    HW113775   6.216   3.350   6.818
 4292SOL    HW213776   6.308   3.216   6.800
 4293SOL     OW13777   3.698   4.254   6.698
 4293SOL    HW113778   3.759   4.279   6.622
 4293SOL    HW213779   3.713   4.317   6.775
 4294SOL     OW13780   2.131   1.811   6.062
 4294SOL    HW113781   2.226   1.793   6.033
 4294SOL    HW213782   2.104   1.903   6.031
 4295SOL     OW13783   4.584   6.448   3.147
 4295SOL    HW113784   4.560   6.465   3.051
 4295SOL    HW213785   4.599   6.536   3.193
 4296SOL     OW13786   3.301   6.766   0.524
 4296SOL    HW113787   3.289   6.742   0.428
 4296SOL    HW213788   3.382   6.824   0.534
 4297SOL     OW13789   6.773   6.666   2.879
 4297SOL    HW113790   6.744   6.574   2.907
 4297SOL    HW213791   6.768   6.728   2.957
 4298SOL     OW13792   3.437   6.334   1.923
 4298SOL    HW113793   3.506   6.309   1.991
 4298SOL    HW213794   3.479   6.338   1.833
 4299SOL     OW13795   1.033   3.062   0.152
 4299SOL    HW113796   1.084   3.147   0.143
 4299SOL    HW213797   1.079   3.003   0.218
 4300SOL     OW13798   2.693   6.950   0.440
 4300SOL    HW113799   2.620   6.968   0.506
 4300SOL    HW213800   2.778   6.992   0.471
 4301SOL     OW13801   4.041   0.271   1.880
 4301SOL    HW113802   4.056   0.369   1.867
 4301SOL    HW213803   4.045   0.224   1.792
 4302SOL     OW13804   6.583   0.281   6.861
 4302SOL    HW113805   6.591   0.271   6.762
 4302SOL    HW213806   6.543   0.199   6.901
 4303SOL     OW13807   0.187   4.770   3.558
 4303SOL    HW113808   0.230   4.699   3.614
 4303SOL    HW213809   0.190   4.742   3.461
 4304SOL     OW13810   3.827   4.010   1.714
 4304SOL    HW113811   3.810   4.001   1.812
 4304SOL    HW213812   3.748   3.975   1.664
 4305SOL     OW13813   0.680   6.826   5.682
 4305SOL    HW113814   0.722   6.855   5.768
 4305SOL    HW213815   0.747   6.776   5.627
 4306SOL     OW13816   4.999   4.861   4.647
 4306SOL    HW113817   5.062   4.809   4.704
 4306SOL    HW213818   5.012   4.836   4.551
 4307SOL     OW13819   5.478   3.562   5.230
 4307SOL    HW113820   5.522   3.651   5.217
 4307SOL    HW213821   5.407   3.570   5.301
 4308SOL     OW13822   5.487   5.028   1.466
 4308SOL    HW113823   5.422   4.964   1.425
 4308SOL    HW213824   5.543   4.981   1.534
 4309SOL     OW13825   1.425   2.898   0.486
 4309SOL    HW113826   1.397   2.835   0.558
 4309SOL    HW213827   1.513   2.868   0.448
 4310SOL     OW13828   1.473   2.964   2.098
 4310SOL    HW113829   1.418   3.001   2.024
 4310SOL    HW213830   1.567   3.000   2.092
 4311SOL     OW13831   1.151   6.546   2.043
 4311SOL    HW113832   1.118   6.462   2.001
 4311SOL    HW213833   1.203   6.523   2.125
 4312SOL     OW13834   1.542   5.573   3.154
 4312SOL    HW113835   1.626   5.577   3.207
 4312SOL    HW213836   1.552   5.626   3.070
 4313SOL     OW13837   3.551   2.232   0.379
 4313SOL    HW113838   3.595   2.300   0.321
 4313SOL    HW213839   3.461   2.209   0.342
 4314SOL     OW13840   5.866   2.362   5.012
 4314SOL    HW113841   5.784   2.376   5.066
 4314SOL    HW213842   5.882   2.264   5.000
 4315SOL     OW13843   1.775   1.219   3.237
 4315SOL    HW113844   1.833   1.175   3.305
 4315SOL    HW213845   1.825   1.294   3.194
 4316SOL     OW13846   5.205   0.207   2.753
 4316SOL    HW113847   5.114   0.170   2.775
 4316SOL    HW213848   5.256   0.140   2.700
 4317SOL     OW13849   4.685   1.232   5.516
 4317SOL    HW113850   4.704   1.259   5.421
 4317SOL    HW213851   4.771   1.212   5.562
 4318SOL     OW13852   0.828   1.084   4.402
 4318SOL    HW113853   0.808   1.039   4.315
 4318SOL    HW213854   0.802   1.024   4.478
 4319SOL     OW13855   2.039   1.919   1.292
 4319SOL    HW113856   2.026   1.970   1.377
 4319SOL    HW213857   2.109   1.964   1.236
 4320SOL     OW13858   3.966   5.973   1.293
 4320SOL    HW113859   4.052   5.971   1.344
 4320SOL    HW213860   3.914   6.055   1.318
 4321SOL     OW13861   0.091   5.165   3.361
 4321SOL    HW113862   0.037   5.111   3.297
 4321SOL    HW213863   0.158   5.106   3.407
 4322SOL     OW13864   6.586   3.015   5.945
 4322SOL    HW113865   6.645   3.085   5.904
 4322SOL    HW213866   6.602   3.011   6.043
 4323SOL     OW13867   4.126   5.303   0.090
 4323SOL    HW113868   4.223   5.296   0.067
 4323SOL    HW213869   4.092   5.213   0.119
 4324SOL     OW13870   6.776   4.131   5.072
 4324SOL    HW113871   6.749   4.047   5.118
 4324SOL    HW213872   6.782   4.116   4.973
 4325SOL     OW13873   2.924   1.686   2.399
 4325SOL    HW113874   2.934   1.784   2.410
 4325SOL    HW213875   2.965   1.658   2.312
 4326SOL     OW13876   5.907   3.550   2.013
 4326SOL    HW113877   5.962   3.540   1.930
 4326SOL    HW213878   5.811   3.528   1.991
 4327SOL     OW13879   4.181   5.969   3.123
 4327SOL    HW113880   4.105   5.931   3.070
 4327SOL    HW213881   4.259   5.984   3.063
 4328SOL     OW13882   6.063   4.498   4.899
 4328SOL    HW113883   6.051   4.591   4.863
 4328SOL    HW213884   6.105   4.440   4.829
 4329SOL     OW13885   6.186   3.379   5.620
 4329SOL    HW113886   6.104   3.323   5.628
 4329SOL    HW213887   6.265   3.327   5.654
 4330SOL     OW13888   1.976   6.713   4.221
 4330SOL    HW113889   1.890   6.723   4.170
 4330SOL    HW213890   1.960   6.655   4.301
 4331SOL     OW13891   7.020   0.427   1.285
 4331SOL    HW113892   0.007   0.330   1.258
 4331SOL    HW213893   0.085   0.474   1.264
 4332SOL     OW13894   6.568   3.304   3.127
 4332SOL    HW113895   6.567   3.399   3.157
 4332SOL    HW213896   6.620   3.249   3.192
 4333SOL     OW13897   4.277   2.033   4.746
 4333SOL    HW113898   4.282   1.993   4.655
 4333SOL    HW213899   4.204   2.102   4.749
 4334SOL     OW13900   1.492   2.556   2.389
 4334SOL    HW113901   1.466   2.635   2.334
 4334SOL    HW213902   1.492   2.580   2.486
 4335SOL     OW13903   3.816   3.019   1.469
 4335SOL    HW113904   3.894   3.081   1.473
 4335SOL    HW213905   3.785   2.997   1.562
 4336SOL     OW13906   2.344   4.873   5.456
 4336SOL    HW113907   2.259   4.839   5.496
 4336SOL    HW213908   2.406   4.903   5.528
 4337SOL     OW13909   1.751   5.175   1.402
 4337SOL    HW113910   1.818   5.241   1.435
 4337SOL    HW213911   1.763   5.088   1.450
 4338SOL     OW13912   5.915   0.317   6.386
 4338SOL    HW113913   5.989   0.361   6.436
 4338SOL    HW213914   5.827   0.353   6.417
 4339SOL     OW13915   3.384   2.598   6.495
 4339SOL    HW113916   3.363   2.656   6.573
 4339SOL    HW213917   3.301   2.584   6.440
 4340SOL     OW13918   5.516   3.107   1.245
 4340SOL    HW113919   5.506   3.206   1.232
 4340SOL    HW213920   5.473   3.059   1.170
 4341SOL     OW13921   1.322   5.167   1.975
 4341SOL    HW113922   1.303   5.069   1.966
 4341SOL    HW213923   1.282   5.200   2.061
 4342SOL     OW13924   5.308   3.690   3.033
 4342SOL    HW113925   5.362   3.671   2.951
 4342SOL    HW213926   5.240   3.761   3.013
 4343SOL     OW13927   2.953   6.156   5.525
 4343SOL    HW113928   2.917   6.116   5.609
 4343SOL    HW213929   3.048   6.184   5.538
 4344SOL     OW13930   0.823   3.181   3.188
 4344SOL    HW113931   0.854   3.274   3.167
 4344SOL    HW213932   0.758   3.151   3.117
 4345SOL     OW13933   3.053   3.557   3.560
 4345SOL    HW113934   3.130   3.510   3.603
 4345SOL    HW213935   2.985   3.581   3.629
 4346SOL     OW13936   2.405   2.606   2.420
 4346SOL    HW113937   2.469   2.556   2.361
 4346SOL    HW213938   2.346   2.664   2.364
 4347SOL     OW13939   6.344   6.085   2.429
 4347SOL    HW113940   6.373   6.053   2.519
 4347SOL    HW213941   6.327   6.184   2.433
 4348SOL     OW13942   0.636   6.052   4.566
 4348SOL    HW113943   0.552   6.105   4.573
 4348SOL    HW213944   0.631   5.993   4.485
 4349SOL     OW13945   7.019   3.218   3.981
 4349SOL    HW113946   6.977   3.209   4.072
 4349SOL    HW213947   7.004   3.134   3.929
 4350SOL     OW13948   5.130   2.230   4.293
 4350SOL    HW113949   5.088   2.206   4.381
 4350SOL    HW213950   5.226   2.256   4.309
 4351SOL     OW13951   1.140   6.057   1.239
 4351SOL    HW113952   1.200   6.031   1.314
 4351SOL    HW213953   1.189   6.119   1.177
 4352SOL     OW13954   6.259   3.886   1.973
 4352SOL    HW113955   6.321   3.964   1.974
 4352SOL    HW213956   6.200   3.890   2.053
 4353SOL     OW13957   2.987   4.130   0.115
 4353SOL    HW113958   2.962   4.048   0.065
 4353SOL    HW213959   2.920   4.202   0.098
 4354SOL     OW13960   0.682   1.776   5.965
 4354SOL    HW113961   0.733   1.783   5.879
 4354SOL    HW213962   0.612   1.848   5.967
 4355SOL     OW13963   1.556   0.001   3.052
 4355SOL    HW113964   1.545   6.951   2.982
 4355SOL    HW213965   1.561   6.979   3.142
 4356SOL     OW13966   4.336   3.365   5.361
 4356SOL    HW113967   4.303   3.460   5.367
 4356SOL    HW213968   4.434   3.366   5.343
 4357SOL     OW13969   0.104   1.525   1.176
 4357SOL    HW113970   0.010   1.495   1.157
 4357SOL    HW213971   0.155   1.451   1.219
 4358SOL     OW13972   0.184   0.008   0.418
 4358SOL    HW113973   0.141   0.091   0.382
 4358SOL    HW213974   0.232   6.983   0.343
 4359SOL     OW13975   1.648   0.922   6.469
 4359SOL    HW113976   1.639   0.859   6.391
 4359SOL    HW213977   1.687   1.008   6.436
 4360SOL     OW13978   0.901   2.620   3.888
 4360SOL    HW113979   0.841   2.655   3.817
 4360SOL    HW213980   0.890   2.674   3.972
 4361SOL     OW13981   2.298   3.219   1.190
 4361SOL    HW113982   2.272   3.145   1.129
 4361SOL    HW213983   2.217   3.253   1.239
 4362SOL     OW13984   0.344   6.084   4.211
 4362SOL    HW113985   0.385   6.167   4.249
 4362SOL    HW213986   0.395   6.056   4.130
 4363SOL     OW13987   4.573   1.098   1.727
 4363SOL    HW113988   4.598   1.183   1.773
 4363SOL    HW213989   4.477   1.103   1.697
 4364SOL     OW13990   3.191   3.727   2.821
 4364SOL    HW113991   3.094   3.702   2.827
 4364SOL    HW213992   3.243   3.677   2.890
 4365SOL     OW13993   2.944   1.328   1.790
 4365SOL    HW113994   2.990   1.336   1.701
 4365SOL    HW213995   3.011   1.306   1.860
 4366SOL     OW13996   6.051   6.333   6.545
 4366SOL    HW113997   6.046   6.289   6.455
 4366SOL    HW213998   5.960   6.337   6.585
 4367SOL     OW13999   3.050   5.131   3.427
 4367SOL    HW114000   3.138   5.177   3.414
 4367SOL    HW214001   3.065   5.038   3.459
 4368SOL     OW14002   3.620   5.403   2.690
 4368SOL    HW114003   3.673   5.375   2.610
 4368SOL    HW214004   3.674   5.466   2.746
 4369SOL     OW14005   5.065   5.829   3.448
 4369SOL    HW114006   5.075   5.766   3.371
 4369SOL    HW214007   4.992   5.798   3.508
 4370SOL     OW14008   3.601   3.942   1.577
 4370SOL    HW114009   3.550   3.917   1.495
 4370SOL    HW214010   3.562   3.896   1.657
 4371SOL     OW14011   2.118   1.454   2.652
 4371SOL    HW114012   2.083   1.424   2.564
 4371SOL    HW214013   2.110   1.554   2.659
 4372SOL     OW14014   2.155   3.339   3.908
 4372SOL    HW114015   2.083   3.282   3.946
 4372SOL    HW214016   2.206   3.382   3.982
 4373SOL     OW14017   4.084   1.207   6.255
 4373SOL    HW114018   4.105   1.164   6.342
 4373SOL    HW214019   4.136   1.292   6.246
 4374SOL     OW14020   1.886   1.691   1.195
 4374SOL    HW114021   1.934   1.779   1.201
 4374SOL    HW214022   1.841   1.672   1.283
 4375SOL     OW14023   3.747   6.348   2.841
 4375SOL    HW114024   3.760   6.428   2.899
 4375SOL    HW214025   3.798   6.360   2.755
 4376SOL     OW14026   6.684   7.015   1.895
 4376SOL    HW114027   6.661   0.066   1.830
 4376SOL    HW214028   6.648   0.019   1.985
 4377SOL     OW14029   6.339   5.071   0.228
 4377SOL    HW114030   6.326   4.992   0.287
 4377SOL    HW214031   6.369   5.149   0.283
 4378SOL     OW14032   1.230   4.492   2.878
 4378SOL    HW114033   1.232   4.592   2.882
 4378SOL    HW214034   1.247   4.461   2.785
 4379SOL     OW14035   2.278   0.770   2.102
 4379SOL    HW114036   2.357   0.825   2.077
 4379SOL    HW214037   2.201   0.792   2.042
 4380SOL     OW14038   1.982   5.893   4.994
 4380SOL    HW114039   1.889   5.894   4.958
 4380SOL    HW214040   1.993   5.815   5.056
 4381SOL     OW14041   2.152   4.438   4.743
 4381SOL    HW114042   2.175   4.401   4.653
 4381SOL    HW214043   2.186   4.377   4.815
 4382SOL     OW14044   6.323   4.060   5.868
 4382SOL    HW114045   6.245   4.005   5.839
 4382SOL    HW214046   6.297   4.115   5.947
 4383SOL     OW14047   0.471   1.880   5.186
 4383SOL    HW114048   0.471   1.783   5.211
 4383SOL    HW214049   0.378   1.915   5.187
 4384SOL     OW14050   5.180   1.294   0.131
 4384SOL    HW114051   5.185   1.229   0.207
 4384SOL    HW214052   5.265   1.347   0.127
 4385SOL     OW14053   0.256   2.852   4.056
 4385SOL    HW114054   0.293   2.791   4.127
 4385SOL    HW214055   0.193   2.801   3.998
 4386SOL     OW14056   1.331   3.382   6.466
 4386SOL    HW114057   1.342   3.298   6.413
 4386SOL    HW214058   1.404   3.446   6.443
 4387SOL     OW14059   0.772   2.340   1.973
 4387SOL    HW114060   0.800   2.334   1.877
 4387SOL    HW214061   0.853   2.336   2.032
 4388SOL     OW14062   4.300   1.585   6.575
 4388SOL    HW114063   4.225   1.649   6.560
 4388SOL    HW214064   4.284   1.534   6.659
 4389SOL     OW14065   5.467   2.480   0.423
 4389SOL    HW114066   5.490   2.393   0.380
 4389SOL    HW214067   5.368   2.487   0.433
 4390SOL     OW14068   4.074   2.092   2.175
 4390SOL    HW114069   4.069   2.148   2.092
 4390SOL    HW214070   4.167   2.054   2.183
 4391SOL     OW14071   1.458   5.974   5.919
 4391SOL    HW114072   1.497   6.044   5.978
 4391SOL    HW214073   1.531   5.919   5.879
 4392SOL     OW14074   6.091   4.176   5.253
 4392SOL    HW114075   6.074   4.085   5.291
 4392SOL    HW214076   6.174   4.175   5.197
 4393SOL     OW14077   5.077   6.443   2.686
 4393SOL    HW114078   5.085   6.404   2.595
 4393SOL    HW214079   5.111   6.378   2.754
 4394SOL     OW14080   6.369   5.395   3.183
 4394SOL    HW114081   6.288   5.453   3.187
 4394SOL    HW214082   6.433   5.431   3.114
 4395SOL     OW14083   4.210   2.172   1.663
 4395SOL    HW114084   4.125   2.159   1.612
 4395SOL    HW214085   4.287   2.173   1.600
 4396SOL     OW14086   2.504   1.709   3.750
 4396SOL    HW114087   2.590   1.758   3.764
 4396SOL    HW214088   2.523   1.612   3.736
 4397SOL     OW14089   0.355   1.649   4.476
 4397SOL    HW114090   0.360   1.685   4.569
 4397SOL    HW214091   0.334   1.724   4.413
 4398SOL     OW14092   1.017   4.299   5.075
 4398SOL    HW114093   0.917   4.293   5.075
 4398SOL    HW214094   1.056   4.219   5.030
 4399SOL     OW14095   1.995   0.889   1.587
 4399SOL    HW114096   2.068   0.823   1.604
 4399SOL    HW214097   1.918   0.870   1.649
 4400SOL     OW14098   2.109   7.010   4.659
 4400SOL    HW114099   2.131   0.085   4.675
 4400SOL    HW214100   2.179   6.952   4.702
 4401SOL     OW14101   5.432   5.974   6.079
 4401SOL    HW114102   5.463   5.998   6.171
 4401SOL    HW214103   5.352   6.030   6.056
 4402SOL     OW14104   2.084   6.190   2.749
 4402SOL    HW114105   2.149   6.128   2.704
 4402SOL    HW214106   2.056   6.150   2.836
 4403SOL     OW14107   0.102   6.528   3.562
 4403SOL    HW114108   0.053   6.505   3.647
 4403SOL    HW214109   0.092   6.626   3.544
 4404SOL     OW14110   1.332   3.633   5.477
 4404SOL    HW114111   1.327   3.714   5.418
 4404SOL    HW214112   1.242   3.613   5.515
 4405SOL     OW14113   3.206   4.481   0.318
 4405SOL    HW114114   3.153   4.500   0.400
 4405SOL    HW214115   3.152   4.505   0.237
 4406SOL     OW14116   5.603   4.601   1.337
 4406SOL    HW114117   5.605   4.656   1.253
 4406SOL    HW214118   5.521   4.624   1.389
 4407SOL     OW14119   0.092   4.764   0.771
 4407SOL    HW114120   0.056   4.834   0.833
 4407SOL    HW214121   0.184   4.790   0.741
 4408SOL     OW14122   5.118   0.690   0.550
 4408SOL    HW114123   5.207   0.710   0.590
 4408SOL    HW214124   5.045   0.726   0.609
 4409SOL     OW14125   4.155   0.539   1.867
 4409SOL    HW114126   4.160   0.566   1.963
 4409SOL    HW214127   4.247   0.533   1.829
 4410SOL     OW14128   2.162   4.646   0.028
 4410SOL    HW114129   2.182   4.569   0.089
 4410SOL    HW214130   2.159   4.613   6.954
 4411SOL     OW14131   4.087   3.614   3.382
 4411SOL    HW114132   4.085   3.530   3.436
 4411SOL    HW214133   4.057   3.691   3.438
 4412SOL     OW14134   3.480   1.704   4.327
 4412SOL    HW114135   3.570   1.724   4.290
 4412SOL    HW214136   3.442   1.785   4.371
 4413SOL     OW14137   4.990   5.668   5.108
 4413SOL    HW114138   5.080   5.643   5.143
 4413SOL    HW214139   4.959   5.751   5.154
 4414SOL     OW14140   4.322   5.043   2.064
 4414SOL    HW114141   4.263   5.066   2.141
 4414SOL    HW214142   4.410   5.090   2.075
 4415SOL     OW14143   4.177   3.685   6.728
 4415SOL    HW114144   4.124   3.768   6.715
 4415SOL    HW214145   4.115   3.606   6.731
 4416SOL     OW14146   2.828   0.930   4.414
 4416SOL    HW114147   2.795   0.946   4.507
 4416SOL    HW214148   2.752   0.899   4.356
 4417SOL     OW14149   6.868   4.394   2.784
 4417SOL    HW114150   6.913   4.483   2.786
 4417SOL    HW214151   6.769   4.406   2.782
 4418SOL     OW14152   4.942   0.122   4.280
 4418SOL    HW114153   4.901   0.031   4.284
 4418SOL    HW214154   5.006   0.127   4.204
 4419SOL     OW14155   5.555   5.859   0.657
 4419SOL    HW114156   5.573   5.835   0.562
 4419SOL    HW214157   5.531   5.956   0.662
 4420SOL     OW14158   5.004   2.049   0.473
 4420SOL    HW114159   4.960   2.136   0.495
 4420SOL    HW214160   4.946   1.973   0.504
 4421SOL     OW14161   1.753   0.818   3.188
 4421SOL    HW114162   1.764   0.719   3.194
 4421SOL    HW214163   1.657   0.842   3.200
 4422SOL     OW14164   2.418   3.708   5.535
 4422SOL    HW114165   2.461   3.722   5.624
 4422SOL    HW214166   2.477   3.650   5.478
 4423SOL     OW14167   1.369   2.837   5.805
 4423SOL    HW114168   1.462   2.820   5.774
 4423SOL    HW214169   1.328   2.911   5.751
 4424SOL     OW14170   5.738   6.728   3.508
 4424SOL    HW114171   5.793   6.659   3.556
 4424SOL    HW214172   5.641   6.710   3.524
 4425SOL     OW14173   3.492   5.777   6.002
 4425SOL    HW114174   3.491   5.682   5.968
 4425SOL    HW214175   3.470   5.778   6.099
 4426SOL     OW14176   6.725   1.799   4.460
 4426SOL    HW114177   6.738   1.721   4.521
 4426SOL    HW214178   6.801   1.864   4.472
 4427SOL     OW14179   0.032   6.685   2.842
 4427SOL    HW114180   0.077   6.744   2.775
 4427SOL    HW214181   6.954   6.696   2.836
 4428SOL     OW14182   2.993   5.512   3.055
 4428SOL    HW114183   3.041   5.472   2.977
 4428SOL    HW214184   2.896   5.489   3.050
 4429SOL     OW14185   2.944   0.349   3.815
 4429SOL    HW114186   2.867   0.322   3.873
 4429SOL    HW214187   2.918   0.340   3.719
 4430SOL     OW14188   5.119   3.081   3.889
 4430SOL    HW114189   5.212   3.103   3.916
 4430SOL    HW214190   5.104   3.106   3.794
 4431SOL     OW14191   1.609   1.375   2.105
 4431SOL    HW114192   1.666   1.456   2.121
 4431SOL    HW214193   1.528   1.380   2.163
 4432SOL     OW14194   3.369   4.143   3.371
 4432SOL    HW114195   3.416   4.231   3.359
 4432SOL    HW214196   3.336   4.136   3.465
 4433SOL     OW14197   6.076   0.677   4.763
 4433SOL    HW114198   5.983   0.640   4.757
 4433SOL    HW214199   6.121   0.641   4.845
 4434SOL     OW14200   4.787   1.627   3.820
 4434SOL    HW114201   4.764   1.639   3.917
 4434SOL    HW214202   4.761   1.535   3.791
 4435SOL     OW14203   4.342   3.732   1.053
 4435SOL    HW114204   4.252   3.709   1.016
 4435SOL    HW214205   4.381   3.651   1.096
 4436SOL     OW14206   3.169   2.298   0.717
 4436SOL    HW114207   3.246   2.350   0.752
 4436SOL    HW214208   3.105   2.278   0.791
 4437SOL     OW14209   5.303   1.855   3.560
 4437SOL    HW114210   5.315   1.762   3.595
 4437SOL    HW214211   5.232   1.901   3.614
 4438SOL     OW14212   4.087   1.750   6.566
 4438SOL    HW114213   4.024   1.801   6.507
 4438SOL    HW214214   4.073   1.778   6.661
 4439SOL     OW14215   0.246   5.560   1.280
 4439SOL    HW114216   0.172   5.591   1.221
 4439SOL    HW214217   0.308   5.502   1.227
 4440SOL     OW14218   1.720   4.837   0.044
 4440SOL    HW114219   1.760   4.887   6.989
 4440SOL    HW214220   1.712   4.897   0.123
 4441SOL     OW14221   6.803   1.416   1.891
 4441SOL    HW114222   6.790   1.457   1.800
 4441SOL    HW214223   6.831   1.487   1.955
 4442SOL     OW14224   3.476   6.347   3.843
 4442SOL    HW114225   3.481   6.334   3.942
 4442SOL    HW214226   3.537   6.422   3.817
 4443SOL     OW14227   0.194   2.811   0.636
 4443SOL    HW114228   0.136   2.849   0.564
 4443SOL    HW214229   0.269   2.759   0.595
 4444SOL     OW14230   3.668   6.183   6.538
 4444SOL    HW114231   3.690   6.206   6.633
 4444SOL    HW214232   3.616   6.097   6.537
 4445SOL     OW14233   6.945   0.291   0.803
 4445SOL    HW114234   6.898   0.274   0.717
 4445SOL    HW214235   0.016   0.325   0.785
 4446SOL     OW14236   5.452   1.394   1.695
 4446SOL    HW114237   5.383   1.327   1.726
 4446SOL    HW214238   5.483   1.369   1.603
 4447SOL     OW14239   5.591   3.563   6.029
 4447SOL    HW114240   5.625   3.655   6.047
 4447SOL    HW214241   5.521   3.567   5.957
 4448SOL     OW14242   3.186   4.236   0.863
 4448SOL    HW114243   3.271   4.185   0.853
 4448SOL    HW214244   3.121   4.184   0.918
 4449SOL     OW14245   4.608   0.539   6.014
 4449SOL    HW114246   4.521   0.588   6.022
 4449SOL    HW214247   4.609   0.462   6.078
 4450SOL     OW14248   4.065   3.130   4.446
 4450SOL    HW114249   4.150   3.180   4.428
 4450SOL    HW214250   4.015   3.175   4.519
 4451SOL     OW14251   5.843   4.071   2.893
 4451SOL    HW114252   5.756   4.089   2.848
 4451SOL    HW214253   5.880   4.155   2.932
 4452SOL     OW14254   5.672   6.764   4.920
 4452SOL    HW114255   5.683   6.678   4.970
 4452SOL    HW214256   5.735   6.833   4.957
 4453SOL     OW14257   6.594   2.563   0.431
 4453SOL    HW114258   6.583   2.471   0.392
 4453SOL    HW214259   6.524   2.624   0.394
 4454SOL     OW14260   4.932   2.679   0.242
 4454SOL    HW114261   4.931   2.583   0.215
 4454SOL    HW214262   4.995   2.692   0.318
 4455SOL     OW14263   3.403   0.407   6.518
 4455SOL    HW114264   3.470   0.433   6.588
 4455SOL    HW214265   3.418   0.311   6.493
 4456SOL     OW14266   2.347   5.054   2.589
 4456SOL    HW114267   2.364   4.992   2.512
 4456SOL    HW214268   2.402   5.025   2.667
 4457SOL     OW14269   4.136   2.325   0.119
 4457SOL    HW114270   4.169   2.277   0.037
 4457SOL    HW214271   4.191   2.407   0.134
 4458SOL     OW14272   1.203   3.920   6.778
 4458SOL    HW114273   1.178   3.828   6.807
 4458SOL    HW214274   1.301   3.935   6.795
 4459SOL     OW14275   5.635   0.437   3.518
 4459SOL    HW114276   5.670   0.420   3.426
 4459SOL    HW214277   5.686   0.512   3.560
 4460SOL     OW14278   2.616   2.943   5.723
 4460SOL    HW114279   2.615   2.854   5.679
 4460SOL    HW214280   2.522   2.970   5.745
 4461SOL     OW14281   0.789   0.768   2.687
 4461SOL    HW114282   0.832   0.725   2.608
 4461SOL    HW214283   0.690   0.755   2.683
 4462SOL     OW14284   0.089   3.692   1.595
 4462SOL    HW114285   0.115   3.619   1.658
 4462SOL    HW214286   0.145   3.686   1.512
 4463SOL     OW14287   2.777   2.486   6.909
 4463SOL    HW114288   2.693   2.522   6.950
 4463SOL    HW214289   2.760   2.395   6.871
 4464SOL     OW14290   5.998   5.112   6.758
 4464SOL    HW114291   6.005   5.113   6.659
 4464SOL    HW214292   5.929   5.178   6.787
 4465SOL     OW14293   2.610   6.202   3.278
 4465SOL    HW114294   2.599   6.136   3.203
 4465SOL    HW214295   2.704   6.197   3.313
 4466SOL     OW14296   1.238   0.473   2.057
 4466SOL    HW114297   1.319   0.432   2.017
 4466SOL    HW214298   1.263   0.521   2.141
 4467SOL     OW14299   1.179   6.255   3.605
 4467SOL    HW114300   1.187   6.351   3.632
 4467SOL    HW214301   1.084   6.226   3.611
 4468SOL     OW14302   1.039   2.158   0.030
 4468SOL    HW114303   0.950   2.150   0.074
 4468SOL    HW214304   1.029   2.203   6.962
 4469SOL     OW14305   3.456   0.439   1.241
 4469SOL    HW114306   3.437   0.399   1.152
 4469SOL    HW214307   3.554   0.430   1.261
 4470SOL     OW14308   6.066   3.603   1.761
 4470SOL    HW114309   5.970   3.587   1.737
 4470SOL    HW214310   6.092   3.695   1.732
 4471SOL     OW14311   0.459   2.295   0.413
 4471SOL    HW114312   0.557   2.309   0.430
 4471SOL    HW214313   0.408   2.308   0.498
 4472SOL     OW14314   1.727   3.000   3.919
 4472SOL    HW114315   1.760   2.973   3.828
 4472SOL    HW214316   1.635   3.039   3.911
 4473SOL     OW14317   6.538   2.060   3.792
 4473SOL    HW114318   6.442   2.077   3.772
 4473SOL    HW214319   6.586   2.034   3.708
 4474SOL     OW14320   2.736   1.152   1.756
 4474SOL    HW114321   2.812   1.209   1.788
 4474SOL    HW214322   2.688   1.200   1.683
 4475SOL     OW14323   1.585   3.857   2.519
 4475SOL    HW114324   1.675   3.815   2.532
 4475SOL    HW214325   1.595   3.944   2.472
 4476SOL     OW14326   5.203   6.574   3.631
 4476SOL    HW114327   5.172   6.509   3.561
 4476SOL    HW214328   5.126   6.595   3.691
 4477SOL     OW14329   1.879   0.055   5.652
 4477SOL    HW114330   1.961   0.084   5.603
 4477SOL    HW214331   1.904   0.012   5.738
 4478SOL     OW14332   2.749   5.785   2.431
 4478SOL    HW114333   2.825   5.843   2.402
 4478SOL    HW214334   2.701   5.750   2.350
 4479SOL     OW14335   0.696   0.582   1.071
 4479SOL    HW114336   0.602   0.580   1.103
 4479SOL    HW214337   0.758   0.560   1.146
 4480SOL     OW14338   1.776   3.783   4.914
 4480SOL    HW114339   1.807   3.853   4.979
 4480SOL    HW214340   1.827   3.698   4.930
 4481SOL     OW14341   2.447   6.739   5.180
 4481SOL    HW114342   2.352   6.744   5.149
 4481SOL    HW214343   2.504   6.797   5.122
 4482SOL     OW14344   0.617   4.059   3.987
 4482SOL    HW114345   0.670   4.107   4.056
 4482SOL    HW214346   0.662   4.067   3.898
 4483SOL     OW14347   5.898   3.391   1.343
 4483SOL    HW114348   5.858   3.327   1.278
 4483SOL    HW214349   5.964   3.450   1.296
 4484SOL     OW14350   3.072   2.174   5.287
 4484SOL    HW114351   2.981   2.216   5.288
 4484SOL    HW214352   3.127   2.213   5.214
 4485SOL     OW14353   5.195   2.299   6.263
 4485SOL    HW114354   5.258   2.226   6.234
 4485SOL    HW214355   5.137   2.326   6.187
 4486SOL     OW14356   5.703   3.685   4.311
 4486SOL    HW114357   5.716   3.741   4.229
 4486SOL    HW214358   5.613   3.704   4.350
 4487SOL     OW14359   2.537   3.094   6.755
 4487SOL    HW114360   2.462   3.161   6.757
 4487SOL    HW214361   2.500   3.002   6.768
 4488SOL     OW14362   5.854   2.800   5.278
 4488SOL    HW114363   5.875   2.852   5.361
 4488SOL    HW214364   5.848   2.863   5.200
 4489SOL     OW14365   5.075   6.373   4.338
 4489SOL    HW114366   5.014   6.450   4.355
 4489SOL    HW214367   5.170   6.404   4.338
 4490SOL     OW14368   5.773   2.159   1.925
 4490SOL    HW114369   5.777   2.257   1.905
 4490SOL    HW214370   5.760   2.145   2.024
 4491SOL     OW14371   0.805   2.906   3.544
 4491SOL    HW114372   0.824   2.964   3.623
 4491SOL    HW214373   0.799   2.811   3.573
 4492SOL     OW14374   5.352   3.661   1.076
 4492SOL    HW114375   5.326   3.566   1.060
 4492SOL    HW214376   5.407   3.667   1.159
 4493SOL     OW14377   4.577   5.675   5.692
 4493SOL    HW114378   4.595   5.773   5.684
 4493SOL    HW214379   4.558   5.637   5.602
 4494SOL     OW14380   0.263   1.772   6.034
 4494SOL    HW114381   0.206   1.779   6.115
 4494SOL    HW214382   0.205   1.769   5.952
 4495SOL     OW14383   4.930   6.385   3.699
 4495SOL    HW114384   4.962   6.307   3.753
 4495SOL    HW214385   4.962   6.470   3.742
 4496SOL     OW14386   4.697   5.853   0.820
 4496SOL    HW114387   4.657   5.832   0.909
 4496SOL    HW214388   4.629   5.837   0.748
 4497SOL     OW14389   4.590   0.272   0.274
 4497SOL    HW114390   4.556   0.231   0.189
 4497SOL    HW214391   4.688   0.254   0.284
 4498SOL     OW14392   0.464   3.059   6.162
 4498SOL    HW114393   0.505   2.981   6.208
 4498SOL    HW214394   0.489   3.057   6.065
 4499SOL     OW14395   0.197   3.655   3.882
 4499SOL    HW114396   0.120   3.592   3.889
 4499SOL    HW214397   0.275   3.607   3.839
 4500SOL     OW14398   2.918   3.265   3.987
 4500SOL    HW114399   2.851   3.255   4.060
 4500SOL    HW214400   2.943   3.362   3.978
 4501SOL     OW14401   0.476   3.466   6.090
 4501SOL    HW114402   0.428   3.386   6.125
 4501SOL    HW214403   0.465   3.471   5.990
 4502SOL     OW14404   1.897   2.128   6.979
 4502SOL    HW114405   1.948   2.195   0.012
 4502SOL    HW214406   1.878   2.166   6.889
 4503SOL     OW14407   2.857   0.507   2.880
 4503SOL    HW114408   2.763   0.474   2.889
 4503SOL    HW214409   2.909   0.443   2.824
 4504SOL     OW14410   6.128   1.707   4.953
 4504SOL    HW114411   6.189   1.628   4.944
 4504SOL    HW214412   6.034   1.674   4.968
 4505SOL     OW14413   6.681   6.035   3.740
 4505SOL    HW114414   6.654   6.035   3.644
 4505SOL    HW214415   6.634   5.960   3.787
 4506SOL     OW14416   4.776   2.389   4.378
 4506SOL    HW114417   4.794   2.402   4.281
 4506SOL    HW214418   4.858   2.414   4.430
 4507SOL     OW14419   5.145   4.453   1.981
 4507SOL    HW114420   5.106   4.504   2.058
 4507SOL    HW214421   5.217   4.393   2.015
 4508SOL     OW14422   0.826   5.006   5.812
 4508SOL    HW114423   0.811   4.926   5.754
 4508SOL    HW214424   0.782   5.086   5.771
 4509SOL     OW14425   5.403   3.009   3.831
 4509SOL    HW114426   5.345   2.964   3.764
 4509SOL    HW214427   5.482   3.050   3.785
 4510SOL     OW14428   5.510   6.701   5.742
 4510SOL    HW114429   5.597   6.697   5.791
 4510SOL    HW214430   5.438   6.733   5.804
 4511SOL     OW14431   6.862   3.528   6.488
 4511SOL    HW114432   6.941   3.476   6.522
 4511SOL    HW214433   6.888   3.576   6.404
 4512SOL     OW14434   2.198   6.414   5.751
 4512SOL    HW114435   2.194   6.424   5.850
 4512SOL    HW214436   2.294   6.408   5.722
 4513SOL     OW14437   5.094   6.249   0.261
 4513SOL    HW114438   5.155   6.292   0.194
 4513SOL    HW214439   5.034   6.318   0.301
 4514SOL     OW14440   4.699   1.189   4.894
 4514SOL    HW114441   4.795   1.209   4.916
 4514SOL    HW214442   4.640   1.221   4.968
 4515SOL     OW14443   6.720   4.121   5.466
 4515SOL    HW114444   6.652   4.153   5.400
 4515SOL    HW214445   6.675   4.103   5.554
 4516SOL     OW14446   1.603   0.998   6.098
 4516SOL    HW114447   1.667   0.927   6.127
 4516SOL    HW214448   1.642   1.088   6.119
 4517SOL     OW14449   2.151   0.419   6.921
 4517SOL    HW114450   2.061   0.426   6.880
 4517SOL    HW214451   2.175   0.322   6.933
 4518SOL     OW14452   6.650   1.650   3.412
 4518SOL    HW114453   6.564   1.602   3.431
 4518SOL    HW214454   6.723   1.609   3.466
 4519SOL     OW14455   5.667   0.535   1.400
 4519SOL    HW114456   5.569   0.546   1.387
 4519SOL    HW214457   5.698   0.451   1.356
 4520SOL     OW14458   5.485   5.654   3.312
 4520SOL    HW114459   5.488   5.729   3.377
 4520SOL    HW214460   5.391   5.639   3.282
 4521SOL     OW14461   5.040   1.921   4.485
 4521SOL    HW114462   5.104   1.995   4.465
 4521SOL    HW214463   4.979   1.949   4.559
 4522SOL     OW14464   5.515   0.169   3.478
 4522SOL    HW114465   5.549   0.263   3.472
 4522SOL    HW214466   5.546   0.117   3.398
 4523SOL     OW14467   1.195   4.206   0.193
 4523SOL    HW114468   1.180   4.120   0.144
 4523SOL    HW214469   1.247   4.268   0.135
 4524SOL     OW14470   5.341   2.366   5.033
 4524SOL    HW114471   5.318   2.300   5.104
 4524SOL    HW214472   5.273   2.439   5.032
 4525SOL     OW14473   6.299   1.287   3.409
 4525SOL    HW114474   6.348   1.200   3.414
 4525SOL    HW214475   6.266   1.301   3.315
 4526SOL     OW14476   4.810   1.005   0.828
 4526SOL    HW114477   4.729   1.059   0.805
 4526SOL    HW214478   4.791   0.949   0.908
 4527SOL     OW14479   4.315   1.315   3.922
 4527SOL    HW114480   4.401   1.323   3.971
 4527SOL    HW214481   4.285   1.219   3.921
 4528SOL     OW14482   4.702   6.497   6.989
 4528SOL    HW114483   4.687   6.469   0.063
 4528SOL    HW214484   4.757   6.581   6.986
 4529SOL     OW14485   3.531   1.294   4.070
 4529SOL    HW114486   3.447   1.341   4.043
 4529SOL    HW214487   3.605   1.361   4.079
 4530SOL     OW14488   0.396   3.090   5.719
 4530SOL    HW114489   0.368   3.005   5.674
 4530SOL    HW214490   0.440   3.149   5.652
 4531SOL     OW14491   0.397   3.318   3.511
 4531SOL    HW114492   0.346   3.373   3.446
 4531SOL    HW214493   0.492   3.311   3.481
 4532SOL     OW14494   0.308   1.096   2.234
 4532SOL    HW114495   0.228   1.153   2.220
 4532SOL    HW214496   0.389   1.142   2.195
 4533SOL     OW14497   1.116   0.422   2.715
 4533SOL    HW114498   1.145   0.497   2.773
 4533SOL    HW214499   1.176   0.415   2.636
 4534SOL     OW14500   6.175   3.858   4.267
 4534SOL    HW114501   6.247   3.922   4.294
 4534SOL    HW214502   6.206   3.764   4.282
 4535SOL     OW14503   4.579   1.978   2.813
 4535SOL    HW114504   4.578   2.058   2.753
 4535SOL    HW214505   4.599   2.008   2.907
 4536SOL     OW14506   4.750   2.466   4.100
 4536SOL    HW114507   4.653   2.481   4.082
 4536SOL    HW214508   4.795   2.434   4.016
 4537SOL     OW14509   3.863   3.336   6.000
 4537SOL    HW114510   3.781   3.343   5.942
 4537SOL    HW214511   3.835   3.328   6.096
 4538SOL     OW14512   2.736   1.003   4.017
 4538SOL    HW114513   2.731   0.934   4.089
 4538SOL    HW214514   2.831   1.009   3.985
 4539SOL     OW14515   2.295   1.047   4.307
 4539SOL    HW114516   2.289   1.016   4.402
 4539SOL    HW214517   2.328   0.971   4.250
 4540SOL     OW14518   3.604   2.884   4.262
 4540SOL    HW114519   3.690   2.935   4.268
 4540SOL    HW214520   3.570   2.867   4.354
 4541SOL     OW14521   5.794   1.272   6.917
 4541SOL    HW114522   5.744   1.230   6.841
 4541SOL    HW214523   5.892   1.266   6.900
 4542SOL     OW14524   6.049   6.676   1.767
 4542SOL    HW114525   5.982   6.750   1.777
 4542SOL    HW214526   6.033   6.607   1.838
 4543SOL     OW14527   4.962   2.351   0.118
 4543SOL    HW114528   4.880   2.315   0.162
 4543SOL    HW214529   5.039   2.345   0.181
 4544SOL     OW14530   2.446   6.399   5.700
 4544SOL    HW114531   2.437   6.459   5.620
 4544SOL    HW214532   2.514   6.329   5.682
 4545SOL     OW14533   5.351   2.701   4.707
 4545SOL    HW114534   5.444   2.667   4.722
 4545SOL    HW214535   5.340   2.789   4.753
 4546SOL     OW14536   1.186   1.252   6.480
 4546SOL    HW114537   1.242   1.185   6.430
 4546SOL    HW214538   1.243   1.299   6.547
 4547SOL     OW14539   6.494   2.854   2.915
 4547SOL    HW114540   6.479   2.798   2.997
 4547SOL    HW214541   6.578   2.823   2.869
 4548SOL     OW14542   1.380   4.225   4.861
 4548SOL    HW114543   1.440   4.259   4.789
 4548SOL    HW214544   1.391   4.281   4.943
 4549SOL     OW14545   6.451   3.625   2.433
 4549SOL    HW114546   6.523   3.587   2.375
 4549SOL    HW214547   6.407   3.701   2.385
 4550SOL     OW14548   0.939   5.957   2.776
 4550SOL    HW114549   0.998   6.024   2.731
 4550SOL    HW214550   0.861   5.936   2.716
 4551SOL     OW14551   6.781   2.237   5.325
 4551SOL    HW114552   6.803   2.222   5.228
 4551SOL    HW214553   6.737   2.156   5.362
 4552SOL     OW14554   6.748   2.786   6.391
 4552SOL    HW114555   6.807   2.810   6.314
 4552SOL    HW214556   6.724   2.689   6.384
 4553SOL     OW14557   4.125   4.449   0.691
 4553SOL    HW114558   4.095   4.388   0.617
 4553SOL    HW214559   4.069   4.433   0.772
 4554SOL     OW14560   4.012   1.031   1.809
 4554SOL    HW114561   3.951   1.103   1.776
 4554SOL    HW214562   4.067   1.066   1.885
 4555SOL     OW14563   3.307   1.782   5.551
 4555SOL    HW114564   3.304   1.871   5.596
 4555SOL    HW214565   3.303   1.710   5.620
 4556SOL     OW14566   4.721   2.208   3.388
 4556SOL    HW114567   4.713   2.183   3.291
 4556SOL    HW214568   4.630   2.208   3.430
 4557SOL     OW14569   5.301   6.744   5.380
 4557SOL    HW114570   5.339   6.790   5.299
 4557SOL    HW214571   5.231   6.802   5.422
 4558SOL     OW14572   6.786   3.880   5.943
 4558SOL    HW114573   6.721   3.894   5.869
 4558SOL    HW214574   6.811   3.784   5.949
 4559SOL     OW14575   1.080   4.841   0.922
 4559SOL    HW114576   1.105   4.937   0.929
 4559SOL    HW214577   1.089   4.797   1.011
 4560SOL     OW14578   5.243   4.721   3.364
 4560SOL    HW114579   5.239   4.673   3.452
 4560SOL    HW214580   5.319   4.685   3.310
 4561SOL     OW14581   3.020   1.015   1.463
 4561SOL    HW114582   2.923   0.991   1.458
 4561SOL    HW214583   3.066   0.956   1.529
 4562SOL     OW14584   2.842   5.724   4.853
 4562SOL    HW114585   2.885   5.794   4.909
 4562SOL    HW214586   2.810   5.649   4.911
 4563SOL     OW14587   6.796   3.779   0.176
 4563SOL    HW114588   6.799   3.679   0.181
 4563SOL    HW214589   6.805   3.817   0.268
 4564SOL     OW14590   0.628   6.574   0.945
 4564SOL    HW114591   0.660   6.569   1.040
 4564SOL    HW214592   0.604   6.483   0.913
 4565SOL     OW14593   0.115   1.573   5.274
 4565SOL    HW114594   0.137   1.539   5.183
 4565SOL    HW214595   0.017   1.563   5.291
 4566SOL     OW14596   6.405   0.953   0.663
 4566SOL    HW114597   6.500   0.985   0.669
 4566SOL    HW214598   6.344   1.021   0.704
 4567SOL     OW14599   0.954   0.999   0.026
 4567SOL    HW114600   1.021   1.073   0.033
 4567SOL    HW214601   0.883   1.012   0.095
 4568SOL     OW14602   1.118   4.575   5.357
 4568SOL    HW114603   1.175   4.598   5.436
 4568SOL    HW214604   1.116   4.476   5.345
 4569SOL     OW14605   2.192   1.520   3.147
 4569SOL    HW114606   2.131   1.574   3.205
 4569SOL    HW214607   2.228   1.442   3.199
 4570SOL     OW14608   0.507   4.904   3.037
 4570SOL    HW114609   0.528   4.891   2.940
 4570SOL    HW214610   0.411   4.885   3.053
 4571SOL     OW14611   3.693   3.330   5.492
 4571SOL    HW114612   3.706   3.231   5.489
 4571SOL    HW214613   3.625   3.357   5.424
 4572SOL     OW14614   1.056   6.253   6.213
 4572SOL    HW114615   0.993   6.202   6.155
 4572SOL    HW214616   1.009   6.278   6.298
 4573SOL     OW14617   6.075   5.979   0.541
 4573SOL    HW114618   6.148   5.958   0.476
 4573SOL    HW214619   5.994   5.924   0.521
 4574SOL     OW14620   6.316   4.148   1.136
 4574SOL    HW114621   6.270   4.082   1.196
 4574SOL    HW214622   6.286   4.240   1.159
 4575SOL     OW14623   6.672   1.846   6.643
 4575SOL    HW114624   6.642   1.843   6.548
 4575SOL    HW214625   6.673   1.753   6.680
 4576SOL     OW14626   2.420   6.021   6.593
 4576SOL    HW114627   2.354   6.036   6.667
 4576SOL    HW214628   2.374   5.974   6.517
 4577SOL     OW14629   0.383   3.057   3.259
 4577SOL    HW114630   0.461   3.032   3.317
 4577SOL    HW214631   0.331   3.130   3.303
 4578SOL     OW14632   0.278   3.256   3.951
 4578SOL    HW114633   0.347   3.284   4.018
 4578SOL    HW214634   0.191   3.239   3.997
 4579SOL     OW14635   5.347   1.452   3.079
 4579SOL    HW114636   5.440   1.415   3.085
 4579SOL    HW214637   5.339   1.510   2.998
 4580SOL     OW14638   5.280   5.521   6.835
 4580SOL    HW114639   5.253   5.428   6.808
 4580SOL    HW214640   5.211   5.586   6.804
 4581SOL     OW14641   3.032   5.481   3.320
 4581SOL    HW114642   3.029   5.481   3.220
 4581SOL    HW214643   3.123   5.451   3.351
 4582SOL     OW14644   5.981   6.539   4.833
 4582SOL    HW114645   5.886   6.511   4.819
 4582SOL    HW214646   5.994   6.565   4.928
 4583SOL     OW14647   2.760   1.229   4.637
 4583SOL    HW114648   2.842   1.172   4.625
 4583SOL    HW214649   2.770   1.314   4.585
 4584SOL     OW14650   0.308   5.268   5.374
 4584SOL    HW114651   0.245   5.193   5.394
 4584SOL    HW214652   0.296   5.297   5.279
 4585SOL     OW14653   2.651   6.638   2.985
 4585SOL    HW114654   2.749   6.634   2.965
 4585SOL    HW214655   2.631   6.580   3.064
 4586SOL     OW14656   3.596   5.487   0.773
 4586SOL    HW114657   3.648   5.426   0.713
 4586SOL    HW214658   3.529   5.433   0.824
 4587SOL     OW14659   4.391   3.295   1.718
 4587SOL    HW114660   4.429   3.218   1.769
 4587SOL    HW214661   4.313   3.333   1.767
 4588SOL     OW14662   3.693   4.008   5.300
 4588SOL    HW114663   3.602   3.975   5.272
 4588SOL    HW214664   3.723   3.956   5.380
 4589SOL     OW14665   6.021   1.535   1.766
 4589SOL    HW114666   6.084   1.497   1.698
 4589SOL    HW214667   5.927   1.514   1.739
 4590SOL     OW14668   4.340   6.174   2.201
 4590SOL    HW114669   4.266   6.192   2.136
 4590SOL    HW214670   4.312   6.205   2.292
 4591SOL     OW14671   0.405   5.897   4.982
 4591SOL    HW114672   0.456   5.812   4.981
 4591SOL    HW214673   0.423   5.946   5.068
 4592SOL     OW14674   4.009   2.568   1.635
 4592SOL    HW114675   4.096   2.524   1.614
 4592SOL    HW214676   3.975   2.616   1.553
 4593SOL     OW14677   4.225   5.924   4.185
 4593SOL    HW114678   4.239   5.825   4.188
 4593SOL    HW214679   4.266   5.967   4.265
 4594SOL     OW14680   3.543   1.897   1.355
 4594SOL    HW114681   3.447   1.915   1.374
 4594SOL    HW214682   3.598   1.920   1.436
 4595SOL     OW14683   3.300   2.997   5.714
 4595SOL    HW114684   3.346   2.966   5.630
 4595SOL    HW214685   3.303   3.096   5.719
 4596SOL     OW14686   6.444   6.612   2.215
 4596SOL    HW114687   6.398   6.529   2.246
 4596SOL    HW214688   6.469   6.667   2.295
 4597SOL     OW14689   5.113   4.619   0.075
 4597SOL    HW114690   5.201   4.574   0.061
 4597SOL    HW214691   5.127   4.700   0.133
 4598SOL     OW14692   1.765   5.563   6.968
 4598SOL    HW114693   1.833   5.497   6.937
 4598SOL    HW214694   1.674   5.532   6.941
 4599SOL     OW14695   1.973   4.711   0.797
 4599SOL    HW114696   2.006   4.700   0.703
 4599SOL    HW214697   2.034   4.771   0.848
 4600SOL     OW14698   1.964   5.971   5.977
 4600SOL    HW114699   2.063   5.958   5.969
 4600SOL    HW214700   1.945   6.048   6.038
 4601SOL     OW14701   1.655   0.591   5.358
 4601SOL    HW114702   1.580   0.657   5.356
 4601SOL    HW214703   1.688   0.576   5.265
 4602SOL     OW14704   0.957   5.846   0.420
 4602SOL    HW114705   1.057   5.851   0.413
 4602SOL    HW214706   0.929   5.880   0.510
 4603SOL     OW14707   3.610   6.540   0.959
 4603SOL    HW114708   3.666   6.459   0.941
 4603SOL    HW214709   3.657   6.599   1.025
 4604SOL     OW14710   5.006   0.832   1.762
 4604SOL    HW114711   5.042   0.853   1.671
 4604SOL    HW214712   4.919   0.880   1.775
 4605SOL     OW14713   4.908   1.095   3.067
 4605SOL    HW114714   4.933   1.034   2.992
 4605SOL    HW214715   4.829   1.150   3.041
 4606SOL     OW14716   0.347   0.227   1.770
 4606SOL    HW114717   0.252   0.247   1.794
 4606SOL    HW214718   0.350   0.154   1.702
 4607SOL     OW14719   2.723   3.073   0.720
 4607SOL    HW114720   2.627   3.053   0.740
 4607SOL    HW214721   2.766   2.991   0.681
 4608SOL     OW14722   1.475   5.726   3.905
 4608SOL    HW114723   1.527   5.658   3.958
 4608SOL    HW214724   1.456   5.689   3.814
 4609SOL     OW14725   3.845   5.619   5.846
 4609SOL    HW114726   3.890   5.653   5.763
 4609SOL    HW214727   3.819   5.696   5.903
 4610SOL     OW14728   6.010   2.474   0.699
 4610SOL    HW114729   6.054   2.542   0.640
 4610SOL    HW214730   5.948   2.418   0.645
 4611SOL     OW14731   6.175   5.709   6.144
 4611SOL    HW114732   6.179   5.717   6.044
 4611SOL    HW214733   6.267   5.694   6.180
 4612SOL     OW14734   1.334   6.317   0.807
 4612SOL    HW114735   1.365   6.273   0.723
 4612SOL    HW214736   1.380   6.406   0.817
 4613SOL     OW14737   2.714   5.335   2.401
 4613SOL    HW114738   2.796   5.351   2.455
 4613SOL    HW214739   2.645   5.403   2.424
 4614SOL     OW14740   0.915   3.965   5.418
 4614SOL    HW114741   0.906   3.979   5.516
 4614SOL    HW214742   1.000   3.915   5.399
 4615SOL     OW14743   1.871   0.690   6.913
 4615SOL    HW114744   1.784   0.734   6.892
 4615SOL    HW214745   1.927   0.751   6.970
 4616SOL     OW14746   5.907   0.164   6.107
 4616SOL    HW114747   5.955   0.217   6.177
 4616SOL    HW214748   5.973   0.123   6.045
 4617SOL     OW14749   1.311   2.342   2.261
 4617SOL    HW114750   1.327   2.364   2.164
 4617SOL    HW214751   1.380   2.386   2.317
 4618SOL     OW14752   1.867   2.365   5.341
 4618SOL    HW114753   1.842   2.454   5.379
 4618SOL    HW214754   1.900   2.377   5.248
 4619SOL     OW14755   3.930   6.430   3.185
 4619SOL    HW114756   3.857   6.434   3.116
 4619SOL    HW214757   3.902   6.367   3.258
 4620SOL     OW14758   3.069   4.320   6.890
 4620SOL    HW114759   3.156   4.284   6.923
 4620SOL    HW214760   3.020   4.248   6.841
 4621SOL     OW14761   5.561   1.650   3.403
 4621SOL    HW114762   5.526   1.703   3.326
 4621SOL    HW214763   5.507   1.566   3.414
 4622SOL     OW14764   1.061   3.186   0.765
 4622SOL    HW114765   1.064   3.182   0.865
 4622SOL    HW214766   1.103   3.272   0.734
 4623SOL     OW14767   0.308   5.791   0.678
 4623SOL    HW114768   0.406   5.808   0.685
 4623SOL    HW214769   0.292   5.699   0.643
 4624SOL     OW14770   5.317   6.594   3.050
 4624SOL    HW114771   5.285   6.544   3.130
 4624SOL    HW214772   5.294   6.691   3.059
 4625SOL     OW14773   1.888   4.775   6.729
 4625SOL    HW114774   1.805   4.726   6.705
 4625SOL    HW214775   1.958   4.710   6.760
 4626SOL     OW14776   5.933   5.432   1.970
 4626SOL    HW114777   5.932   5.464   1.875
 4626SOL    HW214778   6.005   5.480   2.021
 4627SOL     OW14779   3.726   6.197   4.099
 4627SOL    HW114780   3.684   6.182   4.010
 4627SOL    HW214781   3.825   6.186   4.091
 4628SOL     OW14782   6.106   4.079   3.494
 4628SOL    HW114783   6.164   4.008   3.453
 4628SOL    HW214784   6.159   4.163   3.503
 4629SOL     OW14785   2.080   4.773   5.427
 4629SOL    HW114786   2.082   4.840   5.353
 4629SOL    HW214787   2.028   4.693   5.397
 4630SOL     OW14788   3.751   5.602   3.062
 4630SOL    HW114789   3.655   5.628   3.055
 4630SOL    HW214790   3.800   5.634   2.981
 4631SOL     OW14791   2.352   6.554   3.708
 4631SOL    HW114792   2.420   6.567   3.636
 4631SOL    HW214793   2.391   6.580   3.796
 4632SOL     OW14794   4.510   4.475   3.560
 4632SOL    HW114795   4.566   4.413   3.507
 4632SOL    HW214796   4.515   4.450   3.657
 4633SOL     OW14797   5.799   2.370   3.706
 4633SOL    HW114798   5.881   2.369   3.764
 4633SOL    HW214799   5.755   2.280   3.709
 4634SOL     OW14800   2.189   4.545   6.526
 4634SOL    HW114801   2.271   4.602   6.519
 4634SOL    HW214802   2.118   4.581   6.466
 4635SOL     OW14803   5.896   3.099   2.213
 4635SOL    HW114804   5.915   3.011   2.168
 4635SOL    HW214805   5.939   3.101   2.303
 4636SOL     OW14806   2.215   5.157   0.105
 4636SOL    HW114807   2.198   5.221   0.031
 4636SOL    HW214808   2.314   5.148   0.119
 4637SOL     OW14809   1.946   0.947   0.516
 4637SOL    HW114810   2.044   0.927   0.515
 4637SOL    HW214811   1.927   1.023   0.453
 4638SOL     OW14812   3.495   3.395   6.312
 4638SOL    HW114813   3.487   3.459   6.389
 4638SOL    HW214814   3.449   3.310   6.334
 4639SOL     OW14815   2.064   4.440   5.056
 4639SOL    HW114816   2.089   4.352   5.016
 4639SOL    HW214817   2.002   4.488   4.994
 4640SOL     OW14818   5.233   5.345   3.339
 4640SOL    HW114819   5.305   5.279   3.316
 4640SOL    HW214820   5.144   5.304   3.323
 4641SOL     OW14821   3.189   6.368   4.131
 4641SOL    HW114822   3.130   6.318   4.068
 4641SOL    HW214823   3.285   6.357   4.104
 4642SOL     OW14824   0.843   6.684   5.509
 4642SOL    HW114825   0.876   6.607   5.563
 4642SOL    HW214826   0.920   6.732   5.468
 4643SOL     OW14827   5.714   2.276   1.219
 4643SOL    HW114828   5.765   2.357   1.248
 4643SOL    HW214829   5.622   2.302   1.192
 4644SOL     OW14830   1.449   4.959   4.751
 4644SOL    HW114831   1.539   4.964   4.793
 4644SOL    HW214832   1.381   4.935   4.821
 4645SOL     OW14833   1.557   0.351   4.339
 4645SOL    HW114834   1.506   0.420   4.390
 4645SOL    HW214835   1.653   0.354   4.366
 4646SOL     OW14836   2.814   6.449   3.158
 4646SOL    HW114837   2.754   6.483   3.230
 4646SOL    HW214838   2.894   6.509   3.151
 4647SOL     OW14839   0.989   6.383   3.351
 4647SOL    HW114840   0.945   6.372   3.262
 4647SOL    HW214841   0.927   6.352   3.423
 4648SOL     OW14842   4.373   0.475   1.253
 4648SOL    HW114843   4.415   0.384   1.256
 4648SOL    HW214844   4.379   0.518   1.343
 4649SOL     OW14845   5.107   6.649   6.245
 4649SOL    HW114846   5.104   6.735   6.296
 4649SOL    HW214847   5.048   6.582   6.289
 4650SOL     OW14848   4.260   6.110   3.995
 4650SOL    HW114849   4.335   6.089   3.933
 4650SOL    HW214850   4.265   6.051   4.075
 4651SOL     OW14851   0.110   1.387   0.928
 4651SOL    HW114852   0.086   1.447   1.005
 4651SOL    HW214853   0.205   1.357   0.938
 4652SOL     OW14854   0.361   0.719   4.185
 4652SOL    HW114855   0.262   0.712   4.194
 4652SOL    HW214856   0.397   0.639   4.137
 4653SOL     OW14857   6.324   5.524   6.610
 4653SOL    HW114858   6.384   5.590   6.565
 4653SOL    HW214859   6.240   5.514   6.556
 4654SOL     OW14860   0.469   6.989   0.126
 4654SOL    HW114861   0.555   0.005   0.162
 4654SOL    HW214862   0.457   7.019   0.032
 4655SOL     OW14863   6.694   5.590   1.747
 4655SOL    HW114864   6.748   5.584   1.663
 4655SOL    HW214865   6.686   5.498   1.788
 4656SOL     OW14866   1.161   6.978   3.646
 4656SOL    HW114867   1.066   6.986   3.676
 4656SOL    HW214868   1.221   6.976   3.727
 4657SOL     OW14869   4.664   6.715   1.602
 4657SOL    HW114870   4.581   6.679   1.643
 4657SOL    HW214871   4.727   6.744   1.675
 4658SOL     OW14872   3.529   1.113   2.082
 4658SOL    HW114873   3.529   1.025   2.129
 4658SOL    HW214874   3.476   1.179   2.134
 4659SOL     OW14875   2.405   3.851   6.112
 4659SOL    HW114876   2.443   3.866   6.020
 4659SOL    HW214877   2.480   3.831   6.175
 4660SOL     OW14878   0.981   2.724   5.066
 4660SOL    HW114879   0.983   2.642   5.123
 4660SOL    HW214880   1.056   2.784   5.092
 4661SOL     OW14881   3.459   4.126   5.590
 4661SOL    HW114882   3.533   4.135   5.656
 4661SOL    HW214883   3.483   4.175   5.506
 4662SOL     OW14884   4.813   0.451   5.121
 4662SOL    HW114885   4.812   0.353   5.143
 4662SOL    HW214886   4.904   0.476   5.086
 4663SOL     OW14887   0.489   1.792   2.154
 4663SOL    HW114888   0.587   1.803   2.138
 4663SOL    HW214889   0.442   1.783   2.066
 4664SOL     OW14890   2.171   1.986   0.278
 4664SOL    HW114891   2.204   1.944   0.193
 4664SOL    HW214892   2.073   1.970   0.286
 4665SOL     OW14893   4.201   6.727   0.350
 4665SOL    HW114894   4.257   6.688   0.423
 4665SOL    HW214895   4.110   6.684   0.352
 4666SOL     OW14896   1.486   1.621   0.421
 4666SOL    HW114897   1.517   1.675   0.342
 4666SOL    HW214898   1.540   1.646   0.501
 4667SOL     OW14899   6.443   4.523   1.338
 4667SOL    HW114900   6.420   4.619   1.323
 4667SOL    HW214901   6.528   4.502   1.290
 4668SOL     OW14902   6.456   2.315   3.150
 4668SOL    HW114903   6.359   2.292   3.137
 4668SOL    HW214904   6.491   2.264   3.229
 4669SOL     OW14905   3.059   6.914   0.344
 4669SOL    HW114906   3.147   6.867   0.352
 4669SOL    HW214907   2.985   6.850   0.363
 4670SOL     OW14908   3.534   1.501   5.010
 4670SOL    HW114909   3.519   1.479   5.106
 4670SOL    HW214910   3.446   1.506   4.963
 4671SOL     OW14911   6.987   2.467   2.250
 4671SOL    HW114912   6.977   2.431   2.157
 4671SOL    HW214913   0.018   2.553   2.246
 4672SOL     OW14914   2.586   5.087   6.363
 4672SOL    HW114915   2.670   5.137   6.382
 4672SOL    HW214916   2.593   4.995   6.402
 4673SOL     OW14917   4.981   6.882   0.681
 4673SOL    HW114918   5.055   6.839   0.732
 4673SOL    HW214919   4.932   6.813   0.628
 4674SOL     OW14920   4.839   6.754   0.001
 4674SOL    HW114921   4.928   6.779   6.984
 4674SOL    HW214922   4.779   6.834   0.000
 4675SOL     OW14923   0.807   3.180   6.895
 4675SOL    HW114924   0.825   3.239   6.816
 4675SOL    HW214925   0.775   3.237   6.971
 4676SOL     OW14926   6.881   6.222   3.701
 4676SOL    HW114927   6.802   6.162   3.712
 4676SOL    HW214928   6.849   6.315   3.681
 4677SOL     OW14929   2.351   2.203   1.171
 4677SOL    HW114930   2.440   2.228   1.132
 4677SOL    HW214931   2.361   2.192   1.270
 4678SOL     OW14932   2.219   4.699   3.047
 4678SOL    HW114933   2.200   4.675   2.952
 4678SOL    HW214934   2.168   4.637   3.107
 4679SOL     OW14935   4.499   0.268   1.738
 4679SOL    HW114936   4.477   0.365   1.730
 4679SOL    HW214937   4.520   0.231   1.648
 4680SOL     OW14938   3.891   1.003   6.607
 4680SOL    HW114939   3.856   0.935   6.543
 4680SOL    HW214940   3.973   1.045   6.569
 4681SOL     OW14941   5.420   4.716   0.322
 4681SOL    HW114942   5.436   4.673   0.411
 4681SOL    HW214943   5.431   4.647   0.250
 4682SOL     OW14944   4.674   4.401   5.515
 4682SOL    HW114945   4.585   4.391   5.559
 4682SOL    HW214946   4.661   4.411   5.416
 4683SOL     OW14947   5.830   5.504   2.928
 4683SOL    HW114948   5.890   5.426   2.915
 4683SOL    HW214949   5.741   5.473   2.961
 4684SOL     OW14950   5.092   6.827   5.546
 4684SOL    HW114951   5.045   6.914   5.562
 4684SOL    HW214952   5.025   6.753   5.546
 4685SOL     OW14953   2.305   5.073   6.402
 4685SOL    HW114954   2.291   5.032   6.491
 4685SOL    HW214955   2.401   5.061   6.374
 4686SOL     OW14956   4.223   5.755   6.871
 4686SOL    HW114957   4.167   5.770   6.952
 4686SOL    HW214958   4.250   5.659   6.867
 4687SOL     OW14959   4.804   2.923   4.360
 4687SOL    HW114960   4.881   2.909   4.422
 4687SOL    HW214961   4.819   3.006   4.307
 4688SOL     OW14962   6.139   2.732   5.036
 4688SOL    HW114963   6.140   2.829   5.011
 4688SOL    HW214964   6.231   2.695   5.033
 4689SOL     OW14965   5.793   1.046   0.477
 4689SOL    HW114966   5.710   1.085   0.519
 4689SOL    HW214967   5.767   0.982   0.405
 4690SOL     OW14968   2.342   0.213   0.881
 4690SOL    HW114969   2.287   0.131   0.896
 4690SOL    HW214970   2.396   0.202   0.798
 4691SOL     OW14971   3.182   3.870   0.918
 4691SOL    HW114972   3.243   3.925   0.860
 4691SOL    HW214973   3.232   3.790   0.952
 4692SOL     OW14974   5.624   5.134   2.985
 4692SOL    HW114975   5.568   5.159   2.907
 4692SOL    HW214976   5.633   5.212   3.047
 4693SOL     OW14977   1.321   0.343   3.778
 4693SOL    HW114978   1.362   0.266   3.825
 4693SOL    HW214979   1.223   0.326   3.766
 4694SOL     OW14980   2.081   1.574   0.015
 4694SOL    HW114981   2.087   1.668   0.047
 4694SOL    HW214982   2.167   1.526   0.033
 4695SOL     OW14983   1.328   5.085   0.783
 4695SOL    HW114984   1.421   5.086   0.819
 4695SOL    HW214985   1.263   5.094   0.859
 4696SOL     OW14986   0.470   5.749   5.941
 4696SOL    HW114987   0.387   5.754   5.884
 4696SOL    HW214988   0.464   5.670   6.001
 4697SOL     OW14989   1.195   3.891   2.428
 4697SOL    HW114990   1.106   3.863   2.392
 4697SOL    HW214991   1.189   3.902   2.527
 4698SOL     OW14992   4.172   6.257   3.144
 4698SOL    HW114993   4.104   6.286   3.212
 4698SOL    HW214994   4.174   6.157   3.140
 4699SOL     OW14995   0.582   6.154   2.756
 4699SOL    HW114996   0.601   6.251   2.744
 4699SOL    HW214997   0.486   6.135   2.733
 4700SOL     OW14998   6.181   2.005   2.188
 4700SOL    HW114999   6.252   2.043   2.247
 4700SOL    HW215000   6.192   1.906   2.181
 4701SOL     OW15001   3.616   1.922   0.316
 4701SOL    HW115002   3.631   2.005   0.371
 4701SOL    HW215003   3.628   1.944   0.219
 4702SOL     OW15004   4.552   5.060   0.101
 4702SOL    HW115005   4.560   5.109   0.188
 4702SOL    HW215006   4.587   4.967   0.112
 4703SOL     OW15007   1.466   6.587   2.983
 4703SOL    HW115008   1.376   6.583   3.025
 4703SOL    HW215009   1.536   6.592   3.055
 4704SOL     OW15010   6.320   5.909   6.616
 4704SOL    HW115011   6.276   5.909   6.527
 4704SOL    HW215012   6.268   5.966   6.679
 4705SOL     OW15013   4.054   2.588   1.066
 4705SOL    HW115014   4.007   2.509   1.028
 4705SOL    HW215015   4.145   2.595   1.026
 4706SOL     OW15016   1.711   0.558   0.644
 4706SOL    HW115017   1.778   0.513   0.585
 4706SOL    HW215018   1.642   0.491   0.672
 4707SOL     OW15019   1.160   6.339   1.796
 4707SOL    HW115020   1.062   6.335   1.778
 4707SOL    HW215021   1.211   6.335   1.709
 4708SOL     OW15022   1.666   1.792   5.625
 4708SOL    HW115023   1.702   1.860   5.562
 4708SOL    HW215024   1.591   1.831   5.678
 4709SOL     OW15025   4.798   5.338   5.208
 4709SOL    HW115026   4.804   5.390   5.123
 4709SOL    HW215027   4.704   5.309   5.223
 4710SOL     OW15028   5.125   6.952   6.247
 4710SOL    HW115029   5.088   6.994   6.164
 4710SOL    HW215030   5.219   6.982   6.261
 4711SOL     OW15031   6.295   1.378   1.931
 4711SOL    HW115032   6.202   1.413   1.920
 4711SOL    HW215033   6.354   1.416   1.859
 4712SOL     OW15034   3.402   4.878   6.739
 4712SOL    HW115035   3.375   4.783   6.756
 4712SOL    HW215036   3.448   4.885   6.650
 4713SOL     OW15037   3.888   5.217   1.153
 4713SOL    HW115038   3.846   5.257   1.072
 4713SOL    HW215039   3.964   5.275   1.182
 4714SOL     OW15040   0.401   1.327   6.258
 4714SOL    HW115041   0.368   1.250   6.203
 4714SOL    HW215042   0.376   1.413   6.215
 4715SOL     OW15043   5.811   3.117   1.535
 4715SOL    HW115044   5.894   3.068   1.506
 4715SOL    HW215045   5.832   3.213   1.548
 4716SOL     OW15046   4.204   6.351   5.301
 4716SOL    HW115047   4.301   6.331   5.287
 4716SOL    HW215048   4.190   6.383   5.394
 4717SOL     OW15049   0.866   5.877   4.964
 4717SOL    HW115050   0.958   5.856   4.996
 4717SOL    HW215051   0.849   5.975   4.974
 4718SOL     OW15052   5.278   2.228   0.992
 4718SOL    HW115053   5.280   2.307   1.053
 4718SOL    HW215054   5.335   2.156   1.030
 4719SOL     OW15055   5.001   3.623   2.197
 4719SOL    HW115056   4.961   3.587   2.281
 4719SOL    HW215057   4.960   3.577   2.118
 4720SOL     OW15058   1.901   5.222   5.986
 4720SOL    HW115059   1.937   5.183   5.901
 4720SOL    HW215060   1.874   5.317   5.970
 4721SOL     OW15061   6.504   1.977   1.507
 4721SOL    HW115062   6.511   2.073   1.480
 4721SOL    HW215063   6.591   1.931   1.489
 4722SOL     OW15064   1.131   6.217   6.659
 4722SOL    HW115065   1.141   6.123   6.693
 4722SOL    HW215066   1.084   6.272   6.728
 4723SOL     OW15067   2.866   3.434   5.241
 4723SOL    HW115068   2.778   3.443   5.289
 4723SOL    HW215069   2.939   3.420   5.308
 4724SOL     OW15070   0.114   0.084   4.343
 4724SOL    HW115071   0.111   0.164   4.403
 4724SOL    HW215072   0.190   0.025   4.371
 4725SOL     OW15073   6.658   4.781   0.312
 4725SOL    HW115074   6.581   4.723   0.283
 4725SOL    HW215075   6.634   4.830   0.396
 4726SOL     OW15076   1.482   3.314   6.163
 4726SOL    HW115077   1.425   3.345   6.087
 4726SOL    HW215078   1.563   3.372   6.169
 4727SOL     OW15079   0.440   6.387   1.351
 4727SOL    HW115080   0.472   6.292   1.345
 4727SOL    HW215081   0.427   6.411   1.447
 4728SOL     OW15082   6.485   0.615   2.815
 4728SOL    HW115083   6.462   0.698   2.865
 4728SOL    HW215084   6.541   0.638   2.736
 4729SOL     OW15085   4.839   0.843   0.136
 4729SOL    HW115086   4.780   0.766   0.111
 4729SOL    HW215087   4.797   0.894   0.211
 4730SOL     OW15088   3.107   5.957   5.242
 4730SOL    HW115089   3.102   5.901   5.159
 4730SOL    HW215090   3.194   6.006   5.244
 4731SOL     OW15091   3.089   0.983   0.714
 4731SOL    HW115092   3.063   1.063   0.660
 4731SOL    HW215093   3.053   0.993   0.807
 4732SOL     OW15094   0.628   3.181   5.289
 4732SOL    HW115095   0.713   3.132   5.268
 4732SOL    HW215096   0.579   3.200   5.204
 4733SOL     OW15097   1.409   3.677   3.889
 4733SOL    HW115098   1.426   3.680   3.791
 4733SOL    HW215099   1.344   3.749   3.913
 4734SOL     OW15100   4.612   3.018   0.410
 4734SOL    HW115101   4.566   3.063   0.486
 4734SOL    HW215102   4.557   3.026   0.328
 4735SOL     OW15103   6.851   5.785   4.186
 4735SOL    HW115104   6.770   5.737   4.153
 4735SOL    HW215105   6.828   5.840   4.266
 4736SOL     OW15106   5.332   1.934   5.975
 4736SOL    HW115107   5.305   1.887   5.891
 4736SOL    HW215108   5.393   1.876   6.028
 4737SOL     OW15109   2.566   4.312   0.650
 4737SOL    HW115110   2.595   4.284   0.741
 4737SOL    HW215111   2.493   4.252   0.618
 4738SOL     OW15112   3.024   6.123   3.374
 4738SOL    HW115113   3.017   6.024   3.380
 4738SOL    HW215114   2.999   6.152   3.282
 4739SOL     OW15115   5.107   1.340   3.004
 4739SOL    HW115116   5.080   1.256   3.050
 4739SOL    HW215117   5.207   1.346   3.002
 4740SOL     OW15118   0.181   0.385   0.826
 4740SOL    HW115119   0.126   0.453   0.873
 4740SOL    HW215120   0.277   0.415   0.822
 4741SOL     OW15121   4.571   3.300   1.323
 4741SOL    HW115122   4.515   3.375   1.359
 4741SOL    HW215123   4.554   3.217   1.376
 4742SOL     OW15124   2.445   6.858   1.491
 4742SOL    HW115125   2.440   6.919   1.412
 4742SOL    HW215126   2.516   6.789   1.476
 4743SOL     OW15127   1.577   2.723   5.338
 4743SOL    HW115128   1.527   2.808   5.357
 4743SOL    HW215129   1.519   2.660   5.287
 4744SOL     OW15130   2.558   3.688   5.778
 4744SOL    HW115131   2.559   3.763   5.844
 4744SOL    HW215132   2.651   3.674   5.743
 4745SOL     OW15133   2.181   5.291   5.506
 4745SOL    HW115134   2.170   5.224   5.432
 4745SOL    HW215135   2.267   5.339   5.494
 4746SOL     OW15136   6.067   5.967   2.375
 4746SOL    HW115137   5.995   5.899   2.390
 4746SOL    HW215138   6.151   5.936   2.420
 4747SOL     OW15139   1.462   3.958   6.912
 4747SOL    HW115140   1.553   3.979   6.949
 4747SOL    HW215141   1.395   3.956   6.987
 4748SOL     OW15142   1.625   5.266   0.590
 4748SOL    HW115143   1.655   5.350   0.545
 4748SOL    HW215144   1.538   5.236   0.550
 4749SOL     OW15145   2.768   6.044   5.328
 4749SOL    HW115146   2.706   6.121   5.315
 4749SOL    HW215147   2.842   6.070   5.390
 4750SOL     OW15148   0.324   3.214   4.314
 4750SOL    HW115149   0.418   3.189   4.340
 4750SOL    HW215150   0.281   3.265   4.389
 4751SOL     OW15151   2.372   2.713   0.394
 4751SOL    HW115152   2.449   2.709   0.331
 4751SOL    HW215153   2.393   2.658   0.475
 4752SOL     OW15154   2.829   0.324   0.057
 4752SOL    HW115155   2.825   0.276   0.145
 4752SOL    HW215156   2.761   0.397   0.056
 4753SOL     OW15157   5.742   0.262   4.313
 4753SOL    HW115158   5.722   0.335   4.379
 4753SOL    HW215159   5.805   0.197   4.355
 4754SOL     OW15160   5.943   0.408   5.324
 4754SOL    HW115161   6.027   0.371   5.363
 4754SOL    HW215162   5.909   0.482   5.382
 4755SOL     OW15163   2.966   0.549   0.720
 4755SOL    HW115164   3.020   0.607   0.659
 4755SOL    HW215165   2.886   0.515   0.671
 4756SOL     OW15166   5.809   2.796   1.231
 4756SOL    HW115167   5.839   2.710   1.273
 4756SOL    HW215168   5.769   2.855   1.301
 4757SOL     OW15169   1.519   2.335   2.023
 4757SOL    HW115170   1.579   2.318   2.101
 4757SOL    HW215171   1.475   2.424   2.034
 4758SOL     OW15172   3.049   6.133   4.656
 4758SOL    HW115173   2.962   6.156   4.700
 4758SOL    HW215174   3.032   6.081   4.572
 4759SOL     OW15175   5.817   5.444   4.469
 4759SOL    HW115176   5.886   5.419   4.537
 4759SOL    HW215177   5.737   5.385   4.480
 4760SOL     OW15178   3.577   2.013   0.905
 4760SOL    HW115179   3.538   2.044   0.818
 4760SOL    HW215180   3.519   1.943   0.945
 4761SOL     OW15181   0.717   6.584   6.348
 4761SOL    HW115182   0.686   6.493   6.375
 4761SOL    HW215183   0.652   6.652   6.379
 4762SOL     OW15184   2.163   5.226   3.029
 4762SOL    HW115185   2.182   5.294   3.099
 4762SOL    HW215186   2.200   5.256   2.942
 4763SOL     OW15187   5.825   6.183   3.536
 4763SOL    HW115188   5.890   6.228   3.474
 4763SOL    HW215189   5.866   6.098   3.571
 4764SOL     OW15190   5.067   4.168   5.442
 4764SOL    HW115191   5.132   4.244   5.451
 4764SOL    HW215192   5.116   4.087   5.411
 4765SOL     OW15193   5.262   0.392   4.620
 4765SOL    HW115194   5.218   0.311   4.581
 4765SOL    HW215195   5.293   0.452   4.545
 4766SOL     OW15196   4.553   0.164   3.795
 4766SOL    HW115197   4.469   0.215   3.817
 4766SOL    HW215198   4.611   0.219   3.736
 4767SOL     OW15199   3.903   5.472   6.056
 4767SOL    HW115200   3.826   5.491   6.116
 4767SOL    HW215201   3.888   5.515   5.967
 4768SOL     OW15202   4.226   1.828   4.945
 4768SOL    HW115203   4.133   1.839   4.980
 4768SOL    HW215204   4.240   1.890   4.868
 4769SOL     OW15205   4.723   4.767   0.467
 4769SOL    HW115206   4.746   4.849   0.415
 4769SOL    HW215207   4.756   4.777   0.561
 4770SOL     OW15208   1.054   0.289   4.260
 4770SOL    HW115209   1.057   0.219   4.189
 4770SOL    HW215210   1.130   0.353   4.246
 4771SOL     OW15211   3.389   5.380   5.489
 4771SOL    HW115212   3.303   5.413   5.527
 4771SOL    HW215213   3.454   5.456   5.484
 4772SOL     OW15214   2.811   5.166   1.677
 4772SOL    HW115215   2.776   5.078   1.710
 4772SOL    HW215216   2.891   5.193   1.732
 4773SOL     OW15217   6.447   5.455   4.737
 4773SOL    HW115218   6.359   5.496   4.759
 4773SOL    HW215219   6.474   5.481   4.644
 4774SOL     OW15220   1.207   2.765   1.911
 4774SOL    HW115221   1.273   2.775   1.836
 4774SOL    HW215222   1.139   2.696   1.886
 4775SOL     OW15223   5.260   6.758   2.517
 4775SOL    HW115224   5.218   6.738   2.606
 4775SOL    HW215225   5.331   6.690   2.498
 4776SOL     OW15226   1.173   6.481   4.499
 4776SOL    HW115227   1.239   6.427   4.552
 4776SOL    HW215228   1.115   6.420   4.446
 4777SOL     OW15229   2.869   4.640   1.531
 4777SOL    HW115230   2.836   4.569   1.469
 4777SOL    HW215231   2.797   4.667   1.594
 4778SOL     OW15232   5.630   2.371   2.333
 4778SOL    HW115233   5.703   2.422   2.378
 4778SOL    HW215234   5.575   2.323   2.401
 4779SOL     OW15235   6.841   6.490   2.418
 4779SOL    HW115236   6.903   6.515   2.493
 4779SOL    HW215237   6.821   6.572   2.364
 4780SOL     OW15238   6.966   0.583   0.396
 4780SOL    HW115239   6.904   0.660   0.405
 4780SOL    HW215240   0.038   0.612   0.416
 4781SOL     OW15241   2.984   6.525   2.082
 4781SOL    HW115242   2.942   6.595   2.024
 4781SOL    HW215243   3.075   6.502   2.046
 4782SOL     OW15244   4.538   6.131   0.201
 4782SOL    HW115245   4.593   6.051   0.177
 4782SOL    HW215246   4.442   6.111   0.184
 4783SOL     OW15247   4.548   4.518   6.689
 4783SOL    HW115248   4.623   4.513   6.755
 4783SOL    HW215249   4.546   4.609   6.647
 4784SOL     OW15250   6.358   4.161   6.380
 4784SOL    HW115251   6.312   4.152   6.292
 4784SOL    HW215252   6.331   4.248   6.423
 4785SOL     OW15253   6.000   5.566   1.705
 4785SOL    HW115254   6.074   5.570   1.638
 4785SOL    HW215255   5.932   5.499   1.677
 4786SOL     OW15256   2.571   2.500   1.514
 4786SOL    HW115257   2.491   2.446   1.542
 4786SOL    HW215258   2.636   2.504   1.590
 4787SOL     OW15259   3.258   2.109   3.398
 4787SOL    HW115260   3.242   2.017   3.431
 4787SOL    HW215261   3.285   2.106   3.302
 4788SOL     OW15262   1.038   4.940   5.965
 4788SOL    HW115263   0.951   4.948   5.915
 4788SOL    HW215264   1.075   5.032   5.982
 4789SOL     OW15265   6.014   0.945   6.991
 4789SOL    HW115266   5.963   0.880   6.936
 4789SOL    HW215267   6.031   1.028   6.938
 4790SOL     OW15268   0.374   2.795   5.939
 4790SOL    HW115269   0.460   2.843   5.956
 4790SOL    HW215270   0.388   2.697   5.948
 4791SOL     OW15271   6.516   1.827   1.024
 4791SOL    HW115272   6.484   1.907   1.075
 4791SOL    HW215273   6.517   1.748   1.085
 4792SOL     OW15274   2.044   3.230   2.851
 4792SOL    HW115275   2.101   3.306   2.821
 4792SOL    HW215276   1.984   3.201   2.777
 4793SOL     OW15277   1.896   2.908   5.865
 4793SOL    HW115278   1.848   2.821   5.872
 4793SOL    HW215279   1.913   2.945   5.956
 4794SOL     OW15280   4.659   0.506   3.063
 4794SOL    HW115281   4.674   0.500   3.161
 4794SOL    HW215282   4.722   0.574   3.024
 4795SOL     OW15283   6.706   1.719   2.875
 4795SOL    HW115284   6.663   1.736   2.964
 4795SOL    HW215285   6.803   1.743   2.881
 4796SOL     OW15286   5.130   1.997   6.639
 4796SOL    HW115287   5.055   2.032   6.583
 4796SOL    HW215288   5.129   2.043   6.728
 4797SOL     OW15289   1.770   6.335   5.599
 4797SOL    HW115290   1.813   6.311   5.512
 4797SOL    HW215291   1.802   6.272   5.670
 4798SOL     OW15292   0.115   2.413   5.048
 4798SOL    HW115293   0.079   2.495   5.092
 4798SOL    HW215294   0.041   2.362   5.005
 4799SOL     OW15295   4.758   2.403   6.515
 4799SOL    HW115296   4.766   2.362   6.606
 4799SOL    HW215297   4.774   2.501   6.521
 4800SOL     OW15298   2.386   3.451   5.767
 4800SOL    HW115299   2.405   3.378   5.833
 4800SOL    HW215300   2.469   3.506   5.754
 4801SOL     OW15301   2.611   2.214   1.302
 4801SOL    HW115302   2.664   2.185   1.222
 4801SOL    HW215303   2.644   2.303   1.333
 4802SOL     OW15304   1.289   6.368   2.213
 4802SOL    HW115305   1.361   6.308   2.178
 4802SOL    HW215306   1.303   6.384   2.311
 4803SOL     OW15307   1.424   6.066   0.950
 4803SOL    HW115308   1.375   6.113   1.023
 4803SOL    HW215309   1.363   6.049   0.873
 4804SOL     OW15310   5.044   5.660   6.486
 4804SOL    HW115311   4.983   5.703   6.420
 4804SOL    HW215312   5.122   5.620   6.438
 4805SOL     OW15313   5.787   0.386   1.201
 4805SOL    HW115314   5.828   0.329   1.130
 4805SOL    HW215315   5.762   0.475   1.163
 4806SOL     OW15316   0.965   4.785   2.775
 4806SOL    HW115317   0.921   4.713   2.830
 4806SOL    HW215318   1.055   4.806   2.815
 4807SOL     OW15319   1.209   4.924   0.194
 4807SOL    HW115320   1.219   4.871   0.279
 4807SOL    HW215321   1.185   5.018   0.216
 4808SOL     OW15322   6.175   3.907   6.660
 4808SOL    HW115323   6.264   3.864   6.646
 4808SOL    HW215324   6.176   3.962   6.743
 4809SOL     OW15325   3.601   4.172   0.059
 4809SOL    HW115326   3.588   4.227   6.997
 4809SOL    HW215327   3.539   4.205   0.130
 4810SOL     OW15328   0.977   5.128   2.060
 4810SOL    HW115329   1.009   5.215   2.096
 4810SOL    HW215330   0.990   5.056   2.128
 4811SOL     OW15331   1.806   4.599   2.230
 4811SOL    HW115332   1.846   4.563   2.146
 4811SOL    HW215333   1.741   4.533   2.268
 4812SOL     OW15334   6.906   5.053   4.973
 4812SOL    HW115335   6.924   5.094   5.062
 4812SOL    HW215336   6.920   4.954   4.979
 4813SOL     OW15337   5.697   1.894   0.516
 4813SOL    HW115338   5.770   1.861   0.456
 4813SOL    HW215339   5.723   1.878   0.611
 4814SOL     OW15340   5.872   4.006   0.791
 4814SOL    HW115341   5.847   3.930   0.731
 4814SOL    HW215342   5.809   4.008   0.869
 4815SOL     OW15343   5.950   4.493   3.259
 4815SOL    HW115344   6.026   4.506   3.322
 4815SOL    HW215345   5.910   4.582   3.236
 4816SOL     OW15346   0.409   5.367   1.791
 4816SOL    HW115347   0.447   5.410   1.710
 4816SOL    HW215348   0.403   5.434   1.865
 4817SOL     OW15349   1.453   2.498   6.425
 4817SOL    HW115350   1.358   2.468   6.429
 4817SOL    HW215351   1.495   2.488   6.516
 4818SOL     OW15352   1.239   0.570   5.054
 4818SOL    HW115353   1.306   0.505   5.018
 4818SOL    HW215354   1.282   0.660   5.062
 4819SOL     OW15355   1.011   2.350   6.836
 4819SOL    HW115356   0.994   2.343   6.738
 4819SOL    HW215357   1.083   2.418   6.853
 4820SOL     OW15358   6.686   2.553   0.951
 4820SOL    HW115359   6.617   2.606   1.000
 4820SOL    HW215360   6.769   2.608   0.939
 4821SOL     OW15361   1.381   6.378   2.475
 4821SOL    HW115362   1.353   6.403   2.568
 4821SOL    HW215363   1.462   6.319   2.479
 4822SOL     OW15364   1.650   3.115   4.742
 4822SOL    HW115365   1.687   3.023   4.753
 4822SOL    HW215366   1.623   3.129   4.647
 4823SOL     OW15367   1.563   1.235   3.968
 4823SOL    HW115368   1.539   1.315   3.913
 4823SOL    HW215369   1.480   1.188   3.996
 4824SOL     OW15370   4.507   2.165   4.911
 4824SOL    HW115371   4.441   2.115   4.854
 4824SOL    HW215372   4.520   2.256   4.872
 4825SOL     OW15373   1.401   2.646   4.513
 4825SOL    HW115374   1.403   2.669   4.416
 4825SOL    HW215375   1.474   2.582   4.534
 4826SOL     OW15376   5.456   0.498   0.146
 4826SOL    HW115377   5.398   0.418   0.135
 4826SOL    HW215378   5.401   0.576   0.178
 4827SOL     OW15379   6.530   1.613   0.463
 4827SOL    HW115380   6.502   1.553   0.387
 4827SOL    HW215381   6.536   1.707   0.431
 4828SOL     OW15382   5.114   1.082   0.621
 4828SOL    HW115383   5.148   1.138   0.696
 4828SOL    HW215384   5.023   1.114   0.594
 4829SOL     OW15385   3.101   0.227   5.821
 4829SOL    HW115386   3.101   0.297   5.891
 4829SOL    HW215387   3.154   0.259   5.742
 4830SOL     OW15388   3.772   5.753   4.231
 4830SOL    HW115389   3.694   5.782   4.174
 4830SOL    HW215390   3.780   5.653   4.226
 4831SOL     OW15391   1.645   4.369   5.619
 4831SOL    HW115392   1.736   4.389   5.582
 4831SOL    HW215393   1.602   4.455   5.649
 4832SOL     OW15394   3.569   4.126   3.651
 4832SOL    HW115395   3.498   4.072   3.606
 4832SOL    HW215396   3.529   4.209   3.689
 4833SOL     OW15397   6.082   1.575   3.060
 4833SOL    HW115398   6.005   1.525   3.099
 4833SOL    HW215399   6.049   1.650   3.003
 4834SOL     OW15400   2.779   5.759   2.023
 4834SOL    HW115401   2.824   5.700   2.090
 4834SOL    HW215402   2.842   5.830   1.993
 4835SOL     OW15403   5.855   2.947   5.512
 4835SOL    HW115404   5.893   2.902   5.594
 4835SOL    HW215405   5.762   2.977   5.531
 4836SOL     OW15406   5.119   1.694   4.980
 4836SOL    HW115407   5.163   1.757   5.043
 4836SOL    HW215408   5.186   1.630   4.943
 4837SOL     OW15409   0.003   3.194   3.058
 4837SOL    HW115410   7.000   3.271   2.999
 4837SOL    HW215411   0.074   3.139   3.015
 4838SOL     OW15412   2.359   6.166   0.525
 4838SOL    HW115413   2.416   6.209   0.595
 4838SOL    HW215414   2.336   6.234   0.455
 4839SOL     OW15415   0.899   3.520   6.951
 4839SOL    HW115416   0.874   3.432   6.991
 4839SOL    HW215417   0.876   3.520   6.853
 4840SOL     OW15418   6.495   4.637   5.895
 4840SOL    HW115419   6.565   4.597   5.836
 4840SOL    HW215420   6.535   4.658   5.984
 4841SOL     OW15421   2.517   4.967   3.111
 4841SOL    HW115422   2.514   4.902   3.035
 4841SOL    HW215423   2.457   4.935   3.185
 4842SOL     OW15424   2.678   4.985   3.397
 4842SOL    HW115425   2.625   4.985   3.312
 4842SOL    HW215426   2.695   4.891   3.426
 4843SOL     OW15427   6.488   2.632   1.663
 4843SOL    HW115428   6.451   2.685   1.740
 4843SOL    HW215429   6.467   2.535   1.676
 4844SOL     OW15430   0.381   4.233   5.625
 4844SOL    HW115431   0.431   4.186   5.698
 4844SOL    HW215432   0.322   4.168   5.578
 4845SOL     OW15433   4.783   5.079   6.499
 4845SOL    HW115434   4.705   5.071   6.436
 4845SOL    HW215435   4.852   5.140   6.460
 4846SOL     OW15436   0.335   2.055   3.578
 4846SOL    HW115437   0.389   2.125   3.531
 4846SOL    HW215438   0.239   2.064   3.552
 4847SOL     OW15439   2.309   1.571   5.900
 4847SOL    HW115440   2.371   1.503   5.939
 4847SOL    HW215441   2.354   1.660   5.896
 4848SOL     OW15442   2.694   0.989   4.908
 4848SOL    HW115443   2.678   1.076   4.954
 4848SOL    HW215444   2.759   0.934   4.961
 4849SOL     OW15445   1.681   5.684   1.341
 4849SOL    HW115446   1.689   5.624   1.421
 4849SOL    HW215447   1.585   5.689   1.314
 4850SOL     OW15448   5.047   0.951   1.490
 4850SOL    HW115449   5.133   0.911   1.456
 4850SOL    HW215450   4.971   0.922   1.431
 4851SOL     OW15451   2.914   5.569   5.805
 4851SOL    HW115452   2.968   5.626   5.866
 4851SOL    HW215453   2.974   5.521   5.741
 4852SOL     OW15454   2.513   5.891   5.058
 4852SOL    HW115455   2.484   5.826   4.988
 4852SOL    HW215456   2.511   5.984   5.020
 4853SOL     OW15457   3.755   1.234   3.278
 4853SOL    HW115458   3.680   1.287   3.236
 4853SOL    HW215459   3.835   1.293   3.290
 4854SOL     OW15460   5.158   0.406   2.418
 4854SOL    HW115461   5.224   0.413   2.493
 4854SOL    HW215462   5.199   0.440   2.334
 4855SOL     OW15463   6.165   3.491   5.345
 4855SOL    HW115464   6.160   3.400   5.305
 4855SOL    HW215465   6.174   3.484   5.444
 4856SOL     OW15466   1.567   2.959   2.749
 4856SOL    HW115467   1.645   2.928   2.694
 4856SOL    HW215468   1.601   3.011   2.827
 4857SOL     OW15469   2.957   2.076   3.542
 4857SOL    HW115470   3.004   2.093   3.629
 4857SOL    HW215471   2.969   2.155   3.482
 4858SOL     OW15472   6.931   6.509   5.046
 4858SOL    HW115473   6.879   6.434   5.006
 4858SOL    HW215474   6.889   6.596   5.021
 4859SOL     OW15475   0.343   4.857   1.552
 4859SOL    HW115476   0.443   4.867   1.561
 4859SOL    HW215477   0.310   4.921   1.483
 4860SOL     OW15478   4.416   4.789   0.091
 4860SOL    HW115479   4.349   4.839   0.037
 4860SOL    HW215480   4.371   4.716   0.142
 4861SOL     OW15481   5.988   5.395   6.614
 4861SOL    HW115482   5.902   5.344   6.608
 4861SOL    HW215483   5.999   5.433   6.705
 4862SOL     OW15484   2.533   4.480   5.137
 4862SOL    HW115485   2.513   4.508   5.043
 4862SOL    HW215486   2.537   4.560   5.196
 4863SOL     OW15487   4.831   3.038   2.666
 4863SOL    HW115488   4.782   2.953   2.686
 4863SOL    HW215489   4.851   3.043   2.568
 4864SOL     OW15490   3.731   1.664   1.828
 4864SOL    HW115491   3.771   1.637   1.915
 4864SOL    HW215492   3.631   1.663   1.835
 4865SOL     OW15493   2.450   5.751   4.823
 4865SOL    HW115494   2.511   5.801   4.761
 4865SOL    HW215495   2.355   5.763   4.794
 4866SOL     OW15496   5.916   4.292   1.083
 4866SOL    HW115497   5.879   4.363   1.022
 4866SOL    HW215498   5.964   4.224   1.028
 4867SOL     OW15499   4.527   5.733   3.534
 4867SOL    HW115500   4.613   5.738   3.483
 4867SOL    HW215501   4.516   5.641   3.573
 4868SOL     OW15502   7.018   5.037   1.747
 4868SOL    HW115503   6.961   4.976   1.691
 4868SOL    HW215504   6.986   5.131   1.737
 4869SOL     OW15505   0.175   2.652   0.930
 4869SOL    HW115506   0.274   2.653   0.911
 4869SOL    HW215507   0.151   2.730   0.987
 4870SOL     OW15508   4.995   5.196   1.890
 4870SOL    HW115509   4.929   5.151   1.949
 4870SOL    HW215510   4.964   5.193   1.795
 4871SOL     OW15511   0.119   1.038   4.291
 4871SOL    HW115512   0.203   0.984   4.297
 4871SOL    HW215513   0.140   1.134   4.307
 4872SOL     OW15514   0.800   6.142   4.073
 4872SOL    HW115515   0.812   6.233   4.111
 4872SOL    HW215516   0.867   6.079   4.114
 4873SOL     OW15517   0.231   5.032   3.827
 4873SOL    HW115518   0.213   5.086   3.909
 4873SOL    HW215519   0.212   4.936   3.846
 4874SOL     OW15520   5.672   3.837   2.789
 4874SOL    HW115521   5.711   3.839   2.881
 4874SOL    HW215522   5.663   3.931   2.755
 4875SOL     OW15523   5.344   2.487   1.128
 4875SOL    HW115524   5.258   2.510   1.174
 4875SOL    HW215525   5.398   2.427   1.187
 4876SOL     OW15526   6.242   0.296   4.531
 4876SOL    HW115527   6.315   0.311   4.464
 4876SOL    HW215528   6.263   0.348   4.614
 4877SOL     OW15529   6.693   1.475   0.848
 4877SOL    HW115530   6.739   1.555   0.887
 4877SOL    HW215531   6.687   1.485   0.749
 4878SOL     OW15532   5.987   1.805   2.279
 4878SOL    HW115533   5.933   1.742   2.222
 4878SOL    HW215534   5.997   1.892   2.231
 4879SOL     OW15535   4.355   5.157   3.470
 4879SOL    HW115536   4.319   5.093   3.538
 4879SOL    HW215537   4.443   5.193   3.502
 4880SOL     OW15538   5.367   3.080   6.534
 4880SOL    HW115539   5.426   3.025   6.592
 4880SOL    HW215540   5.283   3.030   6.513
 4881SOL     OW15541   2.358   5.915   0.340
 4881SOL    HW115542   2.379   6.002   0.385
 4881SOL    HW215543   2.263   5.889   0.360
 4882SOL     OW15544   6.194   1.421   4.805
 4882SOL    HW115545   6.272   1.482   4.790
 4882SOL    HW215546   6.225   1.326   4.798
 4883SOL     OW15547   5.266   4.672   2.391
 4883SOL    HW115548   5.282   4.770   2.389
 4883SOL    HW215549   5.339   4.625   2.342
 4884SOL     OW15550   4.263   6.953   0.554
 4884SOL    HW115551   4.303   7.020   0.491
 4884SOL    HW215552   4.256   6.865   0.507
 4885SOL     OW15553   2.781   6.256   2.573
 4885SOL    HW115554   2.742   6.185   2.631
 4885SOL    HW215555   2.810   6.334   2.629
 4886SOL     OW15556   0.222   5.577   6.086
 4886SOL    HW115557   0.139   5.629   6.064
 4886SOL    HW215558   0.239   5.581   6.184
 4887SOL     OW15559   0.284   1.716   2.559
 4887SOL    HW115560   0.349   1.676   2.494
 4887SOL    HW215561   0.192   1.686   2.537
 4888SOL     OW15562   2.188   6.256   4.013
 4888SOL    HW115563   2.194   6.353   3.989
 4888SOL    HW215564   2.280   6.217   4.019
 4889SOL     OW15565   0.222   1.781   6.786
 4889SOL    HW115566   0.281   1.735   6.853
 4889SOL    HW215567   0.275   1.802   6.704
 4890SOL     OW15568   0.495   2.026   4.947
 4890SOL    HW115569   0.439   2.097   4.989
 4890SOL    HW215570   0.502   1.948   5.008
 4891SOL     OW15571   1.343   5.718   6.872
 4891SOL    HW115572   1.397   5.753   6.795
 4891SOL    HW215573   1.351   5.780   6.950
 4892SOL     OW15574   2.548   5.796   2.202
 4892SOL    HW115575   2.554   5.701   2.170
 4892SOL    HW215576   2.632   5.844   2.178
 4893SOL     OW15577   6.249   4.661   6.508
 4893SOL    HW115578   6.206   4.663   6.598
 4893SOL    HW215579   6.253   4.754   6.471
 4894SOL     OW15580   2.647   0.679   1.894
 4894SOL    HW115581   2.677   0.691   1.989
 4894SOL    HW215582   2.640   0.768   1.850
 4895SOL     OW15583   0.042   4.676   1.225
 4895SOL    HW115584   0.115   4.743   1.240
 4895SOL    HW215585   0.030   4.620   1.307
 4896SOL     OW15586   2.715   5.418   2.831
 4896SOL    HW115587   2.754   5.505   2.803
 4896SOL    HW215588   2.722   5.352   2.756
 4897SOL     OW15589   2.783   5.276   6.383
 4897SOL    HW115590   2.868   5.232   6.355
 4897SOL    HW215591   2.757   5.344   6.315
 4898SOL     OW15592   5.940   1.485   5.072
 4898SOL    HW115593   5.941   1.474   4.973
 4898SOL    HW215594   5.991   1.410   5.114
 4899SOL     OW15595   6.491   4.450   2.553
 4899SOL    HW115596   6.450   4.531   2.597
 4899SOL    HW215597   6.580   4.474   2.515
 4900SOL     OW15598   1.885   6.064   5.271
 4900SOL    HW115599   1.945   5.985   5.278
 4900SOL    HW215600   1.924   6.141   5.322
 4901SOL     OW15601   2.176   6.802   5.070
 4901SOL    HW115602   2.150   6.890   5.111
 4901SOL    HW215603   2.094   6.754   5.039
 4902SOL     OW15604   2.270   2.253   4.290
 4902SOL    HW115605   2.183   2.303   4.289
 4902SOL    HW215606   2.253   2.155   4.285
 4903SOL     OW15607   3.217   6.627   6.963
 4903SOL    HW115608   3.140   6.580   7.005
 4903SOL    HW215609   3.285   6.561   6.933
 4904SOL     OW15610   1.731   0.369   3.833
 4904SOL    HW115611   1.717   0.383   3.734
 4904SOL    HW215612   1.662   0.420   3.884
 4905SOL     OW15613   4.197   2.274   2.565
 4905SOL    HW115614   4.146   2.198   2.523
 4905SOL    HW215615   4.207   2.257   2.663
 4906SOL     OW15616   3.486   1.046   6.495
 4906SOL    HW115617   3.463   1.143   6.497
 4906SOL    HW215618   3.528   1.022   6.408
 4907SOL     OW15619   4.241   5.836   2.754
 4907SOL    HW115620   4.183   5.898   2.806
 4907SOL    HW215621   4.250   5.871   2.660
 4908SOL     OW15622   3.763   5.194   6.930
 4908SOL    HW115623   3.727   5.288   6.933
 4908SOL    HW215624   3.746   5.148   7.017
 4909SOL     OW15625   6.360   6.819   6.467
 4909SOL    HW115626   6.340   6.909   6.507
 4909SOL    HW215627   6.450   6.788   6.500
 4910SOL     OW15628   5.646   0.098   5.160
 4910SOL    HW115629   5.660   0.029   5.090
 4910SOL    HW215630   5.555   0.088   5.200
 4911SOL     OW15631   6.698   2.630   6.007
 4911SOL    HW115632   6.771   2.594   6.065
 4911SOL    HW215633   6.733   2.709   5.956
 4912SOL     OW15634   5.343   1.714   1.074
 4912SOL    HW115635   5.314   1.800   1.116
 4912SOL    HW215636   5.306   1.707   0.982
 4913SOL     OW15637   3.703   3.707   3.665
 4913SOL    HW115638   3.763   3.709   3.585
 4913SOL    HW215639   3.633   3.637   3.652
 4914SOL     OW15640   3.832   0.967   4.820
 4914SOL    HW115641   3.794   1.051   4.782
 4914SOL    HW215642   3.783   0.888   4.782
 4915SOL     OW15643   4.739   0.744   4.718
 4915SOL    HW115644   4.773   0.655   4.687
 4915SOL    HW215645   4.774   0.763   4.809
 4916SOL     OW15646   1.744   1.645   3.038
 4916SOL    HW115647   1.789   1.563   3.073
 4916SOL    HW215648   1.787   1.674   2.953
 4917SOL     OW15649   1.739   3.742   0.373
 4917SOL    HW115650   1.787   3.829   0.381
 4917SOL    HW215651   1.805   3.668   0.360
 4918SOL     OW15652   3.205   0.176   2.768
 4918SOL    HW115653   3.249   0.159   2.680
 4918SOL    HW215654   3.128   0.239   2.754
 4919SOL     OW15655   2.488   2.142   1.702
 4919SOL    HW115656   2.494   2.056   1.754
 4919SOL    HW215657   2.576   2.189   1.706
 4920SOL     OW15658   3.995   0.422   6.830
 4920SOL    HW115659   3.991   0.336   6.780
 4920SOL    HW215660   4.027   0.405   6.923
 4921SOL     OW15661   2.143   4.147   1.502
 4921SOL    HW115662   2.234   4.186   1.489
 4921SOL    HW215663   2.102   4.185   1.584
 4922SOL     OW15664   0.986   3.369   5.045
 4922SOL    HW115665   1.079   3.352   5.077
 4922SOL    HW215666   0.982   3.459   5.000
 4923SOL     OW15667   4.580   0.705   1.256
 4923SOL    HW115668   4.557   0.745   1.344
 4923SOL    HW215669   4.519   0.628   1.238
 4924SOL     OW15670   2.113   2.965   5.708
 4924SOL    HW115671   2.083   3.053   5.671
 4924SOL    HW215672   2.042   2.929   5.769
 4925SOL     OW15673   6.587   6.264   0.618
 4925SOL    HW115674   6.661   6.330   0.605
 4925SOL    HW215675   6.530   6.292   0.695
 4926SOL     OW15676   5.366   2.965   1.638
 4926SOL    HW115677   5.308   2.908   1.697
 4926SOL    HW215678   5.318   2.986   1.553
 4927SOL     OW15679   4.066   3.368   3.893
 4927SOL    HW115680   4.044   3.282   3.939
 4927SOL    HW215681   4.096   3.435   3.961
 4928SOL     OW15682   0.475   6.978   6.625
 4928SOL    HW115683   0.537   6.948   6.552
 4928SOL    HW215684   0.399   0.007   6.586
 4929SOL     OW15685   1.141   4.307   5.333
 4929SOL    HW115686   1.096   4.259   5.258
 4929SOL    HW215687   1.231   4.266   5.350
 4930SOL     OW15688   6.416   0.273   1.407
 4930SOL    HW115689   6.365   0.351   1.444
 4930SOL    HW215690   6.508   0.302   1.382
 4931SOL     OW15691   0.955   6.600   0.742
 4931SOL    HW115692   1.039   6.652   0.725
 4931SOL    HW215693   0.975   6.502   0.734
 4932SOL     OW15694   2.314   3.251   1.630
 4932SOL    HW115695   2.399   3.297   1.603
 4932SOL    HW215696   2.284   3.286   1.718
 4933SOL     OW15697   2.466   0.488   4.378
 4933SOL    HW115698   2.504   0.500   4.286
 4933SOL    HW215699   2.486   0.570   4.433
 4934SOL     OW15700   1.223   5.150   4.072
 4934SOL    HW115701   1.199   5.160   4.168
 4934SOL    HW215702   1.322   5.143   4.063
 4935SOL     OW15703   1.259   0.839   0.034
 4935SOL    HW115704   1.350   0.869   0.061
 4935SOL    HW215705   1.199   0.919   0.027
 4936SOL     OW15706   1.897   5.458   2.009
 4936SOL    HW115707   1.987   5.424   1.978
 4936SOL    HW215708   1.875   5.416   2.097
 4937SOL     OW15709   0.539   3.825   5.947
 4937SOL    HW115710   0.471   3.763   5.909
 4937SOL    HW215711   0.508   3.920   5.934
 4938SOL     OW15712   3.506   5.031   1.505
 4938SOL    HW115713   3.490   5.129   1.495
 4938SOL    HW215714   3.480   5.002   1.597
 4939SOL     OW15715   1.294   2.078   3.222
 4939SOL    HW115716   1.348   2.115   3.147
 4939SOL    HW215717   1.196   2.090   3.202
 4940SOL     OW15718   6.794   1.677   5.550
 4940SOL    HW115719   6.797   1.666   5.649
 4940SOL    HW215720   6.699   1.683   5.520
 4941SOL     OW15721   4.102   2.716   5.401
 4941SOL    HW115722   4.164   2.793   5.388
 4941SOL    HW215723   4.098   2.662   5.317
 4942SOL     OW15724   5.100   3.122   4.274
 4942SOL    HW115725   5.178   3.069   4.242
 4942SOL    HW215726   5.127   3.179   4.352
 4943SOL     OW15727   5.128   3.990   6.405
 4943SOL    HW115728   5.189   4.061   6.440
 4943SOL    HW215729   5.073   4.026   6.330
 4944SOL     OW15730   2.537   4.078   1.649
 4944SOL    HW115731   2.503   4.110   1.738
 4944SOL    HW215732   2.600   4.146   1.612
 4945SOL     OW15733   1.343   0.193   4.769
 4945SOL    HW115734   1.256   0.147   4.757
 4945SOL    HW215735   1.394   0.191   4.683
 4946SOL     OW15736   1.078   5.229   0.192
 4946SOL    HW115737   1.001   5.170   0.170
 4946SOL    HW215738   1.063   5.320   0.151
 4947SOL     OW15739   2.613   1.308   1.575
 4947SOL    HW115740   2.646   1.290   1.483
 4947SOL    HW215741   2.638   1.401   1.603
 4948SOL     OW15742   1.921   2.713   3.316
 4948SOL    HW115743   1.914   2.697   3.218
 4948SOL    HW215744   1.901   2.629   3.366
 4949SOL     OW15745   0.264   3.700   5.154
 4949SOL    HW115746   0.249   3.612   5.108
 4949SOL    HW215747   0.351   3.738   5.125
 4950SOL     OW15748   2.364   4.280   5.705
 4950SOL    HW115749   2.323   4.358   5.657
 4950SOL    HW215750   2.439   4.311   5.763
 4951SOL     OW15751   6.432   6.611   4.418
 4951SOL    HW115752   6.477   6.527   4.450
 4951SOL    HW215753   6.335   6.608   4.440
 4952SOL     OW15754   0.852   6.991   6.267
 4952SOL    HW115755   0.911   0.018   6.331
 4952SOL    HW215756   0.816   0.034   6.199
 4953SOL     OW15757   1.591   6.934   3.331
 4953SOL    HW115758   1.501   6.893   3.349
 4953SOL    HW215759   1.663   6.868   3.352
 4954SOL     OW15760   2.732   3.734   6.542
 4954SOL    HW115761   2.643   3.701   6.573
 4954SOL    HW215762   2.726   3.831   6.520
 4955SOL     OW15763   3.055   6.614   0.392
 4955SOL    HW115764   3.010   6.527   0.370
 4955SOL    HW215765   3.087   6.611   0.487
 4956SOL     OW15766   2.705   0.193   5.155
 4956SOL    HW115767   2.776   0.122   5.156
 4956SOL    HW215768   2.738   0.273   5.205
 4957SOL     OW15769   5.218   3.490   0.670
 4957SOL    HW115770   5.140   3.525   0.619
 4957SOL    HW215771   5.267   3.423   0.614
 4958SOL     OW15772   1.840   5.730   6.062
 4958SOL    HW115773   1.876   5.815   6.025
 4958SOL    HW215774   1.903   5.693   6.130
 4959SOL     OW15775   6.321   1.326   1.169
 4959SOL    HW115776   6.259   1.404   1.175
 4959SOL    HW215777   6.372   1.330   1.083
 4960SOL     OW15778   4.292   4.692   3.988
 4960SOL    HW115779   4.314   4.788   4.002
 4960SOL    HW215780   4.265   4.650   4.075
 4961SOL     OW15781   2.791   0.683   5.956
 4961SOL    HW115782   2.802   0.591   5.993
 4961SOL    HW215783   2.695   0.698   5.932
 4962SOL     OW15784   5.458   2.612   0.932
 4962SOL    HW115785   5.442   2.565   1.019
 4962SOL    HW215786   5.518   2.690   0.947
 4963SOL     OW15787   1.387   5.174   0.468
 4963SOL    HW115788   1.359   5.079   0.483
 4963SOL    HW215789   1.339   5.209   0.387
 4964SOL     OW15790   2.639   0.168   4.642
 4964SOL    HW115791   2.702   0.234   4.602
 4964SOL    HW215792   2.615   0.196   4.735
 4965SOL     OW15793   1.312   6.430   2.713
 4965SOL    HW115794   1.212   6.420   2.706
 4965SOL    HW215795   1.335   6.472   2.800
 4966SOL     OW15796   2.898   6.470   5.177
 4966SOL    HW115797   2.876   6.375   5.155
 4966SOL    HW215798   2.915   6.479   5.275
 4967SOL     OW15799   2.702   5.427   5.748
 4967SOL    HW115800   2.792   5.468   5.762
 4967SOL    HW215801   2.646   5.441   5.829
 4968SOL     OW15802   0.288   1.398   3.510
 4968SOL    HW115803   0.374   1.385   3.560
 4968SOL    HW215804   0.279   1.327   3.440
 4969SOL     OW15805   1.190   6.092   2.388
 4969SOL    HW115806   1.165   6.030   2.462
 4969SOL    HW215807   1.109   6.117   2.336
 4970SOL     OW15808   2.235   1.387   1.260
 4970SOL    HW115809   2.263   1.476   1.295
 4970SOL    HW215810   2.270   1.314   1.319
 4971SOL     OW15811   6.534   5.866   2.967
 4971SOL    HW115812   6.616   5.812   2.952
 4971SOL    HW215813   6.557   5.947   3.021
 4972SOL     OW15814   0.581   3.908   0.700
 4972SOL    HW115815   0.650   3.865   0.640
 4972SOL    HW215816   0.590   4.007   0.695
 4973SOL     OW15817   0.642   0.267   1.727
 4973SOL    HW115818   0.704   0.198   1.764
 4973SOL    HW215819   0.547   0.237   1.738
 4974SOL     OW15820   6.106   4.899   0.493
 4974SOL    HW115821   6.063   4.836   0.429
 4974SOL    HW215822   6.204   4.879   0.499
 4975SOL     OW15823   5.602   4.097   7.021
 4975SOL    HW115824   5.606   3.998   7.006
 4975SOL    HW215825   5.513   4.132   6.992
 4976SOL     OW15826   1.324   1.194   4.335
 4976SOL    HW115827   1.420   1.177   4.313
 4976SOL    HW215828   1.273   1.109   4.328
 4977SOL     OW15829   4.000   5.370   6.875
 4977SOL    HW115830   3.900   5.375   6.872
 4977SOL    HW215831   4.029   5.345   6.968
 4978SOL     OW15832   5.580   4.738   4.283
 4978SOL    HW115833   5.601   4.819   4.228
 4978SOL    HW215834   5.483   4.717   4.276
 4979SOL     OW15835   6.895   6.344   6.048
 4979SOL    HW115836   6.926   6.400   5.971
 4979SOL    HW215837   6.860   6.404   6.121
 4980SOL     OW15838   5.568   5.430   3.006
 4980SOL    HW115839   5.537   5.524   3.021
 4980SOL    HW215840   5.492   5.367   3.025
 4981SOL     OW15841   3.791   5.335   2.469
 4981SOL    HW115842   3.815   5.418   2.418
 4981SOL    HW215843   3.741   5.273   2.408
 4982SOL     OW15844   3.048   2.190   6.092
 4982SOL    HW115845   2.981   2.253   6.053
 4982SOL    HW215846   3.121   2.173   6.026
 4983SOL     OW15847   5.790   3.930   5.101
 4983SOL    HW115848   5.886   3.924   5.126
 4983SOL    HW215849   5.781   3.971   5.010
 4984SOL     OW15850   4.860   3.826   2.767
 4984SOL    HW115851   4.886   3.786   2.679
 4984SOL    HW215852   4.883   3.763   2.840
 4985SOL     OW15853   5.708   6.856   3.235
 4985SOL    HW115854   5.672   6.784   3.176
 4985SOL    HW215855   5.694   6.831   3.331
 4986SOL     OW15856   6.532   4.882   0.569
 4986SOL    HW115857   6.579   4.847   0.650
 4986SOL    HW215858   6.463   4.949   0.597
 4987SOL     OW15859   1.029   6.577   2.445
 4987SOL    HW115860   1.124   6.606   2.431
 4987SOL    HW215861   1.027   6.486   2.484
 4988SOL     OW15862   6.064   0.940   2.370
 4988SOL    HW115863   6.108   0.995   2.299
 4988SOL    HW215864   6.024   1.000   2.439
 4989SOL     OW15865   5.355   6.937   1.093
 4989SOL    HW115866   5.274   6.928   1.151
 4989SOL    HW215867   5.339   7.007   1.024
 4990SOL     OW15868   2.983   1.942   6.206
 4990SOL    HW115869   2.989   2.037   6.175
 4990SOL    HW215870   3.074   1.910   6.231
 4991SOL     OW15871   6.153   5.348   3.998
 4991SOL    HW115872   6.212   5.390   3.928
 4991SOL    HW215873   6.139   5.252   3.975
 4992SOL     OW15874   5.276   0.793   2.146
 4992SOL    HW115875   5.345   0.852   2.188
 4992SOL    HW215876   5.185   0.817   2.181
 4993SOL     OW15877   3.740   6.422   4.923
 4993SOL    HW115878   3.810   6.491   4.905
 4993SOL    HW215879   3.782   6.342   4.965
 4994SOL     OW15880   2.293   6.557   4.549
 4994SOL    HW115881   2.203   6.518   4.528
 4994SOL    HW215882   2.317   6.540   4.644
 4995SOL     OW15883   0.824   1.818   5.738
 4995SOL    HW115884   0.867   1.735   5.774
 4995SOL    HW215885   0.884   1.859   5.669
 4996SOL     OW15886   7.011   0.821   2.557
 4996SOL    HW115887   6.979   0.871   2.477
 4996SOL    HW215888   7.011   0.723   2.537
 4997SOL     OW15889   4.338   2.297   2.156
 4997SOL    HW115890   4.280   2.280   2.075
 4997SOL    HW215891   4.355   2.210   2.202
 4998SOL     OW15892   1.949   3.877   4.519
 4998SOL    HW115893   1.927   3.905   4.425
 4998SOL    HW215894   1.926   3.952   4.581
 4999SOL     OW15895   6.985   3.031   4.980
 4999SOL    HW115896   6.955   3.024   5.075
 4999SOL    HW215897   6.952   3.117   4.941
 5000SOL     OW15898   2.898   6.963   3.351
 5000SOL    HW115899   2.914   6.992   3.446
 5000SOL    HW215900   2.827   6.893   3.350
 5001SOL     OW15901   1.063   5.367   2.161
 5001SOL    HW115902   1.146   5.414   2.129
 5001SOL    HW215903   0.982   5.418   2.131
 5002SOL     OW15904   0.707   3.928   1.913
 5002SOL    HW115905   0.762   3.851   1.881
 5002SOL    HW215906   0.719   3.938   2.012
 5003SOL     OW15907   3.353   6.051   3.137
 5003SOL    HW115908   3.375   5.990   3.214
 5003SOL    HW215909   3.278   6.013   3.084
 5004SOL     OW15910   2.397   4.591   5.932
 5004SOL    HW115911   2.465   4.540   5.879
 5004SOL    HW215912   2.443   4.658   5.990
 5005SOL     OW15913   3.131   3.224   6.941
 5005SOL    HW115914   3.079   3.194   6.861
 5005SOL    HW215915   3.088   3.306   6.980
 5006SOL     OW15916   5.426   0.732   1.918
 5006SOL    HW115917   5.421   0.825   1.883
 5006SOL    HW215918   5.364   0.721   1.996
 5007SOL     OW15919   0.435   7.018   1.634
 5007SOL    HW115920   0.335   7.020   1.629
 5007SOL    HW215921   0.473   0.015   1.543
 5008SOL     OW15922   6.130   5.988   1.689
 5008SOL    HW115923   6.173   6.062   1.636
 5008SOL    HW215924   6.050   6.024   1.737
 5009SOL     OW15925   0.228   2.410   6.838
 5009SOL    HW115926   0.253   2.505   6.819
 5009SOL    HW215927   0.295   2.370   6.901
 5010SOL     OW15928   4.123   2.680   0.725
 5010SOL    HW115929   4.037   2.702   0.773
 5010SOL    HW215930   4.131   2.581   0.715
 5011SOL     OW15931   1.399   4.671   1.243
 5011SOL    HW115932   1.442   4.761   1.241
 5011SOL    HW215933   1.407   4.629   1.152
 5012SOL     OW15934   6.227   3.018   4.965
 5012SOL    HW115935   6.263   2.980   4.880
 5012SOL    HW215936   6.167   3.095   4.944
 5013SOL     OW15937   5.076   1.696   6.451
 5013SOL    HW115938   5.167   1.655   6.456
 5013SOL    HW215939   5.047   1.723   6.542
 5014SOL     OW15940   6.081   4.231   0.792
 5014SOL    HW115941   5.992   4.188   0.778
 5014SOL    HW215942   6.153   4.176   0.750
 5015SOL     OW15943   5.061   1.448   5.188
 5015SOL    HW115944   5.118   1.440   5.270
 5015SOL    HW215945   4.991   1.517   5.203
 5016SOL     OW15946   1.957   3.273   5.266
 5016SOL    HW115947   1.909   3.197   5.311
 5016SOL    HW215948   2.027   3.236   5.205
 5017SOL     OW15949   2.025   2.989   1.311
 5017SOL    HW115950   2.035   3.040   1.396
 5017SOL    HW215951   1.996   2.896   1.331
 5018SOL     OW15952   1.108   4.700   2.559
 5018SOL    HW115953   1.061   4.709   2.471
 5018SOL    HW215954   1.057   4.750   2.629
 5019SOL     OW15955   1.548   5.605   5.620
 5019SOL    HW115956   1.522   5.529   5.679
 5019SOL    HW215957   1.581   5.681   5.675
 5020SOL     OW15958   5.834   6.823   6.258
 5020SOL    HW115959   5.803   6.869   6.175
 5020SOL    HW215960   5.887   6.742   6.234
 5021SOL     OW15961   0.916   1.436   0.209
 5021SOL    HW115962   0.999   1.492   0.204
 5021SOL    HW215963   0.934   1.356   0.266
 5022SOL     OW15964   2.015   2.518   1.456
 5022SOL    HW115965   1.970   2.600   1.421
 5022SOL    HW215966   2.114   2.533   1.459
 5023SOL     OW15967   0.379   3.548   1.590
 5023SOL    HW115968   0.315   3.515   1.659
 5023SOL    HW215969   0.330   3.601   1.521
 5024SOL     OW15970   6.175   5.556   1.516
 5024SOL    HW115971   6.158   5.505   1.431
 5024SOL    HW215972   6.240   5.629   1.498
 5025SOL     OW15973   4.344   2.051   3.401
 5025SOL    HW115974   4.290   1.968   3.412
 5025SOL    HW215975   4.292   2.129   3.436
 5026SOL     OW15976   6.544   6.264   5.426
 5026SOL    HW115977   6.539   6.205   5.346
 5026SOL    HW215978   6.602   6.222   5.495
 5027SOL     OW15979   6.285   6.571   1.480
 5027SOL    HW115980   6.206   6.530   1.525
 5027SOL    HW215981   6.354   6.501   1.463
 5028SOL     OW15982   0.727   1.759   2.630
 5028SOL    HW115983   0.795   1.748   2.702
 5028SOL    HW215984   0.755   1.832   2.568
 5029SOL     OW15985   6.007   2.491   2.452
 5029SOL    HW115986   6.015   2.562   2.522
 5029SOL    HW215987   5.970   2.531   2.368
 5030SOL     OW15988   0.359   6.071   6.515
 5030SOL    HW115989   0.401   6.157   6.487
 5030SOL    HW215990   0.259   6.078   6.506
 5031SOL     OW15991   6.524   1.096   5.870
 5031SOL    HW115992   6.571   1.176   5.908
 5031SOL    HW215993   6.592   1.035   5.828
 5032SOL     OW15994   2.609   2.292   5.681
 5032SOL    HW115995   2.634   2.373   5.627
 5032SOL    HW215996   2.560   2.322   5.763
 5033SOL     OW15997   2.195   6.794   5.854
 5033SOL    HW115998   2.205   6.734   5.934
 5033SOL    HW215999   2.112   6.849   5.863
 5034SOL     OW16000   5.942   6.975   3.287
 5034SOL    HW116001   5.856   6.934   3.258
 5034SOL    HW216002   6.011   6.903   3.298
 5035SOL     OW16003   6.937   3.971   6.161
 5035SOL    HW116004   6.932   3.971   6.061
 5035SOL    HW216005   0.010   3.954   6.190
 5036SOL     OW16006   0.295   5.168   6.787
 5036SOL    HW116007   0.212   5.186   6.841
 5036SOL    HW216008   0.271   5.116   6.705
 5037SOL     OW16009   4.911   4.525   1.836
 5037SOL    HW116010   5.002   4.514   1.877
 5037SOL    HW216011   4.914   4.493   1.741
 5038SOL     OW16012   3.142   3.905   5.674
 5038SOL    HW116013   3.147   4.004   5.666
 5038SOL    HW216014   3.230   3.865   5.649
 5039SOL     OW16015   2.266   4.227   5.951
 5039SOL    HW116016   2.186   4.167   5.955
 5039SOL    HW216017   2.300   4.232   5.856
 5040SOL     OW16018   1.164   6.642   6.256
 5040SOL    HW116019   1.164   6.654   6.355
 5040SOL    HW216020   1.072   6.620   6.225
 5041SOL     OW16021   1.166   1.463   2.454
 5041SOL    HW116022   1.177   1.441   2.550
 5041SOL    HW216023   1.080   1.424   2.420
 5042SOL     OW16024   6.361   3.581   0.141
 5042SOL    HW116025   6.315   3.666   0.115
 5042SOL    HW216026   6.318   3.543   0.222
 5043SOL     OW16027   3.347   6.717   6.437
 5043SOL    HW116028   3.445   6.734   6.427
 5043SOL    HW216029   3.304   6.798   6.478
 5044SOL     OW16030   0.661   6.102   0.532
 5044SOL    HW116031   0.710   6.170   0.477
 5044SOL    HW216032   0.563   6.116   0.522
 5045SOL     OW16033   5.874   6.728   6.533
 5045SOL    HW116034   5.889   6.783   6.450
 5045SOL    HW216035   5.958   6.681   6.558
 5046SOL     OW16036   3.393   4.154   2.786
 5046SOL    HW116037   3.413   4.122   2.879
 5046SOL    HW216038   3.299   4.131   2.762
 5047SOL     OW16039   1.148   4.276   2.622
 5047SOL    HW116040   1.116   4.292   2.528
 5047SOL    HW216041   1.212   4.198   2.622
 5048SOL     OW16042   1.119   1.111   2.436
 5048SOL    HW116043   1.071   1.145   2.517
 5048SOL    HW216044   1.208   1.155   2.429
 5049SOL     OW16045   5.092   2.073   6.898
 5049SOL    HW116046   5.135   2.148   6.948
 5049SOL    HW216047   5.010   2.043   6.948
 5050SOL     OW16048   1.898   0.809   1.319
 5050SOL    HW116049   1.934   0.810   1.413
 5050SOL    HW216050   1.859   0.899   1.298
 5051SOL     OW16051   4.128   4.392   1.185
 5051SOL    HW116052   4.088   4.391   1.276
 5051SOL    HW216053   4.222   4.426   1.190
 5052SOL     OW16054   2.323   1.153   5.938
 5052SOL    HW116055   2.289   1.080   5.998
 5052SOL    HW216056   2.421   1.166   5.955
 5053SOL     OW16057   1.872   3.933   4.012
 5053SOL    HW116058   1.776   3.952   3.992
 5053SOL    HW216059   1.891   3.957   4.107
 5054SOL     OW16060   3.436   4.899   4.252
 5054SOL    HW116061   3.347   4.868   4.284
 5054SOL    HW216062   3.424   4.977   4.191
 5055SOL     OW16063   1.272   2.584   5.473
 5055SOL    HW116064   1.341   2.572   5.545
 5055SOL    HW216065   1.312   2.561   5.385
 5056SOL     OW16066   5.315   4.174   6.967
 5056SOL    HW116067   5.329   4.271   6.947
 5056SOL    HW216068   5.226   4.146   6.932
 5057SOL     OW16069   0.327   6.407   3.466
 5057SOL    HW116070   0.241   6.435   3.509
 5057SOL    HW216071   0.396   6.478   3.480
 5058SOL     OW16072   3.427   4.183   5.289
 5058SOL    HW116073   3.336   4.221   5.276
 5058SOL    HW216074   3.427   4.087   5.262
 5059SOL     OW16075   6.632   0.967   2.871
 5059SOL    HW116076   6.696   0.956   2.794
 5059SOL    HW216077   6.626   1.064   2.895
 5060SOL     OW16078   0.693   2.050   5.669
 5060SOL    HW116079   0.748   1.970   5.647
 5060SOL    HW216080   0.605   2.044   5.622
 5061SOL     OW16081   4.767   2.965   0.978
 5061SOL    HW116082   4.669   2.951   0.995
 5061SOL    HW216083   4.807   3.017   1.053
 5062SOL     OW16084   6.094   0.214   2.786
 5062SOL    HW116085   6.048   0.144   2.841
 5062SOL    HW216086   6.103   0.181   2.692
 5063SOL     OW16087   0.917   6.810   2.551
 5063SOL    HW116088   0.993   6.849   2.604
 5063SOL    HW216089   0.947   6.725   2.507
 5064SOL     OW16090   5.078   3.760   0.979
 5064SOL    HW116091   5.161   3.727   1.024
 5064SOL    HW216092   5.085   3.859   0.967
 5065SOL     OW16093   2.366   0.968   4.577
 5065SOL    HW116094   2.388   1.058   4.614
 5065SOL    HW216095   2.360   0.902   4.652
 5066SOL     OW16096   5.169   4.350   2.434
 5066SOL    HW116097   5.266   4.372   2.430
 5066SOL    HW216098   5.142   4.334   2.529
 5067SOL     OW16099   4.731   0.941   1.427
 5067SOL    HW116100   4.761   0.940   1.331
 5067SOL    HW216101   4.731   1.035   1.460
 5068SOL     OW16102   2.812   3.860   0.992
 5068SOL    HW116103   2.879   3.795   0.956
 5068SOL    HW216104   2.747   3.884   0.920
 5069SOL     OW16105   1.783   3.984   5.512
 5069SOL    HW116106   1.845   4.018   5.441
 5069SOL    HW216107   1.820   4.004   5.602
 5070SOL     OW16108   4.956   4.225   4.344
 5070SOL    HW116109   4.901   4.252   4.424
 5070SOL    HW216110   4.901   4.167   4.284
 5071SOL     OW16111   4.526   2.301   4.357
 5071SOL    HW116112   4.505   2.208   4.327
 5071SOL    HW216113   4.624   2.310   4.374
 5072SOL     OW16114   1.164   6.808   1.214
 5072SOL    HW116115   1.141   6.711   1.214
 5072SOL    HW216116   1.083   6.861   1.240
 5073SOL     OW16117   0.009   5.988   2.455
 5073SOL    HW116118   6.933   6.004   2.473
 5073SOL    HW216119   0.056   5.969   2.540
 5074SOL     OW16120   3.083   3.271   0.739
 5074SOL    HW116121   2.986   3.277   0.763
 5074SOL    HW216122   3.124   3.363   0.741
 5075SOL     OW16123   1.286   2.017   6.492
 5075SOL    HW116124   1.341   2.098   6.515
 5075SOL    HW216125   1.218   2.002   6.564
 5076SOL     OW16126   3.852   0.992   0.591
 5076SOL    HW116127   3.944   1.022   0.566
 5076SOL    HW216128   3.801   0.969   0.508
 5077SOL     OW16129   0.626   3.543   5.292
 5077SOL    HW116130   0.672   3.544   5.380
 5077SOL    HW216131   0.528   3.526   5.305
 5078SOL     OW16132   1.565   1.709   3.623
 5078SOL    HW116133   1.496   1.761   3.572
 5078SOL    HW216134   1.578   1.620   3.579
 5079SOL     OW16135   2.195   3.678   5.732
 5079SOL    HW116136   2.266   3.621   5.775
 5079SOL    HW216137   2.178   3.645   5.640
 5080SOL     OW16138   6.383   6.700   6.105
 5080SOL    HW116139   6.422   6.626   6.160
 5080SOL    HW216140   6.345   6.770   6.166
 5081SOL     OW16141   3.837   3.011   4.342
 5081SOL    HW116142   3.934   3.035   4.352
 5081SOL    HW216143   3.786   3.091   4.311
 5082SOL     OW16144   5.185   6.095   6.476
 5082SOL    HW116145   5.218   6.179   6.519
 5082SOL    HW216146   5.109   6.118   6.415
 5083SOL     OW16147   2.507   0.290   3.134
 5083SOL    HW116148   2.590   0.342   3.117
 5083SOL    HW216149   2.493   0.279   3.232
 5084SOL     OW16150   0.909   4.553   4.150
 5084SOL    HW116151   0.958   4.640   4.144
 5084SOL    HW216152   0.856   4.550   4.235
 5085SOL     OW16153   4.589   3.599   6.369
 5085SOL    HW116154   4.560   3.546   6.289
 5085SOL    HW216155   4.676   3.645   6.349
 5086SOL     OW16156   0.006   5.729   3.412
 5086SOL    HW116157   6.979   5.747   3.498
 5086SOL    HW216158   0.083   5.668   3.429
 5087SOL     OW16159   0.335   5.437   3.140
 5087SOL    HW116160   0.367   5.352   3.097
 5087SOL    HW216161   0.245   5.421   3.181
 5088SOL     OW16162   5.981   1.706   4.605
 5088SOL    HW116163   6.053   1.702   4.535
 5088SOL    HW216164   6.005   1.645   4.681
 5089SOL     OW16165   5.229   3.411   3.359
 5089SOL    HW116166   5.292   3.439   3.432
 5089SOL    HW216167   5.275   3.417   3.271
 5090SOL     OW16168   1.869   3.220   3.052
 5090SOL    HW116169   1.920   3.134   3.051
 5090SOL    HW216170   1.930   3.296   3.028
 5091SOL     OW16171   1.664   6.666   2.505
 5091SOL    HW116172   1.607   6.748   2.502
 5091SOL    HW216173   1.724   6.665   2.425
 5092SOL     OW16174   3.400   3.170   1.755
 5092SOL    HW116175   3.359   3.159   1.846
 5092SOL    HW216176   3.366   3.099   1.694
 5093SOL     OW16177   3.280   1.286   1.346
 5093SOL    HW116178   3.342   1.348   1.298
 5093SOL    HW216179   3.277   1.199   1.297
 5094SOL     OW16180   1.296   6.481   5.240
 5094SOL    HW116181   1.247   6.565   5.215
 5094SOL    HW216182   1.390   6.486   5.208
 5095SOL     OW16183   0.286   2.584   4.921
 5095SOL    HW116184   0.210   2.536   4.964
 5095SOL    HW216185   0.371   2.563   4.969
 5096SOL     OW16186   4.270   3.532   0.669
 5096SOL    HW116187   4.307   3.450   0.624
 5096SOL    HW216188   4.281   3.523   0.768
 5097SOL     OW16189   1.576   0.403   6.962
 5097SOL    HW116190   1.484   0.378   6.933
 5097SOL    HW216191   1.572   0.487   7.016
 5098SOL     OW16192   1.449   0.507   1.173
 5098SOL    HW116193   1.528   0.564   1.196
 5098SOL    HW216194   1.370   0.537   1.227
 5099SOL     OW16195   0.924   6.541   6.497
 5099SOL    HW116196   0.923   6.589   6.584
 5099SOL    HW216197   0.840   6.560   6.447
 5100SOL     OW16198   4.434   6.356   4.994
 5100SOL    HW116199   4.438   6.349   4.894
 5100SOL    HW216200   4.347   6.399   5.020
 5101SOL     OW16201   3.896   6.802   0.156
 5101SOL    HW116202   3.980   6.756   0.125
 5101SOL    HW216203   3.918   6.861   0.233
 5102SOL     OW16204   6.504   0.390   5.031
 5102SOL    HW116205   6.502   0.291   5.024
 5102SOL    HW216206   6.427   0.421   5.087
 5103SOL     OW16207   0.393   0.709   3.729
 5103SOL    HW116208   0.305   0.697   3.684
 5103SOL    HW216209   0.434   0.795   3.702
 5104SOL     OW16210   2.235   6.401   2.394
 5104SOL    HW116211   2.265   6.439   2.482
 5104SOL    HW216212   2.201   6.474   2.336
 5105SOL     OW16213   3.585   2.727   6.864
 5105SOL    HW116214   3.614   2.726   6.768
 5105SOL    HW216215   3.539   2.814   6.883
 5106SOL     OW16216   3.467   0.718   1.678
 5106SOL    HW116217   3.445   0.621   1.689
 5106SOL    HW216218   3.470   0.762   1.767
 5107SOL     OW16219   4.349   0.857   1.003
 5107SOL    HW116220   4.390   0.895   1.086
 5107SOL    HW216221   4.350   0.757   1.009
 5108SOL     OW16222   3.036   3.961   3.664
 5108SOL    HW116223   3.090   3.883   3.696
 5108SOL    HW216224   2.971   3.930   3.595
 5109SOL     OW16225   1.219   0.835   0.700
 5109SOL    HW116226   1.296   0.893   0.729
 5109SOL    HW216227   1.199   0.852   0.604
 5110SOL     OW16228   0.787   0.461   6.487
 5110SOL    HW116229   0.851   0.537   6.495
 5110SOL    HW216230   0.725   0.461   6.566
 5111SOL     OW16231   1.562   0.666   5.635
 5111SOL    HW116232   1.647   0.687   5.586
 5111SOL    HW216233   1.562   0.713   5.724
 5112SOL     OW16234   0.978   6.955   2.929
 5112SOL    HW116235   1.071   6.989   2.923
 5112SOL    HW216236   0.917   7.011   2.872
 5113SOL     OW16237   2.114   0.155   2.170
 5113SOL    HW116238   2.199   0.123   2.129
 5113SOL    HW216239   2.086   0.241   2.126
 5114SOL     OW16240   3.568   2.597   0.102
 5114SOL    HW116241   3.505   2.655   0.154
 5114SOL    HW216242   3.590   2.641   0.015
 5115SOL     OW16243   2.377   4.910   4.836
 5115SOL    HW116244   2.304   4.842   4.836
 5115SOL    HW216245   2.444   4.888   4.907
 5116SOL     OW16246   5.352   6.302   6.577
 5116SOL    HW116247   5.374   6.219   6.628
 5116SOL    HW216248   5.411   6.377   6.607
 5117SOL     OW16249   1.987   4.835   4.655
 5117SOL    HW116250   2.017   4.930   4.644
 5117SOL    HW216251   1.887   4.833   4.665
 5118SOL     OW16252   4.364   6.794   0.851
 5118SOL    HW116253   4.331   6.777   0.758
 5118SOL    HW216254   4.319   6.876   0.887
 5119SOL     OW16255   5.256   1.235   1.767
 5119SOL    HW116256   5.204   1.261   1.685
 5119SOL    HW216257   5.200   1.247   1.848
 5120SOL     OW16258   4.927   1.347   3.587
 5120SOL    HW116259   4.876   1.351   3.673
 5120SOL    HW216260   4.897   1.422   3.527
 5121SOL     OW16261   2.287   2.452   0.262
 5121SOL    HW116262   2.336   2.474   0.346
 5121SOL    HW216263   2.295   2.355   0.243
 5122SOL     OW16264   3.654   0.484   3.963
 5122SOL    HW116265   3.605   0.569   3.982
 5122SOL    HW216266   3.606   0.408   4.006
 5123SOL     OW16267   5.743   3.085   4.525
 5123SOL    HW116268   5.798   3.161   4.489
 5123SOL    HW216269   5.651   3.090   4.487
 5124SOL     OW16270   2.646   5.065   5.148
 5124SOL    HW116271   2.670   5.064   5.245
 5124SOL    HW216272   2.597   4.981   5.125
 5125SOL     OW16273   6.345   3.352   4.422
 5125SOL    HW116274   6.291   3.336   4.505
 5125SOL    HW216275   6.284   3.358   4.343
 5126SOL     OW16276   6.297   5.400   6.140
 5126SOL    HW116277   6.343   5.464   6.201
 5126SOL    HW216278   6.285   5.443   6.050
 5127SOL     OW16279   6.820   3.522   0.157
 5127SOL    HW116280   6.743   3.463   0.180
 5127SOL    HW216281   6.818   3.542   0.059
 5128SOL     OW16282   0.302   6.785   0.209
 5128SOL    HW116283   0.278   6.801   0.113
 5128SOL    HW216284   0.387   6.833   0.230
 5129SOL     OW16285   4.834   0.332   2.741
 5129SOL    HW116286   4.846   0.233   2.726
 5129SOL    HW216287   4.838   0.380   2.653
 5130SOL     OW16288   1.731   6.287   4.098
 5130SOL    HW116289   1.795   6.333   4.160
 5130SOL    HW216290   1.638   6.320   4.117
 5131SOL     OW16291   3.005   4.892   3.755
 5131SOL    HW116292   2.958   4.808   3.728
 5131SOL    HW216293   2.976   4.919   3.846
 5132SOL     OW16294   3.515   1.436   6.065
 5132SOL    HW116295   3.522   1.336   6.065
 5132SOL    HW216296   3.598   1.475   6.105
 5133SOL     OW16297   2.849   5.853   6.538
 5133SOL    HW116298   2.752   5.874   6.552
 5133SOL    HW216299   2.901   5.878   6.620
 5134SOL     OW16300   6.938   0.007   2.577
 5134SOL    HW116301   7.005   0.080   2.562
 5134SOL    HW216302   6.915   0.003   2.675
 5135SOL     OW16303   5.901   3.885   3.683
 5135SOL    HW116304   5.961   3.820   3.730
 5135SOL    HW216305   5.868   3.953   3.748
 5136SOL     OW16306   5.928   0.540   5.978
 5136SOL    HW116307   5.846   0.483   5.985
 5136SOL    HW216308   5.923   0.614   6.045
 5137SOL     OW16309   5.337   3.342   4.898
 5137SOL    HW116310   5.419   3.373   4.946
 5137SOL    HW216311   5.258   3.395   4.930
 5138SOL     OW16312   4.028   3.840   4.052
 5138SOL    HW116313   3.955   3.902   4.024
 5138SOL    HW216314   4.005   3.801   4.141
 5139SOL     OW16315   0.994   6.853   4.503
 5139SOL    HW116316   0.919   6.908   4.540
 5139SOL    HW216317   1.038   6.902   4.428
 5140SOL     OW16318   3.239   1.851   5.266
 5140SOL    HW116319   3.150   1.894   5.281
 5140SOL    HW216320   3.281   1.831   5.355
 5141SOL     OW16321   6.613   3.489   1.061
 5141SOL    HW116322   6.610   3.485   1.161
 5141SOL    HW216323   6.686   3.429   1.028
 5142SOL     OW16324   5.486   6.572   5.476
 5142SOL    HW116325   5.415   6.629   5.437
 5142SOL    HW216326   5.507   6.603   5.569
 5143SOL     OW16327   0.907   4.030   5.107
 5143SOL    HW116328   0.851   3.956   5.070
 5143SOL    HW216329   0.871   4.058   5.196
 5144SOL     OW16330   2.017   4.083   5.964
 5144SOL    HW116331   1.994   4.094   5.867
 5144SOL    HW216332   2.027   3.986   5.985
 5145SOL     OW16333   4.097   6.453   6.031
 5145SOL    HW116334   4.176   6.493   6.078
 5145SOL    HW216335   4.052   6.388   6.092
 5146SOL     OW16336   3.855   3.825   5.123
 5146SOL    HW116337   3.886   3.849   5.031
 5146SOL    HW216338   3.807   3.904   5.163
 5147SOL     OW16339   6.283   4.910   3.380
 5147SOL    HW116340   6.249   4.997   3.345
 5147SOL    HW216341   6.368   4.885   3.332
 5148SOL     OW16342   0.602   1.010   1.841
 5148SOL    HW116343   0.687   0.999   1.789
 5148SOL    HW216344   0.528   0.960   1.797
 5149SOL     OW16345   6.002   5.408   4.696
 5149SOL    HW116346   6.086   5.429   4.746
 5149SOL    HW216347   5.944   5.349   4.752
 5150SOL     OW16348   2.210   4.208   4.103
 5150SOL    HW116349   2.182   4.186   4.196
 5150SOL    HW216350   2.272   4.138   4.070
 5151SOL     OW16351   6.767   3.572   2.009
 5151SOL    HW116352   6.704   3.515   1.956
 5151SOL    HW216353   6.847   3.594   1.954
 5152SOL     OW16354   1.910   5.847   6.496
 5152SOL    HW116355   1.815   5.827   6.517
 5152SOL    HW216356   1.969   5.783   6.545
 5153SOL     OW16357   0.730   2.493   0.914
 5153SOL    HW116358   0.728   2.517   0.817
 5153SOL    HW216359   0.761   2.399   0.924
 5154SOL     OW16360   1.405   2.788   6.364
 5154SOL    HW116361   1.421   2.689   6.371
 5154SOL    HW216362   1.436   2.820   6.275
 5155SOL     OW16363   4.353   1.094   1.342
 5155SOL    HW116364   4.264   1.088   1.298
 5155SOL    HW216365   4.371   1.009   1.392
 5156SOL     OW16366   5.804   4.557   4.661
 5156SOL    HW116367   5.867   4.597   4.728
 5156SOL    HW216368   5.826   4.592   4.570
 5157SOL     OW16369   3.299   2.060   2.271
 5157SOL    HW116370   3.366   2.062   2.198
 5157SOL    HW216371   3.337   2.012   2.350
 5158SOL     OW16372   3.400   2.406   0.801
 5158SOL    HW116373   3.451   2.483   0.763
 5158SOL    HW216374   3.429   2.390   0.896
 5159SOL     OW16375   5.994   4.073   6.182
 5159SOL    HW116376   6.011   4.071   6.281
 5159SOL    HW216377   5.899   4.099   6.165
 5160SOL     OW16378   0.203   5.540   3.439
 5160SOL    HW116379   0.136   5.488   3.386
 5160SOL    HW216380   0.279   5.481   3.465
 5161SOL     OW16381   0.893   3.399   0.374
 5161SOL    HW116382   0.862   3.304   0.374
 5161SOL    HW216383   0.991   3.402   0.356
 5162SOL     OW16384   1.191   5.249   2.451
 5162SOL    HW116385   1.259   5.176   2.456
 5162SOL    HW216386   1.142   5.243   2.364
 5163SOL     OW16387   3.474   6.534   0.687
 5163SOL    HW116388   3.488   6.628   0.656
 5163SOL    HW216389   3.506   6.524   0.781
 5164SOL     OW16390   3.324   2.771   6.705
 5164SOL    HW116391   3.323   2.863   6.665
 5164SOL    HW216392   3.308   2.778   6.803
 5165SOL     OW16393   1.122   4.372   6.721
 5165SOL    HW116394   1.183   4.311   6.671
 5165SOL    HW216395   1.031   4.332   6.725
 5166SOL     OW16396   1.608   5.097   2.702
 5166SOL    HW116397   1.633   5.153   2.781
 5166SOL    HW216398   1.510   5.106   2.685
 5167SOL     OW16399   6.612   4.170   4.739
 5167SOL    HW116400   6.691   4.208   4.691
 5167SOL    HW216401   6.564   4.243   4.788
 5168SOL     OW16402   5.050   2.616   3.006
 5168SOL    HW116403   5.064   2.714   3.023
 5168SOL    HW216404   5.139   2.572   2.990
 5169SOL     OW16405   4.489   2.138   3.199
 5169SOL    HW116406   4.484   2.060   3.137
 5169SOL    HW216407   4.424   2.125   3.274
 5170SOL     OW16408   1.475   3.388   5.465
 5170SOL    HW116409   1.446   3.484   5.472
 5170SOL    HW216410   1.551   3.381   5.400
 5171SOL     OW16411   0.121   4.670   5.418
 5171SOL    HW116412   0.147   4.574   5.419
 5171SOL    HW216413   0.200   4.726   5.441
 5172SOL     OW16414   1.048   4.359   3.309
 5172SOL    HW116415   1.023   4.268   3.278
 5172SOL    HW216416   1.028   4.426   3.238
 5173SOL     OW16417   4.476   4.872   5.746
 5173SOL    HW116418   4.481   4.958   5.797
 5173SOL    HW216419   4.469   4.796   5.811
 5174SOL     OW16420   2.151   5.678   3.770
 5174SOL    HW116421   2.057   5.671   3.803
 5174SOL    HW216422   2.194   5.588   3.771
 5175SOL     OW16423   2.762   3.807   0.381
 5175SOL    HW116424   2.663   3.807   0.373
 5175SOL    HW216425   2.803   3.776   0.295
 5176SOL     OW16426   5.043   4.607   6.456
 5176SOL    HW116427   4.984   4.587   6.378
 5176SOL    HW216428   5.027   4.700   6.488
 5177SOL     OW16429   4.473   6.892   1.368
 5177SOL    HW116430   4.384   6.848   1.375
 5177SOL    HW216431   4.515   6.869   1.280
 5178SOL     OW16432   1.427   4.336   2.434
 5178SOL    HW116433   1.348   4.280   2.409
 5178SOL    HW216434   1.396   4.414   2.488
 5179SOL     OW16435   4.640   4.354   4.233
 5179SOL    HW116436   4.636   4.306   4.321
 5179SOL    HW216437   4.574   4.429   4.232
 5180SOL     OW16438   3.595   0.867   1.178
 5180SOL    HW116439   3.617   0.960   1.207
 5180SOL    HW216440   3.582   0.809   1.258
 5181SOL     OW16441   6.105   6.845   1.301
 5181SOL    HW116442   6.128   6.936   1.336
 5181SOL    HW216443   6.168   6.778   1.340
 5182SOL     OW16444   4.345   4.667   2.171
 5182SOL    HW116445   4.269   4.641   2.230
 5182SOL    HW216446   4.351   4.603   2.094
 5183SOL     OW16447   4.165   1.775   2.628
 5183SOL    HW116448   4.250   1.819   2.600
 5183SOL    HW216449   4.092   1.798   2.564
 5184SOL     OW16450   2.327   1.733   3.340
 5184SOL    HW116451   2.405   1.671   3.332
 5184SOL    HW216452   2.310   1.777   3.252
 5185SOL     OW16453   5.552   0.619   2.631
 5185SOL    HW116454   5.585   0.613   2.537
 5185SOL    HW216455   5.470   0.563   2.642
 5186SOL     OW16456   6.431   2.701   6.141
 5186SOL    HW116457   6.338   2.676   6.118
 5186SOL    HW216458   6.478   2.733   6.058
 5187SOL     OW16459   1.272   5.409   5.394
 5187SOL    HW116460   1.299   5.369   5.481
 5187SOL    HW216461   1.352   5.451   5.351
 5188SOL     OW16462   5.805   5.739   1.842
 5188SOL    HW116463   5.877   5.714   1.777
 5188SOL    HW216464   5.720   5.693   1.818
 5189SOL     OW16465   5.253   5.870   0.162
 5189SOL    HW116466   5.164   5.878   0.117
 5189SOL    HW216467   5.259   5.935   0.237
 5190SOL     OW16468   1.243   3.664   3.523
 5190SOL    HW116469   1.251   3.566   3.538
 5190SOL    HW216470   1.328   3.710   3.548
 5191SOL     OW16471   3.628   5.860   2.492
 5191SOL    HW116472   3.616   5.911   2.577
 5191SOL    HW216473   3.542   5.815   2.467
 5192SOL     OW16474   1.413   5.712   1.320
 5192SOL    HW116475   1.392   5.773   1.397
 5192SOL    HW216476   1.330   5.695   1.268
 5193SOL     OW16477   4.411   5.687   5.338
 5193SOL    HW116478   4.366   5.776   5.344
 5193SOL    HW216479   4.348   5.616   5.370
 5194SOL     OW16480   3.403   2.361   6.944
 5194SOL    HW116481   3.463   2.420   6.998
 5194SOL    HW216482   3.332   2.417   6.900
 5195SOL     OW16483   0.295   0.827   4.462
 5195SOL    HW116484   0.332   0.785   4.379
 5195SOL    HW216485   0.268   0.755   4.526
 5196SOL     OW16486   4.387   6.806   2.328
 5196SOL    HW116487   4.406   6.797   2.426
 5196SOL    HW216488   4.411   6.898   2.297
 5197SOL     OW16489   1.708   3.688   6.636
 5197SOL    HW116490   1.726   3.784   6.617
 5197SOL    HW216491   1.728   3.634   6.554
 5198SOL     OW16492   4.552   5.455   3.220
 5198SOL    HW116493   4.511   5.540   3.188
 5198SOL    HW216494   4.491   5.378   3.199
 5199SOL     OW16495   0.898   5.310   0.374
 5199SOL    HW116496   0.924   5.396   0.418
 5199SOL    HW216497   0.970   5.283   0.310
 5200SOL     OW16498   6.812   3.594   5.107
 5200SOL    HW116499   6.776   3.648   5.031
 5200SOL    HW216500   6.897   3.548   5.079
 5201SOL     OW16501   1.306   6.914   3.413
 5201SOL    HW116502   1.270   6.921   3.506
 5201SOL    HW216503   1.238   6.870   3.354
 5202SOL     OW16504   5.796   2.966   6.296
 5202SOL    HW116505   5.857   2.975   6.217
 5202SOL    HW216506   5.707   2.934   6.266
 5203SOL     OW16507   2.044   1.940   6.855
 5203SOL    HW116508   1.982   2.002   6.902
 5203SOL    HW216509   1.996   1.854   6.835
 5204SOL     OW16510   4.176   5.271   0.395
 5204SOL    HW116511   4.101   5.209   0.422
 5204SOL    HW216512   4.158   5.305   0.303
 5205SOL     OW16513   1.852   6.777   0.822
 5205SOL    HW116514   1.840   6.858   0.880
 5205SOL    HW216515   1.820   6.797   0.730
 5206SOL     OW16516   0.210   3.996   5.526
 5206SOL    HW116517   0.204   3.940   5.609
 5206SOL    HW216518   0.134   3.974   5.465
 5207SOL     OW16519   1.165   5.734   4.230
 5207SOL    HW116520   1.125   5.647   4.200
 5207SOL    HW216521   1.143   5.748   4.327
 5208SOL     OW16522   3.912   1.914   0.188
 5208SOL    HW116523   3.827   1.931   0.138
 5208SOL    HW216524   3.903   1.829   0.240
 5209SOL     OW16525   5.565   5.899   3.823
 5209SOL    HW116526   5.531   5.988   3.794
 5209SOL    HW216527   5.663   5.892   3.803
 5210SOL     OW16528   5.845   2.477   5.385
 5210SOL    HW116529   5.917   2.527   5.337
 5210SOL    HW216530   5.830   2.389   5.340
 5211SOL     OW16531   3.925   3.085   4.840
 5211SOL    HW116532   3.840   3.123   4.803
 5211SOL    HW216533   3.997   3.155   4.835
 5212SOL     OW16534   6.339   1.521   0.655
 5212SOL    HW116535   6.273   1.455   0.619
 5212SOL    HW216536   6.397   1.554   0.581
 5213SOL     OW16537   5.141   4.326   6.461
 5213SOL    HW116538   5.113   4.410   6.415
 5213SOL    HW216539   5.061   4.269   6.479
 5214SOL     OW16540   4.683   1.456   6.393
 5214SOL    HW116541   4.703   1.360   6.370
 5214SOL    HW216542   4.750   1.515   6.349
 5215SOL     OW16543   5.481   5.558   3.776
 5215SOL    HW116544   5.452   5.652   3.755
 5215SOL    HW216545   5.440   5.529   3.862
 5216SOL     OW16546   4.134   5.842   1.935
 5216SOL    HW116547   4.085   5.817   1.851
 5216SOL    HW216548   4.163   5.759   1.983
 5217SOL     OW16549   3.992   5.530   4.076
 5217SOL    HW116550   3.993   5.432   4.056
 5217SOL    HW216551   3.929   5.576   4.014
 5218SOL     OW16552   1.311   0.638   3.548
 5218SOL    HW116553   1.222   0.681   3.559
 5218SOL    HW216554   1.311   0.549   3.595
 5219SOL     OW16555   3.426   0.615   5.963
 5219SOL    HW116556   3.444   0.528   6.008
 5219SOL    HW216557   3.379   0.676   6.026
 5220SOL     OW16558   1.672   5.504   2.682
 5220SOL    HW116559   1.591   5.543   2.727
 5220SOL    HW216560   1.727   5.457   2.750
 5221SOL     OW16561   5.421   2.263   4.289
 5221SOL    HW116562   5.465   2.236   4.203
 5221SOL    HW216563   5.472   2.338   4.330
 5222SOL     OW16564   2.404   0.026   3.714
 5222SOL    HW116565   2.455   6.961   3.723
 5222SOL    HW216566   2.335   0.032   3.787
 5223SOL     OW16567   5.639   0.698   0.970
 5223SOL    HW116568   5.596   0.615   1.005
 5223SOL    HW216569   5.733   0.704   1.004
 5224SOL     OW16570   1.016   2.168   4.163
 5224SOL    HW116571   0.989   2.264   4.168
 5224SOL    HW216572   1.000   2.124   4.252
 5225SOL     OW16573   6.607   0.187   2.909
 5225SOL    HW116574   6.512   0.200   2.881
 5225SOL    HW216575   6.638   0.267   2.962
 5226SOL     OW16576   0.768   5.604   5.257
 5226SOL    HW116577   0.821   5.572   5.179
 5226SOL    HW216578   0.726   5.526   5.303
 5227SOL     OW16579   1.538   4.635   3.583
 5227SOL    HW116580   1.611   4.586   3.535
 5227SOL    HW216581   1.463   4.573   3.601
 5228SOL     OW16582   6.590   2.121   1.002
 5228SOL    HW116583   6.507   2.169   0.971
 5228SOL    HW216584   6.638   2.178   1.068
 5229SOL     OW16585   1.352   4.026   0.362
 5229SOL    HW116586   1.303   4.110   0.337
 5229SOL    HW216587   1.342   3.959   0.289
 5230SOL     OW16588   0.189   6.684   1.527
 5230SOL    HW116589   0.267   6.702   1.467
 5230SOL    HW216590   0.115   6.747   1.504
 5231SOL     OW16591   4.022   3.882   4.488
 5231SOL    HW116592   4.096   3.937   4.449
 5231SOL    HW216593   4.001   3.806   4.428
 5232SOL     OW16594   3.278   2.159   5.911
 5232SOL    HW116595   3.296   2.064   5.884
 5232SOL    HW216596   3.294   2.219   5.833
 5233SOL     OW16597   5.936   0.177   1.769
 5233SOL    HW116598   6.012   0.239   1.750
 5233SOL    HW216599   5.885   0.160   1.685
 5234SOL     OW16600   2.566   0.338   6.573
 5234SOL    HW116601   2.617   0.423   6.566
 5234SOL    HW216602   2.478   0.355   6.617
 5235SOL     OW16603   2.186   3.017   1.064
 5235SOL    HW116604   2.211   2.929   1.025
 5235SOL    HW216605   2.130   3.002   1.146
 5236SOL     OW16606   6.002   3.678   2.218
 5236SOL    HW116607   5.966   3.628   2.139
 5236SOL    HW216608   5.931   3.689   2.286
 5237SOL     OW16609   2.609   0.663   5.600
 5237SOL    HW116610   2.566   0.604   5.533
 5237SOL    HW216611   2.706   0.640   5.608
 5238SOL     OW16612   1.737   4.981   0.517
 5238SOL    HW116613   1.828   5.018   0.533
 5238SOL    HW216614   1.688   5.042   0.454
 5239SOL     OW16615   4.164   3.568   4.075
 5239SOL    HW116616   4.173   3.666   4.093
 5239SOL    HW216617   4.128   3.522   4.155
 5240SOL     OW16618   3.003   1.584   6.177
 5240SOL    HW116619   2.924   1.578   6.116
 5240SOL    HW216620   3.065   1.508   6.158
 5241SOL     OW16621   1.451   5.653   6.329
 5241SOL    HW116622   1.419   5.714   6.402
 5241SOL    HW216623   1.417   5.561   6.346
 5242SOL     OW16624   6.948   6.487   5.835
 5242SOL    HW116625   6.863   6.474   5.784
 5242SOL    HW216626   6.953   6.581   5.868
 5243SOL     OW16627   1.176   6.030   1.676
 5243SOL    HW116628   1.087   6.073   1.661
 5243SOL    HW216629   1.219   6.069   1.757
 5244SOL     OW16630   3.713   4.194   6.110
 5244SOL    HW116631   3.735   4.099   6.134
 5244SOL    HW216632   3.641   4.227   6.170
 5245SOL     OW16633   4.306   4.589   0.268
 5245SOL    HW116634   4.246   4.530   0.214
 5245SOL    HW216635   4.289   4.574   0.365
 5246SOL     OW16636   5.641   4.463   2.932
 5246SOL    HW116637   5.726   4.439   2.886
 5246SOL    HW216638   5.623   4.396   3.005
 5247SOL     OW16639   1.313   6.148   0.560
 5247SOL    HW116640   1.293   6.099   0.645
 5247SOL    HW216641   1.276   6.097   0.483
 5248SOL     OW16642   6.326   0.381   4.788
 5248SOL    HW116643   6.274   0.297   4.806
 5248SOL    HW216644   6.387   0.399   4.865
 5249SOL     OW16645   0.667   5.066   5.120
 5249SOL    HW116646   0.659   5.029   5.028
 5249SOL    HW216647   0.649   4.994   5.187
 5250SOL     OW16648   0.359   1.340   5.736
 5250SOL    HW116649   0.458   1.329   5.735
 5250SOL    HW216650   0.323   1.324   5.644
 5251SOL     OW16651   0.384   3.266   1.071
 5251SOL    HW116652   0.466   3.224   1.109
 5251SOL    HW216653   0.408   3.350   1.024
 5252SOL     OW16654   2.019   5.413   0.819
 5252SOL    HW116655   2.053   5.372   0.904
 5252SOL    HW216656   1.984   5.505   0.838
 5253SOL     OW16657   6.050   3.913   5.369
 5253SOL    HW116658   6.012   3.875   5.454
 5253SOL    HW216659   6.043   3.845   5.296
 5254SOL     OW16660   5.734   1.043   3.370
 5254SOL    HW116661   5.713   0.966   3.310
 5254SOL    HW216662   5.751   1.010   3.463
 5255SOL     OW16663   4.579   0.265   5.377
 5255SOL    HW116664   4.558   0.173   5.345
 5255SOL    HW216665   4.671   0.291   5.347
 5256SOL     OW16666   4.760   0.788   3.466
 5256SOL    HW116667   4.851   0.813   3.431
 5256SOL    HW216668   4.765   0.775   3.565
 5257SOL     OW16669   4.306   0.194   1.915
 5257SOL    HW116670   4.208   0.204   1.898
 5257SOL    HW216671   4.357   0.230   1.838
 5258SOL     OW16672   5.161   3.978   1.666
 5258SOL    HW116673   5.161   4.070   1.706
 5258SOL    HW216674   5.256   3.950   1.648
 5259SOL     OW16675   4.395   6.534   1.470
 5259SOL    HW116676   4.463   6.474   1.427
 5259SOL    HW216677   4.429   6.564   1.559
 5260SOL     OW16678   5.715   3.596   1.425
 5260SOL    HW116679   5.769   3.680   1.437
 5260SOL    HW216680   5.777   3.517   1.426
 5261SOL     OW16681   1.782   2.985   6.236
 5261SOL    HW116682   1.763   3.061   6.299
 5261SOL    HW216683   1.859   3.010   6.177
 5262SOL     OW16684   3.074   0.733   2.743
 5262SOL    HW116685   3.071   0.644   2.788
 5262SOL    HW216686   3.146   0.788   2.785
 5263SOL     OW16687   1.007   1.366   5.647
 5263SOL    HW116688   1.068   1.414   5.709
 5263SOL    HW216689   0.923   1.341   5.695
 5264SOL     OW16690   6.655   0.388   2.317
 5264SOL    HW116691   6.604   0.370   2.401
 5264SOL    HW216692   6.662   0.304   2.263
 5265SOL     OW16693   4.898   4.420   2.858
 5265SOL    HW116694   4.854   4.504   2.890
 5265SOL    HW216695   4.934   4.370   2.936
 5266SOL     OW16696   2.722   0.692   2.190
 5266SOL    HW116697   2.820   0.693   2.174
 5266SOL    HW216698   2.700   0.623   2.260
 5267SOL     OW16699   4.693   4.864   5.970
 5267SOL    HW116700   4.692   4.776   5.921
 5267SOL    HW216701   4.674   4.848   6.067
 5268SOL     OW16702   5.916   5.910   6.058
 5268SOL    HW116703   5.988   5.867   6.111
 5268SOL    HW216704   5.830   5.909   6.110
 5269SOL     OW16705   2.565   6.169   4.435
 5269SOL    HW116706   2.501   6.099   4.467
 5269SOL    HW216707   2.587   6.231   4.510
 5270SOL     OW16708   5.036   1.550   1.732
 5270SOL    HW116709   5.060   1.521   1.639
 5270SOL    HW216710   5.120   1.565   1.784
 5271SOL     OW16711   4.436   4.980   4.713
 5271SOL    HW116712   4.500   5.008   4.641
 5271SOL    HW216713   4.356   5.039   4.712
 5272SOL     OW16714   1.934   5.945   3.387
 5272SOL    HW116715   1.993   5.876   3.430
 5272SOL    HW216716   1.968   6.036   3.410
 5273SOL     OW16717   0.351   3.445   3.752
 5273SOL    HW116718   0.372   3.402   3.664
 5273SOL    HW216719   0.322   3.374   3.817
 5274SOL     OW16720   5.747   5.160   2.277
 5274SOL    HW116721   5.812   5.202   2.341
 5274SOL    HW216722   5.795   5.098   2.216
 5275SOL     OW16723   3.833   1.313   6.072
 5275SOL    HW116724   3.809   1.267   6.158
 5275SOL    HW216725   3.866   1.405   6.092
 5276SOL     OW16726   0.894   6.726   1.470
 5276SOL    HW116727   0.975   6.668   1.472
 5276SOL    HW216728   0.813   6.670   1.451
 5277SOL     OW16729   1.194   2.711   2.964
 5277SOL    HW116730   1.235   2.792   3.006
 5277SOL    HW216731   1.201   2.718   2.865
 5278SOL     OW16732   5.205   6.633   4.043
 5278SOL    HW116733   5.253   6.635   4.131
 5278SOL    HW216734   5.164   6.543   4.030
 5279SOL     OW16735   1.623   5.234   6.395
 5279SOL    HW116736   1.679   5.316   6.380
 5279SOL    HW216737   1.673   5.171   6.455
 5280SOL     OW16738   2.411   5.650   5.799
 5280SOL    HW116739   2.432   5.713   5.874
 5280SOL    HW216740   2.427   5.556   5.830
 5281SOL     OW16741   1.085   1.139   3.406
 5281SOL    HW116742   1.129   1.175   3.488
 5281SOL    HW216743   1.132   1.173   3.325
 5282SOL     OW16744   1.525   1.000   2.844
 5282SOL    HW116745   1.599   1.012   2.910
 5282SOL    HW216746   1.557   1.026   2.753
 5283SOL     OW16747   2.910   0.304   2.698
 5283SOL    HW116748   2.944   0.244   2.626
 5283SOL    HW216749   2.835   0.260   2.747
 5284SOL     OW16750   4.740   2.802   2.509
 5284SOL    HW116751   4.666   2.735   2.512
 5284SOL    HW216752   4.778   2.805   2.416
 5285SOL     OW16753   1.783   3.881   4.303
 5285SOL    HW116754   1.704   3.941   4.293
 5285SOL    HW216755   1.764   3.794   4.258
 5286SOL     OW16756   6.669   3.938   1.385
 5286SOL    HW116757   6.582   3.958   1.431
 5286SOL    HW216758   6.704   4.022   1.343
 5287SOL     OW16759   2.299   6.127   1.449
 5287SOL    HW116760   2.243   6.187   1.505
 5287SOL    HW216761   2.319   6.043   1.499
 5288SOL     OW16762   3.937   0.788   2.354
 5288SOL    HW116763   3.965   0.878   2.386
 5288SOL    HW216764   3.908   0.793   2.259
 5289SOL     OW16765   1.496   5.675   6.062
 5289SOL    HW116766   1.414   5.649   6.012
 5289SOL    HW216767   1.479   5.669   6.161
 5290SOL     OW16768   0.850   4.467   5.950
 5290SOL    HW116769   0.903   4.447   6.033
 5290SOL    HW216770   0.752   4.468   5.973
 5291SOL     OW16771   2.868   4.931   6.317
 5291SOL    HW116772   2.867   5.005   6.385
 5291SOL    HW216773   2.817   4.959   6.236
 5292SOL     OW16774   5.927   4.541   6.610
 5292SOL    HW116775   5.930   4.632   6.568
 5292SOL    HW216776   6.007   4.488   6.581
 5293SOL     OW16777   1.790   0.362   4.812
 5293SOL    HW116778   1.729   0.285   4.792
 5293SOL    HW216779   1.794   0.422   4.733
 5294SOL     OW16780   5.701   3.269   4.839
 5294SOL    HW116781   5.643   3.315   4.906
 5294SOL    HW216782   5.672   3.174   4.829
 5295SOL     OW16783   3.991   0.618   2.742
 5295SOL    HW116784   4.003   0.547   2.812
 5295SOL    HW216785   3.961   0.576   2.656
 5296SOL     OW16786   3.044   5.262   6.967
 5296SOL    HW116787   3.080   5.262   6.874
 5296SOL    HW216788   3.059   5.173   7.009
 5297SOL     OW16789   1.821   2.578   0.718
 5297SOL    HW116790   1.902   2.533   0.679
 5297SOL    HW216791   1.804   2.664   0.670
 5298SOL     OW16792   0.823   6.287   0.379
 5298SOL    HW116793   0.800   6.306   0.283
 5298SOL    HW216794   0.922   6.292   0.391
 5299SOL     OW16795   2.493   3.406   0.594
 5299SOL    HW116796   2.565   3.475   0.590
 5299SOL    HW216797   2.485   3.372   0.688
 5300SOL     OW16798   1.016   5.840   1.127
 5300SOL    HW116799   1.089   5.775   1.108
 5300SOL    HW216800   1.055   5.925   1.162
 5301SOL     OW16801   3.478   2.227   6.337
 5301SOL    HW116802   3.383   2.232   6.304
 5301SOL    HW216803   3.520   2.317   6.328
 5302SOL     OW16804   6.212   5.711   3.919
 5302SOL    HW116805   6.201   5.810   3.928
 5302SOL    HW216806   6.132   5.664   3.957
 5303SOL     OW16807   0.300   5.750   3.734
 5303SOL    HW116808   0.243   5.832   3.733
 5303SOL    HW216809   0.390   5.771   3.696
 5304SOL     OW16810   5.616   0.947   0.191
 5304SOL    HW116811   5.537   0.945   0.252
 5304SOL    HW216812   5.693   0.898   0.233
 5305SOL     OW16813   0.607   5.169   2.759
 5305SOL    HW116814   0.704   5.143   2.768
 5305SOL    HW216815   0.551   5.087   2.763
 5306SOL     OW16816   1.122   4.103   4.898
 5306SOL    HW116817   1.112   4.027   4.833
 5306SOL    HW216818   1.210   4.148   4.883
 5307SOL     OW16819   4.382   2.051   0.256
 5307SOL    HW116820   4.476   2.038   0.225
 5307SOL    HW216821   4.376   2.136   0.309
 5308SOL     OW16822   0.934   4.997   3.536
 5308SOL    HW116823   0.907   4.921   3.596
 5308SOL    HW216824   1.007   5.050   3.580
 5309SOL     OW16825   4.358   4.761   1.717
 5309SOL    HW116826   4.286   4.828   1.734
 5309SOL    HW216827   4.361   4.695   1.791
 5310SOL     OW16828   6.508   3.844   2.178
 5310SOL    HW116829   6.448   3.790   2.119
 5310SOL    HW216830   6.598   3.854   2.134
 5311SOL     OW16831   6.662   5.586   6.749
 5311SOL    HW116832   6.660   5.514   6.679
 5311SOL    HW216833   6.656   5.545   6.840
 5312SOL     OW16834   6.898   5.267   1.679
 5312SOL    HW116835   6.798   5.269   1.680
 5312SOL    HW216836   6.932   5.319   1.600
 5313SOL     OW16837   1.493   3.695   6.109
 5313SOL    HW116838   1.475   3.719   6.013
 5313SOL    HW216839   1.408   3.665   6.152
 5314SOL     OW16840   3.120   6.372   0.926
 5314SOL    HW116841   3.128   6.472   0.919
 5314SOL    HW216842   3.023   6.347   0.932
 5315SOL     OW16843   4.989   3.552   1.727
 5315SOL    HW116844   4.953   3.471   1.772
 5315SOL    HW216845   5.088   3.544   1.717
 5316SOL     OW16846   0.756   3.800   4.674
 5316SOL    HW116847   0.778   3.817   4.577
 5316SOL    HW216848   0.661   3.826   4.691
 5317SOL     OW16849   6.394   6.919   4.499
 5317SOL    HW116850   6.467   6.937   4.566
 5317SOL    HW216851   6.396   6.822   4.474
 5318SOL     OW16852   0.579   2.842   6.261
 5318SOL    HW116853   0.525   2.761   6.285
 5318SOL    HW216854   0.672   2.831   6.295
 5319SOL     OW16855   3.565   6.680   0.277
 5319SOL    HW116856   3.468   6.693   0.296
 5319SOL    HW216857   3.600   6.758   0.226
 5320SOL     OW16858   5.437   5.277   0.522
 5320SOL    HW116859   5.356   5.220   0.507
 5320SOL    HW216860   5.479   5.299   0.435
 5321SOL     OW16861   1.097   4.886   4.702
 5321SOL    HW116862   1.050   4.966   4.738
 5321SOL    HW216863   1.127   4.904   4.608
 5322SOL     OW16864   4.982   6.138   6.236
 5322SOL    HW116865   4.911   6.095   6.181
 5322SOL    HW216866   4.946   6.158   6.327
 5323SOL     OW16867   4.000   1.901   6.792
 5323SOL    HW116868   4.047   1.988   6.806
 5323SOL    HW216869   3.903   1.918   6.773
 5324SOL     OW16870   3.924   2.376   0.946
 5324SOL    HW116871   3.876   2.397   0.861
 5324SOL    HW216872   3.859   2.337   1.012
 5325SOL     OW16873   4.729   0.916   4.471
 5325SOL    HW116874   4.749   0.896   4.567
 5325SOL    HW216875   4.632   0.898   4.453
 5326SOL     OW16876   6.980   4.967   3.235
 5326SOL    HW116877   6.922   4.933   3.160
 5326SOL    HW216878   6.976   4.903   3.311
 5327SOL     OW16879   5.590   3.259   5.275
 5327SOL    HW116880   5.544   3.171   5.277
 5327SOL    HW216881   5.527   3.329   5.241
 5328SOL     OW16882   4.473   2.934   5.357
 5328SOL    HW116883   4.486   3.024   5.399
 5328SOL    HW216884   4.378   2.905   5.368
 5329SOL     OW16885   0.096   4.782   0.394
 5329SOL    HW116886   0.030   4.749   0.326
 5329SOL    HW216887   0.164   4.839   0.349
 5330SOL     OW16888   3.644   4.475   5.808
 5330SOL    HW116889   3.676   4.516   5.722
 5330SOL    HW216890   3.680   4.528   5.885
 5331SOL     OW16891   5.329   1.314   0.532
 5331SOL    HW116892   5.378   1.395   0.564
 5331SOL    HW216893   5.276   1.275   0.608
 5332SOL     OW16894   0.670   3.555   1.271
 5332SOL    HW116895   0.638   3.649   1.258
 5332SOL    HW216896   0.732   3.530   1.197
 5333SOL     OW16897   1.061   0.712   3.609
 5333SOL    HW116898   1.015   0.757   3.532
 5333SOL    HW216899   1.041   0.614   3.608
 5334SOL     OW16900   4.199   0.211   4.589
 5334SOL    HW116901   4.281   0.267   4.581
 5334SOL    HW216902   4.152   0.206   4.501
 5335SOL     OW16903   6.176   5.633   2.412
 5335SOL    HW116904   6.237   5.683   2.351
 5335SOL    HW216905   6.223   5.618   2.500
 5336SOL     OW16906   2.639   2.033   3.178
 5336SOL    HW116907   2.655   1.984   3.264
 5336SOL    HW216908   2.540   2.036   3.160
 5337SOL     OW16909   5.241   4.146   1.344
 5337SOL    HW116910   5.273   4.217   1.407
 5337SOL    HW216911   5.319   4.094   1.309
 5338SOL     OW16912   5.863   1.936   6.198
 5338SOL    HW116913   5.860   2.019   6.254
 5338SOL    HW216914   5.831   1.957   6.106
 5339SOL     OW16915   6.835   2.383   4.411
 5339SOL    HW116916   6.934   2.377   4.429
 5339SOL    HW216917   6.794   2.445   4.478
 5340SOL     OW16918   5.365   2.945   1.045
 5340SOL    HW116919   5.452   2.896   1.036
 5340SOL    HW216920   5.317   2.945   0.957
 5341SOL     OW16921   3.230   3.736   6.468
 5341SOL    HW116922   3.312   3.684   6.489
 5341SOL    HW216923   3.165   3.678   6.419
 5342SOL     OW16924   3.202   0.007   3.379
 5342SOL    HW116925   3.129   7.019   3.446
 5342SOL    HW216926   3.205   6.946   3.321
 5343SOL     OW16927   4.169   3.623   4.964
 5343SOL    HW116928   4.137   3.663   4.877
 5343SOL    HW216929   4.269   3.634   4.969
 5344SOL     OW16930   2.321   2.136   2.247
 5344SOL    HW116931   2.339   2.207   2.178
 5344SOL    HW216932   2.368   2.052   2.222
 5345SOL     OW16933   3.647   6.705   1.518
 5345SOL    HW116934   3.622   6.791   1.562
 5345SOL    HW216935   3.599   6.695   1.431
 5346SOL     OW16936   3.048   5.607   4.316
 5346SOL    HW116937   3.047   5.603   4.416
 5346SOL    HW216938   2.960   5.641   4.283
 5347SOL     OW16939   0.170   2.662   1.465
 5347SOL    HW116940   0.134   2.578   1.425
 5347SOL    HW216941   0.234   2.705   1.401
 5348SOL     OW16942   6.814   1.722   0.935
 5348SOL    HW116943   6.810   1.793   1.005
 5348SOL    HW216944   6.908   1.715   0.900
 5349SOL     OW16945   1.566   2.567   0.023
 5349SOL    HW116946   1.510   2.643   7.010
 5349SOL    HW216947   1.506   2.497   0.063
 5350SOL     OW16948   1.721   0.082   5.285
 5350SOL    HW116949   1.704   0.007   5.350
 5350SOL    HW216950   1.704   0.169   5.330
 5351SOL     OW16951   6.837   4.897   2.545
 5351SOL    HW116952   6.913   4.962   2.550
 5351SOL    HW216953   6.752   4.943   2.568
 5352SOL     OW16954   2.667   4.724   3.459
 5352SOL    HW116955   2.571   4.696   3.461
 5352SOL    HW216956   2.708   4.695   3.372
 5353SOL     OW16957   4.182   4.733   3.751
 5353SOL    HW116958   4.219   4.708   3.841
 5353SOL    HW216959   4.084   4.748   3.759
 5354SOL     OW16960   2.656   5.537   1.885
 5354SOL    HW116961   2.607   5.525   1.972
 5354SOL    HW216962   2.734   5.598   1.899
 5355SOL     OW16963   6.681   4.125   3.901
 5355SOL    HW116964   6.748   4.102   3.830
 5355SOL    HW216965   6.672   4.225   3.906
 5356SOL     OW16966   5.909   4.674   1.888
 5356SOL    HW116967   5.957   4.591   1.860
 5356SOL    HW216968   5.907   4.680   1.988
 5357SOL     OW16969   4.001   6.108   0.425
 5357SOL    HW116970   4.058   6.068   0.497
 5357SOL    HW216971   4.017   6.060   0.339
 5358SOL     OW16972   4.635   1.231   0.431
 5358SOL    HW116973   4.637   1.327   0.403
 5358SOL    HW216974   4.697   1.218   0.508
 5359SOL     OW16975   1.280   1.739   5.631
 5359SOL    HW116976   1.272   1.727   5.532
 5359SOL    HW216977   1.257   1.653   5.678
 5360SOL     OW16978   3.489   0.191   5.022
 5360SOL    HW116979   3.529   0.151   5.104
 5360SOL    HW216980   3.517   0.138   4.942
 5361SOL     OW16981   2.767   1.044   5.583
 5361SOL    HW116982   2.715   1.115   5.536
 5361SOL    HW216983   2.709   1.002   5.653
 5362SOL     OW16984   6.759   5.926   3.299
 5362SOL    HW116985   6.853   5.937   3.331
 5362SOL    HW216986   6.716   5.850   3.347
 5363SOL     OW16987   0.293   0.778   6.591
 5363SOL    HW116988   0.193   0.777   6.587
 5363SOL    HW216989   0.324   0.872   6.604
 5364SOL     OW16990   0.176   6.625   1.912
 5364SOL    HW116991   0.183   6.557   1.839
 5364SOL    HW216992   0.106   6.597   1.978
 5365SOL     OW16993   3.659   3.532   0.061
 5365SOL    HW116994   3.714   3.547   7.000
 5365SOL    HW216995   3.664   3.613   0.119
 5366SOL     OW16996   5.117   5.791   1.820
 5366SOL    HW116997   5.128   5.852   1.898
 5366SOL    HW216998   5.132   5.696   1.848
 5367SOL     OW16999   0.976   6.663   0.998
 5367SOL    HW117000   1.053   6.725   0.978
 5367SOL    HW217001   0.947   6.617   0.914
 5368SOL     OW17002   5.364   7.020   2.619
 5368SOL    HW117003   5.334   6.967   2.539
 5368SOL    HW217004   5.390   6.956   2.692
 5369SOL     OW17005   2.650   0.184   2.046
 5369SOL    HW117006   2.721   0.205   2.113
 5369SOL    HW217007   2.574   0.137   2.091
 5370SOL     OW17008   4.446   2.899   1.683
 5370SOL    HW117009   4.350   2.889   1.712
 5370SOL    HW217010   4.493   2.961   1.747
 5371SOL     OW17011   0.664   3.495   5.005
 5371SOL    HW117012   0.663   3.396   4.989
 5371SOL    HW217013   0.690   3.512   5.100
 5372SOL     OW17014   1.967   6.379   4.189
 5372SOL    HW117015   2.015   6.443   4.129
 5372SOL    HW217016   2.033   6.325   4.240
 5373SOL     OW17017   3.882   6.934   4.570
 5373SOL    HW117018   3.838   6.852   4.535
 5373SOL    HW217019   3.950   6.966   4.504
 5374SOL     OW17020   1.643   4.260   6.898
 5374SOL    HW117021   1.687   4.185   6.949
 5374SOL    HW217022   1.652   4.244   6.800
 5375SOL     OW17023   0.857   5.335   5.115
 5375SOL    HW117024   0.862   5.363   5.019
 5375SOL    HW217025   0.761   5.326   5.142
 5376SOL     OW17026   1.858   2.623   0.978
 5376SOL    HW117027   1.840   2.616   0.880
 5376SOL    HW217028   1.818   2.708   1.013
 5377SOL     OW17029   0.127   6.637   2.460
 5377SOL    HW117030   0.063   6.599   2.527
 5377SOL    HW217031   0.084   6.714   2.413
 5378SOL     OW17032   6.325   0.084   1.856
 5378SOL    HW117033   6.300   0.043   1.944
 5378SOL    HW217034   6.396   0.153   1.870
 5379SOL     OW17035   1.132   4.576   5.086
 5379SOL    HW117036   1.106   4.612   5.176
 5379SOL    HW217037   1.092   4.485   5.074
 5380SOL     OW17038   2.278   1.239   3.034
 5380SOL    HW117039   2.259   1.252   3.131
 5380SOL    HW217040   2.357   1.294   3.008
 5381SOL     OW17041   6.576   4.849   2.246
 5381SOL    HW117042   6.501   4.786   2.224
 5381SOL    HW217043   6.660   4.797   2.260
 5382SOL     OW17044   2.997   1.125   2.193
 5382SOL    HW117045   2.957   1.089   2.277
 5382SOL    HW217046   3.005   1.052   2.125
 5383SOL     OW17047   2.221   2.232   5.429
 5383SOL    HW117048   2.202   2.325   5.398
 5383SOL    HW217049   2.230   2.172   5.349
 5384SOL     OW17050   5.933   6.832   5.271
 5384SOL    HW117051   5.999   6.846   5.344
 5384SOL    HW217052   5.842   6.816   5.310
 5385SOL     OW17053   3.436   3.139   4.385
 5385SOL    HW117054   3.438   3.041   4.364
 5385SOL    HW217055   3.391   3.152   4.474
 5386SOL     OW17056   5.037   1.065   4.756
 5386SOL    HW117057   5.110   1.052   4.824
 5386SOL    HW217058   5.050   1.154   4.711
 5387SOL     OW17059   2.639   0.055   3.329
 5387SOL    HW117060   2.648   6.978   3.348
 5387SOL    HW217061   2.599   0.101   3.408
 5388SOL     OW17062   6.830   1.160   3.765
 5388SOL    HW117063   6.850   1.152   3.667
 5388SOL    HW217064   6.903   1.211   3.810
 5389SOL     OW17065   4.438   1.165   2.881
 5389SOL    HW117066   4.503   1.211   2.820
 5389SOL    HW217067   4.487   1.126   2.959
 5390SOL     OW17068   4.786   3.960   3.012
 5390SOL    HW117069   4.712   4.025   2.996
 5390SOL    HW217070   4.818   3.924   2.924
 5391SOL     OW17071   2.391   1.933   0.829
 5391SOL    HW117072   2.422   1.884   0.911
 5391SOL    HW217073   2.460   1.999   0.801
 5392SOL     OW17074   5.371   3.357   0.848
 5392SOL    HW117075   5.322   3.432   0.805
 5392SOL    HW217076   5.314   3.274   0.846
 5393SOL     OW17077   4.606   6.948   6.770
 5393SOL    HW117078   4.512   6.916   6.762
 5393SOL    HW217079   4.663   6.900   6.703
 5394SOL     OW17080   6.737   4.830   0.053
 5394SOL    HW117081   6.679   4.784   7.007
 5394SOL    HW217082   6.694   4.825   0.143
 5395SOL     OW17083   5.204   1.195   1.438
 5395SOL    HW117084   5.135   1.129   1.468
 5395SOL    HW217085   5.291   1.149   1.423
 5396SOL     OW17086   4.336   4.537   1.935
 5396SOL    HW117087   4.273   4.514   1.861
 5396SOL    HW217088   4.382   4.454   1.966
 5397SOL     OW17089   0.506   2.742   1.214
 5397SOL    HW117090   0.542   2.802   1.142
 5397SOL    HW217091   0.581   2.687   1.252
 5398SOL     OW17092   3.847   2.052   3.540
 5398SOL    HW117093   3.762   2.013   3.503
 5398SOL    HW217094   3.893   2.104   3.469
 5399SOL     OW17095   2.946   5.720   0.685
 5399SOL    HW117096   2.884   5.643   0.703
 5399SOL    HW217097   2.905   5.781   0.617
 5400SOL     OW17098   2.472   4.006   6.903
 5400SOL    HW117099   2.468   4.037   6.808
 5400SOL    HW217100   2.390   3.952   6.924
 5401SOL     OW17101   6.326   3.782   1.429
 5401SOL    HW117102   6.387   3.712   1.393
 5401SOL    HW217103   6.290   3.753   1.517
 5402SOL     OW17104   2.828   5.257   1.984
 5402SOL    HW117105   2.892   5.182   1.967
 5402SOL    HW217106   2.867   5.343   1.951
 5403SOL     OW17107   5.554   2.967   6.033
 5403SOL    HW117108   5.543   3.019   5.948
 5403SOL    HW217109   5.534   3.026   6.111
 5404SOL     OW17110   0.967   0.461   2.287
 5404SOL    HW117111   1.028   0.389   2.321
 5404SOL    HW217112   0.918   0.503   2.364
 5405SOL     OW17113   6.031   6.186   0.114
 5405SOL    HW117114   6.098   6.204   0.042
 5405SOL    HW217115   6.072   6.205   0.203
 5406SOL     OW17116   2.591   6.757   6.697
 5406SOL    HW117117   2.511   6.791   6.746
 5406SOL    HW217118   2.583   6.658   6.685
 5407SOL     OW17119   4.248   2.469   1.311
 5407SOL    HW117120   4.201   2.556   1.300
 5407SOL    HW217121   4.241   2.438   1.406
 5408SOL     OW17122   3.710   1.180   5.854
 5408SOL    HW117123   3.769   1.100   5.867
 5408SOL    HW217124   3.710   1.235   5.937
 5409SOL     OW17125   6.033   2.065   3.967
 5409SOL    HW117126   6.009   2.156   4.001
 5409SOL    HW217127   5.999   2.054   3.874
 5410SOL     OW17128   1.483   3.189   0.494
 5410SOL    HW117129   1.471   3.092   0.512
 5410SOL    HW217130   1.527   3.233   0.572
 5411SOL     OW17131   6.223   5.237   5.577
 5411SOL    HW117132   6.182   5.274   5.660
 5411SOL    HW217133   6.321   5.220   5.593
 5412SOL     OW17134   4.080   0.342   0.055
 5412SOL    HW117135   4.138   0.262   0.041
 5412SOL    HW217136   4.128   0.408   0.112
 5413SOL     OW17137   0.476   0.252   1.325
 5413SOL    HW117138   0.401   0.265   1.390
 5413SOL    HW217139   0.439   0.249   1.232
 5414SOL     OW17140   6.432   2.942   5.573
 5414SOL    HW117141   6.369   2.876   5.533
 5414SOL    HW217142   6.405   3.035   5.548
 5415SOL     OW17143   1.501   6.484   1.455
 5415SOL    HW117144   1.479   6.579   1.432
 5415SOL    HW217145   1.543   6.481   1.545
 5416SOL     OW17146   3.919   5.040   6.425
 5416SOL    HW117147   3.986   5.108   6.396
 5416SOL    HW217148   3.870   5.073   6.505
 5417SOL     OW17149   4.419   6.843   4.665
 5417SOL    HW117150   4.431   6.847   4.765
 5417SOL    HW217151   4.450   6.754   4.632
 5418SOL     OW17152   5.052   0.264   4.487
 5418SOL    HW117153   5.045   0.196   4.414
 5418SOL    HW217154   4.968   0.263   4.542
 5419SOL     OW17155   3.013   5.507   0.468
 5419SOL    HW117156   3.062   5.551   0.393
 5419SOL    HW217157   2.999   5.573   0.542
 5420SOL     OW17158   1.733   2.743   2.114
 5420SOL    HW117159   1.707   2.755   2.210
 5420SOL    HW217160   1.759   2.832   2.075
 5421SOL     OW17161   2.146   4.248   3.118
 5421SOL    HW117162   2.233   4.274   3.076
 5421SOL    HW217163   2.141   4.148   3.125
 5422SOL     OW17164   1.078   6.023   5.831
 5422SOL    HW117165   1.137   6.084   5.778
 5422SOL    HW217166   1.029   5.962   5.769
 5423SOL     OW17167   5.638   3.425   6.872
 5423SOL    HW117168   5.737   3.413   6.882
 5423SOL    HW217169   5.591   3.346   6.911
 5424SOL     OW17170   5.993   3.470   4.029
 5424SOL    HW117171   6.034   3.417   4.103
 5424SOL    HW217172   5.909   3.426   3.999
 5425SOL     OW17173   5.450   1.295   3.934
 5425SOL    HW117174   5.354   1.289   3.907
 5425SOL    HW217175   5.495   1.368   3.884
 5426SOL     OW17176   0.061   5.341   3.947
 5426SOL    HW117177   0.104   5.358   4.036
 5426SOL    HW217178   0.104   5.398   3.878
 5427SOL     OW17179   5.184   4.788   1.220
 5427SOL    HW117180   5.098   4.835   1.198
 5427SOL    HW217181   5.186   4.700   1.172
 5428SOL     OW17182   6.959   0.486   1.924
 5428SOL    HW117183   0.011   0.540   1.882
 5428SOL    HW217184   6.997   0.431   1.998
 5429SOL     OW17185   1.093   1.012   5.247
 5429SOL    HW117186   1.041   1.092   5.219
 5429SOL    HW217187   1.182   1.040   5.282
 5430SOL     OW17188   1.455   2.967   5.391
 5430SOL    HW117189   1.535   3.024   5.407
 5430SOL    HW217190   1.396   2.969   5.472
 5431SOL     OW17191   3.679   5.515   6.201
 5431SOL    HW117192   3.635   5.431   6.232
 5431SOL    HW217193   3.690   5.577   6.278
 5432SOL     OW17194   4.239   6.370   5.570
 5432SOL    HW117195   4.299   6.442   5.606
 5432SOL    HW217196   4.280   6.281   5.590
 5433SOL     OW17197   0.096   1.523   3.669
 5433SOL    HW117198   0.144   1.483   3.591
 5433SOL    HW217199   0.131   1.483   3.753
 5434SOL     OW17200   4.037   0.814   4.609
 5434SOL    HW117201   4.039   0.850   4.702
 5434SOL    HW217202   3.943   0.787   4.586
 5435SOL     OW17203   6.112   1.580   1.232
 5435SOL    HW117204   6.096   1.611   1.138
 5435SOL    HW217205   6.107   1.657   1.295
 5436SOL     OW17206   5.503   4.137   4.703
 5436SOL    HW117207   5.507   4.121   4.605
 5436SOL    HW217208   5.578   4.088   4.748
 5437SOL     OW17209   2.249   5.084   5.325
 5437SOL    HW117210   2.295   5.101   5.238
 5437SOL    HW217211   2.283   4.998   5.364
 5438SOL     OW17212   6.077   3.950   2.869
 5438SOL    HW117213   5.987   3.992   2.878
 5438SOL    HW217214   6.148   4.017   2.893
 5439SOL     OW17215   6.918   2.444   0.309
 5439SOL    HW117216   6.993   2.378   0.315
 5439SOL    HW217217   6.834   2.396   0.286
 5440SOL     OW17218   0.574   0.042   2.641
 5440SOL    HW117219   0.494   0.101   2.634
 5440SOL    HW217220   0.638   0.079   2.708
 5441SOL     OW17221   4.886   3.118   3.445
 5441SOL    HW117222   4.883   3.018   3.450
 5441SOL    HW217223   4.794   3.155   3.456
 5442SOL     OW17224   3.033   6.587   3.213
 5442SOL    HW117225   3.071   6.667   3.167
 5442SOL    HW217226   3.105   6.520   3.230
 5443SOL     OW17227   2.687   6.371   3.626
 5443SOL    HW117228   2.734   6.347   3.711
 5443SOL    HW217229   2.671   6.470   3.624
 5444SOL     OW17230   0.675   0.515   3.482
 5444SOL    HW117231   0.672   0.427   3.435
 5444SOL    HW217232   0.661   0.502   3.580
 5445SOL     OW17233   6.372   4.436   4.089
 5445SOL    HW117234   6.326   4.489   4.017
 5445SOL    HW217235   6.468   4.461   4.093
 5446SOL     OW17236   5.406   5.082   4.901
 5446SOL    HW117237   5.425   5.110   4.996
 5446SOL    HW217238   5.384   4.985   4.899
 5447SOL     OW17239   1.509   1.814   0.699
 5447SOL    HW117240   1.417   1.784   0.676
 5447SOL    HW217241   1.527   1.794   0.796
 5448SOL     OW17242   5.746   3.983   4.795
 5448SOL    HW117243   5.729   3.915   4.724
 5448SOL    HW217244   5.837   4.023   4.780
 5449SOL     OW17245   1.460   1.735   6.871
 5449SOL    HW117246   1.547   1.689   6.889
 5449SOL    HW217247   1.469   1.791   6.788
 5450SOL     OW17248   2.085   0.813   1.886
 5450SOL    HW117249   1.996   0.843   1.920
 5450SOL    HW217250   2.072   0.754   1.806
 5451SOL     OW17251   1.797   5.484   3.318
 5451SOL    HW117252   1.755   5.545   3.385
 5451SOL    HW217253   1.788   5.389   3.349
 5452SOL     OW17254   2.148   3.915   0.390
 5452SOL    HW117255   2.133   3.882   0.297
 5452SOL    HW217256   2.061   3.945   0.430
 5453SOL     OW17257   5.047   4.340   1.271
 5453SOL    HW117258   5.133   4.289   1.267
 5453SOL    HW217259   5.017   4.348   1.366
 5454SOL     OW17260   6.321   4.343   5.483
 5454SOL    HW117261   6.240   4.312   5.533
 5454SOL    HW217262   6.376   4.402   5.541
 5455SOL     OW17263   6.392   2.217   1.969
 5455SOL    HW117264   6.442   2.131   1.979
 5455SOL    HW217265   6.420   2.281   2.040
 5456SOL     OW17266   2.543   6.985   0.210
 5456SOL    HW117267   2.570   6.922   0.137
 5456SOL    HW217268   2.609   6.979   0.284
 5457SOL     OW17269   0.447   2.648   0.906
 5457SOL    HW117270   0.500   2.564   0.894
 5457SOL    HW217271   0.509   2.724   0.923
 5458SOL     OW17272   0.170   4.321   0.390
 5458SOL    HW117273   0.192   4.243   0.448
 5458SOL    HW217274   0.125   4.392   0.444
 5459SOL     OW17275   2.750   3.999   6.471
 5459SOL    HW117276   2.659   4.033   6.444
 5459SOL    HW217277   2.818   4.069   6.451
 5460SOL     OW17278   4.150   0.103   3.233
 5460SOL    HW117279   4.166   0.201   3.227
 5460SOL    HW217280   4.053   0.086   3.250
 5461SOL     OW17281   0.239   0.651   5.764
 5461SOL    HW117282   0.262   0.575   5.824
 5461SOL    HW217283   0.220   0.616   5.672
 5462SOL     OW17284   6.805   6.734   1.171
 5462SOL    HW117285   6.868   6.806   1.140
 5462SOL    HW217286   6.857   6.655   1.203
 5463SOL     OW17287   0.144   1.383   0.589
 5463SOL    HW117288   0.243   1.393   0.589
 5463SOL    HW217289   0.106   1.431   0.668
 5464SOL     OW17290   0.257   0.578   4.586
 5464SOL    HW117291   0.341   0.573   4.640
 5464SOL    HW217292   0.180   0.546   4.641
 5465SOL     OW17293   4.845   0.686   4.296
 5465SOL    HW117294   4.784   0.720   4.224
 5465SOL    HW217295   4.790   0.648   4.370
 5466SOL     OW17296   5.399   3.211   4.663
 5466SOL    HW117297   5.473   3.143   4.669
 5466SOL    HW217298   5.385   3.254   4.752
 5467SOL     OW17299   4.839   3.935   3.587
 5467SOL    HW117300   4.843   3.859   3.522
 5467SOL    HW217301   4.879   3.907   3.674
 5468SOL     OW17302   6.569   2.737   3.748
 5468SOL    HW117303   6.546   2.666   3.816
 5468SOL    HW217304   6.530   2.712   3.660
 5469SOL     OW17305   2.725   5.761   5.736
 5469SOL    HW117306   2.645   5.714   5.697
 5469SOL    HW217307   2.789   5.693   5.771
 5470SOL     OW17308   3.503   5.559   3.391
 5470SOL    HW117309   3.518   5.603   3.480
 5470SOL    HW217310   3.574   5.491   3.375
 5471SOL     OW17311   5.820   6.644   2.600
 5471SOL    HW117312   5.734   6.691   2.582
 5471SOL    HW217313   5.870   6.692   2.672
 5472SOL     OW17314   3.652   4.018   6.403
 5472SOL    HW117315   3.648   4.118   6.400
 5472SOL    HW217316   3.564   3.980   6.376
 5473SOL     OW17317   0.648   3.251   2.427
 5473SOL    HW117318   0.600   3.250   2.339
 5473SOL    HW217319   0.639   3.162   2.471
 5474SOL     OW17320   1.253   4.714   4.041
 5474SOL    HW117321   1.269   4.784   4.111
 5474SOL    HW217322   1.205   4.754   3.964
 5475SOL     OW17323   2.351   2.807   0.946
 5475SOL    HW117324   2.292   2.737   0.985
 5475SOL    HW217325   2.426   2.827   1.010
 5476SOL     OW17326   2.617   4.427   5.812
 5476SOL    HW117327   2.631   4.342   5.763
 5476SOL    HW217328   2.599   4.501   5.747
 5477SOL     OW17329   1.926   4.536   2.794
 5477SOL    HW117330   1.978   4.613   2.828
 5477SOL    HW217331   1.905   4.473   2.869
 5478SOL     OW17332   3.159   6.085   4.348
 5478SOL    HW117333   3.130   5.993   4.374
 5478SOL    HW217334   3.235   6.114   4.407
 5479SOL     OW17335   5.464   1.305   6.237
 5479SOL    HW117336   5.460   1.254   6.323
 5479SOL    HW217337   5.498   1.398   6.254
 5480SOL     OW17338   5.891   4.800   3.434
 5480SOL    HW117339   5.847   4.787   3.345
 5480SOL    HW217340   5.949   4.881   3.431
 5481SOL     OW17341   4.323   1.809   3.951
 5481SOL    HW117342   4.376   1.797   3.867
 5481SOL    HW217343   4.301   1.906   3.963
 5482SOL     OW17344   3.643   4.328   1.795
 5482SOL    HW117345   3.609   4.422   1.801
 5482SOL    HW217346   3.575   4.265   1.832
 5483SOL     OW17347   0.143   1.550   5.556
 5483SOL    HW117348   0.241   1.567   5.558
 5483SOL    HW217349   0.114   1.534   5.462
 5484SOL     OW17350   3.989   1.563   4.162
 5484SOL    HW117351   4.077   1.554   4.115
 5484SOL    HW217352   3.985   1.498   4.238
 5485SOL     OW17353   3.957   0.227   4.747
 5485SOL    HW117354   4.044   0.242   4.699
 5485SOL    HW217355   3.912   0.146   4.710
 5486SOL     OW17356   2.237   6.345   5.229
 5486SOL    HW117357   2.290   6.292   5.295
 5486SOL    HW217358   2.166   6.287   5.189
 5487SOL     OW17359   4.942   2.438   6.874
 5487SOL    HW117360   4.956   2.536   6.887
 5487SOL    HW217361   4.963   2.390   6.959
 5488SOL     OW17362   6.185   0.577   1.244
 5488SOL    HW117363   6.180   0.494   1.188
 5488SOL    HW217364   6.267   0.629   1.218
 5489SOL     OW17365   0.307   4.364   1.668
 5489SOL    HW117366   0.219   4.403   1.695
 5489SOL    HW217367   0.301   4.264   1.668
 5490SOL     OW17368   3.024   0.471   2.360
 5490SOL    HW117369   3.088   0.495   2.433
 5490SOL    HW217370   2.945   0.424   2.399
 5491SOL     OW17371   0.850   3.124   0.344
 5491SOL    HW117372   0.788   3.045   0.345
 5491SOL    HW217373   0.909   3.120   0.264
 5492SOL     OW17374   0.809   3.782   6.550
 5492SOL    HW117375   0.752   3.701   6.565
 5492SOL    HW217376   0.752   3.857   6.517
 5493SOL     OW17377   3.420   4.122   4.115
 5493SOL    HW117378   3.368   4.084   4.191
 5493SOL    HW217379   3.363   4.123   4.033
 5494SOL     OW17380   0.993   3.930   5.958
 5494SOL    HW117381   0.945   4.015   5.981
 5494SOL    HW217382   1.049   3.902   6.036
 5495SOL     OW17383   5.540   1.137   0.533
 5495SOL    HW117384   5.554   1.138   0.632
 5495SOL    HW217385   5.480   1.213   0.507
 5496SOL     OW17386   4.309   0.682   3.294
 5496SOL    HW117387   4.378   0.664   3.223
 5496SOL    HW217388   4.326   0.623   3.373
 5497SOL     OW17389   6.848   0.876   5.042
 5497SOL    HW117390   6.762   0.883   5.094
 5497SOL    HW217391   6.827   0.866   4.945
 5498SOL     OW17392   6.693   5.644   1.395
 5498SOL    HW117393   6.648   5.674   1.311
 5498SOL    HW217394   6.733   5.724   1.441
 5499SOL     OW17395   0.884   0.495   4.384
 5499SOL    HW117396   0.949   0.425   4.355
 5499SOL    HW217397   0.914   0.585   4.352
 5500SOL     OW17398   0.897   0.586   0.316
 5500SOL    HW117399   0.937   0.496   0.334
 5500SOL    HW217400   0.946   0.630   0.241
 5501SOL     OW17401   3.427   1.649   6.661
 5501SOL    HW117402   3.524   1.656   6.636
 5501SOL    HW217403   3.411   1.563   6.708
 5502SOL     OW17404   4.601   3.868   0.155
 5502SOL    HW117405   4.653   3.785   0.174
 5502SOL    HW217406   4.660   3.936   0.112
 5503SOL     OW17407   6.623   4.233   1.353
 5503SOL    HW117408   6.622   4.269   1.260
 5503SOL    HW217409   6.671   4.297   1.413
 5504SOL     OW17410   4.473   1.559   5.264
 5504SOL    HW117411   4.560   1.609   5.269
 5504SOL    HW217412   4.402   1.620   5.228
 5505SOL     OW17413   1.770   5.376   4.193
 5505SOL    HW117414   1.708   5.338   4.262
 5505SOL    HW217415   1.861   5.387   4.233
 5506SOL     OW17416   0.274   3.632   0.538
 5506SOL    HW117417   0.178   3.615   0.559
 5506SOL    HW217418   0.329   3.551   0.560
 5507SOL     OW17419   4.320   1.050   4.808
 5507SOL    HW117420   4.248   1.030   4.875
 5507SOL    HW217421   4.406   1.011   4.838
 5508SOL     OW17422   1.501   1.046   0.447
 5508SOL    HW117423   1.501   1.125   0.386
 5508SOL    HW217424   1.442   0.975   0.409
 5509SOL     OW17425   0.299   5.926   6.264
 5509SOL    HW117426   0.200   5.936   6.266
 5509SOL    HW217427   0.337   5.954   6.352
 5510SOL     OW17428   4.500   5.390   6.781
 5510SOL    HW117429   4.599   5.377   6.785
 5510SOL    HW217430   4.458   5.311   6.736
 5511SOL     OW17431   1.073   0.116   4.016
 5511SOL    HW117432   0.988   0.066   4.027
 5511SOL    HW217433   1.148   0.067   4.061
 5512SOL     OW17434   4.850   2.243   0.626
 5512SOL    HW117435   4.784   2.300   0.675
 5512SOL    HW217436   4.922   2.214   0.689
 5513SOL     OW17437   3.699   5.397   5.806
 5513SOL    HW117438   3.740   5.488   5.808
 5513SOL    HW217439   3.759   5.331   5.852
 5514SOL     OW17440   3.395   0.613   4.712
 5514SOL    HW117441   3.453   0.539   4.679
 5514SOL    HW217442   3.302   0.601   4.677
 5515SOL     OW17443   0.866   5.809   1.500
 5515SOL    HW117444   0.834   5.798   1.594
 5515SOL    HW217445   0.938   5.878   1.497
 5516SOL     OW17446   1.864   3.144   5.689
 5516SOL    HW117447   1.897   3.058   5.729
 5516SOL    HW217448   1.781   3.125   5.636
 5517SOL     OW17449   2.079   3.291   2.175
 5517SOL    HW117450   1.988   3.328   2.190
 5517SOL    HW217451   2.121   3.336   2.096
 5518SOL     OW17452   5.891   5.776   6.652
 5518SOL    HW117453   5.811   5.834   6.671
 5518SOL    HW217454   5.891   5.698   6.714
 5519SOL     OW17455   5.383   3.441   3.127
 5519SOL    HW117456   5.362   3.538   3.110
 5519SOL    HW217457   5.457   3.412   3.067
 5520SOL     OW17458   6.520   6.748   2.446
 5520SOL    HW117459   6.572   6.743   2.532
 5520SOL    HW217460   6.482   6.840   2.436
 5521SOL     OW17461   4.737   6.365   2.411
 5521SOL    HW117462   4.784   6.281   2.439
 5521SOL    HW217463   4.677   6.345   2.333
 5522SOL     OW17464   5.991   4.584   0.603
 5522SOL    HW117465   5.962   4.616   0.513
 5522SOL    HW217466   6.069   4.638   0.634
 5523SOL     OW17467   3.990   1.892   1.697
 5523SOL    HW117468   3.979   1.938   1.785
 5523SOL    HW217469   3.981   1.793   1.710
 5524SOL     OW17470   4.469   0.251   4.520
 5524SOL    HW117471   4.542   0.269   4.454
 5524SOL    HW217472   4.504   0.191   4.592
 5525SOL     OW17473   0.398   2.159   0.190
 5525SOL    HW117474   0.316   2.107   0.217
 5525SOL    HW217475   0.431   2.211   0.268
 5526SOL     OW17476   4.921   5.026   2.886
 5526SOL    HW117477   4.914   5.044   2.984
 5526SOL    HW217478   5.016   5.004   2.863
 5527SOL     OW17479   4.835   3.736   4.041
 5527SOL    HW117480   4.874   3.647   4.064
 5527SOL    HW217481   4.810   3.784   4.125
 5528SOL     OW17482   1.722   1.048   0.627
 5528SOL    HW117483   1.682   1.076   0.539
 5528SOL    HW217484   1.816   1.019   0.612
 5529SOL     OW17485   3.410   6.770   5.187
 5529SOL    HW117486   3.510   6.772   5.175
 5529SOL    HW217487   3.388   6.727   5.274
 5530SOL     OW17488   6.090   1.712   0.738
 5530SOL    HW117489   6.089   1.812   0.727
 5530SOL    HW217490   6.044   1.670   0.660
 5531SOL     OW17491   3.801   3.552   1.885
 5531SOL    HW117492   3.716   3.507   1.911
 5531SOL    HW217493   3.819   3.627   1.948
 5532SOL     OW17494   0.947   3.343   1.216
 5532SOL    HW117495   0.994   3.428   1.239
 5532SOL    HW217496   0.879   3.361   1.145
 5533SOL     OW17497   3.910   1.816   3.056
 5533SOL    HW117498   3.922   1.827   3.155
 5533SOL    HW217499   3.815   1.791   3.037
 5534SOL     OW17500   1.041   1.870   7.000
 5534SOL    HW117501   0.965   1.815   0.016
 5534SOL    HW217502   1.025   1.967   0.000
 5535SOL     OW17503   1.099   1.415   3.128
 5535SOL    HW117504   1.137   1.454   3.212
 5535SOL    HW217505   1.169   1.416   3.056
 5536SOL     OW17506   4.005   0.690   4.336
 5536SOL    HW117507   3.951   0.677   4.419
 5536SOL    HW217508   3.957   0.750   4.273
 5537SOL     OW17509   3.091   1.323   2.520
 5537SOL    HW117510   3.058   1.237   2.558
 5537SOL    HW217511   3.190   1.318   2.508
 5538SOL     OW17512   3.545   5.648   4.832
 5538SOL    HW117513   3.633   5.684   4.863
 5538SOL    HW217514   3.547   5.548   4.834
 5539SOL     OW17515   1.236   4.329   1.863
 5539SOL    HW117516   1.327   4.315   1.901
 5539SOL    HW217517   1.223   4.425   1.840
 5540SOL     OW17518   4.741   4.644   4.140
 5540SOL    HW117519   4.657   4.659   4.088
 5540SOL    HW217520   4.744   4.550   4.172
 5541SOL     OW17521   4.817   0.439   6.867
 5541SOL    HW117522   4.894   0.462   6.807
 5541SOL    HW217523   4.844   0.367   6.930
 5542SOL     OW17524   4.297   3.445   5.914
 5542SOL    HW117525   4.202   3.448   5.945
 5542SOL    HW217526   4.358   3.461   5.991
 5543SOL     OW17527   4.359   4.112   6.534
 5543SOL    HW117528   4.395   4.202   6.508
 5543SOL    HW217529   4.286   4.124   6.602
 5544SOL     OW17530   4.932   5.521   6.952
 5544SOL    HW117531   4.955   5.604   6.901
 5544SOL    HW217532   4.860   5.472   6.903
 5545SOL     OW17533   4.372   0.478   2.732
 5545SOL    HW117534   4.412   0.389   2.710
 5545SOL    HW217535   4.334   0.518   2.649
 5546SOL     OW17536   0.314   4.828   4.166
 5546SOL    HW117537   0.272   4.857   4.252
 5546SOL    HW217538   0.252   4.846   4.090
 5547SOL     OW17539   3.347   6.663   5.423
 5547SOL    HW117540   3.254   6.700   5.421
 5547SOL    HW217541   3.343   6.563   5.423
 5548SOL     OW17542   6.186   2.447   5.426
 5548SOL    HW117543   6.137   2.524   5.385
 5548SOL    HW217544   6.285   2.460   5.414
 5549SOL     OW17545   4.173   4.849   7.002
 5549SOL    HW117546   4.179   4.759   6.960
 5549SOL    HW217547   4.176   4.919   6.931
 5550SOL     OW17548   2.926   5.464   2.513
 5550SOL    HW117549   3.025   5.453   2.506
 5550SOL    HW217550   2.903   5.513   2.597
 5551SOL     OW17551   1.945   0.950   2.783
 5551SOL    HW117552   1.880   1.008   2.834
 5551SOL    HW217553   2.036   0.961   2.822
 5552SOL     OW17554   7.006   1.066   6.886
 5552SOL    HW117555   0.021   0.974   6.871
 5552SOL    HW217556   0.034   1.131   6.828
 5553SOL     OW17557   3.963   6.569   0.344
 5553SOL    HW117558   3.950   6.546   0.441
 5553SOL    HW217559   3.877   6.603   0.306
 5554SOL     OW17560   2.720   1.601   5.525
 5554SOL    HW117561   2.630   1.563   5.545
 5554SOL    HW217562   2.717   1.700   5.534
 5555SOL     OW17563   0.894   4.851   3.774
 5555SOL    HW117564   0.980   4.890   3.808
 5555SOL    HW217565   0.881   4.760   3.812
 5556SOL     OW17566   0.534   2.888   4.093
 5556SOL    HW117567   0.540   2.835   4.178
 5556SOL    HW217568   0.441   2.885   4.058
 5557SOL     OW17569   3.280   4.918   3.787
 5557SOL    HW117570   3.185   4.892   3.803
 5557SOL    HW217571   3.297   5.009   3.824
 5558SOL     OW17572   4.918   3.342   5.352
 5558SOL    HW117573   4.900   3.366   5.257
 5558SOL    HW217574   4.891   3.247   5.368
 5559SOL     OW17575   2.726   0.008   2.442
 5559SOL    HW117576   2.736   6.957   2.511
 5559SOL    HW217577   2.634   0.046   2.447
 5560SOL     OW17578   0.460   6.718   2.865
 5560SOL    HW117579   0.489   6.724   2.961
 5560SOL    HW217580   0.530   6.759   2.806
 5561SOL     OW17581   2.105   2.020   3.660
 5561SOL    HW117582   2.104   2.025   3.760
 5561SOL    HW217583   2.111   1.924   3.632
 5562SOL     OW17584   1.852   2.161   6.704
 5562SOL    HW117585   1.948   2.166   6.674
 5562SOL    HW217586   1.803   2.096   6.646
 5563SOL     OW17587   4.533   6.121   2.514
 5563SOL    HW117588   4.579   6.190   2.458
 5563SOL    HW217589   4.447   6.160   2.549
 5564SOL     OW17590   5.277   1.922   1.213
 5564SOL    HW117591   5.205   1.987   1.189
 5564SOL    HW217592   5.260   1.886   1.304
 5565SOL     OW17593   4.669   2.101   6.085
 5565SOL    HW117594   4.692   2.027   6.021
 5565SOL    HW217595   4.744   2.112   6.150
 5566SOL     OW17596   0.843   5.604   1.180
 5566SOL    HW117597   0.875   5.695   1.157
 5566SOL    HW217598   0.885   5.574   1.266
 5567SOL     OW17599   0.925   5.066   0.718
 5567SOL    HW117600   0.880   5.010   0.787
 5567SOL    HW217601   0.872   5.064   0.633
 5568SOL     OW17602   4.362   2.570   1.748
 5568SOL    HW117603   4.364   2.519   1.834
 5568SOL    HW217604   4.441   2.632   1.744
 5569SOL     OW17605   3.997   1.797   2.107
 5569SOL    HW117606   3.993   1.787   2.007
 5569SOL    HW217607   4.034   1.887   2.129
 5570SOL     OW17608   6.180   4.865   4.640
 5570SOL    HW117609   6.279   4.877   4.642
 5570SOL    HW217610   6.149   4.830   4.728
 5571SOL     OW17611   0.410   6.401   0.524
 5571SOL    HW117612   0.475   6.438   0.459
 5571SOL    HW217613   0.413   6.301   0.521
 5572SOL     OW17614   3.103   2.736   6.493
 5572SOL    HW117615   3.055   2.823   6.478
 5572SOL    HW217616   3.139   2.734   6.587
 5573SOL     OW17617   0.893   2.791   0.692
 5573SOL    HW117618   0.932   2.879   0.664
 5573SOL    HW217619   0.890   2.786   0.791
 5574SOL     OW17620   6.947   1.145   4.494
 5574SOL    HW117621   6.896   1.110   4.573
 5574SOL    HW217622   6.990   1.068   4.446
 5575SOL     OW17623   1.607   0.592   1.621
 5575SOL    HW117624   1.604   0.691   1.629
 5575SOL    HW217625   1.661   0.554   1.696
 5576SOL     OW17626   6.366   5.341   1.815
 5576SOL    HW117627   6.332   5.249   1.795
 5576SOL    HW217628   6.300   5.389   1.873
 5577SOL     OW17629   2.256   3.517   5.205
 5577SOL    HW117630   2.344   3.498   5.249
 5577SOL    HW217631   2.182   3.481   5.261
 5578SOL     OW17632   3.400   2.935   0.641
 5578SOL    HW117633   3.417   2.879   0.560
 5578SOL    HW217634   3.306   2.971   0.638
 5579SOL     OW17635   5.438   3.897   5.926
 5579SOL    HW117636   5.524   3.898   5.977
 5579SOL    HW217637   5.361   3.903   5.989
 5580SOL     OW17638   4.514   1.657   0.538
 5580SOL    HW117639   4.583   1.640   0.608
 5580SOL    HW217640   4.424   1.667   0.580
 5581SOL     OW17641   2.681   0.291   0.477
 5581SOL    HW117642   2.753   0.238   0.430
 5581SOL    HW217643   2.653   0.367   0.418
 5582SOL     OW17644   3.649   3.860   4.288
 5582SOL    HW117645   3.625   3.883   4.382
 5582SOL    HW217646   3.671   3.944   4.238
 5583SOL     OW17647   4.260   6.782   2.747
 5583SOL    HW117648   4.314   6.795   2.664
 5583SOL    HW217649   4.262   6.866   2.801
 5584SOL     OW17650   5.672   4.201   3.640
 5584SOL    HW117651   5.686   4.155   3.728
 5584SOL    HW217652   5.745   4.177   3.577
 5585SOL     OW17653   5.838   0.500   4.053
 5585SOL    HW117654   5.830   0.407   4.088
 5585SOL    HW217655   5.790   0.507   3.965
 5586SOL     OW17656   1.759   1.987   6.496
 5586SOL    HW117657   1.844   1.944   6.464
 5586SOL    HW217658   1.710   2.026   6.417
 5587SOL     OW17659   3.682   0.261   2.775
 5587SOL    HW117660   3.721   0.194   2.838
 5587SOL    HW217661   3.586   0.276   2.798
 5588SOL     OW17662   1.663   6.757   4.623
 5588SOL    HW117663   1.711   6.839   4.655
 5588SOL    HW217664   1.653   6.762   4.523
 5589SOL     OW17665   5.141   3.202   5.540
 5589SOL    HW117666   5.093   3.289   5.545
 5589SOL    HW217667   5.113   3.144   5.616
 5590SOL     OW17668   6.658   5.692   3.427
 5590SOL    HW117669   6.562   5.712   3.450
 5590SOL    HW217670   6.672   5.593   3.428
 5591SOL     OW17671   5.754   0.458   0.153
 5591SOL    HW117672   5.805   0.503   0.080
 5591SOL    HW217673   5.656   0.466   0.135
 5592SOL     OW17674   1.857   3.519   4.013
 5592SOL    HW117675   1.839   3.574   3.932
 5592SOL    HW217676   1.839   3.422   3.993
 5593SOL     OW17677   0.202   2.445   5.912
 5593SOL    HW117678   0.160   2.532   5.887
 5593SOL    HW217679   0.247   2.454   6.001
 5594SOL     OW17680   2.379   0.981   6.875
 5594SOL    HW117681   2.477   0.986   6.857
 5594SOL    HW217682   2.348   0.886   6.869
 5595SOL     OW17683   6.318   0.669   5.631
 5595SOL    HW117684   6.244   0.702   5.573
 5595SOL    HW217685   6.374   0.747   5.661
 5596SOL     OW17686   6.089   6.956   2.483
 5596SOL    HW117687   6.095   0.035   2.476
 5596SOL    HW217688   6.002   6.926   2.444
 5597SOL     OW17689   4.999   2.291   6.005
 5597SOL    HW117690   5.041   2.215   5.956
 5597SOL    HW217691   4.949   2.257   6.084
 5598SOL     OW17692   5.071   2.160   4.039
 5598SOL    HW117693   5.061   2.061   4.040
 5598SOL    HW217694   5.091   2.192   4.132
 5599SOL     OW17695   5.759   3.865   1.804
 5599SOL    HW117696   5.735   3.948   1.753
 5599SOL    HW217697   5.720   3.870   1.896
 5600SOL     OW17698   2.680   0.018   3.035
 5600SOL    HW117699   2.774   0.026   3.066
 5600SOL    HW217700   2.618   0.045   3.110
 5601SOL     OW17701   5.296   2.879   5.749
 5601SOL    HW117702   5.255   2.807   5.806
 5601SOL    HW217703   5.372   2.840   5.697
 5602SOL     OW17704   0.060   1.771   3.496
 5602SOL    HW117705   6.984   1.756   3.520
 5602SOL    HW217706   0.117   1.706   3.547
 5603SOL     OW17707   4.485   2.497   5.125
 5603SOL    HW117708   4.490   2.471   5.029
 5603SOL    HW217709   4.529   2.586   5.137
 5604SOL     OW17710   0.627   0.606   4.103
 5604SOL    HW117711   0.685   0.533   4.141
 5604SOL    HW217712   0.661   0.632   4.013
 5605SOL     OW17713   0.844   0.038   4.628
 5605SOL    HW117714   0.914   0.092   4.675
 5605SOL    HW217715   0.770   0.017   4.692
 5606SOL     OW17716   4.669   1.528   0.041
 5606SOL    HW117717   4.767   1.514   0.023
 5606SOL    HW217718   4.651   1.520   0.139
 5607SOL     OW17719   6.019   2.662   3.518
 5607SOL    HW117720   6.046   2.568   3.501
 5607SOL    HW217721   5.999   2.674   3.615
 5608SOL     OW17722   6.313   0.182   3.244
 5608SOL    HW117723   6.228   0.235   3.236
 5608SOL    HW217724   6.350   0.193   3.336
 5609SOL     OW17725   4.683   6.356   0.200
 5609SOL    HW117726   4.661   6.379   0.295
 5609SOL    HW217727   4.634   6.272   0.174
 5610SOL     OW17728   5.807   4.109   6.799
 5610SOL    HW117729   5.762   4.116   6.889
 5610SOL    HW217730   5.757   4.045   6.742
 5611SOL     OW17731   0.495   4.492   1.869
 5611SOL    HW117732   0.428   4.418   1.881
 5611SOL    HW217733   0.498   4.518   1.772
 5612SOL     OW17734   3.041   2.915   0.224
 5612SOL    HW117735   3.048   2.837   0.162
 5612SOL    HW217736   3.040   2.883   0.319
 5613SOL     OW17737   0.208   5.426   4.166
 5613SOL    HW117738   0.252   5.450   4.253
 5613SOL    HW217739   0.229   5.495   4.097
 5614SOL     OW17740   6.138   1.876   4.120
 5614SOL    HW117741   6.101   1.948   4.061
 5614SOL    HW217742   6.237   1.871   4.110
 5615SOL     OW17743   0.511   2.227   2.478
 5615SOL    HW117744   0.562   2.250   2.396
 5615SOL    HW217745   0.496   2.128   2.481
 5616SOL     OW17746   2.070   1.818   4.344
 5616SOL    HW117747   2.153   1.874   4.345
 5616SOL    HW217748   1.991   1.874   4.369
 5617SOL     OW17749   1.922   5.285   4.832
 5617SOL    HW117750   1.824   5.304   4.823
 5617SOL    HW217751   1.969   5.370   4.854
 5618SOL     OW17752   6.485   5.288   3.767
 5618SOL    HW117753   6.553   5.249   3.705
 5618SOL    HW217754   6.498   5.387   3.774
 5619SOL     OW17755   3.342   3.113   3.536
 5619SOL    HW117756   3.368   3.208   3.522
 5619SOL    HW217757   3.282   3.083   3.462
 5620SOL     OW17758   4.152   3.874   5.931
 5620SOL    HW117759   4.172   3.848   5.837
 5620SOL    HW217760   4.235   3.864   5.987
 5621SOL     OW17761   2.002   3.073   6.107
 5621SOL    HW117762   2.025   3.156   6.055
 5621SOL    HW217763   2.081   3.012   6.109
 5622SOL     OW17764   4.171   5.605   5.139
 5622SOL    HW117765   4.085   5.634   5.182
 5622SOL    HW217766   4.211   5.683   5.089
 5623SOL     OW17767   4.953   6.854   4.263
 5623SOL    HW117768   5.052   6.860   4.276
 5623SOL    HW217769   4.931   6.859   4.166
 5624SOL     OW17770   0.416   5.227   3.373
 5624SOL    HW117771   0.432   5.311   3.426
 5624SOL    HW217772   0.386   5.154   3.435
 5625SOL     OW17773   0.897   5.871   4.670
 5625SOL    HW117774   0.923   5.948   4.728
 5625SOL    HW217775   0.799   5.876   4.651
 5626SOL     OW17776   1.601   4.556   4.539
 5626SOL    HW117777   1.603   4.645   4.583
 5626SOL    HW217778   1.663   4.557   4.460
 5627SOL     OW17779   0.736   5.803   6.252
 5627SOL    HW117780   0.655   5.844   6.211
 5627SOL    HW217781   0.776   5.866   6.319
 5628SOL     OW17782   2.806   3.317   0.831
 5628SOL    HW117783   2.765   3.227   0.814
 5628SOL    HW217784   2.778   3.350   0.921
 5629SOL     OW17785   3.979   3.632   1.286
 5629SOL    HW117786   3.956   3.716   1.236
 5629SOL    HW217787   3.917   3.623   1.365
 5630SOL     OW17788   1.739   3.831   6.172
 5630SOL    HW117789   1.655   3.777   6.168
 5630SOL    HW217790   1.780   3.837   6.081
 5631SOL     OW17791   4.718   0.867   2.081
 5631SOL    HW117792   4.813   0.892   2.059
 5631SOL    HW217793   4.712   0.846   2.179
 5632SOL     OW17794   4.891   1.033   6.048
 5632SOL    HW117795   4.990   1.045   6.038
 5632SOL    HW217796   4.855   0.982   5.970
 5633SOL     OW17797   0.619   5.013   4.477
 5633SOL    HW117798   0.657   4.939   4.423
 5633SOL    HW217799   0.539   5.051   4.430
 5634SOL     OW17800   2.380   5.487   5.432
 5634SOL    HW117801   2.371   5.489   5.332
 5634SOL    HW217802   2.473   5.459   5.455
 5635SOL     OW17803   2.994   0.035   6.647
 5635SOL    HW117804   2.905   0.081   6.639
 5635SOL    HW217805   3.013   0.017   6.743
 5636SOL     OW17806   5.842   1.323   5.938
 5636SOL    HW117807   5.745   1.334   5.957
 5636SOL    HW217808   5.886   1.413   5.934
 5637SOL     OW17809   5.856   6.555   4.310
 5637SOL    HW117810   5.784   6.584   4.248
 5637SOL    HW217811   5.914   6.633   4.334
 5638SOL     OW17812   5.369   5.749   1.564
 5638SOL    HW117813   5.442   5.786   1.507
 5638SOL    HW217814   5.324   5.824   1.614
 5639SOL     OW17815   1.532   0.334   1.512
 5639SOL    HW117816   1.561   0.421   1.551
 5639SOL    HW217817   1.438   0.314   1.541
 5640SOL     OW17818   2.547   6.863   2.888
 5640SOL    HW117819   2.592   6.918   2.958
 5640SOL    HW217820   2.545   6.767   2.918
 5641SOL     OW17821   0.572   4.421   5.650
 5641SOL    HW117822   0.488   4.366   5.657
 5641SOL    HW217823   0.650   4.367   5.682
 5642SOL     OW17824   0.384   5.115   6.084
 5642SOL    HW117825   0.321   5.144   6.012
 5642SOL    HW217826   0.465   5.075   6.043
 5643SOL     OW17827   3.404   1.037   4.731
 5643SOL    HW117828   3.379   1.122   4.683
 5643SOL    HW217829   3.365   1.038   4.823
 5644SOL     OW17830   5.319   1.701   4.286
 5644SOL    HW117831   5.221   1.705   4.306
 5644SOL    HW217832   5.367   1.766   4.345
 5645SOL     OW17833   5.869   4.226   2.419
 5645SOL    HW117834   5.946   4.232   2.482
 5645SOL    HW217835   5.812   4.147   2.442
 5646SOL     OW17836   1.288   5.403   3.933
 5646SOL    HW117837   1.236   5.319   3.947
 5646SOL    HW217838   1.224   5.481   3.930
 5647SOL     OW17839   6.485   6.111   6.521
 5647SOL    HW117840   6.520   6.177   6.587
 5647SOL    HW217841   6.433   6.040   6.569
 5648SOL     OW17842   1.791   1.092   2.971
 5648SOL    HW117843   1.796   1.045   3.059
 5648SOL    HW217844   1.749   1.182   2.984
 5649SOL     OW17845   1.343   0.209   5.190
 5649SOL    HW117846   1.352   0.306   5.169
 5649SOL    HW217847   1.419   0.159   5.148
 5650SOL     OW17848   0.406   5.055   1.187
 5650SOL    HW117849   0.419   5.103   1.099
 5650SOL    HW217850   0.431   5.117   1.261
 5651SOL     OW17851   0.490   1.897   1.516
 5651SOL    HW117852   0.404   1.932   1.479
 5651SOL    HW217853   0.567   1.940   1.468
 5652SOL     OW17854   4.933   6.158   2.229
 5652SOL    HW117855   4.893   6.138   2.318
 5652SOL    HW217856   5.026   6.121   2.225
 5653SOL     OW17857   0.115   6.212   6.584
 5653SOL    HW117858   0.036   6.160   6.551
 5653SOL    HW217859   0.114   6.304   6.545
 5654SOL     OW17860   0.493   0.149   6.215
 5654SOL    HW117861   0.443   0.142   6.301
 5654SOL    HW217862   0.429   0.167   6.141
 5655SOL     OW17863   0.917   2.819   4.423
 5655SOL    HW117864   0.939   2.878   4.500
 5655SOL    HW217865   0.824   2.784   4.433
 5656SOL     OW17866   3.066   5.262   0.876
 5656SOL    HW117867   3.146   5.215   0.839
 5656SOL    HW217868   3.089   5.356   0.899
 5657SOL     OW17869   4.807   6.643   1.387
 5657SOL    HW117870   4.776   6.660   1.294
 5657SOL    HW217871   4.744   6.687   1.452
 5658SOL     OW17872   2.979   6.715   5.915
 5658SOL    HW117873   2.948   6.669   5.999
 5658SOL    HW217874   3.056   6.775   5.937
 5659SOL     OW17875   2.936   3.484   2.953
 5659SOL    HW117876   2.912   3.516   3.044
 5659SOL    HW217877   2.904   3.549   2.885
 5660SOL     OW17878   5.528   0.546   6.847
 5660SOL    HW117879   5.556   0.507   6.935
 5660SOL    HW217880   5.563   0.488   6.773
 5661SOL     OW17881   6.819   5.321   5.781
 5661SOL    HW117882   6.905   5.372   5.785
 5661SOL    HW217883   6.798   5.286   5.872
 5662SOL     OW17884   2.669   5.000   4.090
 5662SOL    HW117885   2.655   4.905   4.061
 5662SOL    HW217886   2.608   5.021   4.166
 5663SOL     OW17887   1.139   4.161   6.920
 5663SOL    HW117888   1.149   4.093   6.847
 5663SOL    HW217889   1.141   4.253   6.881
 5664SOL     OW17890   0.144   3.901   3.745
 5664SOL    HW117891   0.169   3.831   3.812
 5664SOL    HW217892   0.048   3.890   3.719
 5665SOL     OW17893   1.663   1.221   6.695
 5665SOL    HW117894   1.705   1.225   6.605
 5665SOL    HW217895   1.616   1.134   6.706
 5666SOL     OW17896   4.890   6.080   0.837
 5666SOL    HW117897   4.828   6.001   0.838
 5666SOL    HW217898   4.985   6.048   0.835
 5667SOL     OW17899   0.690   4.773   3.648
 5667SOL    HW117900   0.770   4.798   3.702
 5667SOL    HW217901   0.646   4.856   3.614
 5668SOL     OW17902   5.440   2.081   6.448
 5668SOL    HW117903   5.430   2.010   6.517
 5668SOL    HW217904   5.463   2.168   6.493
 5669SOL     OW17905   0.244   3.620   6.396
 5669SOL    HW117906   0.307   3.624   6.474
 5669SOL    HW217907   0.214   3.526   6.382
 5670SOL     OW17908   7.011   2.990   3.514
 5670SOL    HW117909   0.031   2.942   3.436
 5670SOL    HW217910   0.008   2.939   3.598
 5671SOL     OW17911   1.017   0.034   6.510
 5671SOL    HW117912   1.006   0.129   6.482
 5671SOL    HW217913   0.955   0.015   6.587
 5672SOL     OW17914   4.305   5.012   6.437
 5672SOL    HW117915   4.261   4.943   6.493
 5672SOL    HW217916   4.259   5.017   6.348
 5673SOL     OW17917   0.947   0.055   1.860
 5673SOL    HW117918   1.015   7.014   1.899
 5673SOL    HW217919   0.976   0.149   1.873
 5674SOL     OW17920   6.950   3.524   2.448
 5674SOL    HW117921   6.892   3.446   2.426
 5674SOL    HW217922   6.948   3.540   2.547
 5675SOL     OW17923   4.203   2.460   5.656
 5675SOL    HW117924   4.179   2.436   5.750
 5675SOL    HW217925   4.232   2.555   5.652
 5676SOL     OW17926   2.199   1.344   1.726
 5676SOL    HW117927   2.158   1.264   1.770
 5676SOL    HW217928   2.170   1.427   1.774
 5677SOL     OW17929   1.036   2.132   3.432
 5677SOL    HW117930   0.944   2.168   3.414
 5677SOL    HW217931   1.038   2.088   3.521
 5678SOL     OW17932   3.237   6.615   2.958
 5678SOL    HW117933   3.214   6.705   2.995
 5678SOL    HW217934   3.319   6.580   3.003
 5679SOL     OW17935   1.574   0.142   4.134
 5679SOL    HW117936   1.573   0.215   4.202
 5679SOL    HW217937   1.668   0.111   4.121
 5680SOL     OW17938   1.622   5.602   0.908
 5680SOL    HW117939   1.594   5.688   0.951
 5680SOL    HW217940   1.541   5.554   0.874
 5681SOL     OW17941   1.532   3.455   6.820
 5681SOL    HW117942   1.476   3.387   6.773
 5681SOL    HW217943   1.584   3.508   6.752
 5682SOL     OW17944   2.230   4.700   6.199
 5682SOL    HW117945   2.143   4.699   6.248
 5682SOL    HW217946   2.215   4.673   6.103
 5683SOL     OW17947   4.475   2.009   6.351
 5683SOL    HW117948   4.568   2.042   6.337
 5683SOL    HW217949   4.459   1.995   6.449
 5684SOL     OW17950   4.080   3.336   4.897
 5684SOL    HW117951   4.149   3.404   4.871
 5684SOL    HW217952   4.119   3.274   4.965
 5685SOL     OW17953   0.993   4.736   1.492
 5685SOL    HW117954   0.905   4.687   1.491
 5685SOL    HW217955   0.993   4.805   1.419
 5686SOL     OW17956   3.276   0.708   0.279
 5686SOL    HW117957   3.297   0.790   0.227
 5686SOL    HW217958   3.323   0.711   0.367
 5687SOL     OW17959   6.371   3.626   5.006
 5687SOL    HW117960   6.347   3.600   5.099
 5687SOL    HW217961   6.309   3.698   4.974
 5688SOL     OW17962   6.433   1.476   0.255
 5688SOL    HW117963   6.429   1.535   0.174
 5688SOL    HW217964   6.385   1.390   0.237
 5689SOL     OW17965   4.018   1.162   6.977
 5689SOL    HW117966   4.016   1.221   0.037
 5689SOL    HW217967   4.050   1.071   7.003
 5690SOL     OW17968   2.729   6.405   1.275
 5690SOL    HW117969   2.714   6.319   1.227
 5690SOL    HW217970   2.812   6.449   1.239
 5691SOL     OW17971   3.032   6.322   2.370
 5691SOL    HW117972   3.091   6.402   2.380
 5691SOL    HW217973   2.946   6.349   2.326
 5692SOL     OW17974   6.810   2.249   6.151
 5692SOL    HW117975   6.869   2.170   6.133
 5692SOL    HW217976   6.714   2.222   6.143
 5693SOL     OW17977   5.195   2.825   2.058
 5693SOL    HW117978   5.287   2.854   2.084
 5693SOL    HW217979   5.179   2.846   1.961
 5694SOL     OW17980   0.523   0.958   3.615
 5694SOL    HW117981   0.435   0.971   3.570
 5694SOL    HW217982   0.596   0.993   3.556
 5695SOL     OW17983   1.376   2.486   2.974
 5695SOL    HW117984   1.307   2.557   2.993
 5695SOL    HW217985   1.391   2.480   2.876
 5696SOL     OW17986   1.618   0.298   3.055
 5696SOL    HW117987   1.593   0.202   3.063
 5696SOL    HW217988   1.535   0.353   3.046
 5697SOL     OW17989   6.437   1.768   0.765
 5697SOL    HW117990   6.436   1.785   0.863
 5697SOL    HW217991   6.408   1.673   0.748
 5698SOL     OW17992   0.294   2.482   2.328
 5698SOL    HW117993   0.390   2.509   2.318
 5698SOL    HW217994   0.273   2.409   2.263
 5699SOL     OW17995   6.567   2.204   3.374
 5699SOL    HW117996   6.537   2.233   3.465
 5699SOL    HW217997   6.609   2.114   3.380
 5700SOL     OW17998   6.602   6.192   4.711
 5700SOL    HW117999   6.580   6.098   4.738
 5700SOL    HW218000   6.629   6.244   4.792
 5701SOL     OW18001   1.088   5.748   3.485
 5701SOL    HW118002   1.169   5.719   3.434
 5701SOL    HW218003   1.014   5.768   3.420
 5702SOL     OW18004   1.929   6.931   5.890
 5702SOL    HW118005   1.951   6.960   5.983
 5702SOL    HW218006   1.859   6.860   5.894
 5703SOL     OW18007   5.030   4.426   0.467
 5703SOL    HW118008   5.108   4.423   0.530
 5703SOL    HW218009   5.007   4.521   0.447
 5704SOL     OW18010   3.959   5.543   2.318
 5704SOL    HW118011   3.923   5.618   2.262
 5704SOL    HW218012   4.059   5.551   2.323
 5705SOL     OW18013   6.136   0.991   0.206
 5705SOL    HW118014   6.222   1.007   0.158
 5705SOL    HW218015   6.063   0.976   0.139
 5706SOL     OW18016   1.253   1.478   0.789
 5706SOL    HW118017   1.196   1.508   0.712
 5706SOL    HW218018   1.301   1.394   0.764
 5707SOL     OW18019   0.629   6.711   0.119
 5707SOL    HW118020   0.590   6.625   0.086
 5707SOL    HW218021   0.558   6.781   0.123
 5708SOL     OW18022   5.338   6.858   1.468
 5708SOL    HW118023   5.355   6.760   1.469
 5708SOL    HW218024   5.404   6.903   1.407
 5709SOL     OW18025   1.187   6.526   3.689
 5709SOL    HW118026   1.189   6.530   3.589
 5709SOL    HW218027   1.095   6.545   3.722
 5710SOL     OW18028   2.294   3.353   5.545
 5710SOL    HW118029   2.308   3.389   5.637
 5710SOL    HW218030   2.207   3.386   5.508
 5711SOL     OW18031   5.475   0.643   2.892
 5711SOL    HW118032   5.516   0.644   2.801
 5711SOL    HW218033   5.517   0.570   2.947
 5712SOL     OW18034   0.791   6.463   5.654
 5712SOL    HW118035   0.854   6.392   5.625
 5712SOL    HW218036   0.708   6.460   5.598
 5713SOL     OW18037   1.439   2.103   1.047
 5713SOL    HW118038   1.423   2.026   1.109
 5713SOL    HW218039   1.513   2.079   0.983
 5714SOL     OW18040   1.465   6.422   0.323
 5714SOL    HW118041   1.478   6.395   0.228
 5714SOL    HW218042   1.504   6.353   0.383
 5715SOL     OW18043   1.468   5.906   3.386
 5715SOL    HW118044   1.407   5.948   3.453
 5715SOL    HW218045   1.542   5.969   3.364
 5716SOL     OW18046   1.060   3.705   5.539
 5716SOL    HW118047   1.068   3.785   5.598
 5716SOL    HW218048   1.044   3.624   5.596
 5717SOL     OW18049   1.676   5.483   0.436
 5717SOL    HW118050   1.665   5.464   0.339
 5717SOL    HW218051   1.763   5.530   0.452
 5718SOL     OW18052   1.256   4.148   6.135
 5718SOL    HW118053   1.196   4.212   6.087
 5718SOL    HW218054   1.207   4.063   6.151
 5719SOL     OW18055   2.497   1.390   6.038
 5719SOL    HW118056   2.552   1.313   6.005
 5719SOL    HW218057   2.432   1.357   6.107
 5720SOL     OW18058   0.830   4.709   4.584
 5720SOL    HW118059   0.781   4.716   4.671
 5720SOL    HW218060   0.904   4.642   4.592
 5721SOL     OW18061   0.768   3.783   0.519
 5721SOL    HW118062   0.833   3.708   0.525
 5721SOL    HW218063   0.687   3.753   0.468
 5722SOL     OW18064   5.752   1.806   5.225
 5722SOL    HW118065   5.796   1.728   5.270
 5722SOL    HW218066   5.670   1.775   5.177
 5723SOL     OW18067   4.103   3.979   0.187
 5723SOL    HW118068   4.203   3.981   0.195
 5723SOL    HW218069   4.062   3.990   0.278
 5724SOL     OW18070   3.915   2.364   5.301
 5724SOL    HW118071   3.984   2.423   5.258
 5724SOL    HW218072   3.834   2.418   5.324
 5725SOL     OW18073   5.060   6.096   3.380
 5725SOL    HW118074   5.033   6.015   3.432
 5725SOL    HW218075   5.138   6.073   3.322
 5726SOL     OW18076   6.414   3.374   3.518
 5726SOL    HW118077   6.395   3.338   3.610
 5726SOL    HW218078   6.506   3.347   3.490
 5727SOL     OW18079   6.909   3.363   3.623
 5727SOL    HW118080   6.979   3.327   3.561
 5727SOL    HW218081   6.853   3.288   3.657
 5728SOL     OW18082   4.375   1.598   6.132
 5728SOL    HW118083   4.401   1.561   6.043
 5728SOL    HW218084   4.397   1.531   6.204
 5729SOL     OW18085   1.060   1.225   0.883
 5729SOL    HW118086   1.133   1.206   0.818
 5729SOL    HW218087   1.034   1.322   0.876
 5730SOL     OW18088   4.198   5.732   5.552
 5730SOL    HW118089   4.210   5.755   5.649
 5730SOL    HW218090   4.262   5.659   5.528
 5731SOL     OW18091   2.153   6.532   3.952
 5731SOL    HW118092   2.122   6.548   3.858
 5731SOL    HW218093   2.193   6.616   3.988
 5732SOL     OW18094   6.529   4.428   5.146
 5732SOL    HW118095   6.438   4.466   5.128
 5732SOL    HW218096   6.520   4.346   5.202
 5733SOL     OW18097   3.304   0.292   5.617
 5733SOL    HW118098   3.346   0.307   5.527
 5733SOL    HW218099   3.293   0.380   5.663
 5734SOL     OW18100   1.233   6.639   6.529
 5734SOL    HW118101   1.183   6.586   6.598
 5734SOL    HW218102   1.331   6.627   6.542
 5735SOL     OW18103   3.455   1.540   2.904
 5735SOL    HW118104   3.554   1.541   2.892
 5735SOL    HW218105   3.413   1.505   2.820
 5736SOL     OW18106   5.674   4.629   0.481
 5736SOL    HW118107   5.719   4.585   0.403
 5736SOL    HW218108   5.680   4.729   0.471
 5737SOL     OW18109   5.469   6.260   0.469
 5737SOL    HW118110   5.424   6.187   0.418
 5737SOL    HW218111   5.478   6.341   0.411
 5738SOL     OW18112   3.611   1.734   6.928
 5738SOL    HW118113   3.620   1.767   6.834
 5738SOL    HW218114   3.662   1.648   6.938
 5739SOL     OW18115   1.308   6.956   5.740
 5739SOL    HW118116   1.221   6.908   5.727
 5739SOL    HW218117   1.335   6.950   5.836
 5740SOL     OW18118   4.488   3.525   1.145
 5740SOL    HW118119   4.498   3.426   1.140
 5740SOL    HW218120   4.540   3.559   1.224
 5741SOL     OW18121   0.145   3.847   4.072
 5741SOL    HW118122   0.231   3.897   4.069
 5741SOL    HW218123   0.154   3.762   4.020
 5742SOL     OW18124   4.458   6.218   3.261
 5742SOL    HW118125   4.360   6.211   3.244
 5742SOL    HW218126   4.492   6.306   3.228
 5743SOL     OW18127   3.190   5.608   5.368
 5743SOL    HW118128   3.117   5.659   5.412
 5743SOL    HW218129   3.187   5.624   5.270
 5744SOL     OW18130   5.473   0.937   2.295
 5744SOL    HW118131   5.427   0.931   2.384
 5744SOL    HW218132   5.480   1.033   2.268
 5745SOL     OW18133   2.690   0.792   4.196
 5745SOL    HW118134   2.593   0.812   4.188
 5745SOL    HW218135   2.718   0.732   4.122
 5746SOL     OW18136   4.824   6.784   1.814
 5746SOL    HW118137   4.920   6.787   1.842
 5746SOL    HW218138   4.768   6.830   1.883
 5747SOL     OW18139   0.818   5.474   1.692
 5747SOL    HW118140   0.807   5.569   1.723
 5747SOL    HW218141   0.861   5.421   1.765
 5748SOL     OW18142   1.810   0.190   0.707
 5748SOL    HW118143   1.743   0.157   0.640
 5748SOL    HW218144   1.897   0.205   0.661
 5749SOL     OW18145   1.912   6.754   4.978
 5749SOL    HW118146   1.922   6.845   5.018
 5749SOL    HW218147   1.817   6.723   4.989
 5750SOL     OW18148   5.952   5.948   5.497
 5750SOL    HW118149   5.972   5.950   5.595
 5750SOL    HW218150   5.861   5.908   5.483
 5751SOL     OW18151   2.308   2.769   4.934
 5751SOL    HW118152   2.230   2.771   4.872
 5751SOL    HW218153   2.321   2.860   4.974
 5752SOL     OW18154   5.433   0.096   0.464
 5752SOL    HW118155   5.425   0.195   0.454
 5752SOL    HW218156   5.492   0.060   0.392
 5753SOL     OW18157   3.142   3.835   4.477
 5753SOL    HW118158   3.153   3.906   4.547
 5753SOL    HW218159   3.058   3.783   4.496
 5754SOL     OW18160   0.968   5.572   1.411
 5754SOL    HW118161   1.048   5.560   1.469
 5754SOL    HW218162   0.907   5.640   1.451
 5755SOL     OW18163   1.577   2.151   6.328
 5755SOL    HW118164   1.540   2.076   6.274
 5755SOL    HW218165   1.654   2.192   6.279
 5756SOL     OW18166   0.422   0.455   2.802
 5756SOL    HW118167   0.498   0.514   2.831
 5756SOL    HW218168   0.378   0.495   2.721
 5757SOL     OW18169   0.790   5.684   4.238
 5757SOL    HW118170   0.831   5.775   4.243
 5757SOL    HW218171   0.737   5.677   4.153
 5758SOL     OW18172   2.542   1.374   2.940
 5758SOL    HW118173   2.562   1.276   2.934
 5758SOL    HW218174   2.605   1.424   2.881
 5759SOL     OW18175   4.656   0.941   0.318
 5759SOL    HW118176   4.588   0.901   0.255
 5759SOL    HW218177   4.645   1.040   0.319
 5760SOL     OW18178   6.379   2.150   1.228
 5760SOL    HW118179   6.365   2.209   1.148
 5760SOL    HW218180   6.316   2.073   1.224
 5761SOL     OW18181   6.049   4.993   5.720
 5761SOL    HW118182   6.014   5.086   5.734
 5761SOL    HW218183   6.146   4.990   5.744
 5762SOL     OW18184   4.816   4.540   0.895
 5762SOL    HW118185   4.806   4.622   0.837
 5762SOL    HW218186   4.752   4.546   0.972
 5763SOL     OW18187   5.818   6.217   1.028
 5763SOL    HW118188   5.749   6.166   0.978
 5763SOL    HW218189   5.803   6.315   1.015
 5764SOL     OW18190   4.411   4.930   4.349
 5764SOL    HW118191   4.371   4.855   4.401
 5764SOL    HW218192   4.494   4.962   4.394
 5765SOL     OW18193   6.161   3.539   0.338
 5765SOL    HW118194   6.108   3.465   0.296
 5765SOL    HW218195   6.128   3.555   0.431
 5766SOL     OW18196   1.722   2.171   5.078
 5766SOL    HW118197   1.675   2.086   5.056
 5766SOL    HW218198   1.782   2.156   5.156
 5767SOL     OW18199   2.500   0.179   0.658
 5767SOL    HW118200   2.560   0.237   0.603
 5767SOL    HW218201   2.555   0.121   0.718
 5768SOL     OW18202   0.496   6.857   3.542
 5768SOL    HW118203   0.419   6.902   3.496
 5768SOL    HW218204   0.472   6.838   3.637
 5769SOL     OW18205   2.579   5.628   4.399
 5769SOL    HW118206   2.646   5.583   4.457
 5769SOL    HW218207   2.558   5.718   4.438
 5770SOL     OW18208   6.776   6.472   6.247
 5770SOL    HW118209   6.682   6.504   6.239
 5770SOL    HW218210   6.819   6.516   6.326
 5771SOL     OW18211   1.438   6.903   4.192
 5771SOL    HW118212   1.482   6.993   4.191
 5771SOL    HW218213   1.466   6.852   4.111
 5772SOL     OW18214   5.374   0.762   0.606
 5772SOL    HW118215   5.440   0.692   0.633
 5772SOL    HW218216   5.401   0.850   0.646
 5773SOL     OW18217   4.602   1.017   3.417
 5773SOL    HW118218   4.639   0.937   3.369
 5773SOL    HW218219   4.657   1.035   3.499
 5774SOL     OW18220   3.293   0.201   4.147
 5774SOL    HW118221   3.265   0.114   4.187
 5774SOL    HW218222   3.238   0.220   4.065
 5775SOL     OW18223   1.006   0.323   2.063
 5775SOL    HW118224   0.945   0.363   2.131
 5775SOL    HW218225   1.084   0.384   2.048
 5776SOL     OW18226   0.585   6.723   3.953
 5776SOL    HW118227   0.500   6.725   3.900
 5776SOL    HW218228   0.570   6.767   4.041
 5777SOL     OW18229   0.286   0.399   4.943
 5777SOL    HW118230   0.346   0.361   4.872
 5777SOL    HW218231   0.251   0.488   4.913
 5778SOL     OW18232   1.717   0.341   0.254
 5778SOL    HW118233   1.727   0.244   0.232
 5778SOL    HW218234   1.786   0.368   0.321
 5779SOL     OW18235   4.675   2.293   1.013
 5779SOL    HW118236   4.593   2.288   0.957
 5779SOL    HW218237   4.733   2.213   0.996
 5780SOL     OW18238   6.164   5.988   3.922
 5780SOL    HW118239   6.201   5.996   4.014
 5780SOL    HW218240   6.235   6.010   3.855
 5781SOL     OW18241   0.432   5.167   4.315
 5781SOL    HW118242   0.430   5.265   4.336
 5781SOL    HW218243   0.396   5.152   4.222
 5782SOL     OW18244   1.874   1.499   0.595
 5782SOL    HW118245   1.892   1.581   0.540
 5782SOL    HW218246   1.960   1.463   0.631
 5783SOL     OW18247   1.129   0.993   1.486
 5783SOL    HW118248   1.218   0.972   1.443
 5783SOL    HW218249   1.129   0.959   1.580
 5784SOL     OW18250   0.120   6.593   5.481
 5784SOL    HW118251   0.121   6.509   5.428
 5784SOL    HW218252   0.206   6.643   5.467
 5785SOL     OW18253   2.360   2.142   0.420
 5785SOL    HW118254   2.291   2.164   0.489
 5785SOL    HW218255   2.324   2.070   0.360
 5786SOL     OW18256   0.409   4.313   0.577
 5786SOL    HW118257   0.344   4.277   0.644
 5786SOL    HW218258   0.369   4.309   0.486
 5787SOL     OW18259   2.291   1.421   4.469
 5787SOL    HW118260   2.295   1.408   4.568
 5787SOL    HW218261   2.368   1.477   4.439
 5788SOL     OW18262   2.679   1.550   1.691
 5788SOL    HW118263   2.663   1.607   1.611
 5788SOL    HW218264   2.778   1.547   1.710
 5789SOL     OW18265   3.742   4.969   0.503
 5789SOL    HW118266   3.702   4.892   0.453
 5789SOL    HW218267   3.704   4.971   0.596
 5790SOL     OW18268   1.640   4.062   4.963
 5790SOL    HW118269   1.582   4.077   4.883
 5790SOL    HW218270   1.674   4.150   4.996
 5791SOL     OW18271   3.994   1.098   2.433
 5791SOL    HW118272   4.088   1.125   2.453
 5791SOL    HW218273   3.961   1.149   2.354
 5792SOL     OW18274   6.217   3.201   2.387
 5792SOL    HW118275   6.125   3.173   2.415
 5792SOL    HW218276   6.282   3.128   2.410
 5793SOL     OW18277   5.545   1.074   4.017
 5793SOL    HW118278   5.508   1.167   4.005
 5793SOL    HW218279   5.476   1.017   4.063
 5794SOL     OW18280   2.885   1.252   0.074
 5794SOL    HW118281   2.956   1.313   0.109
 5794SOL    HW218282   2.926   1.165   0.046
 5795SOL     OW18283   6.654   6.741   0.381
 5795SOL    HW118284   6.658   6.798   0.299
 5795SOL    HW218285   6.747   6.715   0.408
 5796SOL     OW18286   4.122   1.694   6.917
 5796SOL    HW118287   4.088   1.784   6.889
 5796SOL    HW218288   4.221   1.696   6.924
 5797SOL     OW18289   4.805   2.538   6.155
 5797SOL    HW118290   4.707   2.554   6.162
 5797SOL    HW218291   4.836   2.561   6.062
 5798SOL     OW18292   0.564   4.590   5.220
 5798SOL    HW118293   0.656   4.580   5.258
 5798SOL    HW218294   0.515   4.503   5.230
 5799SOL     OW18295   0.008   0.564   2.405
 5799SOL    HW118296   7.003   0.621   2.327
 5799SOL    HW218297   0.008   0.468   2.377
 5800SOL     OW18298   6.300   6.348   1.884
 5800SOL    HW118299   6.276   6.324   1.789
 5800SOL    HW218300   6.332   6.267   1.932
 5801SOL     OW18301   1.944   2.253   3.236
 5801SOL    HW118302   1.928   2.176   3.175
 5801SOL    HW218303   2.038   2.286   3.224
 5802SOL     OW18304   1.040   4.699   1.920
 5802SOL    HW118305   0.990   4.772   1.874
 5802SOL    HW218306   0.976   4.642   1.971
 5803SOL     OW18307   2.171   4.617   2.310
 5803SOL    HW118308   2.087   4.622   2.255
 5803SOL    HW218309   2.148   4.592   2.404
 5804SOL     OW18310   0.685   5.107   3.957
 5804SOL    HW118311   0.660   5.016   3.923
 5804SOL    HW218312   0.754   5.146   3.896
 5805SOL     OW18313   2.941   3.659   6.759
 5805SOL    HW118314   2.926   3.718   6.680
 5805SOL    HW218315   3.039   3.639   6.767
 5806SOL     OW18316   0.048   5.872   4.949
 5806SOL    HW118317   0.032   5.846   4.854
 5806SOL    HW218318   0.013   5.964   4.965
 5807SOL     OW18319   0.682   3.894   2.247
 5807SOL    HW118320   0.700   3.970   2.310
 5807SOL    HW218321   0.647   3.816   2.299
 5808SOL     OW18322   5.838   5.307   4.901
 5808SOL    HW118323   5.793   5.387   4.942
 5808SOL    HW218324   5.883   5.254   4.973
 5809SOL     OW18325   5.716   1.340   4.617
 5809SOL    HW118326   5.798   1.353   4.561
 5809SOL    HW218327   5.651   1.283   4.568
 5810SOL     OW18328   3.315   1.806   4.681
 5810SOL    HW118329   3.371   1.871   4.631
 5810SOL    HW218330   3.370   1.727   4.707
 5811SOL     OW18331   3.021   0.944   5.971
 5811SOL    HW118332   3.085   0.876   5.934
 5811SOL    HW218333   2.964   0.900   6.041
 5812SOL     OW18334   6.686   2.531   4.202
 5812SOL    HW118335   6.759   2.511   4.267
 5812SOL    HW218336   6.658   2.627   4.212
 5813SOL     OW18337   1.951   1.932   0.686
 5813SOL    HW118338   2.036   1.966   0.726
 5813SOL    HW218339   1.972   1.863   0.616
 5814SOL     OW18340   6.344   4.783   1.287
 5814SOL    HW118341   6.269   4.793   1.353
 5814SOL    HW218342   6.326   4.842   1.208
 5815SOL     OW18343   4.228   2.319   4.264
 5815SOL    HW118344   4.173   2.339   4.345
 5815SOL    HW218345   4.302   2.257   4.288
 5816SOL     OW18346   4.378   5.244   7.010
 5816SOL    HW118347   4.438   5.306   6.959
 5816SOL    HW218348   4.425   5.157   0.005
 5817SOL     OW18349   5.673   3.830   6.138
 5817SOL    HW118350   5.634   3.847   6.228
 5817SOL    HW218351   5.721   3.912   6.107
 5818SOL     OW18352   6.583   5.982   4.884
 5818SOL    HW118353   6.655   5.942   4.941
 5818SOL    HW218354   6.495   5.976   4.932
 5819SOL     OW18355   3.999   6.819   6.777
 5819SOL    HW118356   3.908   6.832   6.816
 5819SOL    HW218357   3.990   6.791   6.681
 5820SOL     OW18358   3.986   5.856   4.071
 5820SOL    HW118359   4.068   5.901   4.105
 5820SOL    HW218360   3.957   5.786   4.136
 5821SOL     OW18361   6.990   6.875   1.468
 5821SOL    HW118362   6.922   6.809   1.498
 5821SOL    HW218363   6.986   6.884   1.369
 5822SOL     OW18364   1.044   2.393   2.063
 5822SOL    HW118365   1.057   2.458   1.988
 5822SOL    HW218366   1.069   2.437   2.150
 5823SOL     OW18367   1.613   1.211   5.392
 5823SOL    HW118368   1.592   1.167   5.305
 5823SOL    HW218369   1.540   1.276   5.415
 5824SOL     OW18370   6.569   5.326   2.676
 5824SOL    HW118371   6.659   5.363   2.698
 5824SOL    HW218372   6.571   5.227   2.686
 5825SOL     OW18373   2.025   1.830   5.702
 5825SOL    HW118374   1.987   1.844   5.611
 5825SOL    HW218375   2.115   1.874   5.707
 5826SOL     OW18376   0.242   4.934   5.224
 5826SOL    HW118377   0.189   4.854   5.196
 5826SOL    HW218378   0.280   4.918   5.315
 5827SOL     OW18379   1.779   4.500   4.919
 5827SOL    HW118380   1.772   4.599   4.907
 5827SOL    HW218381   1.801   4.458   4.831
 5828SOL     OW18382   6.363   2.480   1.181
 5828SOL    HW118383   6.453   2.513   1.210
 5828SOL    HW218384   6.374   2.414   1.107
 5829SOL     OW18385   1.767   0.500   3.226
 5829SOL    HW118386   1.727   0.449   3.150
 5829SOL    HW218387   1.866   0.506   3.213
 5830SOL     OW18388   5.112   6.590   5.249
 5830SOL    HW118389   5.046   6.656   5.213
 5830SOL    HW218390   5.188   6.637   5.292
 5831SOL     OW18391   0.214   1.024   5.264
 5831SOL    HW118392   0.187   1.094   5.330
 5831SOL    HW218393   0.310   1.038   5.238
 5832SOL     OW18394   3.166   4.825   6.324
 5832SOL    HW118395   3.220   4.860   6.401
 5832SOL    HW218396   3.081   4.878   6.317
 5833SOL     OW18397   3.904   3.543   4.740
 5833SOL    HW118398   3.842   3.617   4.713
 5833SOL    HW218399   3.869   3.500   4.824
 5834SOL     OW18400   0.147   3.420   6.995
 5834SOL    HW118401   0.059   3.391   6.958
 5834SOL    HW218402   0.134   3.458   0.066
 5835SOL     OW18403   4.848   3.135   3.925
 5835SOL    HW118404   4.784   3.060   3.912
 5835SOL    HW218405   4.939   3.108   3.894
 5836SOL     OW18406   2.753   6.910   2.677
 5836SOL    HW118407   2.655   6.890   2.677
 5836SOL    HW218408   2.771   6.990   2.734
 5837SOL     OW18409   3.972   4.475   5.636
 5837SOL    HW118410   4.001   4.510   5.725
 5837SOL    HW218411   4.052   4.459   5.579
 5838SOL     OW18412   3.252   2.426   6.697
 5838SOL    HW118413   3.338   2.436   6.647
 5838SOL    HW218414   3.177   2.414   6.633
 5839SOL     OW18415   0.539   2.440   2.069
 5839SOL    HW118416   0.627   2.439   2.023
 5839SOL    HW218417   0.537   2.513   2.137
 5840SOL     OW18418   0.930   5.211   6.159
 5840SOL    HW118419   0.879   5.271   6.221
 5840SOL    HW218420   1.015   5.258   6.131
 5841SOL     OW18421   5.202   1.715   2.659
 5841SOL    HW118422   5.172   1.681   2.570
 5841SOL    HW218423   5.132   1.775   2.697
 5842SOL     OW18424   4.491   3.033   1.366
 5842SOL    HW118425   4.496   3.009   1.269
 5842SOL    HW218426   4.549   2.971   1.419
 5843SOL     OW18427   2.118   3.970   3.079
 5843SOL    HW118428   2.068   3.945   2.996
 5843SOL    HW218429   2.142   3.886   3.129
 5844SOL     OW18430   1.681   6.529   6.239
 5844SOL    HW118431   1.635   6.471   6.306
 5844SOL    HW218432   1.699   6.619   6.279
 5845SOL     OW18433   0.469   0.635   2.380
 5845SOL    HW118434   0.533   0.617   2.305
 5845SOL    HW218435   0.451   0.733   2.385
 5846SOL     OW18436   0.378   2.269   4.128
 5846SOL    HW118437   0.436   2.193   4.157
 5846SOL    HW218438   0.343   2.252   4.035
 5847SOL     OW18439   2.297   2.424   1.532
 5847SOL    HW118440   2.302   2.340   1.478
 5847SOL    HW218441   2.209   2.428   1.580
 5848SOL     OW18442   2.299   5.194   3.487
 5848SOL    HW118443   2.205   5.225   3.469
 5848SOL    HW218444   2.356   5.211   3.407
 5849SOL     OW18445   0.079   0.083   6.436
 5849SOL    HW118446   7.002   0.077   6.451
 5849SOL    HW218447   0.113   0.170   6.471
 5850SOL     OW18448   0.001   2.832   1.644
 5850SOL    HW118449   0.068   2.789   1.583
 5850SOL    HW218450   6.946   2.768   1.659
 5851SOL     OW18451   5.355   4.085   3.228
 5851SOL    HW118452   5.358   4.039   3.317
 5851SOL    HW218453   5.261   4.083   3.193
 5852SOL     OW18454   6.618   6.104   3.128
 5852SOL    HW118455   6.674   6.047   3.188
 5852SOL    HW218456   6.570   6.173   3.183
 5853SOL     OW18457   3.727   6.118   4.413
 5853SOL    HW118458   3.743   6.027   4.376
 5853SOL    HW218459   3.727   6.185   4.339
 5854SOL     OW18460   5.805   4.933   6.018
 5854SOL    HW118461   5.749   4.972   5.945
 5854SOL    HW218462   5.861   4.859   5.981
 5855SOL     OW18463   0.038   1.380   4.395
 5855SOL    HW118464   0.071   1.444   4.464
 5855SOL    HW218465   7.006   1.307   4.439
 5856SOL     OW18466   1.746   6.031   4.084
 5856SOL    HW118467   1.671   6.011   4.022
 5856SOL    HW218468   1.755   6.130   4.097
 5857SOL     OW18469   6.339   1.941   5.625
 5857SOL    HW118470   6.374   2.033   5.607
 5857SOL    HW218471   6.258   1.925   5.570
 5858SOL     OW18472   2.217   2.472   2.571
 5858SOL    HW118473   2.286   2.514   2.511
 5858SOL    HW218474   2.171   2.398   2.522
 5859SOL     OW18475   5.349   5.977   2.012
 5859SOL    HW118476   5.409   6.026   1.949
 5859SOL    HW218477   5.404   5.936   2.085
 5860SOL     OW18478   1.199   4.364   1.388
 5860SOL    HW118479   1.203   4.313   1.473
 5860SOL    HW218480   1.226   4.459   1.404
 5861SOL     OW18481   4.456   1.521   4.637
 5861SOL    HW118482   4.529   1.455   4.655
 5861SOL    HW218483   4.371   1.489   4.680
 5862SOL     OW18484   5.159   4.967   1.965
 5862SOL    HW118485   5.113   5.055   1.951
 5862SOL    HW218486   5.176   4.924   1.877
 5863SOL     OW18487   3.253   1.073   4.967
 5863SOL    HW118488   3.196   1.003   4.924
 5863SOL    HW218489   3.200   1.157   4.980
 5864SOL     OW18490   4.170   3.649   1.689
 5864SOL    HW118491   4.267   3.638   1.665
 5864SOL    HW218492   4.159   3.728   1.749
 5865SOL     OW18493   6.010   0.548   5.080
 5865SOL    HW118494   5.967   0.528   5.168
 5865SOL    HW218495   5.953   0.612   5.029
 5866SOL     OW18496   4.215   4.836   1.030
 5866SOL    HW118497   4.284   4.772   0.994
 5866SOL    HW218498   4.169   4.881   0.953
 5867SOL     OW18499   0.990   3.922   0.802
 5867SOL    HW118500   0.984   3.982   0.722
 5867SOL    HW218501   0.939   3.838   0.784
 5868SOL     OW18502   0.446   1.029   5.167
 5868SOL    HW118503   0.443   1.092   5.089
 5868SOL    HW218504   0.537   1.033   5.210
 5869SOL     OW18505   2.430   6.479   4.305
 5869SOL    HW118506   2.368   6.533   4.361
 5869SOL    HW218507   2.413   6.382   4.320
 5870SOL     OW18508   5.235   6.334   5.020
 5870SOL    HW118509   5.230   6.247   5.069
 5870SOL    HW218510   5.153   6.346   4.965
 5871SOL     OW18511   3.778   3.194   1.166
 5871SOL    HW118512   3.755   3.145   1.082
 5871SOL    HW218513   3.870   3.169   1.196
 5872SOL     OW18514   4.023   5.875   1.646
 5872SOL    HW118515   4.113   5.898   1.608
 5872SOL    HW218516   3.969   5.959   1.656
 5873SOL     OW18517   3.109   2.191   1.397
 5873SOL    HW118518   3.027   2.242   1.423
 5873SOL    HW218519   3.100   2.096   1.425
 5874SOL     OW18520   3.632   4.517   0.170
 5874SOL    HW118521   3.548   4.462   0.166
 5874SOL    HW218522   3.699   4.470   0.227
 5875SOL     OW18523   4.146   1.220   6.723
 5875SOL    HW118524   4.213   1.286   6.757
 5875SOL    HW218525   4.098   1.178   6.801
 5876SOL     OW18526   3.189   3.342   0.452
 5876SOL    HW118527   3.186   3.287   0.536
 5876SOL    HW218528   3.110   3.320   0.395
 5877SOL     OW18529   0.291   0.184   0.656
 5877SOL    HW118530   0.256   0.092   0.671
 5877SOL    HW218531   0.247   0.248   0.720
 5878SOL     OW18532   5.392   5.580   4.084
 5878SOL    HW118533   5.411   5.482   4.073
 5878SOL    HW218534   5.337   5.594   4.166
 5879SOL     OW18535   1.760   3.544   6.424
 5879SOL    HW118536   1.752   3.452   6.461
 5879SOL    HW218537   1.729   3.545   6.329
 5880SOL     OW18538   4.763   4.693   6.814
 5880SOL    HW118539   4.774   4.737   6.903
 5880SOL    HW218540   4.748   4.763   6.744
 5881SOL     OW18541   1.085   0.017   1.591
 5881SOL    HW118542   1.169   0.028   1.537
 5881SOL    HW218543   1.109   6.998   1.680
 5882SOL     OW18544   0.952   6.655   5.935
 5882SOL    HW118545   0.896   6.576   5.910
 5882SOL    HW218546   0.905   6.709   6.005
 5883SOL     OW18547   0.825   1.399   6.962
 5883SOL    HW118548   0.909   1.420   6.912
 5883SOL    HW218549   0.847   1.379   0.036
 5884SOL     OW18550   4.965   1.297   4.974
 5884SOL    HW118551   5.004   1.351   5.049
 5884SOL    HW218552   5.036   1.276   4.908
 5885SOL     OW18553   0.140   5.575   2.410
 5885SOL    HW118554   0.045   5.556   2.385
 5885SOL    HW218555   0.198   5.498   2.381
 5886SOL     OW18556   1.268   2.155   4.069
 5886SOL    HW118557   1.274   2.255   4.062
 5886SOL    HW218558   1.182   2.129   4.112
 5887SOL     OW18559   2.215   2.163   1.773
 5887SOL    HW118560   2.148   2.234   1.751
 5887SOL    HW218561   2.307   2.199   1.765
 5888SOL     OW18562   2.194   0.032   1.205
 5888SOL    HW118563   2.286   0.039   1.242
 5888SOL    HW218564   2.138   0.107   1.240
 5889SOL     OW18565   5.977   1.688   6.269
 5889SOL    HW118566   6.010   1.659   6.359
 5889SOL    HW218567   5.922   1.771   6.279
 5890SOL     OW18568   2.368   0.058   2.960
 5890SOL    HW118569   2.440   0.100   3.015
 5890SOL    HW218570   2.307   0.005   3.019
 5891SOL     OW18571   2.401   4.091   0.867
 5891SOL    HW118572   2.422   4.086   0.769
 5891SOL    HW218573   2.467   4.034   0.918
 5892SOL     OW18574   0.598   5.163   1.813
 5892SOL    HW118575   0.586   5.124   1.905
 5892SOL    HW218576   0.537   5.241   1.803
 5893SOL     OW18577   2.223   4.764   1.991
 5893SOL    HW118578   2.140   4.809   2.025
 5893SOL    HW218579   2.301   4.795   2.045
 5894SOL     OW18580   0.670   5.853   5.287
 5894SOL    HW118581   0.709   5.765   5.259
 5894SOL    HW218582   0.666   5.857   5.387
 5895SOL     OW18583   6.006   3.790   3.206
 5895SOL    HW118584   6.100   3.823   3.198
 5895SOL    HW218585   6.003   3.713   3.269
 5896SOL     OW18586   5.064   1.592   0.691
 5896SOL    HW118587   5.006   1.586   0.772
 5896SOL    HW218588   5.017   1.551   0.613
 5897SOL     OW18589   4.263   0.582   1.026
 5897SOL    HW118590   4.340   0.575   0.962
 5897SOL    HW218591   4.290   0.546   1.115
 5898SOL     OW18592   2.621   0.632   5.158
 5898SOL    HW118593   2.720   0.644   5.153
 5898SOL    HW218594   2.577   0.683   5.084
 5899SOL     OW18595   5.805   6.226   6.661
 5899SOL    HW118596   5.783   6.205   6.566
 5899SOL    HW218597   5.778   6.149   6.719
 5900SOL     OW18598   6.893   4.941   2.820
 5900SOL    HW118599   6.991   4.949   2.802
 5900SOL    HW218600   6.861   5.023   2.869
 5901SOL     OW18601   2.788   0.719   0.878
 5901SOL    HW118602   2.858   0.672   0.824
 5901SOL    HW218603   2.811   0.712   0.975
 5902SOL     OW18604   5.401   3.591   5.835
 5902SOL    HW118605   5.486   3.572   5.786
 5902SOL    HW218606   5.370   3.684   5.814
 5903SOL     OW18607   4.579   3.905   6.823
 5903SOL    HW118608   4.608   3.926   6.729
 5903SOL    HW218609   4.651   3.854   6.870
 5904SOL     OW18610   1.004   4.453   0.907
 5904SOL    HW118611   1.048   4.409   0.985
 5904SOL    HW218612   1.070   4.511   0.859
 5905SOL     OW18613   6.566   0.684   3.360
 5905SOL    HW118614   6.532   0.612   3.299
 5905SOL    HW218615   6.607   0.642   3.441
 5906SOL     OW18616   4.970   1.942   4.777
 5906SOL    HW118617   4.999   1.861   4.828
 5906SOL    HW218618   4.893   1.986   4.825
 5907SOL     OW18619   1.454   6.583   0.728
 5907SOL    HW118620   1.500   6.638   0.798
 5907SOL    HW218621   1.363   6.619   0.712
 5908SOL     OW18622   6.540   3.826   0.042
 5908SOL    HW118623   6.525   3.762   6.987
 5908SOL    HW218624   6.610   3.788   0.103
 5909SOL     OW18625   6.394   5.163   6.246
 5909SOL    HW118626   6.349   5.239   6.199
 5909SOL    HW218627   6.330   5.122   6.311
 5910SOL     OW18628   0.589   4.673   1.304
 5910SOL    HW118629   0.630   4.649   1.392
 5910SOL    HW218630   0.640   4.629   1.230
 5911SOL     OW18631   6.378   4.983   6.501
 5911SOL    HW118632   6.442   4.952   6.571
 5911SOL    HW218633   6.348   5.076   6.522
 5912SOL     OW18634   6.052   3.398   6.792
 5912SOL    HW118635   6.036   3.479   6.849
 5912SOL    HW218636   6.012   3.318   6.836
 5913SOL     OW18637   3.234   3.042   6.677
 5913SOL    HW118638   3.266   3.136   6.687
 5913SOL    HW218639   3.134   3.041   6.670
 5914SOL     OW18640   3.090   5.561   6.091
 5914SOL    HW118641   2.993   5.570   6.109
 5914SOL    HW218642   3.136   5.647   6.109
 5915SOL     OW18643   6.026   4.229   1.856
 5915SOL    HW118644   5.969   4.286   1.914
 5915SOL    HW218645   5.999   4.133   1.867
 5916SOL     OW18646   4.386   6.147   5.627
 5916SOL    HW118647   4.462   6.083   5.612
 5916SOL    HW218648   4.303   6.110   5.586
 5917SOL     OW18649   3.622   3.248   4.555
 5917SOL    HW118650   3.600   3.341   4.527
 5917SOL    HW218651   3.574   3.183   4.496
 5918SOL     OW18652   2.264   3.842   5.353
 5918SOL    HW118653   2.317   3.774   5.403
 5918SOL    HW218654   2.320   3.884   5.282
 5919SOL     OW18655   3.063   2.575   0.641
 5919SOL    HW118656   3.080   2.480   0.614
 5919SOL    HW218657   2.979   2.580   0.695
 5920SOL     OW18658   3.552   6.976   0.150
 5920SOL    HW118659   3.470   7.016   0.191
 5920SOL    HW218660   3.553   6.996   0.052
 5921SOL     OW18661   3.345   5.714   5.584
 5921SOL    HW118662   3.265   5.674   5.539
 5921SOL    HW218663   3.379   5.790   5.528
 5922SOL     OW18664   6.853   5.474   3.637
 5922SOL    HW118665   6.931   5.413   3.625
 5922SOL    HW218666   6.885   5.569   3.640
 5923SOL     OW18667   5.294   0.338   1.189
 5923SOL    HW118668   5.232   0.298   1.256
 5923SOL    HW218669   5.266   0.310   1.097
 5924SOL     OW18670   6.061   1.983   4.711
 5924SOL    HW118671   6.095   2.023   4.626
 5924SOL    HW218672   6.093   1.888   4.719
 5925SOL     OW18673   4.237   5.642   3.431
 5925SOL    HW118674   4.311   5.664   3.367
 5925SOL    HW218675   4.202   5.726   3.472
 5926SOL     OW18676   3.700   5.117   2.329
 5926SOL    HW118677   3.766   5.043   2.313
 5926SOL    HW218678   3.609   5.078   2.343
 5927SOL     OW18679   1.640   4.421   3.405
 5927SOL    HW118680   1.610   4.349   3.467
 5927SOL    HW218681   1.739   4.432   3.413
 5928SOL     OW18682   3.077   0.595   1.417
 5928SOL    HW118683   3.133   0.679   1.419
 5928SOL    HW218684   2.997   0.608   1.475
 5929SOL     OW18685   0.818   6.391   5.925
 5929SOL    HW118686   0.795   6.424   5.834
 5929SOL    HW218687   0.821   6.291   5.924
 5930SOL     OW18688   6.909   1.271   3.177
 5930SOL    HW118689   6.831   1.324   3.211
 5930SOL    HW218690   6.974   1.331   3.131
 5931SOL     OW18691   5.764   5.444   3.722
 5931SOL    HW118692   5.719   5.440   3.811
 5931SOL    HW218693   5.698   5.422   3.650
 5932SOL     OW18694   2.454   6.539   1.211
 5932SOL    HW118695   2.375   6.482   1.237
 5932SOL    HW218696   2.538   6.490   1.232
 5933SOL     OW18697   0.376   5.725   2.838
 5933SOL    HW118698   0.312   5.694   2.909
 5933SOL    HW218699   0.348   5.815   2.805
 5934SOL     OW18700   4.051   3.432   4.274
 5934SOL    HW118701   4.077   3.447   4.370
 5934SOL    HW218702   3.953   3.413   4.270
 5935SOL     OW18703   4.150   3.241   5.198
 5935SOL    HW118704   4.226   3.268   5.257
 5935SOL    HW218705   4.064   3.266   5.242
 5936SOL     OW18706   3.820   3.596   0.587
 5936SOL    HW118707   3.916   3.614   0.568
 5936SOL    HW218708   3.766   3.677   0.564
 5937SOL     OW18709   0.533   4.742   2.290
 5937SOL    HW118710   0.605   4.677   2.314
 5937SOL    HW218711   0.498   4.722   2.198
 5938SOL     OW18712   1.382   5.887   4.126
 5938SOL    HW118713   1.332   5.817   4.176
 5938SOL    HW218714   1.430   5.845   4.048
 5939SOL     OW18715   3.451   0.166   3.336
 5939SOL    HW118716   3.498   0.163   3.424
 5939SOL    HW218717   3.357   0.134   3.347
 5940SOL     OW18718   4.218   5.656   1.538
 5940SOL    HW118719   4.183   5.562   1.549
 5940SOL    HW218720   4.286   5.674   1.609
 5941SOL     OW18721   6.187   3.012   1.798
 5941SOL    HW118722   6.141   2.980   1.715
 5941SOL    HW218723   6.230   3.100   1.781
 5942SOL     OW18724   4.976   2.925   6.659
 5942SOL    HW118725   4.965   3.000   6.593
 5942SOL    HW218726   4.971   2.962   6.752
 5943SOL     OW18727   3.268   5.549   1.021
 5943SOL    HW118728   3.279   5.510   1.112
 5943SOL    HW218729   3.215   5.634   1.028
 5944SOL     OW18730   5.842   1.999   1.229
 5944SOL    HW118731   5.833   2.085   1.178
 5944SOL    HW218732   5.775   1.934   1.195
 5945SOL     OW18733   6.441   5.489   5.529
 5945SOL    HW118734   6.465   5.422   5.599
 5945SOL    HW218735   6.363   5.543   5.560
 5946SOL     OW18736   3.684   3.070   5.456
 5946SOL    HW118737   3.703   3.094   5.361
 5946SOL    HW218738   3.620   2.993   5.458
 5947SOL     OW18739   3.971   2.985   1.803
 5947SOL    HW118740   3.951   3.080   1.782
 5947SOL    HW218741   3.981   2.974   1.902
 5948SOL     OW18742   3.923   4.919   3.517
 5948SOL    HW118743   3.977   4.855   3.571
 5948SOL    HW218744   3.939   5.012   3.550
 5949SOL     OW18745   3.753   3.342   1.404
 5949SOL    HW118746   3.743   3.286   1.322
 5949SOL    HW218747   3.835   3.314   1.454
 5950SOL     OW18748   5.516   3.172   5.837
 5950SOL    HW118749   5.461   3.243   5.880
 5950SOL    HW218750   5.484   3.158   5.743
 5951SOL     OW18751   0.259   5.586   4.675
 5951SOL    HW118752   0.220   5.585   4.768
 5951SOL    HW218753   0.359   5.583   4.681
 5952SOL     OW18754   5.631   5.716   4.477
 5952SOL    HW118755   5.684   5.635   4.451
 5952SOL    HW218756   5.640   5.732   4.575
 5953SOL     OW18757   6.291   2.712   5.494
 5953SOL    HW118758   6.227   2.745   5.425
 5953SOL    HW218759   6.349   2.640   5.456
 5954SOL     OW18760   0.215   4.448   5.534
 5954SOL    HW118761   0.121   4.417   5.549
 5954SOL    HW218762   0.278   4.373   5.551
 5955SOL     OW18763   5.410   5.672   2.553
 5955SOL    HW118764   5.364   5.584   2.538
 5955SOL    HW218765   5.455   5.671   2.642
 5956SOL     OW18766   3.696   1.793   6.649
 5956SOL    HW118767   3.731   1.714   6.598
 5956SOL    HW218768   3.719   1.877   6.600
 5957SOL     OW18769   4.487   0.404   5.601
 5957SOL    HW118770   4.513   0.497   5.577
 5957SOL    HW218771   4.510   0.342   5.526
 5958SOL     OW18772   6.468   5.619   2.678
 5958SOL    HW118773   6.368   5.629   2.679
 5958SOL    HW218774   6.491   5.526   2.647
 5959SOL     OW18775   3.837   2.068   4.850
 5959SOL    HW118776   3.827   2.059   4.751
 5959SOL    HW218777   3.899   2.144   4.871
 5960SOL     OW18778   3.943   6.424   4.604
 5960SOL    HW118779   3.935   6.439   4.505
 5960SOL    HW218780   3.915   6.330   4.625
 5961SOL     OW18781   5.192   1.263   3.831
 5961SOL    HW118782   5.191   1.171   3.871
 5961SOL    HW218783   5.139   1.262   3.746
 5962SOL     OW18784   4.968   5.945   1.421
 5962SOL    HW118785   5.034   5.968   1.349
 5962SOL    HW218786   4.978   5.849   1.445
 5963SOL     OW18787   3.265   3.187   4.585
 5963SOL    HW118788   3.209   3.105   4.596
 5963SOL    HW218789   3.296   3.219   4.674
 5964SOL     OW18790   0.298   5.067   5.624
 5964SOL    HW118791   0.234   5.050   5.698
 5964SOL    HW218792   0.333   5.161   5.632
 5965SOL     OW18793   1.490   2.175   6.597
 5965SOL    HW118794   1.570   2.221   6.635
 5965SOL    HW218795   1.487   2.188   6.498
 5966SOL     OW18796   2.668   5.784   5.246
 5966SOL    HW118797   2.596   5.813   5.182
 5966SOL    HW218798   2.701   5.863   5.296
 5967SOL     OW18799   4.320   6.250   1.089
 5967SOL    HW118800   4.374   6.330   1.063
 5967SOL    HW218801   4.338   6.175   1.025
 5968SOL     OW18802   4.473   1.161   2.447
 5968SOL    HW118803   4.518   1.084   2.494
 5968SOL    HW218804   4.543   1.225   2.415
 5969SOL     OW18805   6.730   1.020   6.200
 5969SOL    HW118806   6.741   0.925   6.171
 5969SOL    HW218807   6.663   1.025   6.274
 5970SOL     OW18808   0.441   4.538   2.645
 5970SOL    HW118809   0.474   4.444   2.645
 5970SOL    HW218810   0.518   4.600   2.666
 5971SOL     OW18811   1.491   0.917   3.168
 5971SOL    HW118812   1.440   0.994   3.130
 5971SOL    HW218813   1.433   0.866   3.231
 5972SOL     OW18814   5.312   6.757   7.006
 5972SOL    HW118815   5.389   6.727   6.951
 5972SOL    HW218816   5.341   6.771   0.080
 5973SOL     OW18817   1.680   4.384   2.347
 5973SOL    HW118818   1.726   4.317   2.288
 5973SOL    HW218819   1.581   4.380   2.331
 5974SOL     OW18820   5.535   4.310   6.717
 5974SOL    HW118821   5.570   4.297   6.625
 5974SOL    HW218822   5.590   4.258   6.782
 5975SOL     OW18823   3.108   2.133   0.506
 5975SOL    HW118824   3.153   2.208   0.556
 5975SOL    HW218825   3.135   2.046   0.547
 5976SOL     OW18826   3.237   3.554   4.652
 5976SOL    HW118827   3.298   3.620   4.696
 5976SOL    HW218828   3.223   3.580   4.556
 5977SOL     OW18829   1.617   4.391   1.634
 5977SOL    HW118830   1.536   4.333   1.646
 5977SOL    HW218831   1.631   4.446   1.716
 5978SOL     OW18832   4.896   5.497   3.532
 5978SOL    HW118833   4.895   5.482   3.433
 5978SOL    HW218834   4.849   5.582   3.553
 5979SOL     OW18835   6.633   6.822   2.666
 5979SOL    HW118836   6.708   6.797   2.728
 5979SOL    HW218837   6.572   6.887   2.712
 5980SOL     OW18838   4.066   3.681   0.007
 5980SOL    HW118839   4.086   3.778   0.013
 5980SOL    HW218840   4.012   3.652   0.086
 5981SOL     OW18841   6.461   0.835   2.221
 5981SOL    HW118842   6.411   0.793   2.297
 5981SOL    HW218843   6.405   0.830   2.138
 5982SOL     OW18844   6.366   2.608   0.251
 5982SOL    HW118845   6.446   2.610   0.191
 5982SOL    HW218846   6.349   2.514   0.281
 5983SOL     OW18847   1.586   0.712   4.620
 5983SOL    HW118848   1.638   0.793   4.593
 5983SOL    HW218849   1.601   0.694   4.717
 5984SOL     OW18850   6.398   6.566   5.126
 5984SOL    HW118851   6.455   6.557   5.208
 5984SOL    HW218852   6.344   6.650   5.131
 5985SOL     OW18853   6.234   3.296   3.895
 5985SOL    HW118854   6.318   3.288   3.842
 5985SOL    HW218855   6.158   3.316   3.833
 5986SOL     OW18856   3.508   3.839   3.913
 5986SOL    HW118857   3.558   3.859   3.828
 5986SOL    HW218858   3.460   3.921   3.943
 5987SOL     OW18859   4.129   0.882   5.408
 5987SOL    HW118860   4.074   0.890   5.325
 5987SOL    HW218861   4.178   0.795   5.408
 5988SOL     OW18862   4.608   0.176   5.091
 5988SOL    HW118863   4.537   0.110   5.116
 5988SOL    HW218864   4.696   0.146   5.127
 5989SOL     OW18865   2.836   5.834   6.989
 5989SOL    HW118866   2.904   5.831   6.915
 5989SOL    HW218867   2.841   5.922   0.015
 5990SOL     OW18868   3.985   4.716   0.628
 5990SOL    HW118869   3.892   4.736   0.658
 5990SOL    HW218870   4.021   4.639   0.681
 5991SOL     OW18871   3.932   5.695   5.601
 5991SOL    HW118872   4.027   5.711   5.575
 5991SOL    HW218873   3.892   5.625   5.541
 5992SOL     OW18874   3.650   0.763   3.412
 5992SOL    HW118875   3.727   0.700   3.401
 5992SOL    HW218876   3.681   0.845   3.461
 5993SOL     OW18877   3.186   6.244   5.636
 5993SOL    HW118878   3.273   6.220   5.679
 5993SOL    HW218879   3.174   6.343   5.637
 5994SOL     OW18880   6.462   1.931   1.786
 5994SOL    HW118881   6.463   1.957   1.690
 5994SOL    HW218882   6.384   1.870   1.803
 5995SOL     OW18883   6.083   4.533   2.580
 5995SOL    HW118884   6.179   4.552   2.602
 5995SOL    HW218885   6.029   4.616   2.593
 5996SOL     OW18886   0.889   5.968   0.644
 5996SOL    HW118887   0.906   6.025   0.725
 5996SOL    HW218888   0.817   6.010   0.589
 5997SOL     OW18889   1.291   5.928   2.814
 5997SOL    HW118890   1.265   5.936   2.718
 5997SOL    HW218891   1.274   6.015   2.860
 5998SOL     OW18892   6.192   2.062   1.590
 5998SOL    HW118893   6.116   2.032   1.533
 5998SOL    HW218894   6.276   2.017   1.561
 5999SOL     OW18895   1.652   1.845   2.702
 5999SOL    HW118896   1.609   1.895   2.626
 5999SOL    HW218897   1.616   1.881   2.789
 6000SOL     OW18898   3.630   6.833   2.042
 6000SOL    HW118899   3.605   6.912   2.098
 6000SOL    HW218900   3.549   6.802   1.991
 6001SOL     OW18901   0.619   3.964   6.423
 6001SOL    HW118902   0.628   4.052   6.377
 6001SOL    HW218903   0.604   3.892   6.355
 6002SOL     OW18904   6.835   0.424   1.042
 6002SOL    HW118905   6.878   0.380   0.964
 6002SOL    HW218906   6.898   0.425   1.119
 6003SOL     OW18907   0.006   1.992   4.214
 6003SOL    HW118908   0.043   1.963   4.125
 6003SOL    HW218909   6.936   2.031   4.201
 6004SOL     OW18910   0.075   4.400   2.987
 6004SOL    HW118911   0.017   4.481   2.973
 6004SOL    HW218912   0.169   4.421   2.962
 6005SOL     OW18913   4.819   5.064   4.702
 6005SOL    HW118914   4.867   5.151   4.711
 6005SOL    HW218915   4.883   4.994   4.672
 6006SOL     OW18916   3.239   6.900   6.612
 6006SOL    HW118917   3.144   6.923   6.591
 6006SOL    HW218918   3.245   6.871   6.708
 6007SOL     OW18919   4.866   3.666   4.617
 6007SOL    HW118920   4.791   3.699   4.674
 6007SOL    HW218921   4.924   3.605   4.671
 6008SOL     OW18922   2.107   5.695   5.947
 6008SOL    HW118923   2.068   5.765   5.888
 6008SOL    HW218924   2.086   5.604   5.909
 6009SOL     OW18925   4.228   0.763   5.022
 6009SOL    HW118926   4.173   0.845   5.005
 6009SOL    HW218927   4.168   0.683   5.022
 6010SOL     OW18928   1.346   4.174   3.252
 6010SOL    HW118929   1.371   4.217   3.165
 6010SOL    HW218930   1.420   4.113   3.281
 6011SOL     OW18931   4.659   2.709   2.927
 6011SOL    HW118932   4.575   2.723   2.875
 6011SOL    HW218933   4.638   2.687   3.022
 6012SOL     OW18934   6.293   1.320   6.895
 6012SOL    HW118935   6.275   1.417   6.878
 6012SOL    HW218936   6.275   1.300   6.992
 6013SOL     OW18937   5.526   2.160   2.926
 6013SOL    HW118938   5.541   2.110   2.841
 6013SOL    HW218939   5.614   2.193   2.961
 6014SOL     OW18940   4.142   2.407   0.684
 6014SOL    HW118941   4.153   2.432   0.588
 6014SOL    HW218942   4.044   2.401   0.705
 6015SOL     OW18943   5.427   2.239   5.319
 6015SOL    HW118944   5.372   2.234   5.402
 6015SOL    HW218945   5.493   2.164   5.317
 6016SOL     OW18946   0.081   1.809   6.282
 6016SOL    HW118947   0.025   1.730   6.305
 6016SOL    HW218948   0.045   1.891   6.328
 6017SOL     OW18949   6.329   4.633   2.686
 6017SOL    HW118950   6.296   4.642   2.781
 6017SOL    HW218951   6.329   4.723   2.643
 6018SOL     OW18952   3.424   1.545   0.266
 6018SOL    HW118953   3.447   1.453   0.299
 6018SOL    HW218954   3.367   1.592   0.334
 6019SOL     OW18955   6.053   1.613   4.167
 6019SOL    HW118956   5.953   1.607   4.168
 6019SOL    HW218957   6.081   1.705   4.139
 6020SOL     OW18958   2.317   5.549   1.759
 6020SOL    HW118959   2.391   5.487   1.734
 6020SOL    HW218960   2.292   5.605   1.679
 6021SOL     OW18961   3.688   0.660   2.268
 6021SOL    HW118962   3.655   0.732   2.207
 6021SOL    HW218963   3.779   0.685   2.301
 6022SOL     OW18964   4.540   1.368   5.060
 6022SOL    HW118965   4.511   1.439   5.124
 6022SOL    HW218966   4.529   1.401   4.966
 6023SOL     OW18967   5.995   1.691   2.529
 6023SOL    HW118968   6.001   1.729   2.436
 6023SOL    HW218969   5.928   1.618   2.531
 6024SOL     OW18970   0.772   4.243   3.502
 6024SOL    HW118971   0.826   4.222   3.420
 6024SOL    HW218972   0.824   4.306   3.560
 6025SOL     OW18973   3.561   1.762   2.064
 6025SOL    HW118974   3.655   1.731   2.045
 6025SOL    HW218975   3.534   1.732   2.155
 6026SOL     OW18976   6.822   4.475   4.076
 6026SOL    HW118977   6.801   4.383   4.111
 6026SOL    HW218978   6.752   4.539   4.107
 6027SOL     OW18979   1.543   4.131   5.531
 6027SOL    HW118980   1.564   4.222   5.567
 6027SOL    HW218981   1.628   4.080   5.518
 6028SOL     OW18982   1.232   3.921   0.645
 6028SOL    HW118983   1.194   3.936   0.554
 6028SOL    HW218984   1.162   3.940   0.714
 6029SOL     OW18985   1.875   6.306   4.997
 6029SOL    HW118986   1.858   6.340   4.905
 6029SOL    HW218987   1.790   6.271   5.036
 6030SOL     OW18988   3.732   6.532   3.019
 6030SOL    HW118989   3.788   6.613   3.002
 6030SOL    HW218990   3.635   6.555   3.008
 6031SOL     OW18991   4.027   5.242   4.018
 6031SOL    HW118992   4.116   5.202   4.037
 6031SOL    HW218993   3.987   5.199   3.937
 6032SOL     OW18994   2.195   3.079   3.206
 6032SOL    HW118995   2.201   3.170   3.247
 6032SOL    HW218996   2.212   3.009   3.275
 6033SOL     OW18997   3.152   1.835   2.471
 6033SOL    HW118998   3.196   1.803   2.387
 6033SOL    HW218999   3.092   1.763   2.507
 6034SOL     OW19000   1.534   5.687   4.693
 6034SOL    HW119001   1.611   5.630   4.664
 6034SOL    HW219002   1.514   5.669   4.790
 6035SOL     OW19003   0.238   0.462   3.173
 6035SOL    HW119004   0.293   0.455   3.256
 6035SOL    HW219005   0.283   0.412   3.099
 6036SOL     OW19006   6.636   6.341   4.248
 6036SOL    HW119007   6.541   6.339   4.216
 6036SOL    HW219008   6.682   6.256   4.224
 6037SOL     OW19009   4.252   4.530   5.580
 6037SOL    HW119010   4.291   4.620   5.560
 6037SOL    HW219011   4.282   4.465   5.510
 6038SOL     OW19012   1.440   2.940   6.124
 6038SOL    HW119013   1.495   2.895   6.053
 6038SOL    HW219014   1.356   2.975   6.083
 6039SOL     OW19015   3.580   2.889   2.591
 6039SOL    HW119016   3.495   2.940   2.603
 6039SOL    HW219017   3.626   2.879   2.679
 6040SOL     OW19018   0.620   2.280   6.492
 6040SOL    HW119019   0.571   2.337   6.558
 6040SOL    HW219020   0.571   2.279   6.405
 6041SOL     OW19021   1.919   0.812   4.822
 6041SOL    HW119022   1.976   0.788   4.901
 6041SOL    HW219023   1.947   0.901   4.786
 6042SOL     OW19024   5.129   5.552   2.002
 6042SOL    HW119025   5.162   5.614   2.074
 6042SOL    HW219026   5.195   5.479   1.987
 6043SOL     OW19027   0.780   4.203   5.602
 6043SOL    HW119028   0.874   4.222   5.574
 6043SOL    HW219029   0.730   4.161   5.527
 6044SOL     OW19030   1.594   2.668   1.488
 6044SOL    HW119031   1.537   2.612   1.429
 6044SOL    HW219032   1.647   2.609   1.549
 6045SOL     OW19033   6.107   5.731   1.188
 6045SOL    HW119034   6.118   5.774   1.099
 6045SOL    HW219035   6.188   5.676   1.208
 6046SOL     OW19036   2.975   1.697   0.210
 6046SOL    HW119037   3.050   1.762   0.195
 6046SOL    HW219038   3.007   1.605   0.187
 6047SOL     OW19039   6.584   1.857   2.011
 6047SOL    HW119040   6.504   1.826   2.063
 6047SOL    HW219041   6.553   1.899   1.926
 6048SOL     OW19042   4.337   6.549   3.441
 6048SOL    HW119043   4.398   6.627   3.455
 6048SOL    HW219044   4.270   6.572   3.371
 6049SOL     OW19045   5.333   3.837   5.696
 6049SOL    HW119046   5.271   3.913   5.675
 6049SOL    HW219047   5.388   3.860   5.776
 6050SOL     OW19048   3.218   4.777   5.217
 6050SOL    HW119049   3.196   4.799   5.122
 6050SOL    HW219050   3.134   4.757   5.268
 6051SOL     OW19051   2.068   1.185   3.734
 6051SOL    HW119052   2.108   1.121   3.800
 6051SOL    HW219053   2.121   1.270   3.734
 6052SOL     OW19054   6.466   6.236   0.378
 6052SOL    HW119055   6.479   6.300   0.302
 6052SOL    HW219056   6.516   6.269   0.458
 6053SOL     OW19057   3.694   0.772   6.206
 6053SOL    HW119058   3.635   0.710   6.257
 6053SOL    HW219059   3.681   0.757   6.108
 6054SOL     OW19060   2.868   4.160   0.619
 6054SOL    HW119061   2.912   4.242   0.655
 6054SOL    HW219062   2.812   4.184   0.539
 6055SOL     OW19063   5.551   1.611   5.655
 6055SOL    HW119064   5.565   1.518   5.689
 6055SOL    HW219065   5.639   1.660   5.653
 6056SOL     OW19066   5.168   3.479   5.030
 6056SOL    HW119067   5.114   3.419   5.089
 6056SOL    HW219068   5.203   3.556   5.084
 6057SOL     OW19069   5.493   3.082   4.426
 6057SOL    HW119070   5.431   3.015   4.384
 6057SOL    HW219071   5.442   3.141   4.488
 6058SOL     OW19072   5.128   2.850   2.329
 6058SOL    HW119073   5.029   2.837   2.326
 6058SOL    HW219074   5.164   2.853   2.235
 6059SOL     OW19075   4.539   5.608   5.086
 6059SOL    HW119076   4.503   5.649   5.170
 6059SOL    HW219077   4.490   5.648   5.008
 6060SOL     OW19078   2.973   4.157   6.340
 6060SOL    HW119079   3.056   4.102   6.329
 6060SOL    HW219080   2.995   4.243   6.386
 6061SOL     OW19081   4.263   1.672   0.664
 6061SOL    HW119082   4.166   1.677   0.640
 6061SOL    HW219083   4.275   1.611   0.742
 6062SOL     OW19084   1.643   1.088   4.758
 6062SOL    HW119085   1.652   1.025   4.681
 6062SOL    HW219086   1.604   1.174   4.727
 6063SOL     OW19087   3.432   1.408   6.794
 6063SOL    HW119088   3.457   1.372   6.884
 6063SOL    HW219089   3.396   1.333   6.738
 6064SOL     OW19090   2.733   6.023   2.151
 6064SOL    HW119091   2.674   6.067   2.219
 6064SOL    HW219092   2.753   6.087   2.077
 6065SOL     OW19093   5.921   6.863   2.084
 6065SOL    HW119094   6.018   6.838   2.084
 6065SOL    HW219095   5.877   6.829   2.001
 6066SOL     OW19096   4.070   1.557   0.117
 6066SOL    HW119097   4.082   1.616   0.037
 6066SOL    HW219098   4.124   1.594   0.193
 6067SOL     OW19099   5.695   1.858   6.424
 6067SOL    HW119100   5.765   1.874   6.355
 6067SOL    HW219101   5.652   1.944   6.449
 6068SOL     OW19102   5.617   3.037   4.768
 6068SOL    HW119103   5.678   3.038   4.689
 6068SOL    HW219104   5.621   2.947   4.812
 6069SOL     OW19105   0.139   3.223   5.203
 6069SOL    HW119106   0.191   3.164   5.141
 6069SOL    HW219107   0.123   3.175   5.289
 6070SOL     OW19108   2.357   1.533   6.420
 6070SOL    HW119109   2.438   1.578   6.382
 6070SOL    HW219110   2.284   1.531   6.351
 6071SOL     OW19111   5.257   4.992   4.400
 6071SOL    HW119112   5.280   4.902   4.363
 6071SOL    HW219113   5.158   5.001   4.407
 6072SOL     OW19114   6.994   0.677   2.167
 6072SOL    HW119115   0.039   0.751   2.181
 6072SOL    HW219116   6.998   0.646   2.072
 6073SOL     OW19117   6.568   4.091   0.238
 6073SOL    HW119118   6.587   3.993   0.241
 6073SOL    HW219119   6.631   4.139   0.299
 6074SOL     OW19120   1.041   6.733   4.154
 6074SOL    HW119121   0.953   6.697   4.185
 6074SOL    HW219122   1.041   6.738   4.054
 6075SOL     OW19123   6.903   2.422   6.778
 6075SOL    HW119124   6.952   2.495   6.729
 6075SOL    HW219125   6.815   2.406   6.733
 6076SOL     OW19126   2.710   6.044   4.820
 6076SOL    HW119127   2.677   5.972   4.760
 6076SOL    HW219128   2.759   6.003   4.897
 6077SOL     OW19129   4.445   5.509   2.199
 6077SOL    HW119130   4.465   5.412   2.182
 6077SOL    HW219131   4.531   5.558   2.217
 6078SOL     OW19132   3.804   4.738   1.709
 6078SOL    HW119133   3.735   4.701   1.772
 6078SOL    HW219134   3.759   4.767   1.625
 6079SOL     OW19135   2.965   3.460   5.965
 6079SOL    HW119136   2.935   3.420   5.878
 6079SOL    HW219137   2.978   3.559   5.953
 6080SOL     OW19138   6.859   1.487   1.640
 6080SOL    HW119139   6.843   1.501   1.542
 6080SOL    HW219140   6.956   1.470   1.656
 6081SOL     OW19141   5.981   3.234   4.886
 6081SOL    HW119142   6.032   3.320   4.881
 6081SOL    HW219143   5.885   3.251   4.863
 6082SOL     OW19144   3.307   1.242   2.964
 6082SOL    HW119145   3.246   1.283   3.032
 6082SOL    HW219146   3.379   1.307   2.940
 6083SOL     OW19147   0.535   5.947   6.158
 6083SOL    HW119148   0.446   5.962   6.202
 6083SOL    HW219149   0.522   5.903   6.070
 6084SOL     OW19150   0.822   5.589   3.865
 6084SOL    HW119151   0.755   5.582   3.939
 6084SOL    HW219152   0.811   5.677   3.818
 6085SOL     OW19153   0.460   4.458   0.072
 6085SOL    HW119154   0.537   4.437   0.132
 6085SOL    HW219155   0.493   4.513   7.016
 6086SOL     OW19156   3.034   1.779   4.908
 6086SOL    HW119157   3.050   1.743   4.816
 6086SOL    HW219158   3.069   1.873   4.913
 6087SOL     OW19159   4.536   5.602   0.119
 6087SOL    HW119160   4.587   5.518   0.137
 6087SOL    HW219161   4.482   5.590   0.036
 6088SOL     OW19162   6.258   6.518   4.702
 6088SOL    HW119163   6.184   6.548   4.763
 6088SOL    HW219164   6.257   6.574   4.619
 6089SOL     OW19165   0.231   3.635   1.359
 6089SOL    HW119166   0.237   3.546   1.314
 6089SOL    HW219167   0.287   3.701   1.310
 6090SOL     OW19168   1.918   6.167   6.156
 6090SOL    HW119169   2.009   6.167   6.115
 6090SOL    HW219170   1.923   6.135   6.250
 6091SOL     OW19171   2.137   1.645   2.324
 6091SOL    HW119172   2.192   1.575   2.278
 6091SOL    HW219173   2.044   1.644   2.288
 6092SOL     OW19174   2.824   0.300   3.568
 6092SOL    HW119175   2.834   0.274   3.472
 6092SOL    HW219176   2.734   0.273   3.601
 6093SOL     OW19177   1.184   3.124   2.917
 6093SOL    HW119178   1.220   3.042   2.872
 6093SOL    HW219179   1.168   3.104   3.014
 6094SOL     OW19180   3.940   0.339   0.960
 6094SOL    HW119181   3.884   0.420   0.977
 6094SOL    HW219182   3.949   0.326   0.861
 6095SOL     OW19183   4.498   3.424   6.528
 6095SOL    HW119184   4.553   3.471   6.459
 6095SOL    HW219185   4.449   3.348   6.485
 6096SOL     OW19186   5.997   0.344   3.409
 6096SOL    HW119187   5.902   0.315   3.394
 6096SOL    HW219188   6.044   0.350   3.321
 6097SOL     OW19189   1.780   6.833   1.857
 6097SOL    HW119190   1.732   6.783   1.930
 6097SOL    HW219191   1.725   6.831   1.774
 6098SOL     OW19192   1.175   2.310   6.178
 6098SOL    HW119193   1.183   2.352   6.268
 6098SOL    HW219194   1.246   2.346   6.117
 6099SOL     OW19195   0.159   6.145   0.250
 6099SOL    HW119196   0.100   6.109   0.178
 6099SOL    HW219197   0.179   6.072   0.316
 6100SOL     OW19198   5.143   3.244   6.652
 6100SOL    HW119199   5.193   3.197   6.579
 6100SOL    HW219200   5.058   3.282   6.615
 6101SOL     OW19201   6.302   1.897   5.085
 6101SOL    HW119202   6.295   1.969   5.016
 6101SOL    HW219203   6.237   1.824   5.063
 6102SOL     OW19204   3.980   0.609   4.002
 6102SOL    HW119205   3.945   0.686   4.055
 6102SOL    HW219206   3.944   0.614   3.908
 6103SOL     OW19207   0.608   1.862   2.880
 6103SOL    HW119208   0.654   1.804   2.814
 6103SOL    HW219209   0.522   1.818   2.908
 6104SOL     OW19210   6.117   2.336   5.638
 6104SOL    HW119211   6.135   2.382   5.551
 6104SOL    HW219212   6.144   2.395   5.713
 6105SOL     OW19213   2.212   0.246   5.929
 6105SOL    HW119214   2.120   0.273   5.902
 6105SOL    HW219215   2.213   0.225   6.027
 6106SOL     OW19216   1.425   3.985   5.127
 6106SOL    HW119217   1.353   3.969   5.059
 6106SOL    HW219218   1.514   3.987   5.082
 6107SOL     OW19219   2.603   4.755   4.439
 6107SOL    HW119220   2.673   4.795   4.498
 6107SOL    HW219221   2.560   4.678   4.486
 6108SOL     OW19222   0.660   2.394   2.921
 6108SOL    HW119223   0.727   2.432   2.857
 6108SOL    HW219224   0.603   2.468   2.957
 6109SOL     OW19225   4.891   2.891   6.289
 6109SOL    HW119226   4.911   2.880   6.192
 6109SOL    HW219227   4.818   2.958   6.301
 6110SOL     OW19228   3.870   2.918   6.909
 6110SOL    HW119229   3.959   2.891   6.873
 6110SOL    HW219230   3.882   2.956   7.001
 6111SOL     OW19231   1.658   4.436   2.614
 6111SOL    HW119232   1.663   4.342   2.648
 6111SOL    HW219233   1.661   4.436   2.514
 6112SOL     OW19234   3.789   0.941   3.600
 6112SOL    HW119235   3.880   0.958   3.562
 6112SOL    HW219236   3.743   1.028   3.617
 6113SOL     OW19237   0.785   1.306   5.782
 6113SOL    HW119238   0.748   1.350   5.864
 6113SOL    HW219239   0.768   1.207   5.787
 6114SOL     OW19240   4.877   4.998   0.870
 6114SOL    HW119241   4.839   5.081   0.910
 6114SOL    HW219242   4.970   4.984   0.904
 6115SOL     OW19243   5.524   6.291   3.142
 6115SOL    HW119244   5.618   6.269   3.118
 6115SOL    HW219245   5.520   6.381   3.185
 6116SOL     OW19246   2.741   1.197   0.959
 6116SOL    HW119247   2.679   1.197   1.037
 6116SOL    HW219248   2.710   1.129   0.892
 6117SOL     OW19249   6.203   0.557   5.990
 6117SOL    HW119250   6.263   0.530   5.914
 6117SOL    HW219251   6.108   0.550   5.961
 6118SOL     OW19252   0.248   0.332   1.492
 6118SOL    HW119253   0.177   0.300   1.554
 6118SOL    HW219254   0.207   0.390   1.421
 6119SOL     OW19255   0.916   3.717   4.368
 6119SOL    HW119256   1.016   3.725   4.364
 6119SOL    HW219257   0.876   3.765   4.290
 6120SOL     OW19258   4.394   7.007   3.596
 6120SOL    HW119259   4.422   6.999   3.692
 6120SOL    HW219260   4.460   0.044   3.548
 6121SOL     OW19261   0.251   2.786   4.595
 6121SOL    HW119262   0.273   2.689   4.591
 6121SOL    HW219263   0.252   2.817   4.690
 6122SOL     OW19264   3.626   6.998   1.587
 6122SOL    HW119265   3.638   0.059   1.530
 6122SOL    HW219266   3.554   7.015   1.654
 6123SOL     OW19267   6.701   0.380   6.582
 6123SOL    HW119268   6.650   0.464   6.562
 6123SOL    HW219269   6.771   0.399   6.651
 6124SOL     OW19270   3.019   0.678   5.769
 6124SOL    HW119271   2.962   0.683   5.852
 6124SOL    HW219272   2.968   0.631   5.697
 6125SOL     OW19273   3.341   5.612   0.463
 6125SOL    HW119274   3.317   5.641   0.556
 6125SOL    HW219275   3.260   5.613   0.405
 6126SOL     OW19276   6.377   7.005   3.967
 6126SOL    HW119277   6.398   6.909   3.984
 6126SOL    HW219278   6.409   0.039   4.044
 6127SOL     OW19279   2.610   0.845   3.047
 6127SOL    HW119280   2.577   0.757   3.011
 6127SOL    HW219281   2.696   0.869   3.002
 6128SOL     OW19282   6.536   3.528   0.455
 6128SOL    HW119283   6.542   3.478   0.368
 6128SOL    HW219284   6.494   3.617   0.439
 6129SOL     OW19285   6.233   4.520   3.037
 6129SOL    HW119286   6.289   4.513   3.119
 6129SOL    HW219287   6.242   4.437   2.983
 6130SOL     OW19288   5.608   1.940   3.920
 6130SOL    HW119289   5.592   1.917   3.824
 6130SOL    HW219290   5.589   1.860   3.977
 6131SOL     OW19291   6.329   1.240   5.177
 6131SOL    HW119292   6.236   1.276   5.164
 6131SOL    HW219293   6.396   1.311   5.155
 6132SOL     OW19294   5.358   1.487   0.288
 6132SOL    HW119295   5.440   1.541   0.271
 6132SOL    HW219296   5.370   1.433   0.371
 6133SOL     OW19297   1.404   2.488   2.709
 6133SOL    HW119298   1.375   2.405   2.661
 6133SOL    HW219299   1.504   2.495   2.706
 6134SOL     OW19300   3.806   4.438   0.356
 6134SOL    HW119301   3.771   4.472   0.444
 6134SOL    HW219302   3.824   4.340   0.364
 6135SOL     OW19303   0.542   6.822   1.796
 6135SOL    HW119304   0.635   6.840   1.763
 6135SOL    HW219305   0.477   6.877   1.745
 6136SOL     OW19306   0.531   2.659   2.280
 6136SOL    HW119307   0.624   2.670   2.245
 6136SOL    HW219308   0.534   2.652   2.380
 6137SOL     OW19309   5.390   1.825   5.109
 6137SOL    HW119310   5.447   1.743   5.106
 6137SOL    HW219311   5.367   1.853   5.015
 6138SOL     OW19312   3.819   6.158   2.450
 6138SOL    HW119313   3.805   6.124   2.357
 6138SOL    HW219314   3.738   6.209   2.480
 6139SOL     OW19315   1.553   2.745   4.867
 6139SOL    HW119316   1.487   2.803   4.818
 6139SOL    HW219317   1.558   2.656   4.822
 6140SOL     OW19318   0.204   6.153   1.842
 6140SOL    HW119319   0.170   6.075   1.790
 6140SOL    HW219320   0.193   6.135   1.940
 6141SOL     OW19321   5.782   5.689   5.413
 6141SOL    HW119322   5.779   5.755   5.339
 6141SOL    HW219323   5.705   5.625   5.404
 6142SOL     OW19324   6.906   5.117   0.982
 6142SOL    HW119325   6.941   5.135   0.890
 6142SOL    HW219326   6.879   5.203   1.025
 6143SOL     OW19327   6.433   4.631   0.259
 6143SOL    HW119328   6.383   4.659   0.341
 6143SOL    HW219329   6.384   4.663   0.178
 6144SOL     OW19330   5.886   4.771   2.593
 6144SOL    HW119331   5.893   4.856   2.645
 6144SOL    HW219332   5.790   4.752   2.572
 6145SOL     OW19333   4.785   5.921   4.227
 6145SOL    HW119334   4.812   5.826   4.211
 6145SOL    HW219335   4.848   5.963   4.292
 6146SOL     OW19336   4.200   1.315   3.479
 6146SOL    HW119337   4.265   1.375   3.525
 6146SOL    HW219338   4.250   1.251   3.421
 6147SOL     OW19339   1.540   4.058   4.291
 6147SOL    HW119340   1.473   3.986   4.273
 6147SOL    HW219341   1.495   4.138   4.330
 6148SOL     OW19342   0.063   0.275   4.543
 6148SOL    HW119343   0.138   0.255   4.607
 6148SOL    HW219344   7.008   0.315   4.593
 6149SOL     OW19345   3.144   4.921   3.130
 6149SOL    HW119346   3.240   4.932   3.106
 6149SOL    HW219347   3.102   5.011   3.142
 6150SOL     OW19348   3.873   4.870   6.776
 6150SOL    HW119349   3.775   4.880   6.795
 6150SOL    HW219350   3.922   4.950   6.810
 6151SOL     OW19351   6.023   3.947   4.511
 6151SOL    HW119352   5.973   3.866   4.482
 6151SOL    HW219353   6.062   3.993   4.430
 6152SOL     OW19354   5.655   4.818   5.289
 6152SOL    HW119355   5.613   4.769   5.365
 6152SOL    HW219356   5.754   4.803   5.290
 6153SOL     OW19357   4.927   4.102   1.894
 6153SOL    HW119358   4.891   4.124   1.985
 6153SOL    HW219359   4.936   4.003   1.884
 6154SOL     OW19360   5.633   1.491   2.765
 6154SOL    HW119361   5.634   1.569   2.828
 6154SOL    HW219362   5.589   1.519   2.679
 6155SOL     OW19363   1.963   1.988   4.955
 6155SOL    HW119364   1.988   2.083   4.973
 6155SOL    HW219365   1.876   1.967   4.998
 6156SOL     OW19366   4.508   4.486   2.419
 6156SOL    HW119367   4.539   4.471   2.513
 6156SOL    HW219368   4.418   4.530   2.420
 6157SOL     OW19369   1.261   1.375   4.531
 6157SOL    HW119370   1.303   1.459   4.495
 6157SOL    HW219371   1.275   1.301   4.466
 6158SOL     OW19372   4.692   0.586   5.756
 6158SOL    HW119373   4.658   0.575   5.850
 6158SOL    HW219374   4.614   0.595   5.694
 6159SOL     OW19375   4.632   2.493   1.190
 6159SOL    HW119376   4.683   2.489   1.275
 6159SOL    HW219377   4.641   2.407   1.140
 6160SOL     OW19378   4.996   6.562   0.153
 6160SOL    HW119379   4.950   6.616   0.082
 6160SOL    HW219380   4.940   6.562   0.236
 6161SOL     OW19381   5.700   2.002   5.613
 6161SOL    HW119382   5.769   2.075   5.613
 6161SOL    HW219383   5.741   1.918   5.648
 6162SOL     OW19384   1.087   5.567   3.934
 6162SOL    HW119385   1.001   5.604   3.898
 6162SOL    HW219386   1.073   5.535   4.028
 6163SOL     OW19387   5.424   6.157   1.792
 6163SOL    HW119388   5.377   6.162   1.704
 6163SOL    HW219389   5.390   6.230   1.852
 6164SOL     OW19390   2.646   3.121   1.589
 6164SOL    HW119391   2.590   3.118   1.507
 6164SOL    HW219392   2.630   3.207   1.637
 6165SOL     OW19393   4.175   6.982   5.970
 6165SOL    HW119394   4.137   6.977   5.878
 6165SOL    HW219395   4.102   6.998   6.036
 6166SOL     OW19396   3.879   0.953   5.531
 6166SOL    HW119397   3.850   1.046   5.509
 6166SOL    HW219398   3.965   0.933   5.484
 6167SOL     OW19399   0.374   4.774   2.527
 6167SOL    HW119400   0.431   4.769   2.445
 6167SOL    HW219401   0.373   4.685   2.572
 6168SOL     OW19402   0.400   3.411   0.641
 6168SOL    HW119403   0.357   3.330   0.681
 6168SOL    HW219404   0.496   3.392   0.622
 6169SOL     OW19405   1.048   3.586   2.091
 6169SOL    HW119406   0.998   3.499   2.091
 6169SOL    HW219407   1.018   3.640   2.012
 6170SOL     OW19408   0.783   3.230   4.928
 6170SOL    HW119409   0.856   3.292   4.957
 6170SOL    HW219410   0.822   3.143   4.900
 6171SOL     OW19411   0.660   1.839   0.204
 6171SOL    HW119412   0.614   1.910   0.151
 6171SOL    HW219413   0.593   1.786   0.255
 6172SOL     OW19414   1.244   3.385   3.009
 6172SOL    HW119415   1.240   3.463   2.946
 6172SOL    HW219416   1.227   3.300   2.959
 6173SOL     OW19417   6.639   5.388   3.343
 6173SOL    HW119418   6.568   5.411   3.275
 6173SOL    HW219419   6.727   5.378   3.296
 6174SOL     OW19420   5.015   5.401   4.208
 6174SOL    HW119421   4.916   5.411   4.217
 6174SOL    HW219422   5.035   5.334   4.136
 6175SOL     OW19423   3.938   0.373   4.093
 6175SOL    HW119424   3.973   0.459   4.054
 6175SOL    HW219425   3.910   0.388   4.188
 6176SOL     OW19426   4.868   3.866   5.419
 6176SOL    HW119427   4.916   3.864   5.506
 6176SOL    HW219428   4.821   3.779   5.404
 6177SOL     OW19429   5.476   1.970   1.907
 6177SOL    HW119430   5.516   1.986   1.817
 6177SOL    HW219431   5.535   2.010   1.977
 6178SOL     OW19432   5.245   3.948   2.361
 6178SOL    HW119433   5.237   3.902   2.273
 6178SOL    HW219434   5.323   3.909   2.411
 6179SOL     OW19435   6.422   4.575   2.164
 6179SOL    HW119436   6.396   4.481   2.185
 6179SOL    HW219437   6.355   4.637   2.204
 6180SOL     OW19438   2.654   4.919   1.216
 6180SOL    HW119439   2.588   4.987   1.249
 6180SOL    HW219440   2.740   4.965   1.193
 6181SOL     OW19441   4.884   6.278   6.453
 6181SOL    HW119442   4.813   6.347   6.440
 6181SOL    HW219443   4.963   6.321   6.497
 6182SOL     OW19444   4.477   3.563   6.102
 6182SOL    HW119445   4.542   3.585   6.029
 6182SOL    HW219446   4.446   3.647   6.145
 6183SOL     OW19447   1.721   2.100   2.061
 6183SOL    HW119448   1.725   2.103   2.161
 6183SOL    HW219449   1.739   2.191   2.025
 6184SOL     OW19450   3.224   6.838   6.015
 6184SOL    HW119451   3.319   6.827   5.986
 6184SOL    HW219452   3.208   6.785   6.098
 6185SOL     OW19453   1.425   4.568   6.146
 6185SOL    HW119454   1.374   4.583   6.231
 6185SOL    HW219455   1.449   4.471   6.139
 6186SOL     OW19456   5.975   1.266   1.161
 6186SOL    HW119457   6.045   1.303   1.222
 6186SOL    HW219458   6.000   1.172   1.135
 6187SOL     OW19459   4.883   3.189   4.519
 6187SOL    HW119460   4.843   3.192   4.428
 6187SOL    HW219461   4.978   3.219   4.516
 6188SOL     OW19462   1.665   1.746   6.013
 6188SOL    HW119463   1.759   1.714   6.004
 6188SOL    HW219464   1.605   1.668   6.030
 6189SOL     OW19465   3.723   4.947   3.099
 6189SOL    HW119466   3.785   5.010   3.146
 6189SOL    HW219467   3.710   4.977   3.005
 6190SOL     OW19468   0.428   3.289   5.471
 6190SOL    HW119469   0.423   3.384   5.502
 6190SOL    HW219470   0.486   3.283   5.389
 6191SOL     OW19471   2.967   2.984   6.427
 6191SOL    HW119472   2.943   3.075   6.393
 6191SOL    HW219473   2.897   2.918   6.399
 6192SOL     OW19474   2.644   1.924   6.755
 6192SOL    HW119475   2.649   2.009   6.703
 6192SOL    HW219476   2.630   1.946   6.852
 6193SOL     OW19477   4.377   6.084   0.879
 6193SOL    HW119478   4.294   6.118   0.837
 6193SOL    HW219479   4.451   6.081   0.811
 6194SOL     OW19480   6.171   0.528   6.301
 6194SOL    HW119481   6.229   0.609   6.292
 6194SOL    HW219482   6.201   0.458   6.236
 6195SOL     OW19483   5.433   6.278   4.582
 6195SOL    HW119484   5.369   6.343   4.542
 6195SOL    HW219485   5.467   6.313   4.670
 6196SOL     OW19486   4.784   4.076   2.507
 6196SOL    HW119487   4.731   4.143   2.454
 6196SOL    HW219488   4.872   4.061   2.462
 6197SOL     OW19489   2.605   5.268   2.142
 6197SOL    HW119490   2.641   5.259   2.234
 6197SOL    HW219491   2.677   5.248   2.075
 6198SOL     OW19492   4.185   6.311   0.535
 6198SOL    HW119493   4.237   6.250   0.594
 6198SOL    HW219494   4.148   6.259   0.458
 6199SOL     OW19495   0.892   1.241   0.413
 6199SOL    HW119496   0.865   1.309   0.481
 6199SOL    HW219497   0.987   1.214   0.429
 6200SOL     OW19498   1.076   2.175   4.661
 6200SOL    HW119499   1.008   2.121   4.712
 6200SOL    HW219500   1.163   2.126   4.660
 6201SOL     OW19501   1.032   3.354   4.363
 6201SOL    HW119502   1.045   3.364   4.264
 6201SOL    HW219503   1.121   3.338   4.406
 6202SOL     OW19504   5.759   1.503   1.655
 6202SOL    HW119505   5.805   1.492   1.566
 6202SOL    HW219506   5.698   1.581   1.651
 6203SOL     OW19507   5.394   5.313   1.703
 6203SOL    HW119508   5.432   5.394   1.657
 6203SOL    HW219509   5.469   5.252   1.728
 6204SOL     OW19510   0.854   6.162   5.030
 6204SOL    HW119511   0.761   6.196   5.048
 6204SOL    HW219512   0.914   6.189   5.105
 6205SOL     OW19513   6.216   4.388   1.207
 6205SOL    HW119514   6.151   4.352   1.274
 6205SOL    HW219515   6.303   4.409   1.253
 6206SOL     OW19516   5.365   1.339   2.753
 6206SOL    HW119517   5.422   1.273   2.803
 6206SOL    HW219518   5.377   1.430   2.792
 6207SOL     OW19519   1.555   6.453   5.191
 6207SOL    HW119520   1.570   6.484   5.285
 6207SOL    HW219521   1.601   6.516   5.128
 6208SOL     OW19522   3.276   2.208   5.461
 6208SOL    HW119523   3.346   2.241   5.398
 6208SOL    HW219524   3.192   2.189   5.411
 6209SOL     OW19525   3.530   5.452   0.370
 6209SOL    HW119526   3.594   5.406   0.431
 6209SOL    HW219527   3.465   5.506   0.424
 6210SOL     OW19528   5.405   4.025   2.940
 6210SOL    HW119529   5.328   3.961   2.942
 6210SOL    HW219530   5.449   4.027   3.030
 6211SOL     OW19531   3.332   6.404   5.377
 6211SOL    HW119532   3.336   6.304   5.386
 6211SOL    HW219533   3.316   6.429   5.282
 6212SOL     OW19534   2.189   4.565   4.278
 6212SOL    HW119535   2.245   4.647   4.268
 6212SOL    HW219536   2.223   4.494   4.217
 6213SOL     OW19537   4.386   6.764   6.879
 6213SOL    HW119538   4.384   6.702   6.801
 6213SOL    HW219539   4.333   6.846   6.858
 6214SOL     OW19540   5.858   5.536   5.611
 6214SOL    HW119541   5.867   5.582   5.700
 6214SOL    HW219542   5.842   5.605   5.540
 6215SOL     OW19543   3.728   3.038   6.254
 6215SOL    HW119544   3.643   3.031   6.202
 6215SOL    HW219545   3.800   2.986   6.207
 6216SOL     OW19546   6.124   2.203   2.000
 6216SOL    HW119547   6.221   2.227   2.004
 6216SOL    HW219548   6.111   2.110   2.033
 6217SOL     OW19549   1.007   4.640   2.299
 6217SOL    HW119550   1.084   4.670   2.241
 6217SOL    HW219551   1.017   4.542   2.318
 6218SOL     OW19552   3.833   6.530   6.956
 6218SOL    HW119553   3.919   6.580   6.969
 6218SOL    HW219554   3.787   6.520   0.023
 6219SOL     OW19555   1.521   0.899   4.921
 6219SOL    HW119556   1.570   0.971   4.872
 6219SOL    HW219557   1.576   0.815   4.922
 6220SOL     OW19558   3.503   1.168   6.085
 6220SOL    HW119559   3.405   1.152   6.096
 6220SOL    HW219560   3.554   1.097   6.134
 6221SOL     OW19561   6.533   6.584   6.573
 6221SOL    HW119562   6.540   6.668   6.627
 6221SOL    HW219563   6.481   6.516   6.624
 6222SOL     OW19564   6.655   0.413   2.639
 6222SOL    HW119565   6.694   0.370   2.720
 6222SOL    HW219566   6.645   0.512   2.655
 6223SOL     OW19567   1.744   5.704   3.515
 6223SOL    HW119568   1.779   5.772   3.450
 6223SOL    HW219569   1.671   5.744   3.569
 6224SOL     OW19570   3.805   1.674   5.729
 6224SOL    HW119571   3.765   1.734   5.659
 6224SOL    HW219572   3.845   1.729   5.801
 6225SOL     OW19573   3.984   2.396   6.287
 6225SOL    HW119574   3.910   2.458   6.310
 6225SOL    HW219575   4.068   2.448   6.269
 6226SOL     OW19576   1.285   1.318   3.798
 6226SOL    HW119577   1.280   1.252   3.873
 6226SOL    HW219578   1.302   1.409   3.835
 6227SOL     OW19579   3.288   5.009   5.327
 6227SOL    HW119580   3.258   4.933   5.271
 6227SOL    HW219581   3.289   4.982   5.423
 6228SOL     OW19582   0.819   2.295   3.396
 6228SOL    HW119583   0.759   2.305   3.476
 6228SOL    HW219584   0.763   2.287   3.313
 6229SOL     OW19585   0.311   2.722   5.295
 6229SOL    HW119586   0.357   2.634   5.305
 6229SOL    HW219587   0.362   2.792   5.346
 6230SOL     OW19588   1.433   2.367   3.242
 6230SOL    HW119589   1.417   2.397   3.148
 6230SOL    HW219590   1.474   2.442   3.294
 6231SOL     OW19591   5.056   5.523   0.724
 6231SOL    HW119592   5.006   5.592   0.671
 6231SOL    HW219593   5.149   5.514   0.687
 6232SOL     OW19594   6.267   1.265   0.200
 6232SOL    HW119595   6.355   1.219   0.201
 6232SOL    HW219596   6.194   1.197   0.190
 6233SOL     OW19597   0.042   3.098   1.553
 6233SOL    HW119598   0.139   3.104   1.533
 6233SOL    HW219599   0.018   3.004   1.575
 6234SOL     OW19600   0.074   0.217   5.325
 6234SOL    HW119601   0.032   0.134   5.289
 6234SOL    HW219602   0.087   0.282   5.250
 6235SOL     OW19603   0.203   0.886   2.046
 6235SOL    HW119604   0.278   0.865   1.983
 6235SOL    HW219605   0.235   0.948   2.118
 6236SOL     OW19606   0.007   4.536   0.497
 6236SOL    HW119607   0.055   4.624   0.487
 6236SOL    HW219608   6.955   4.531   0.429
 6237SOL     OW19609   3.158   6.879   6.888
 6237SOL    HW119610   3.187   6.939   6.963
 6237SOL    HW219611   3.167   6.784   6.916
 6238SOL     OW19612   4.616   6.711   3.249
 6238SOL    HW119613   4.660   6.789   3.205
 6238SOL    HW219614   4.569   6.743   3.332
 6239SOL     OW19615   3.574   0.692   1.426
 6239SOL    HW119616   3.508   0.629   1.386
 6239SOL    HW219617   3.544   0.719   1.517
 6240SOL     OW19618   2.956   3.596   5.037
 6240SOL    HW119619   2.951   3.554   4.946
 6240SOL    HW219620   2.912   3.536   5.104
 6241SOL     OW19621   4.179   6.991   4.143
 6241SOL    HW119622   4.214   0.059   4.115
 6241SOL    HW219623   4.171   6.931   4.064
 6242SOL     OW19624   3.058   0.824   3.976
 6242SOL    HW119625   3.080   0.821   4.074
 6242SOL    HW219626   3.070   0.917   3.942
 6243SOL     OW19627   6.807   0.687   5.724
 6243SOL    HW119628   6.847   0.756   5.664
 6243SOL    HW219629   6.872   0.664   5.796
 6244SOL     OW19630   4.847   3.851   3.263
 6244SOL    HW119631   4.806   3.856   3.172
 6244SOL    HW219632   4.918   3.781   3.263
 6245SOL     OW19633   1.005   5.183   1.596
 6245SOL    HW119634   0.962   5.219   1.514
 6245SOL    HW219635   0.956   5.217   1.677
 6246SOL     OW19636   0.604   0.907   4.507
 6246SOL    HW119637   0.642   0.862   4.426
 6246SOL    HW219638   0.510   0.937   4.488
 6247SOL     OW19639   1.846   6.339   3.120
 6247SOL    HW119640   1.942   6.365   3.131
 6247SOL    HW219641   1.793   6.375   3.197
 6248SOL     OW19642   3.319   4.070   0.128
 6248SOL    HW119643   3.364   4.101   0.211
 6248SOL    HW219644   3.227   4.108   0.123
 6249SOL     OW19645   0.296   2.886   1.331
 6249SOL    HW119646   0.376   2.849   1.284
 6249SOL    HW219647   0.320   2.971   1.377
 6250SOL     OW19648   6.794   6.491   0.865
 6250SOL    HW119649   6.711   6.525   0.909
 6250SOL    HW219650   6.824   6.407   0.910
 6251SOL     OW19651   3.601   5.790   4.518
 6251SOL    HW119652   3.652   5.786   4.432
 6251SOL    HW219653   3.562   5.700   4.538
 6252SOL     OW19654   2.982   5.163   0.265
 6252SOL    HW119655   3.066   5.215   0.284
 6252SOL    HW219656   2.999   5.101   0.188
 6253SOL     OW19657   2.394   5.167   5.070
 6253SOL    HW119658   2.485   5.129   5.087
 6253SOL    HW219659   2.353   5.121   4.991
 6254SOL     OW19660   0.416   6.514   1.590
 6254SOL    HW119661   0.365   6.464   1.660
 6254SOL    HW219662   0.397   6.612   1.598
 6255SOL     OW19663   2.018   2.434   0.561
 6255SOL    HW119664   2.029   2.336   0.578
 6255SOL    HW219665   2.020   2.452   0.463
 6256SOL     OW19666   4.152   4.908   2.342
 6256SOL    HW119667   4.056   4.900   2.313
 6256SOL    HW219668   4.159   4.976   2.415
 6257SOL     OW19669   4.188   3.240   0.305
 6257SOL    HW119670   4.123   3.191   0.364
 6257SOL    HW219671   4.142   3.319   0.264
 6258SOL     OW19672   3.114   0.158   5.281
 6258SOL    HW119673   3.180   0.118   5.345
 6258SOL    HW219674   3.162   0.202   5.206
 6259SOL     OW19675   2.064   0.963   6.238
 6259SOL    HW119676   2.015   0.955   6.325
 6259SOL    HW219677   2.066   0.874   6.193
 6260SOL     OW19678   1.836   0.603   0.887
 6260SOL    HW119679   1.864   0.507   0.895
 6260SOL    HW219680   1.791   0.617   0.799
 6261SOL     OW19681   4.523   6.692   1.142
 6261SOL    HW119682   4.521   6.594   1.159
 6261SOL    HW219683   4.438   6.720   1.098
 6262SOL     OW19684   0.939   5.937   2.320
 6262SOL    HW119685   0.856   5.988   2.297
 6262SOL    HW219686   0.914   5.848   2.358
 6263SOL     OW19687   0.187   6.250   5.108
 6263SOL    HW119688   0.174   6.320   5.179
 6263SOL    HW219689   0.198   6.161   5.152
 6264SOL     OW19690   1.366   0.036   1.524
 6264SOL    HW119691   1.415   0.109   1.476
 6264SOL    HW219692   1.432   6.998   1.571
 6265SOL     OW19693   3.873   2.709   0.850
 6265SOL    HW119694   3.801   2.670   0.908
 6265SOL    HW219695   3.901   2.798   0.886
 6266SOL     OW19696   4.181   6.911   3.472
 6266SOL    HW119697   4.145   6.966   3.397
 6266SOL    HW219698   4.267   6.951   3.504
 6267SOL     OW19699   1.370   6.775   5.094
 6267SOL    HW119700   1.437   6.773   5.168
 6267SOL    HW219701   1.281   6.747   5.129
 6268SOL     OW19702   3.015   0.886   2.032
 6268SOL    HW119703   2.980   0.809   2.084
 6268SOL    HW219704   3.106   0.864   1.995
 6269SOL     OW19705   5.612   6.676   1.317
 6269SOL    HW119706   5.580   6.771   1.319
 6269SOL    HW219707   5.710   6.673   1.336
 6270SOL     OW19708   0.716   6.566   0.360
 6270SOL    HW119709   0.773   6.491   0.394
 6270SOL    HW219710   0.717   6.564   0.260
 6271SOL     OW19711   5.818   2.971   6.572
 6271SOL    HW119712   5.831   2.972   6.473
 6271SOL    HW219713   5.771   3.054   6.601
 6272SOL     OW19714   0.716   0.624   0.499
 6272SOL    HW119715   0.761   0.625   0.588
 6272SOL    HW219716   0.785   0.614   0.427
 6273SOL     OW19717   0.394   5.688   3.313
 6273SOL    HW119718   0.340   5.723   3.237
 6273SOL    HW219719   0.333   5.661   3.388
 6274SOL     OW19720   2.759   7.000   4.842
 6274SOL    HW119721   2.733   7.015   4.747
 6274SOL    HW219722   2.823   6.922   4.847
 6275SOL     OW19723   2.158   6.001   0.800
 6275SOL    HW119724   2.102   5.934   0.848
 6275SOL    HW219725   2.206   5.956   0.724
 6276SOL     OW19726   3.829   5.734   3.872
 6276SOL    HW119727   3.738   5.777   3.870
 6276SOL    HW219728   3.876   5.760   3.956
 6277SOL     OW19729   5.043   2.115   0.749
 6277SOL    HW119730   5.138   2.114   0.780
 6277SOL    HW219731   5.020   2.027   0.709
 6278SOL     OW19732   3.702   0.809   5.938
 6278SOL    HW119733   3.624   0.872   5.926
 6278SOL    HW219734   3.783   0.848   5.895
 6279SOL     OW19735   4.171   5.995   0.605
 6279SOL    HW119736   4.164   5.896   0.602
 6279SOL    HW219737   4.249   6.025   0.550
 6280SOL     OW19738   0.361   1.009   6.663
 6280SOL    HW119739   0.451   1.041   6.692
 6280SOL    HW219740   0.292   1.078   6.686
 6281SOL     OW19741   6.227   4.855   3.661
 6281SOL    HW119742   6.323   4.836   3.680
 6281SOL    HW219743   6.219   4.908   3.576
 6282SOL     OW19744   6.115   3.234   5.269
 6282SOL    HW119745   6.015   3.239   5.272
 6282SOL    HW219746   6.145   3.204   5.178
 6283SOL     OW19747   0.932   4.415   4.419
 6283SOL    HW119748   0.977   4.335   4.458
 6283SOL    HW219749   0.990   4.455   4.348
 6284SOL     OW19750   1.166   5.506   6.813
 6284SOL    HW119751   1.190   5.489   6.717
 6284SOL    HW219752   1.233   5.568   6.853
 6285SOL     OW19753   1.494   3.203   3.564
 6285SOL    HW119754   1.473   3.122   3.619
 6285SOL    HW219755   1.558   3.178   3.491
 6286SOL     OW19756   6.448   3.455   4.069
 6286SOL    HW119757   6.511   3.394   4.118
 6286SOL    HW219758   6.382   3.399   4.017
 6287SOL     OW19759   4.190   5.054   5.185
 6287SOL    HW119760   4.224   5.066   5.092
 6287SOL    HW219761   4.256   5.002   5.239
 6288SOL     OW19762   4.621   4.827   1.337
 6288SOL    HW119763   4.570   4.909   1.367
 6288SOL    HW219764   4.665   4.845   1.250
 6289SOL     OW19765   2.824   4.679   6.615
 6289SOL    HW119766   2.732   4.640   6.615
 6289SOL    HW219767   2.882   4.627   6.552
 6290SOL     OW19768   5.996   5.234   6.198
 6290SOL    HW119769   5.958   5.325   6.177
 6290SOL    HW219770   6.094   5.234   6.179
 6291SOL     OW19771   4.053   3.209   3.382
 6291SOL    HW119772   4.005   3.214   3.294
 6291SOL    HW219773   4.104   3.294   3.397
 6292SOL     OW19774   2.014   2.356   4.664
 6292SOL    HW119775   2.087   2.425   4.664
 6292SOL    HW219776   2.043   2.276   4.611
 6293SOL     OW19777   4.560   1.490   0.300
 6293SOL    HW119778   4.480   1.453   0.252
 6293SOL    HW219779   4.531   1.565   0.359
 6294SOL     OW19780   4.376   0.357   3.222
 6294SOL    HW119781   4.436   0.436   3.206
 6294SOL    HW219782   4.303   0.384   3.285
 6295SOL     OW19783   5.371   4.820   4.978
 6295SOL    HW119784   5.368   4.860   5.070
 6295SOL    HW219785   5.376   4.720   4.985
 6296SOL     OW19786   0.308   4.295   5.933
 6296SOL    HW119787   0.226   4.280   5.988
 6296SOL    HW219788   0.295   4.376   5.876
 6297SOL     OW19789   6.469   0.255   5.539
 6297SOL    HW119790   6.557   0.302   5.543
 6297SOL    HW219791   6.396   0.321   5.559
 6298SOL     OW19792   6.693   4.739   6.103
 6298SOL    HW119793   6.748   4.678   6.046
 6298SOL    HW219794   6.702   4.712   6.199
 6299SOL     OW19795   5.660   2.684   2.144
 6299SOL    HW119796   5.613   2.597   2.155
 6299SOL    HW219797   5.758   2.671   2.161
 6300SOL     OW19798   4.557   0.767   6.852
 6300SOL    HW119799   4.656   0.772   6.845
 6300SOL    HW219800   4.524   0.688   6.800
 6301SOL     OW19801   3.095   7.014   6.265
 6301SOL    HW119802   3.194   6.999   6.270
 6301SOL    HW219803   3.073   0.040   6.180
 6302SOL     OW19804   2.426   1.633   5.437
 6302SOL    HW119805   2.393   1.625   5.343
 6302SOL    HW219806   2.414   1.728   5.468
 6303SOL     OW19807   0.454   6.338   6.041
 6303SOL    HW119808   0.374   6.353   6.099
 6303SOL    HW219809   0.429   6.352   5.945
 6304SOL     OW19810   3.669   1.512   3.463
 6304SOL    HW119811   3.654   1.607   3.490
 6304SOL    HW219812   3.638   1.499   3.369
 6305SOL     OW19813   5.945   5.918   0.150
 6305SOL    HW119814   5.996   5.877   0.075
 6305SOL    HW219815   5.962   6.017   0.152
 6306SOL     OW19816   0.249   3.457   4.191
 6306SOL    HW119817   0.293   3.377   4.232
 6306SOL    HW219818   0.318   3.526   4.170
 6307SOL     OW19819   3.406   2.930   4.065
 6307SOL    HW119820   3.474   2.899   4.131
 6307SOL    HW219821   3.432   2.901   3.973
 6308SOL     OW19822   0.848   2.222   5.784
 6308SOL    HW119823   0.843   2.303   5.726
 6308SOL    HW219824   0.786   2.151   5.749
 6309SOL     OW19825   0.317   0.357   4.078
 6309SOL    HW119826   0.309   0.410   3.993
 6309SOL    HW219827   0.412   0.331   4.092
 6310SOL     OW19828   2.332   6.217   3.127
 6310SOL    HW119829   2.325   6.149   3.053
 6310SOL    HW219830   2.410   6.276   3.110
 6311SOL     OW19831   4.790   1.114   6.890
 6311SOL    HW119832   4.757   1.146   6.979
 6311SOL    HW219833   4.884   1.147   6.876
 6312SOL     OW19834   1.631   6.889   6.530
 6312SOL    HW119835   1.552   6.939   6.497
 6312SOL    HW219836   1.714   6.925   6.486
 6313SOL     OW19837   5.617   6.647   3.015
 6313SOL    HW119838   5.527   6.611   3.040
 6313SOL    HW219839   5.648   6.603   2.930
 6314SOL     OW19840   3.747   0.214   1.705
 6314SOL    HW119841   3.824   0.156   1.680
 6314SOL    HW219842   3.701   0.175   1.785
 6315SOL     OW19843   2.140   2.144   4.559
 6315SOL    HW119844   2.229   2.172   4.594
 6315SOL    HW219845   2.117   2.053   4.594
 6316SOL     OW19846   4.885   1.467   6.059
 6316SOL    HW119847   4.891   1.529   6.138
 6316SOL    HW219848   4.820   1.393   6.080
 6317SOL     OW19849   5.135   3.915   2.939
 6317SOL    HW119850   5.065   3.850   2.967
 6317SOL    HW219851   5.114   3.950   2.847
 6318SOL     OW19852   4.490   0.166   0.053
 6318SOL    HW119853   4.394   0.139   0.050
 6318SOL    HW219854   4.503   0.252   0.003
 6319SOL     OW19855   6.088   2.295   4.284
 6319SOL    HW119856   6.095   2.390   4.312
 6319SOL    HW219857   6.008   2.283   4.225
 6320SOL     OW19858   0.132   0.145   3.800
 6320SOL    HW119859   0.172   0.236   3.810
 6320SOL    HW219860   0.097   0.114   3.888
 6321SOL     OW19861   5.114   3.754   6.999
 6321SOL    HW119862   5.123   3.835   0.037
 6321SOL    HW219863   5.204   3.728   6.963
 6322SOL     OW19864   2.862   1.460   0.532
 6322SOL    HW119865   2.803   1.456   0.452
 6322SOL    HW219866   2.857   1.373   0.582
 6323SOL     OW19867   1.845   2.374   1.128
 6323SOL    HW119868   1.938   2.338   1.123
 6323SOL    HW219869   1.841   2.463   1.082
 6324SOL     OW19870   3.991   1.544   0.859
 6324SOL    HW119871   4.048   1.463   0.875
 6324SOL    HW219872   3.990   1.565   0.762
 6325SOL     OW19873   2.251   2.669   3.147
 6325SOL    HW119874   2.349   2.658   3.134
 6325SOL    HW219875   2.234   2.722   3.230
 6326SOL     OW19876   5.225   5.718   5.914
 6326SOL    HW119877   5.324   5.728   5.922
 6326SOL    HW219878   5.201   5.621   5.922
 6327SOL     OW19879   0.007   1.247   3.911
 6327SOL    HW119880   7.001   1.248   4.007
 6327SOL    HW219881   0.090   1.303   3.900
 6328SOL     OW19882   4.682   3.564   6.941
 6328SOL    HW119883   4.588   3.584   6.916
 6328SOL    HW219884   4.690   3.558   0.020
 6329SOL     OW19885   0.701   2.809   5.118
 6329SOL    HW119886   0.664   2.868   5.046
 6329SOL    HW219887   0.793   2.779   5.093
 6330SOL     OW19888   5.336   0.160   2.255
 6330SOL    HW119889   5.334   0.245   2.202
 6330SOL    HW219890   5.249   0.149   2.304
 6331SOL     OW19891   6.511   3.025   4.627
 6331SOL    HW119892   6.562   3.069   4.702
 6331SOL    HW219893   6.421   2.998   4.660
 6332SOL     OW19894   1.358   2.714   1.662
 6332SOL    HW119895   1.443   2.741   1.617
 6332SOL    HW219896   1.359   2.615   1.679
 6333SOL     OW19897   4.774   6.812   6.582
 6333SOL    HW119898   4.821   6.750   6.645
 6333SOL    HW219899   4.765   6.768   6.492
 6334SOL     OW19900   2.588   1.364   2.369
 6334SOL    HW119901   2.618   1.460   2.370
 6334SOL    HW219902   2.488   1.360   2.370
 6335SOL     OW19903   4.833   1.201   0.610
 6335SOL    HW119904   4.848   1.150   0.695
 6335SOL    HW219905   4.838   1.299   0.629
 6336SOL     OW19906   0.045   4.041   6.548
 6336SOL    HW119907   0.112   4.001   6.611
 6336SOL    HW219908   6.974   4.024   6.582
 6337SOL     OW19909   4.009   6.131   4.835
 6337SOL    HW119910   3.945   6.173   4.771
 6337SOL    HW219911   4.091   6.103   4.785
 6338SOL     OW19912   3.233   1.547   4.304
 6338SOL    HW119913   3.319   1.581   4.269
 6338SOL    HW219914   3.179   1.623   4.342
 6339SOL     OW19915   1.357   3.868   3.168
 6339SOL    HW119916   1.322   3.954   3.204
 6339SOL    HW219917   1.288   3.796   3.179
 6340SOL     OW19918   2.257   3.510   1.090
 6340SOL    HW119919   2.179   3.557   1.130
 6340SOL    HW219920   2.252   3.412   1.113
 6341SOL     OW19921   0.930   3.478   3.621
 6341SOL    HW119922   0.977   3.405   3.571
 6341SOL    HW219923   0.833   3.456   3.627
 6342SOL     OW19924   3.410   1.297   0.482
 6342SOL    HW119925   3.380   1.243   0.403
 6342SOL    HW219926   3.506   1.275   0.502
 6343SOL     OW19927   3.792   6.606   6.683
 6343SOL    HW119928   3.807   6.616   6.781
 6343SOL    HW219929   3.816   6.514   6.655
 6344SOL     OW19930   5.882   2.277   4.112
 6344SOL    HW119931   5.821   2.215   4.161
 6344SOL    HW219932   5.832   2.360   4.088
 6345SOL     OW19933   4.865   2.960   1.757
 6345SOL    HW119934   4.799   2.978   1.831
 6345SOL    HW219935   4.846   3.022   1.680
 6346SOL     OW19936   6.665   4.463   4.904
 6346SOL    HW119937   6.602   4.513   4.845
 6346SOL    HW219938   6.618   4.438   4.989
 6347SOL     OW19939   2.528   1.925   1.846
 6347SOL    HW119940   2.614   1.879   1.868
 6347SOL    HW219941   2.461   1.909   1.919
 6348SOL     OW19942   0.916   2.233   6.042
 6348SOL    HW119943   1.014   2.240   6.061
 6348SOL    HW219944   0.902   2.217   5.945
 6349SOL     OW19945   1.364   0.430   0.282
 6349SOL    HW119946   1.429   0.486   0.231
 6349SOL    HW219947   1.395   0.423   0.377
 6350SOL     OW19948   0.843   5.244   2.605
 6350SOL    HW119949   0.845   5.306   2.684
 6350SOL    HW219950   0.752   5.245   2.564
 6351SOL     OW19951   6.613   4.382   3.825
 6351SOL    HW119952   6.671   4.463   3.818
 6351SOL    HW219953   6.522   4.402   3.788
 6352SOL     OW19954   2.729   0.279   3.967
 6352SOL    HW119955   2.634   0.296   3.942
 6352SOL    HW219956   2.748   0.324   4.055
 6353SOL     OW19957   2.443   5.433   0.352
 6353SOL    HW119958   2.507   5.445   0.276
 6353SOL    HW219959   2.473   5.356   0.409
 6354SOL     OW19960   3.523   5.897   2.800
 6354SOL    HW119961   3.617   5.931   2.793
 6354SOL    HW219962   3.502   5.879   2.896
 6355SOL     OW19963   2.855   5.868   0.453
 6355SOL    HW119964   2.931   5.862   0.389
 6355SOL    HW219965   2.775   5.907   0.406
 6356SOL     OW19966   5.615   5.372   0.288
 6356SOL    HW119967   5.600   5.288   0.236
 6356SOL    HW219968   5.699   5.364   0.342
 6357SOL     OW19969   5.757   2.469   1.914
 6357SOL    HW119970   5.664   2.463   1.950
 6357SOL    HW219971   5.757   2.516   1.826
 6358SOL     OW19972   0.790   2.116   0.052
 6358SOL    HW119973   0.757   2.203   0.016
 6358SOL    HW219974   0.720   2.046   0.039
 6359SOL     OW19975   6.207   6.340   0.777
 6359SOL    HW119976   6.172   6.434   0.772
 6359SOL    HW219977   6.305   6.342   0.800
 6360SOL     OW19978   0.447   3.666   4.112
 6360SOL    HW119979   0.539   3.702   4.097
 6360SOL    HW219980   0.397   3.664   4.025
 6361SOL     OW19981   0.555   0.756   0.834
 6361SOL    HW119982   0.650   0.777   0.858
 6361SOL    HW219983   0.552   0.712   0.744
 6362SOL     OW19984   1.560   6.292   0.086
 6362SOL    HW119985   1.500   6.271   0.009
 6362SOL    HW219986   1.606   6.208   0.117
 6363SOL     OW19987   2.923   4.786   4.012
 6363SOL    HW119988   2.882   4.702   3.977
 6363SOL    HW219989   2.911   4.791   4.111
 6364SOL     OW19990   2.234   2.418   5.223
 6364SOL    HW119991   2.319   2.393   5.177
 6364SOL    HW219992   2.221   2.517   5.219
 6365SOL     OW19993   5.507   6.084   4.817
 6365SOL    HW119994   5.433   6.128   4.767
 6365SOL    HW219995   5.503   6.109   4.913
 6366SOL     OW19996   6.920   6.737   4.851
 6366SOL    HW119997   6.859   6.722   4.773
 6366SOL    HW219998   6.976   6.818   4.834
 6367SOL     OW19999   3.312   2.159   2.797
 6367SOL    HW120000   3.249   2.174   2.720
 6367SOL    HW220001   3.263   2.174   2.883
 6368SOL     OW20002   4.237   4.671   4.274
 6368SOL    HW120003   4.233   4.661   4.373
 6368SOL    HW220004   4.182   4.750   4.246
 6369SOL     OW20005   2.169   0.061   4.367
 6369SOL    HW120006   2.178   0.002   4.447
 6369SOL    HW220007   2.215   0.018   4.289
 6370SOL     OW20008   5.352   4.248   3.542
 6370SOL    HW120009   5.313   4.159   3.521
 6370SOL    HW220010   5.441   4.236   3.586
 6371SOL     OW20011   5.422   3.891   1.680
 6371SOL    HW120012   5.501   3.952   1.674
 6371SOL    HW220013   5.453   3.797   1.683
 6372SOL     OW20014   0.573   1.312   1.816
 6372SOL    HW120015   0.579   1.286   1.720
 6372SOL    HW220016   0.531   1.237   1.868
 6373SOL     OW20017   6.100   3.930   2.172
 6373SOL    HW120018   6.054   3.971   2.093
 6373SOL    HW220019   6.069   3.836   2.184
 6374SOL     OW20020   4.319   2.806   0.342
 6374SOL    HW120021   4.368   2.882   0.298
 6374SOL    HW220022   4.383   2.732   0.363
 6375SOL     OW20023   1.033   2.551   1.841
 6375SOL    HW120024   0.948   2.602   1.828
 6375SOL    HW220025   1.065   2.518   1.752
 6376SOL     OW20026   3.677   1.806   5.522
 6376SOL    HW120027   3.621   1.747   5.464
 6376SOL    HW220028   3.672   1.900   5.489
 6377SOL     OW20029   6.653   1.333   5.610
 6377SOL    HW120030   6.752   1.327   5.621
 6377SOL    HW220031   6.632   1.383   5.526
 6378SOL     OW20032   4.991   5.672   3.082
 6378SOL    HW120033   4.933   5.597   3.116
 6378SOL    HW220034   4.938   5.757   3.082
 6379SOL     OW20035   0.806   4.595   5.339
 6379SOL    HW120036   0.902   4.567   5.337
 6379SOL    HW220037   0.788   4.649   5.422
 6380SOL     OW20038   6.945   3.202   4.248
 6380SOL    HW120039   6.922   3.228   4.341
 6380SOL    HW220040   0.003   3.140   4.249
 6381SOL     OW20041   4.424   3.082   0.214
 6381SOL    HW120042   4.346   3.134   0.249
 6381SOL    HW220043   4.404   3.048   0.123
 6382SOL     OW20044   3.331   1.684   1.161
 6382SOL    HW120045   3.321   1.662   1.258
 6382SOL    HW220046   3.315   1.782   1.148
 6383SOL     OW20047   1.673   2.337   2.275
 6383SOL    HW120048   1.673   2.251   2.326
 6383SOL    HW220049   1.650   2.412   2.336
 6384SOL     OW20050   5.515   3.068   1.983
 6384SOL    HW120051   5.543   3.144   2.041
 6384SOL    HW220052   5.544   3.086   1.889
 6385SOL     OW20053   6.909   3.705   1.814
 6385SOL    HW120054   6.996   3.704   1.765
 6385SOL    HW220055   6.833   3.702   1.749
 6386SOL     OW20056   2.069   3.678   0.256
 6386SOL    HW120057   2.163   3.651   0.237
 6386SOL    HW220058   2.043   3.648   0.348
 6387SOL     OW20059   6.020   1.488   0.137
 6387SOL    HW120060   6.080   1.549   0.189
 6387SOL    HW220061   6.058   1.474   0.046
 6388SOL     OW20062   5.972   4.654   2.157
 6388SOL    HW120063   6.050   4.705   2.194
 6388SOL    HW220064   5.964   4.567   2.205
 6389SOL     OW20065   1.347   6.802   1.435
 6389SOL    HW120066   1.271   6.777   1.376
 6389SOL    HW220067   1.360   6.901   1.433
 6390SOL     OW20068   6.423   0.508   5.829
 6390SOL    HW120069   6.519   0.479   5.829
 6390SOL    HW220070   6.405   0.564   5.748
 6391SOL     OW20071   1.385   1.154   6.299
 6391SOL    HW120072   1.474   1.198   6.307
 6391SOL    HW220073   1.394   1.057   6.321
 6392SOL     OW20074   3.056   6.459   3.625
 6392SOL    HW120075   3.000   6.431   3.547
 6392SOL    HW220076   3.120   6.386   3.648
 6393SOL     OW20077   5.641   6.030   1.319
 6393SOL    HW120078   5.568   6.079   1.367
 6393SOL    HW220079   5.721   6.090   1.311
 6394SOL     OW20080   1.530   4.415   1.348
 6394SOL    HW120081   1.581   4.419   1.433
 6394SOL    HW220082   1.499   4.508   1.324
 6395SOL     OW20083   0.069   3.163   2.330
 6395SOL    HW120084   0.028   3.073   2.317
 6395SOL    HW220085   0.147   3.156   2.391
 6396SOL     OW20086   6.126   3.638   5.642
 6396SOL    HW120087   6.154   3.543   5.637
 6396SOL    HW220088   6.162   3.688   5.563
 6397SOL     OW20089   6.165   1.109   2.181
 6397SOL    HW120090   6.264   1.094   2.181
 6397SOL    HW220091   6.135   1.136   2.089
 6398SOL     OW20092   1.136   6.597   1.478
 6398SOL    HW120093   1.174   6.512   1.516
 6398SOL    HW220094   1.150   6.672   1.542
 6399SOL     OW20095   1.610   7.004   6.924
 6399SOL    HW120096   1.639   6.918   6.881
 6399SOL    HW220097   1.570   6.984   7.014
 6400SOL     OW20098   1.951   5.062   2.888
 6400SOL    HW120099   2.051   5.061   2.900
 6400SOL    HW220100   1.907   5.086   2.974
 6401SOL     OW20101   5.297   4.998   3.398
 6401SOL    HW120102   5.233   5.001   3.475
 6401SOL    HW220103   5.322   4.903   3.379
 6402SOL     OW20104   2.062   3.326   3.654
 6402SOL    HW120105   1.965   3.345   3.662
 6402SOL    HW220106   2.103   3.316   3.744
 6403SOL     OW20107   5.649   6.415   5.681
 6403SOL    HW120108   5.707   6.334   5.689
 6403SOL    HW220109   5.566   6.392   5.629
 6404SOL     OW20110   4.010   1.369   2.603
 6404SOL    HW120111   3.955   1.354   2.685
 6404SOL    HW220112   4.106   1.374   2.629
 6405SOL     OW20113   4.672   1.389   3.768
 6405SOL    HW120114   4.575   1.393   3.743
 6405SOL    HW220115   4.683   1.326   3.845
 6406SOL     OW20116   1.386   3.056   2.415
 6406SOL    HW120117   1.378   3.082   2.318
 6406SOL    HW220118   1.452   3.116   2.460
 6407SOL     OW20119   2.052   6.621   3.268
 6407SOL    HW120120   2.134   6.642   3.322
 6407SOL    HW220121   2.043   6.521   3.258
 6408SOL     OW20122   6.054   0.900   0.899
 6408SOL    HW120123   6.081   0.991   0.866
 6408SOL    HW220124   6.066   0.833   0.827
 6409SOL     OW20125   0.247   4.888   3.141
 6409SOL    HW120126   0.269   4.814   3.204
 6409SOL    HW220127   0.155   4.922   3.161
 6410SOL     OW20128   2.039   0.900   6.954
 6410SOL    HW120129   2.131   0.928   6.924
 6410SOL    HW220130   1.977   0.902   6.875
 6411SOL     OW20131   1.049   3.177   2.301
 6411SOL    HW120132   1.059   3.174   2.400
 6411SOL    HW220133   1.132   3.213   2.260
 6412SOL     OW20134   2.567   0.659   6.958
 6412SOL    HW120135   2.578   0.600   0.017
 6412SOL    HW220136   2.470   0.671   6.938
 6413SOL     OW20137   4.082   4.819   4.695
 6413SOL    HW120138   4.132   4.906   4.700
 6413SOL    HW220139   4.072   4.781   4.787
 6414SOL     OW20140   6.318   6.379   6.592
 6414SOL    HW120141   6.382   6.309   6.622
 6414SOL    HW220142   6.225   6.345   6.599
 6415SOL     OW20143   1.464   3.181   4.129
 6415SOL    HW120144   1.410   3.175   4.045
 6415SOL    HW220145   1.495   3.275   4.141
 6416SOL     OW20146   2.928   6.915   6.423
 6416SOL    HW120147   2.929   6.949   6.517
 6416SOL    HW220148   2.985   6.974   6.366
 6417SOL     OW20149   5.156   2.475   0.549
 6417SOL    HW120150   5.203   2.394   0.514
 6417SOL    HW220151   5.145   2.468   0.648
 6418SOL     OW20152   5.056   4.024   2.672
 6418SOL    HW120153   5.049   4.016   2.573
 6418SOL    HW220154   4.974   3.987   2.715
 6419SOL     OW20155   0.242   5.347   5.094
 6419SOL    HW120156   0.227   5.438   5.057
 6419SOL    HW220157   0.210   5.278   5.029
 6420SOL     OW20158   1.806   1.741   3.718
 6420SOL    HW120159   1.811   1.675   3.792
 6420SOL    HW220160   1.717   1.735   3.673
 6421SOL     OW20161   5.075   0.646   0.993
 6421SOL    HW120162   4.999   0.686   0.941
 6421SOL    HW220163   5.078   0.547   0.976
 6422SOL     OW20164   6.601   1.500   5.371
 6422SOL    HW120165   6.561   1.588   5.398
 6422SOL    HW220166   6.554   1.464   5.291
 6423SOL     OW20167   4.682   5.093   4.950
 6423SOL    HW120168   4.736   5.090   4.866
 6423SOL    HW220169   4.654   5.187   4.968
 6424SOL     OW20170   1.368   3.841   4.621
 6424SOL    HW120171   1.455   3.875   4.586
 6424SOL    HW220172   1.384   3.760   4.678
 6425SOL     OW20173   0.069   5.653   2.725
 6425SOL    HW120174   0.146   5.650   2.661
 6425SOL    HW220175   0.096   5.613   2.812
 6426SOL     OW20176   5.484   5.135   3.869
 6426SOL    HW120177   5.571   5.084   3.871
 6426SOL    HW220178   5.409   5.072   3.850
 6427SOL     OW20179   2.902   3.686   3.182
 6427SOL    HW120180   2.918   3.737   3.097
 6427SOL    HW220181   2.987   3.644   3.212
 6428SOL     OW20182   5.616   3.309   0.164
 6428SOL    HW120183   5.609   3.275   0.257
 6428SOL    HW220184   5.588   3.405   0.161
 6429SOL     OW20185   1.178   0.510   5.392
 6429SOL    HW120186   1.117   0.584   5.364
 6429SOL    HW220187   1.270   0.528   5.357
 6430SOL     OW20188   6.473   0.727   4.632
 6430SOL    HW120189   6.452   0.817   4.594
 6430SOL    HW220190   6.419   0.713   4.715
 6431SOL     OW20191   4.381   5.079   2.848
 6431SOL    HW120192   4.474   5.048   2.826
 6431SOL    HW220193   4.377   5.104   2.945
 6432SOL     OW20194   3.652   4.306   6.414
 6432SOL    HW120195   3.727   4.372   6.407
 6432SOL    HW220196   3.568   4.347   6.381
 6433SOL     OW20197   3.440   5.218   0.012
 6433SOL    HW120198   3.433   5.123   7.001
 6433SOL    HW220199   3.398   5.278   6.965
 6434SOL     OW20200   2.573   6.542   5.922
 6434SOL    HW120201   2.545   6.491   5.840
 6434SOL    HW220202   2.627   6.621   5.895
 6435SOL     OW20203   6.437   7.006   0.882
 6435SOL    HW120204   6.477   0.076   0.873
 6435SOL    HW220205   6.434   6.980   0.979
 6436SOL     OW20206   0.921   3.461   3.332
 6436SOL    HW120207   0.980   3.398   3.383
 6436SOL    HW220208   0.937   3.450   3.234
 6437SOL     OW20209   1.385   2.266   5.884
 6437SOL    HW120210   1.355   2.349   5.932
 6437SOL    HW220211   1.305   2.220   5.845
 6438SOL     OW20212   1.384   4.871   6.412
 6438SOL    HW120213   1.298   4.918   6.431
 6438SOL    HW220214   1.372   4.772   6.426
 6439SOL     OW20215   6.016   0.808   3.226
 6439SOL    HW120216   6.030   0.856   3.139
 6439SOL    HW220217   6.042   0.868   3.301
 6440SOL     OW20218   2.950   0.919   6.252
 6440SOL    HW120219   3.020   0.852   6.276
 6440SOL    HW220220   2.940   0.985   6.327
 6441SOL     OW20221   0.166   1.382   1.965
 6441SOL    HW120222   0.209   1.433   2.039
 6441SOL    HW220223   0.097   1.320   2.003
 6442SOL     OW20224   2.405   2.068   4.713
 6442SOL    HW120225   2.429   1.992   4.773
 6442SOL    HW220226   2.395   2.151   4.768
 6443SOL     OW20227   3.430   2.364   6.015
 6443SOL    HW120228   3.445   2.355   6.113
 6443SOL    HW220229   3.378   2.285   5.982
 6444SOL     OW20230   6.550   2.741   4.853
 6444SOL    HW120231   6.560   2.837   4.828
 6444SOL    HW220232   6.540   2.685   4.771
 6445SOL     OW20233   4.114   3.501   3.150
 6445SOL    HW120234   4.205   3.462   3.135
 6445SOL    HW220235   4.110   3.545   3.239
 6446SOL     OW20236   0.892   2.008   0.296
 6446SOL    HW120237   0.837   2.016   0.213
 6446SOL    HW220238   0.973   1.953   0.278
 6447SOL     OW20239   6.274   4.288   1.937
 6447SOL    HW120240   6.180   4.261   1.919
 6447SOL    HW220241   6.300   4.363   1.876
 6448SOL     OW20242   4.957   4.931   1.239
 6448SOL    HW120243   4.930   5.027   1.249
 6448SOL    HW220244   4.893   4.873   1.290
 6449SOL     OW20245   2.692   4.953   2.137
 6449SOL    HW120246   2.725   4.874   2.188
 6449SOL    HW220247   2.756   5.029   2.147
 6450SOL     OW20248   1.301   3.886   0.092
 6450SOL    HW120249   1.318   3.796   0.052
 6450SOL    HW220250   1.203   3.906   0.090
 6451SOL     OW20251   2.908   1.981   5.906
 6451SOL    HW120252   2.959   1.924   5.841
 6451SOL    HW220253   2.938   1.962   5.999
 6452SOL     OW20254   4.948   3.481   2.433
 6452SOL    HW120255   4.926   3.569   2.475
 6452SOL    HW220256   4.984   3.419   2.503
 6453SOL     OW20257   2.828   6.970   1.564
 6453SOL    HW120258   2.755   0.017   1.557
 6453SOL    HW220259   2.790   6.878   1.552
 6454SOL     OW20260   0.308   1.787   1.943
 6454SOL    HW120261   0.323   1.707   1.884
 6454SOL    HW220262   0.308   1.870   1.886
 6455SOL     OW20263   6.904   3.845   3.636
 6455SOL    HW120264   6.938   3.892   3.555
 6455SOL    HW220265   6.812   3.810   3.618
 6456SOL     OW20266   1.261   0.953   2.812
 6456SOL    HW120267   1.214   0.956   2.900
 6456SOL    HW220268   1.359   0.971   2.826
 6457SOL     OW20269   4.921   6.498   1.795
 6457SOL    HW120270   4.925   6.435   1.718
 6457SOL    HW220271   4.846   6.562   1.781
 6458SOL     OW20272   1.630   5.284   5.119
 6458SOL    HW120273   1.669   5.356   5.176
 6458SOL    HW220274   1.567   5.325   5.053
 6459SOL     OW20275   5.734   2.430   2.722
 6459SOL    HW120276   5.683   2.411   2.806
 6459SOL    HW220277   5.830   2.404   2.735
 6460SOL     OW20278   5.605   6.122   5.909
 6460SOL    HW120279   5.538   6.081   5.971
 6460SOL    HW220280   5.636   6.053   5.844
 6461SOL     OW20281   3.103   5.015   0.051
 6461SOL    HW120282   3.074   4.957   6.996
 6461SOL    HW220283   3.184   4.975   0.093
 6462SOL     OW20284   0.528   2.984   4.493
 6462SOL    HW120285   0.442   2.981   4.544
 6462SOL    HW220286   0.595   3.038   4.544
 6463SOL     OW20287   5.269   6.760   0.704
 6463SOL    HW120288   5.240   6.744   0.609
 6463SOL    HW220289   5.337   6.832   0.706
 6464SOL     OW20290   1.503   5.938   5.261
 6464SOL    HW120291   1.525   6.025   5.305
 6464SOL    HW220292   1.425   5.951   5.199
 6465SOL     OW20293   6.656   2.459   2.546
 6465SOL    HW120294   6.588   2.415   2.605
 6465SOL    HW220295   6.740   2.406   2.548
 6466SOL     OW20296   6.966   1.819   6.654
 6466SOL    HW120297   0.018   1.851   6.715
 6466SOL    HW220298   6.884   1.875   6.669
 6467SOL     OW20299   4.491   0.610   0.869
 6467SOL    HW120300   4.483   0.618   0.770
 6467SOL    HW220301   4.522   0.518   0.893
 6468SOL     OW20302   3.535   6.413   1.666
 6468SOL    HW120303   3.604   6.465   1.717
 6468SOL    HW220304   3.521   6.456   1.576
 6469SOL     OW20305   3.424   1.862   4.027
 6469SOL    HW120306   3.410   1.917   4.109
 6469SOL    HW220307   3.340   1.813   4.005
 6470SOL     OW20308   6.142   2.516   6.929
 6470SOL    HW120309   6.066   2.575   6.957
 6470SOL    HW220310   6.150   2.439   6.992
 6471SOL     OW20311   0.831   6.370   5.268
 6471SOL    HW120312   0.905   6.346   5.330
 6471SOL    HW220313   0.853   6.456   5.221
 6472SOL     OW20314   6.035   5.898   2.953
 6472SOL    HW120315   6.033   5.819   3.014
 6472SOL    HW220316   6.121   5.898   2.902
 6473SOL     OW20317   1.883   2.047   5.242
 6473SOL    HW120318   1.980   2.050   5.263
 6473SOL    HW220319   1.853   1.952   5.234
 6474SOL     OW20320   3.604   5.562   5.507
 6474SOL    HW120321   3.638   5.554   5.600
 6474SOL    HW220322   3.646   5.641   5.463
 6475SOL     OW20323   5.925   5.188   3.749
 6475SOL    HW120324   5.948   5.178   3.653
 6475SOL    HW220325   5.883   5.278   3.765
 6476SOL     OW20326   4.669   3.059   6.317
 6476SOL    HW120327   4.690   3.097   6.407
 6476SOL    HW220328   4.589   3.106   6.279
 6477SOL     OW20329   6.361   5.066   0.665
 6477SOL    HW120330   6.370   5.065   0.764
 6477SOL    HW220331   6.291   5.131   0.638
 6478SOL     OW20332   3.193   6.657   2.253
 6478SOL    HW120333   3.208   6.745   2.208
 6478SOL    HW220334   3.094   6.642   2.263
 6479SOL     OW20335   3.042   5.039   4.005
 6479SOL    HW120336   3.141   5.043   4.020
 6479SOL    HW220337   3.008   4.948   4.029
 6480SOL     OW20338   2.337   1.478   0.002
 6480SOL    HW120339   2.351   1.381   0.025
 6480SOL    HW220340   2.378   1.497   6.934
 6481SOL     OW20341   3.320   2.569   1.761
 6481SOL    HW120342   3.397   2.505   1.752
 6481SOL    HW220343   3.320   2.608   1.853
 6482SOL     OW20344   6.526   2.181   6.082
 6482SOL    HW120345   6.481   2.102   6.040
 6482SOL    HW220346   6.529   2.256   6.016
 6483SOL     OW20347   0.776   6.534   3.955
 6483SOL    HW120348   0.727   6.619   3.972
 6483SOL    HW220349   0.782   6.482   4.040
 6484SOL     OW20350   2.713   1.866   2.976
 6484SOL    HW120351   2.811   1.851   2.978
 6484SOL    HW220352   2.687   1.928   3.050
 6485SOL     OW20353   1.716   5.821   4.236
 6485SOL    HW120354   1.721   5.918   4.211
 6485SOL    HW220355   1.752   5.765   4.161
 6486SOL     OW20356   0.868   5.417   2.826
 6486SOL    HW120357   0.900   5.512   2.838
 6486SOL    HW220358   0.802   5.396   2.898
 6487SOL     OW20359   0.703   6.614   4.857
 6487SOL    HW120360   0.619   6.561   4.867
 6487SOL    HW220361   0.739   6.602   4.764
 6488SOL     OW20362   4.195   5.861   5.007
 6488SOL    HW120363   4.277   5.918   5.021
 6488SOL    HW220364   4.166   5.868   4.912
 6489SOL     OW20365   3.108   3.464   6.480
 6489SOL    HW120366   3.023   3.511   6.457
 6489SOL    HW220367   3.135   3.404   6.405
 6490SOL     OW20368   2.977   1.576   6.457
 6490SOL    HW120369   3.066   1.616   6.480
 6490SOL    HW220370   2.962   1.583   6.359
 6491SOL     OW20371   2.938   0.895   1.725
 6491SOL    HW120372   2.886   0.978   1.745
 6491SOL    HW220373   3.018   0.890   1.785
 6492SOL     OW20374   3.939   3.378   5.332
 6492SOL    HW120375   3.971   3.447   5.268
 6492SOL    HW220376   3.861   3.414   5.384
 6493SOL     OW20377   1.432   4.580   6.460
 6493SOL    HW120378   1.459   4.489   6.427
 6493SOL    HW220379   1.459   4.590   6.556
 6494SOL     OW20380   6.985   6.488   2.654
 6494SOL    HW120381   6.954   6.394   2.669
 6494SOL    HW220382   0.001   6.524   2.740
 6495SOL     OW20383   6.674   0.633   4.155
 6495SOL    HW120384   6.653   0.643   4.252
 6495SOL    HW220385   6.744   0.563   4.143
 6496SOL     OW20386   5.624   6.679   1.687
 6496SOL    HW120387   5.635   6.605   1.620
 6496SOL    HW220388   5.530   6.679   1.721
 6497SOL     OW20389   1.007   0.331   1.151
 6497SOL    HW120390   0.959   0.250   1.185
 6497SOL    HW220391   1.072   0.303   1.080
 6498SOL     OW20392   0.761   3.882   4.184
 6498SOL    HW120393   0.755   3.982   4.175
 6498SOL    HW220394   0.704   3.840   4.113
 6499SOL     OW20395   5.451   3.717   4.495
 6499SOL    HW120396   5.401   3.673   4.569
 6499SOL    HW220397   5.403   3.701   4.409
 6500SOL     OW20398   0.182   4.182   2.303
 6500SOL    HW120399   0.230   4.239   2.235
 6500SOL    HW220400   0.243   4.109   2.334
 6501SOL     OW20401   0.234   1.323   1.358
 6501SOL    HW120402   0.165   1.313   1.429
 6501SOL    HW220403   0.213   1.262   1.282
 6502SOL     OW20404   6.768   3.344   1.522
 6502SOL    HW120405   6.832   3.282   1.475
 6502SOL    HW220406   6.801   3.438   1.515
 6503SOL     OW20407   5.461   1.031   3.664
 6503SOL    HW120408   5.526   1.059   3.734
 6503SOL    HW220409   5.508   0.975   3.596
 6504SOL     OW20410   4.250   6.158   0.191
 6504SOL    HW120411   4.211   6.140   0.101
 6504SOL    HW220412   4.225   6.250   0.220
 6505SOL     OW20413   4.322   6.687   6.061
 6505SOL    HW120414   4.294   6.704   6.156
 6505SOL    HW220415   4.405   6.740   6.042
 6506SOL     OW20416   7.013   3.231   3.417
 6506SOL    HW120417   0.065   3.238   3.349
 6506SOL    HW220418   7.014   3.140   3.457
 6507SOL     OW20419   2.845   5.602   6.180
 6507SOL    HW120420   2.823   5.693   6.144
 6507SOL    HW220421   2.764   5.563   6.225
 6508SOL     OW20422   1.544   0.462   2.686
 6508SOL    HW120423   1.480   0.397   2.644
 6508SOL    HW220424   1.608   0.494   2.617
 6509SOL     OW20425   4.855   1.687   4.959
 6509SOL    HW120426   4.952   1.691   4.984
 6509SOL    HW220427   4.802   1.742   5.023
 6510SOL     OW20428   4.983   5.132   0.028
 6510SOL    HW120429   5.004   5.069   0.103
 6510SOL    HW220430   5.069   5.164   7.009
 6511SOL     OW20431   4.260   1.245   5.132
 6511SOL    HW120432   4.347   1.230   5.179
 6511SOL    HW220433   4.224   1.335   5.156
 6512SOL     OW20434   3.361   6.721   2.544
 6512SOL    HW120435   3.264   6.742   2.551
 6512SOL    HW220436   3.372   6.629   2.508
 6513SOL     OW20437   2.081   6.048   4.108
 6513SOL    HW120438   2.024   5.997   4.044
 6513SOL    HW220439   2.096   6.140   4.074
 6514SOL     OW20440   5.854   0.501   4.714
 6514SOL    HW120441   5.905   0.464   4.636
 6514SOL    HW220442   5.825   0.427   4.773
 6515SOL     OW20443   1.238   3.468   2.402
 6515SOL    HW120444   1.296   3.549   2.393
 6515SOL    HW220445   1.143   3.497   2.415
 6516SOL     OW20446   6.576   3.421   1.327
 6516SOL    HW120447   6.634   3.380   1.397
 6516SOL    HW220448   6.481   3.425   1.359
 6517SOL     OW20449   0.229   1.992   0.994
 6517SOL    HW120450   0.142   2.022   0.956
 6517SOL    HW220451   0.213   1.917   1.059
 6518SOL     OW20452   0.078   0.290   2.142
 6518SOL    HW120453   0.165   0.339   2.152
 6518SOL    HW220454   0.029   0.290   2.230
 6519SOL     OW20455   0.462   1.557   2.991
 6519SOL    HW120456   0.417   1.530   3.077
 6519SOL    HW220457   0.559   1.536   2.996
 6520SOL     OW20458   6.802   5.286   6.847
 6520SOL    HW120459   6.719   5.264   6.898
 6520SOL    HW220460   6.786   5.274   6.749
 6521SOL     OW20461   2.073   2.717   3.836
 6521SOL    HW120462   2.064   2.733   3.934
 6521SOL    HW220463   2.086   2.620   3.819
 6522SOL     OW20464   2.546   4.555   5.575
 6522SOL    HW120465   2.571   4.485   5.509
 6522SOL    HW220466   2.447   4.571   5.571
 6523SOL     OW20467   3.744   0.332   6.917
 6523SOL    HW120468   3.698   0.255   6.874
 6523SOL    HW220469   3.837   0.340   6.880
 6524SOL     OW20470   2.819   2.760   1.553
 6524SOL    HW120471   2.740   2.807   1.515
 6524SOL    HW220472   2.884   2.828   1.587
 6525SOL     OW20473   1.978   5.058   3.326
 6525SOL    HW120474   1.997   5.148   3.365
 6525SOL    HW220475   2.046   5.038   3.255
 6526SOL     OW20476   0.878   0.527   1.280
 6526SOL    HW120477   0.935   0.604   1.252
 6526SOL    HW220478   0.925   0.441   1.259
 6527SOL     OW20479   6.808   1.978   0.447
 6527SOL    HW120480   6.897   1.933   0.437
 6527SOL    HW220481   6.809   2.035   0.530
 6528SOL     OW20482   6.542   1.764   5.490
 6528SOL    HW120483   6.487   1.786   5.571
 6528SOL    HW220484   6.512   1.819   5.413
 6529SOL     OW20485   1.177   0.731   2.224
 6529SOL    HW120486   1.244   0.785   2.274
 6529SOL    HW220487   1.209   0.714   2.131
 6530SOL     OW20488   0.358   1.756   0.860
 6530SOL    HW120489   0.307   1.835   0.893
 6530SOL    HW220490   0.449   1.755   0.901
 6531SOL     OW20491   4.717   3.639   5.433
 6531SOL    HW120492   4.748   3.566   5.494
 6531SOL    HW220493   4.739   3.615   5.339
 6532SOL     OW20494   1.676   1.298   1.204
 6532SOL    HW120495   1.772   1.316   1.185
 6532SOL    HW220496   1.622   1.378   1.182
 6533SOL     OW20497   4.349   6.080   0.427
 6533SOL    HW120498   4.317   6.117   0.340
 6533SOL    HW220499   4.429   6.131   0.458
 6534SOL     OW20500   4.825   5.036   2.064
 6534SOL    HW120501   4.787   5.014   2.154
 6534SOL    HW220502   4.753   5.030   1.995
 6535SOL     OW20503   5.971   4.331   4.568
 6535SOL    HW120504   6.050   4.362   4.621
 6535SOL    HW220505   5.935   4.407   4.514
 6536SOL     OW20506   0.411   1.590   5.032
 6536SOL    HW120507   0.493   1.610   4.977
 6536SOL    HW220508   0.438   1.577   5.127
 6537SOL     OW20509   6.647   4.921   5.177
 6537SOL    HW120510   6.711   4.902   5.252
 6537SOL    HW220511   6.670   4.864   5.098
 6538SOL     OW20512   1.015   3.586   5.795
 6538SOL    HW120513   0.928   3.619   5.832
 6538SOL    HW220514   1.076   3.563   5.870
 6539SOL     OW20515   4.263   0.516   0.212
 6539SOL    HW120516   4.220   0.602   0.182
 6539SOL    HW220517   4.350   0.536   0.257
 6540SOL     OW20518   3.393   2.840   5.916
 6540SOL    HW120519   3.403   2.761   5.856
 6540SOL    HW220520   3.359   2.918   5.863
 6541SOL     OW20521   5.511   2.385   5.668
 6541SOL    HW120522   5.437   2.351   5.610
 6541SOL    HW220523   5.473   2.442   5.741
 6542SOL     OW20524   1.261   3.026   4.518
 6542SOL    HW120525   1.212   2.980   4.592
 6542SOL    HW220526   1.229   2.991   4.430
 6543SOL     OW20527   3.780   2.780   5.700
 6543SOL    HW120528   3.868   2.734   5.704
 6543SOL    HW220529   3.739   2.767   5.610
 6544SOL     OW20530   1.311   6.192   2.855
 6544SOL    HW120531   1.397   6.166   2.898
 6544SOL    HW220532   1.326   6.270   2.795
 6545SOL     OW20533   4.017   0.201   0.333
 6545SOL    HW120534   3.937   0.234   0.284
 6545SOL    HW220535   4.100   0.238   0.290
 6546SOL     OW20536   3.996   4.006   6.128
 6546SOL    HW120537   3.899   3.986   6.116
 6546SOL    HW220538   4.048   3.955   6.059
 6547SOL     OW20539   4.784   0.807   6.292
 6547SOL    HW120540   4.726   0.853   6.359
 6547SOL    HW220541   4.873   0.852   6.287
 6548SOL     OW20542   1.719   3.022   0.226
 6548SOL    HW120543   1.641   3.081   0.206
 6548SOL    HW220544   1.696   2.927   0.206
 6549SOL     OW20545   4.309   0.181   2.197
 6549SOL    HW120546   4.240   0.109   2.200
 6549SOL    HW220547   4.351   0.183   2.107
 6550SOL     OW20548   0.385   6.813   3.795
 6550SOL    HW120549   0.395   6.866   3.880
 6550SOL    HW220550   0.289   6.791   3.781
 6551SOL     OW20551   2.297   3.655   1.654
 6551SOL    HW120552   2.266   3.737   1.703
 6551SOL    HW220553   2.331   3.588   1.720
 6552SOL     OW20554   2.415   6.901   0.891
 6552SOL    HW120555   2.439   6.854   0.976
 6552SOL    HW220556   2.319   6.930   0.896
 6553SOL     OW20557   1.099   2.230   2.994
 6553SOL    HW120558   1.095   2.329   2.981
 6553SOL    HW220559   1.006   2.193   2.994
 6554SOL     OW20560   2.508   0.743   4.481
 6554SOL    HW120561   2.586   0.737   4.543
 6554SOL    HW220562   2.472   0.837   4.482
 6555SOL     OW20563   5.702   2.107   3.753
 6555SOL    HW120564   5.619   2.112   3.697
 6555SOL    HW220565   5.680   2.063   3.841
 6556SOL     OW20566   6.179   3.146   3.067
 6556SOL    HW120567   6.232   3.226   3.041
 6556SOL    HW220568   6.181   3.079   2.992
 6557SOL     OW20569   2.600   0.554   3.385
 6557SOL    HW120570   2.661   0.627   3.413
 6557SOL    HW220571   2.509   0.591   3.367
 6558SOL     OW20572   6.002   5.683   0.629
 6558SOL    HW120573   5.966   5.726   0.547
 6558SOL    HW220574   5.996   5.748   0.706
 6559SOL     OW20575   6.964   3.667   6.242
 6559SOL    HW120576   7.020   3.728   6.298
 6559SOL    HW220577   6.924   3.718   6.166
 6560SOL     OW20578   3.927   4.887   1.094
 6560SOL    HW120579   3.945   4.907   0.998
 6560SOL    HW220580   3.944   4.968   1.149
 6561SOL     OW20581   3.473   4.568   1.153
 6561SOL    HW120582   3.405   4.533   1.217
 6561SOL    HW220583   3.430   4.584   1.064
 6562SOL     OW20584   5.585   1.871   0.800
 6562SOL    HW120585   5.527   1.952   0.795
 6562SOL    HW220586   5.532   1.794   0.835
 6563SOL     OW20587   4.872   6.647   6.101
 6563SOL    HW120588   4.833   6.721   6.046
 6563SOL    HW220589   4.962   6.673   6.134
 6564SOL     OW20590   6.381   3.457   1.639
 6564SOL    HW120591   6.353   3.462   1.543
 6564SOL    HW220592   6.357   3.542   1.685
 6565SOL     OW20593   6.270   6.568   2.653
 6565SOL    HW120594   6.367   6.571   2.676
 6565SOL    HW220595   6.229   6.658   2.670
 6566SOL     OW20596   3.363   6.136   2.511
 6566SOL    HW120597   3.333   6.058   2.566
 6566SOL    HW220598   3.406   6.204   2.570
 6567SOL     OW20599   5.077   1.237   1.966
 6567SOL    HW120600   5.003   1.300   1.944
 6567SOL    HW220601   5.039   1.149   1.994
 6568SOL     OW20602   3.635   1.775   3.034
 6568SOL    HW120603   3.661   1.686   2.998
 6568SOL    HW220604   3.588   1.827   2.963
 6569SOL     OW20605   2.328   2.502   6.592
 6569SOL    HW120606   2.332   2.593   6.632
 6569SOL    HW220607   2.421   2.471   6.571
 6570SOL     OW20608   3.097   1.053   2.919
 6570SOL    HW120609   3.176   1.114   2.924
 6570SOL    HW220610   3.038   1.068   2.998
 6571SOL     OW20611   2.789   4.981   2.611
 6571SOL    HW120612   2.819   4.899   2.659
 6571SOL    HW220613   2.801   4.970   2.513
 6572SOL     OW20614   6.833   4.545   3.810
 6572SOL    HW120615   6.894   4.489   3.754
 6572SOL    HW220616   6.836   4.513   3.904
 6573SOL     OW20617   0.816   1.371   3.420
 6573SOL    HW120618   0.820   1.470   3.413
 6573SOL    HW220619   0.827   1.343   3.516
 6574SOL     OW20620   2.541   5.511   3.065
 6574SOL    HW120621   2.569   5.498   2.970
 6574SOL    HW220622   2.589   5.445   3.123
 6575SOL     OW20623   0.344   6.438   3.120
 6575SOL    HW120624   0.310   6.434   3.026
 6575SOL    HW220625   0.297   6.370   3.175
 6576SOL     OW20626   3.266   6.173   0.988
 6576SOL    HW120627   3.233   6.265   0.966
 6576SOL    HW220628   3.203   6.105   0.952
 6577SOL     OW20629   1.362   1.918   3.478
 6577SOL    HW120630   1.407   1.978   3.543
 6577SOL    HW220631   1.316   1.973   3.408
 6578SOL     OW20632   1.266   6.127   1.955
 6578SOL    HW120633   1.208   6.208   1.939
 6578SOL    HW220634   1.318   6.140   2.040
 6579SOL     OW20635   6.815   2.726   3.890
 6579SOL    HW120636   6.723   2.721   3.851
 6579SOL    HW220637   6.810   2.707   3.989
 6580SOL     OW20638   0.540   1.973   0.022
 6580SOL    HW120639   0.481   2.043   0.063
 6580SOL    HW220640   0.523   1.968   6.945
 6581SOL     OW20641   2.042   1.027   0.879
 6581SOL    HW120642   2.137   1.060   0.884
 6581SOL    HW220643   2.033   0.963   0.803
 6582SOL     OW20644   7.018   0.702   2.859
 6582SOL    HW120645   0.056   0.725   2.937
 6582SOL    HW220646   0.022   0.759   2.781
 6583SOL     OW20647   4.616   6.150   5.423
 6583SOL    HW120648   4.655   6.138   5.331
 6583SOL    HW220649   4.690   6.147   5.490
 6584SOL     OW20650   3.864   1.961   0.525
 6584SOL    HW120651   3.953   1.949   0.570
 6584SOL    HW220652   3.845   1.882   0.468
 6585SOL     OW20653   6.306   5.952   0.086
 6585SOL    HW120654   6.293   5.965   0.184
 6585SOL    HW220655   6.226   5.907   0.047
 6586SOL     OW20656   6.706   1.633   5.826
 6586SOL    HW120657   6.618   1.597   5.795
 6586SOL    HW220658   6.694   1.728   5.856
 6587SOL     OW20659   1.461   4.887   6.685
 6587SOL    HW120660   1.512   4.972   6.700
 6587SOL    HW220661   1.440   4.877   6.588
 6588SOL     OW20662   0.477   3.088   2.058
 6588SOL    HW120663   0.461   3.002   2.010
 6588SOL    HW220664   0.396   3.145   2.053
 6589SOL     OW20665   4.466   0.905   2.033
 6589SOL    HW120666   4.409   0.830   2.065
 6589SOL    HW220667   4.560   0.890   2.060
 6590SOL     OW20668   0.710   0.458   6.168
 6590SOL    HW120669   0.802   0.449   6.129
 6590SOL    HW220670   0.716   0.449   6.268
 6591SOL     OW20671   5.309   6.053   3.928
 6591SOL    HW120672   5.273   6.070   4.020
 6591SOL    HW220673   5.363   5.969   3.929
 6592SOL     OW20674   5.157   6.133   2.997
 6592SOL    HW120675   5.225   6.205   3.014
 6592SOL    HW220676   5.080   6.145   3.059
 6593SOL     OW20677   2.761   2.321   2.392
 6593SOL    HW120678   2.775   2.226   2.420
 6593SOL    HW220679   2.824   2.344   2.318
 6594SOL     OW20680   3.489   1.382   5.542
 6594SOL    HW120681   3.442   1.429   5.617
 6594SOL    HW220682   3.428   1.378   5.462
 6595SOL     OW20683   1.353   3.817   6.442
 6595SOL    HW120684   1.443   3.860   6.448
 6595SOL    HW220685   1.296   3.849   6.517
 6596SOL     OW20686   3.592   6.845   3.847
 6596SOL    HW120687   3.496   6.860   3.824
 6596SOL    HW220688   3.627   6.766   3.796
 6597SOL     OW20689   2.136   5.343   1.946
 6597SOL    HW120690   2.119   5.293   1.861
 6597SOL    HW220691   2.199   5.290   2.004
 6598SOL     OW20692   1.922   4.894   3.566
 6598SOL    HW120693   1.888   4.967   3.625
 6598SOL    HW220694   1.926   4.926   3.471
 6599SOL     OW20695   4.517   5.895   6.576
 6599SOL    HW120696   4.582   5.923   6.646
 6599SOL    HW220697   4.553   5.816   6.526
 6600SOL     OW20698   3.773   6.486   4.348
 6600SOL    HW120699   3.774   6.581   4.379
 6600SOL    HW220700   3.678   6.457   4.335
 6601SOL     OW20701   0.927   1.851   3.801
 6601SOL    HW120702   0.933   1.792   3.881
 6601SOL    HW220703   0.871   1.806   3.731
 6602SOL     OW20704   1.742   0.435   1.301
 6602SOL    HW120705   1.657   0.434   1.354
 6602SOL    HW220706   1.735   0.504   1.229
 6603SOL     OW20707   0.924   3.185   3.724
 6603SOL    HW120708   0.975   3.191   3.638
 6603SOL    HW220709   0.862   3.263   3.731
 6604SOL     OW20710   2.055   6.820   1.732
 6604SOL    HW120711   2.047   6.843   1.635
 6604SOL    HW220712   1.976   6.856   1.781
 6605SOL     OW20713   5.715   5.537   2.475
 6605SOL    HW120714   5.668   5.460   2.519
 6605SOL    HW220715   5.650   5.609   2.455
 6606SOL     OW20716   6.568   4.984   2.493
 6606SOL    HW120717   6.541   4.943   2.406
 6606SOL    HW220718   6.600   5.077   2.478
 6607SOL     OW20719   0.608   4.983   3.505
 6607SOL    HW120720   0.581   5.071   3.466
 6607SOL    HW220721   0.596   4.911   3.437
 6608SOL     OW20722   6.882   6.257   6.909
 6608SOL    HW120723   6.971   6.302   6.897
 6608SOL    HW220724   6.866   6.192   6.835
 6609SOL     OW20725   5.449   1.172   6.849
 6609SOL    HW120726   5.436   1.244   6.917
 6609SOL    HW220727   5.532   1.190   6.797
 6610SOL     OW20728   2.461   6.647   0.374
 6610SOL    HW120729   2.556   6.677   0.376
 6610SOL    HW220730   2.418   6.681   0.290
 6611SOL     OW20731   4.810   2.770   3.350
 6611SOL    HW120732   4.747   2.815   3.414
 6611SOL    HW220733   4.821   2.828   3.269
 6612SOL     OW20734   0.190   2.371   6.274
 6612SOL    HW120735   0.176   2.273   6.281
 6612SOL    HW220736   0.104   2.419   6.290
 6613SOL     OW20737   6.208   6.567   5.702
 6613SOL    HW120738   6.187   6.569   5.604
 6613SOL    HW220739   6.230   6.473   5.729
 6614SOL     OW20740   4.483   6.328   6.958
 6614SOL    HW120741   4.502   6.231   6.978
 6614SOL    HW220742   4.568   6.374   6.935
 6615SOL     OW20743   1.145   5.546   1.617
 6615SOL    HW120744   1.152   5.634   1.663
 6615SOL    HW220745   1.127   5.474   1.684
 6616SOL     OW20746   4.638   0.326   6.196
 6616SOL    HW120747   4.702   0.369   6.260
 6616SOL    HW220748   4.545   0.334   6.231
 6617SOL     OW20749   4.170   6.118   3.562
 6617SOL    HW120750   4.174   6.218   3.569
 6617SOL    HW220751   4.262   6.080   3.573
 6618SOL     OW20752   1.417   1.655   2.625
 6618SOL    HW120753   1.338   1.715   2.626
 6618SOL    HW220754   1.472   1.671   2.707
 6619SOL     OW20755   4.936   0.427   4.090
 6619SOL    HW120756   4.985   0.503   4.047
 6619SOL    HW220757   5.002   0.360   4.124
 6620SOL     OW20758   1.858   3.515   5.012
 6620SOL    HW120759   1.806   3.437   4.977
 6620SOL    HW220760   1.955   3.501   4.993
 6621SOL     OW20761   3.872   2.870   5.279
 6621SOL    HW120762   3.966   2.843   5.299
 6621SOL    HW220763   3.857   2.871   5.180
 6622SOL     OW20764   6.160   5.901   1.980
 6622SOL    HW120765   6.187   5.831   1.914
 6622SOL    HW220766   6.061   5.905   1.986
 6623SOL     OW20767   3.484   3.639   5.218
 6623SOL    HW120768   3.532   3.629   5.131
 6623SOL    HW220769   3.394   3.595   5.211
 6624SOL     OW20770   0.663   3.901   5.372
 6624SOL    HW120771   0.653   3.816   5.320
 6624SOL    HW220772   0.759   3.924   5.381
 6625SOL     OW20773   5.070   1.765   5.330
 6625SOL    HW120774   5.058   1.838   5.262
 6625SOL    HW220775   5.097   1.806   5.418
 6626SOL     OW20776   3.251   6.905   5.620
 6626SOL    HW120777   3.283   6.811   5.628
 6626SOL    HW220778   3.285   6.958   5.698
 6627SOL     OW20779   1.860   6.716   3.949
 6627SOL    HW120780   1.864   6.808   3.911
 6627SOL    HW220781   1.902   6.652   3.884
 6628SOL     OW20782   5.807   4.618   4.203
 6628SOL    HW120783   5.811   4.660   4.112
 6628SOL    HW220784   5.728   4.654   4.253
 6629SOL     OW20785   5.000   5.734   6.132
 6629SOL    HW120786   4.956   5.711   6.046
 6629SOL    HW220787   5.097   5.751   6.117
 6630SOL     OW20788   3.627   2.351   1.471
 6630SOL    HW120789   3.712   2.402   1.458
 6630SOL    HW220790   3.648   2.253   1.480
 6631SOL     OW20791   2.287   5.881   4.182
 6631SOL    HW120792   2.327   5.846   4.097
 6631SOL    HW220793   2.203   5.930   4.162
 6632SOL     OW20794   0.712   1.003   1.149
 6632SOL    HW120795   0.676   0.927   1.204
 6632SOL    HW220796   0.799   0.976   1.108
 6633SOL     OW20797   2.209   5.337   6.191
 6633SOL    HW120798   2.218   5.436   6.193
 6633SOL    HW220799   2.155   5.307   6.270
 6634SOL     OW20800   5.041   2.016   5.182
 6634SOL    HW120801   4.965   2.047   5.239
 6634SOL    HW220802   5.040   2.066   5.096
 6635SOL     OW20803   4.727   4.777   3.852
 6635SOL    HW120804   4.701   4.805   3.759
 6635SOL    HW220805   4.650   4.731   3.895
 6636SOL     OW20806   4.382   1.773   0.257
 6636SOL    HW120807   4.407   1.744   0.165
 6636SOL    HW220808   4.372   1.872   0.259
 6637SOL     OW20809   1.893   6.845   6.715
 6637SOL    HW120810   1.797   6.820   6.727
 6637SOL    HW220811   1.944   6.767   6.678
 6638SOL     OW20812   2.949   3.246   3.096
 6638SOL    HW120813   2.920   3.305   3.021
 6638SOL    HW220814   2.918   3.285   3.183
 6639SOL     OW20815   3.955   4.279   6.936
 6639SOL    HW120816   3.863   4.309   6.960
 6639SOL    HW220817   3.960   4.179   6.942
 6640SOL     OW20818   0.193   1.821   5.206
 6640SOL    HW120819   0.152   1.740   5.249
 6640SOL    HW220820   0.162   1.828   5.111
 6641SOL     OW20821   3.399   1.805   0.188
 6641SOL    HW120822   3.394   1.706   0.202
 6641SOL    HW220823   3.452   1.847   0.261
 6642SOL     OW20824   2.974   5.627   6.443
 6642SOL    HW120825   2.931   5.617   6.353
 6642SOL    HW220826   2.906   5.661   6.508
 6643SOL     OW20827   6.199   6.275   6.929
 6643SOL    HW120828   6.188   6.370   6.960
 6643SOL    HW220829   6.294   6.248   6.939
 6644SOL     OW20830   2.294   5.834   2.263
 6644SOL    HW120831   2.277   5.741   2.298
 6644SOL    HW220832   2.387   5.838   2.225
 6645SOL     OW20833   5.257   3.786   0.681
 6645SOL    HW120834   5.239   3.688   0.677
 6645SOL    HW220835   5.312   3.813   0.602
 6646SOL     OW20836   4.806   1.326   5.276
 6646SOL    HW120837   4.863   1.408   5.283
 6646SOL    HW220838   4.743   1.336   5.200
 6647SOL     OW20839   4.334   6.897   0.186
 6647SOL    HW120840   4.419   6.851   0.158
 6647SOL    HW220841   4.279   6.834   0.241
 6648SOL     OW20842   3.033   6.679   4.618
 6648SOL    HW120843   2.989   6.683   4.528
 6648SOL    HW220844   2.988   6.743   4.680
 6649SOL     OW20845   6.054   2.089   5.758
 6649SOL    HW120846   5.970   2.136   5.788
 6649SOL    HW220847   6.113   2.153   5.710
 6650SOL     OW20848   3.715   1.731   4.575
 6650SOL    HW120849   3.800   1.691   4.609
 6650SOL    HW220850   3.644   1.721   4.645
 6651SOL     OW20851   1.533   1.165   5.870
 6651SOL    HW120852   1.544   1.092   5.938
 6651SOL    HW220853   1.606   1.233   5.882
 6652SOL     OW20854   0.409   4.749   6.569
 6652SOL    HW120855   0.395   4.666   6.515
 6652SOL    HW220856   0.325   4.772   6.617
 6653SOL     OW20857   4.434   2.969   1.038
 6653SOL    HW120858   4.456   2.964   0.941
 6653SOL    HW220859   4.460   2.884   1.083
 6654SOL     OW20860   1.776   5.281   2.255
 6654SOL    HW120861   1.710   5.278   2.179
 6654SOL    HW220862   1.746   5.349   2.322
 6655SOL     OW20863   6.525   6.251   2.642
 6655SOL    HW120864   6.590   6.220   2.711
 6655SOL    HW220865   6.571   6.253   2.552
 6656SOL     OW20866   5.771   2.262   2.970
 6656SOL    HW120867   5.760   2.309   3.058
 6656SOL    HW220868   5.860   2.285   2.931
 6657SOL     OW20869   6.168   3.411   4.991
 6657SOL    HW120870   6.213   3.467   4.922
 6657SOL    HW220871   6.236   3.364   5.046
 6658SOL     OW20872   5.305   6.946   5.701
 6658SOL    HW120873   5.324   0.012   5.657
 6658SOL    HW220874   5.233   6.898   5.652
 6659SOL     OW20875   1.670   2.775   1.164
 6659SOL    HW120876   1.664   2.676   1.180
 6659SOL    HW220877   1.578   2.814   1.164
 6660SOL     OW20878   1.252   5.060   1.548
 6660SOL    HW120879   1.165   5.106   1.564
 6660SOL    HW220880   1.324   5.129   1.535
 6661SOL     OW20881   2.568   0.165   5.404
 6661SOL    HW120882   2.600   0.171   5.310
 6661SOL    HW220883   2.642   0.133   5.463
 6662SOL     OW20884   1.807   0.774   0.264
 6662SOL    HW120885   1.907   0.775   0.268
 6662SOL    HW220886   1.771   0.726   0.344
 6663SOL     OW20887   6.515   6.548   4.837
 6663SOL    HW120888   6.513   6.557   4.937
 6663SOL    HW220889   6.421   6.536   4.804
 6664SOL     OW20890   2.172   7.020   0.935
 6664SOL    HW120891   2.079   0.011   0.900
 6664SOL    HW220892   2.170   0.008   1.035
 6665SOL     OW20893   1.868   0.002   5.032
 6665SOL    HW120894   1.943   0.066   5.013
 6665SOL    HW220895   1.828   0.022   5.121
 6666SOL     OW20896   6.271   5.963   5.571
 6666SOL    HW120897   6.315   5.953   5.481
 6666SOL    HW220898   6.291   6.054   5.607
 6667SOL     OW20899   6.835   6.483   5.439
 6667SOL    HW120900   6.811   6.491   5.536
 6667SOL    HW220901   6.855   6.387   5.418
 6668SOL     OW20902   6.467   6.346   0.850
 6668SOL    HW120903   6.461   6.438   0.890
 6668SOL    HW220904   6.495   6.281   0.921
 6669SOL     OW20905   2.970   2.041   2.032
 6669SOL    HW120906   3.022   2.083   1.957
 6669SOL    HW220907   2.938   2.113   2.094
 6670SOL     OW20908   2.894   1.172   5.930
 6670SOL    HW120909   2.944   1.215   6.006
 6670SOL    HW220910   2.914   1.074   5.929
 6671SOL     OW20911   5.073   6.797   6.922
 6671SOL    HW120912   5.160   6.787   6.970
 6671SOL    HW220913   5.068   6.888   6.881
 6672SOL     OW20914   0.248   2.069   0.634
 6672SOL    HW120915   0.243   2.164   0.603
 6672SOL    HW220916   0.187   2.055   0.711
 6673SOL     OW20917   4.741   4.140   3.748
 6673SOL    HW120918   4.771   4.063   3.691
 6673SOL    HW220919   4.707   4.104   3.836
 6674SOL     OW20920   6.822   3.944   0.370
 6674SOL    HW120921   6.853   3.928   0.464
 6674SOL    HW220922   6.840   4.040   0.346
 6675SOL     OW20923   6.182   2.806   0.155
 6675SOL    HW120924   6.244   2.731   0.176
 6675SOL    HW220925   6.234   2.891   0.146
 6676SOL     OW20926   0.522   3.340   4.702
 6676SOL    HW120927   0.595   3.407   4.713
 6676SOL    HW220928   0.486   3.345   4.608
 6677SOL     OW20929   0.414   1.377   6.743
 6677SOL    HW120930   0.430   1.347   6.650
 6677SOL    HW220931   0.478   1.450   6.766
 6678SOL     OW20932   2.983   4.398   0.745
 6678SOL    HW120933   3.065   4.345   0.766
 6678SOL    HW220934   2.958   4.454   0.824
 6679SOL     OW20935   3.881   0.256   3.857
 6679SOL    HW120936   3.908   0.314   3.780
 6679SOL    HW220937   3.874   0.312   3.940
 6680SOL     OW20938   4.332   6.620   6.624
 6680SOL    HW120939   4.356   6.523   6.632
 6680SOL    HW220940   4.233   6.631   6.634
 6681SOL     OW20941   4.800   6.152   0.480
 6681SOL    HW120942   4.863   6.200   0.541
 6681SOL    HW220943   4.851   6.086   0.425
 6682SOL     OW20944   2.175   4.927   6.961
 6682SOL    HW120945   2.184   4.995   0.012
 6682SOL    HW220946   2.169   4.836   7.002
 6683SOL     OW20947   5.839   3.263   5.186
 6683SOL    HW120948   5.845   3.332   5.114
 6683SOL    HW220949   5.744   3.255   5.216
 6684SOL     OW20950   4.043   6.487   2.366
 6684SOL    HW120951   3.948   6.460   2.384
 6684SOL    HW220952   4.065   6.567   2.421
 6685SOL     OW20953   4.881   2.644   5.897
 6685SOL    HW120954   4.903   2.736   5.930
 6685SOL    HW220955   4.783   2.638   5.879
 6686SOL     OW20956   5.556   5.809   4.078
 6686SOL    HW120957   5.558   5.844   3.984
 6686SOL    HW220958   5.514   5.718   4.078
 6687SOL     OW20959   0.793   2.731   2.222
 6687SOL    HW120960   0.816   2.754   2.127
 6687SOL    HW220961   0.846   2.788   2.284
 6688SOL     OW20962   3.666   5.143   1.279
 6688SOL    HW120963   3.751   5.189   1.254
 6688SOL    HW220964   3.686   5.070   1.345
 6689SOL     OW20965   4.905   4.225   5.665
 6689SOL    HW120966   4.962   4.206   5.585
 6689SOL    HW220967   4.813   4.250   5.634
 6690SOL     OW20968   0.534   0.022   1.012
 6690SOL    HW120969   0.526   6.972   0.942
 6690SOL    HW220970   0.630   0.044   1.027
 6691SOL     OW20971   2.147   0.419   2.507
 6691SOL    HW120972   2.121   0.486   2.438
 6691SOL    HW220973   2.131   0.457   2.598
 6692SOL     OW20974   4.006   3.895   3.095
 6692SOL    HW120975   3.996   3.811   3.041
 6692SOL    HW220976   4.077   3.953   3.054
 6693SOL     OW20977   4.446   2.427   4.854
 6693SOL    HW120978   4.453   2.428   4.754
 6693SOL    HW220979   4.373   2.488   4.883
 6694SOL     OW20980   4.156   6.257   1.730
 6694SOL    HW120981   4.207   6.290   1.809
 6694SOL    HW220982   4.073   6.211   1.760
 6695SOL     OW20983   2.672   2.124   6.266
 6695SOL    HW120984   2.696   2.116   6.363
 6695SOL    HW220985   2.718   2.051   6.214
 6696SOL     OW20986   3.718   3.208   4.193
 6696SOL    HW120987   3.656   3.166   4.127
 6696SOL    HW220988   3.711   3.308   4.187
 6697SOL     OW20989   4.714   1.939   3.083
 6697SOL    HW120990   4.777   1.870   3.118
 6697SOL    HW220991   4.623   1.898   3.072
 6698SOL     OW20992   2.860   3.261   1.222
 6698SOL    HW120993   2.790   3.326   1.192
 6698SOL    HW220994   2.939   3.267   1.161
 6699SOL     OW20995   2.042   6.575   5.577
 6699SOL    HW120996   2.132   6.539   5.602
 6699SOL    HW220997   2.050   6.633   5.496
 6700SOL     OW20998   6.751   1.878   1.403
 6700SOL    HW120999   6.769   1.889   1.305
 6700SOL    HW221000   6.827   1.916   1.456
 6701SOL     OW21001   5.203   5.208   1.547
 6701SOL    HW121002   5.274   5.238   1.611
 6701SOL    HW221003   5.231   5.122   1.505
 6702SOL     OW21004   1.890   2.763   1.664
 6702SOL    HW121005   1.838   2.677   1.661
 6702SOL    HW221006   1.952   2.762   1.742
 6703SOL     OW21007   6.653   0.182   0.814
 6703SOL    HW121008   6.733   0.241   0.813
 6703SOL    HW221009   6.590   0.210   0.742
 6704SOL     OW21010   4.018   2.178   3.369
 6704SOL    HW121011   4.007   2.189   3.270
 6704SOL    HW221012   4.097   2.230   3.400
 6705SOL     OW21013   5.813   2.315   0.615
 6705SOL    HW121014   5.756   2.380   0.665
 6705SOL    HW221015   5.755   2.241   0.579
 6706SOL     OW21016   0.933   5.783   0.849
 6706SOL    HW121017   0.881   5.845   0.790
 6706SOL    HW221018   0.943   5.824   0.940
 6707SOL     OW21019   5.557   6.516   3.290
 6707SOL    HW121020   5.550   6.474   3.381
 6707SOL    HW221021   5.530   6.612   3.297
 6708SOL     OW21022   5.633   5.279   1.442
 6708SOL    HW121023   5.560   5.211   1.438
 6708SOL    HW221024   5.609   5.358   1.386
 6709SOL     OW21025   1.189   5.548   2.868
 6709SOL    HW121026   1.108   5.596   2.901
 6709SOL    HW221027   1.165   5.496   2.785
 6710SOL     OW21028   3.845   0.791   6.424
 6710SOL    HW121029   3.777   0.790   6.351
 6710SOL    HW221030   3.874   0.697   6.444
 6711SOL     OW21031   4.997   6.281   5.767
 6711SOL    HW121032   4.936   6.270   5.845
 6711SOL    HW221033   5.037   6.372   5.768
 6712SOL     OW21034   5.499   3.686   1.326
 6712SOL    HW121035   5.430   3.678   1.398
 6712SOL    HW221036   5.579   3.631   1.350
 6713SOL     OW21037   0.935   0.881   3.422
 6713SOL    HW121038   0.835   0.879   3.417
 6713SOL    HW221039   0.966   0.976   3.433
 6714SOL     OW21040   6.762   1.449   6.196
 6714SOL    HW121041   6.858   1.463   6.174
 6714SOL    HW221042   6.752   1.435   6.294
 6715SOL     OW21043   1.664   0.644   1.110
 6715SOL    HW121044   1.692   0.619   1.017
 6715SOL    HW221045   1.723   0.718   1.143
 6716SOL     OW21046   0.152   5.685   1.804
 6716SOL    HW121047   0.194   5.770   1.835
 6716SOL    HW221048   0.169   5.674   1.706
 6717SOL     OW21049   3.192   2.960   6.162
 6717SOL    HW121050   3.212   2.882   6.102
 6717SOL    HW221051   3.207   2.933   6.257
 6718SOL     OW21052   4.590   0.039   0.814
 6718SOL    HW121053   4.517   0.104   0.797
 6718SOL    HW221054   4.562   6.969   0.784
 6719SOL     OW21055   2.294   6.925   0.315
 6719SOL    HW121056   2.278   7.001   0.378
 6719SOL    HW221057   2.393   6.916   0.300
 6720SOL     OW21058   1.975   0.673   3.523
 6720SOL    HW121059   1.880   0.697   3.541
 6720SOL    HW221060   2.011   0.733   3.452
 6721SOL     OW21061   0.162   6.433   0.717
 6721SOL    HW121062   0.099   6.357   0.700
 6721SOL    HW221063   0.251   6.412   0.675
 6722SOL     OW21064   6.635   2.334   0.315
 6722SOL    HW121065   6.615   2.340   0.217
 6722SOL    HW221066   6.602   2.246   0.350
 6723SOL     OW21067   1.558   0.122   5.042
 6723SOL    HW121068   1.540   0.117   4.944
 6723SOL    HW221069   1.644   0.075   5.063
 6724SOL     OW21070   2.242   3.021   6.379
 6724SOL    HW121071   2.227   2.999   6.282
 6724SOL    HW221072   2.199   2.952   6.436
 6725SOL     OW21073   6.774   2.322   1.692
 6725SOL    HW121074   6.809   2.407   1.652
 6725SOL    HW221075   6.678   2.334   1.717
 6726SOL     OW21076   0.558   2.847   3.825
 6726SOL    HW121077   0.540   2.877   3.919
 6726SOL    HW221078   0.471   2.831   3.778
 6727SOL     OW21079   0.407   4.864   5.450
 6727SOL    HW121080   0.476   4.817   5.505
 6727SOL    HW221081   0.382   4.950   5.495
 6728SOL     OW21082   3.861   2.137   2.678
 6728SOL    HW121083   3.890   2.135   2.582
 6728SOL    HW221084   3.941   2.157   2.735
 6729SOL     OW21085   0.432   1.380   0.570
 6729SOL    HW121086   0.461   1.285   0.556
 6729SOL    HW221087   0.513   1.437   0.585
 6730SOL     OW21088   1.846   6.659   1.072
 6730SOL    HW121089   1.907   6.707   1.135
 6730SOL    HW221090   1.882   6.668   0.979
 6731SOL     OW21091   1.538   6.676   0.989
 6731SOL    HW121092   1.537   6.742   1.064
 6731SOL    HW221093   1.632   6.651   0.966
 6732SOL     OW21094   5.977   4.093   4.722
 6732SOL    HW121095   5.980   4.185   4.683
 6732SOL    HW221096   5.994   4.026   4.650
 6733SOL     OW21097   3.726   5.761   6.377
 6733SOL    HW121098   3.715   5.764   6.477
 6733SOL    HW221099   3.802   5.820   6.350
 6734SOL     OW21100   6.080   2.654   5.294
 6734SOL    HW121101   6.121   2.667   5.204
 6734SOL    HW221102   5.987   2.690   5.294
 6735SOL     OW21103   6.029   3.516   4.616
 6735SOL    HW121104   5.966   3.516   4.538
 6735SOL    HW221105   6.105   3.579   4.597
 6736SOL     OW21106   2.851   3.375   6.579
 6736SOL    HW121107   2.772   3.424   6.614
 6736SOL    HW221108   2.926   3.380   6.646
 6737SOL     OW21109   1.808   3.224   0.946
 6737SOL    HW121110   1.797   3.176   1.033
 6737SOL    HW221111   1.890   3.191   0.899
 6738SOL     OW21112   1.961   5.964   3.847
 6738SOL    HW121113   1.952   5.868   3.822
 6738SOL    HW221114   1.873   5.999   3.878
 6739SOL     OW21115   5.611   6.698   4.101
 6739SOL    HW121116   5.600   6.693   4.001
 6739SOL    HW221117   5.565   6.621   4.144
 6740SOL     OW21118   6.803   0.166   5.471
 6740SOL    HW121119   6.881   0.148   5.411
 6740SOL    HW221120   6.730   0.101   5.451
 6741SOL     OW21121   3.447   2.901   5.498
 6741SOL    HW121122   3.415   2.951   5.418
 6741SOL    HW221123   3.464   2.805   5.473
 6742SOL     OW21124   5.991   5.682   3.099
 6742SOL    HW121125   5.919   5.703   3.165
 6742SOL    HW221126   5.958   5.615   3.033
 6743SOL     OW21127   3.890   4.764   6.410
 6743SOL    HW121128   3.939   4.728   6.489
 6743SOL    HW221129   3.903   4.863   6.405
 6744SOL     OW21130   6.865   5.532   5.549
 6744SOL    HW121131   6.957   5.493   5.556
 6744SOL    HW221132   6.816   5.488   5.473
 6745SOL     OW21133   6.955   6.437   3.360
 6745SOL    HW121134   0.001   6.468   3.427
 6745SOL    HW221135   6.913   6.517   3.316
 6746SOL     OW21136   0.570   0.222   3.759
 6746SOL    HW121137   0.562   0.131   3.720
 6746SOL    HW221138   0.578   0.215   3.859
 6747SOL     OW21139   5.928   1.091   6.388
 6747SOL    HW121140   5.847   1.038   6.361
 6747SOL    HW221141   5.981   1.113   6.306
 6748SOL     OW21142   3.757   1.540   2.961
 6748SOL    HW121143   3.800   1.552   2.872
 6748SOL    HW221144   3.826   1.518   3.030
 6749SOL     OW21145   3.921   4.435   0.903
 6749SOL    HW121146   3.867   4.421   0.820
 6749SOL    HW221147   3.860   4.462   0.978
 6750SOL     OW21148   3.597   2.086   3.996
 6750SOL    HW121149   3.539   2.005   3.985
 6750SOL    HW221150   3.628   2.118   3.907
 6751SOL     OW21151   5.075   0.248   3.310
 6751SOL    HW121152   5.131   0.220   3.388
 6751SOL    HW221153   5.113   0.331   3.270
 6752SOL     OW21154   2.078   6.699   2.661
 6752SOL    HW121155   2.048   6.615   2.706
 6752SOL    HW221156   2.171   6.721   2.691
 6753SOL     OW21157   3.234   1.403   6.161
 6753SOL    HW121158   3.314   1.462   6.171
 6753SOL    HW221159   3.218   1.384   6.065
 6754SOL     OW21160   6.767   0.758   0.381
 6754SOL    HW121161   6.801   0.851   0.373
 6754SOL    HW221162   6.719   0.732   0.297
 6755SOL     OW21163   4.223   2.439   1.584
 6755SOL    HW121164   4.269   2.496   1.652
 6755SOL    HW221165   4.226   2.343   1.612
 6756SOL     OW21166   3.726   6.774   5.123
 6756SOL    HW121167   3.744   6.777   5.025
 6756SOL    HW221168   3.764   6.856   5.166
 6757SOL     OW21169   2.995   2.129   0.247
 6757SOL    HW121170   3.048   2.170   0.321
 6757SOL    HW221171   3.053   2.067   0.194
 6758SOL     OW21172   6.068   2.274   1.757
 6758SOL    HW121173   6.082   2.254   1.854
 6758SOL    HW221174   6.128   2.215   1.702
 6759SOL     OW21175   1.207   3.943   2.855
 6759SOL    HW121176   1.267   3.865   2.866
 6759SOL    HW221177   1.248   4.009   2.792
 6760SOL     OW21178   0.216   3.396   2.262
 6760SOL    HW121179   0.176   3.469   2.206
 6760SOL    HW221180   0.147   3.326   2.280
 6761SOL     OW21181   6.410   2.543   4.993
 6761SOL    HW121182   6.450   2.623   4.948
 6761SOL    HW221183   6.379   2.478   4.923
 6762SOL     OW21184   0.723   4.114   4.622
 6762SOL    HW121185   0.707   4.049   4.547
 6762SOL    HW221186   0.720   4.065   4.710
 6763SOL     OW21187   6.542   5.828   3.848
 6763SOL    HW121188   6.579   5.787   3.931
 6763SOL    HW221189   6.507   5.755   3.788
 6764SOL     OW21190   2.010   5.614   1.560
 6764SOL    HW121191   2.036   5.687   1.624
 6764SOL    HW221192   2.068   5.620   1.479
 6765SOL     OW21193   5.750   5.030   3.938
 6765SOL    HW121194   5.826   5.077   3.893
 6765SOL    HW221195   5.759   4.932   3.926
 6766SOL     OW21196   5.130   6.080   5.631
 6766SOL    HW121197   5.086   6.149   5.688
 6766SOL    HW221198   5.225   6.070   5.659
 6767SOL     OW21199   2.468   1.061   1.405
 6767SOL    HW121200   2.426   1.145   1.441
 6767SOL    HW221201   2.446   0.984   1.466
 6768SOL     OW21202   1.745   0.335   5.086
 6768SOL    HW121203   1.657   0.290   5.104
 6768SOL    HW221204   1.760   0.340   4.988
 6769SOL     OW21205   3.332   0.859   6.634
 6769SOL    HW121206   3.355   0.952   6.606
 6769SOL    HW221207   3.312   0.804   6.553
 6770SOL     OW21208   0.055   1.220   2.164
 6770SOL    HW121209   0.019   1.147   2.106
 6770SOL    HW221210   7.001   1.276   2.199
 6771SOL     OW21211   4.847   1.923   3.360
 6771SOL    HW121212   4.797   1.850   3.406
 6771SOL    HW221213   4.818   2.011   3.396
 6772SOL     OW21214   4.061   2.074   2.444
 6772SOL    HW121215   4.072   2.082   2.345
 6772SOL    HW221216   4.003   1.996   2.465
 6773SOL     OW21217   6.111   5.077   2.623
 6773SOL    HW121218   6.045   5.037   2.687
 6773SOL    HW221219   6.175   5.135   2.673
 6774SOL     OW21220   0.947   3.333   5.361
 6774SOL    HW121221   0.896   3.272   5.301
 6774SOL    HW221222   0.886   3.373   5.428
 6775SOL     OW21223   2.357   2.547   1.776
 6775SOL    HW121224   2.351   2.552   1.676
 6775SOL    HW221225   2.428   2.481   1.801
 6776SOL     OW21226   5.012   4.012   0.110
 6776SOL    HW121227   5.046   4.099   0.073
 6776SOL    HW221228   4.912   4.009   0.102
 6777SOL     OW21229   4.334   4.462   0.512
 6777SOL    HW121230   4.395   4.402   0.563
 6777SOL    HW221231   4.256   4.486   0.570
 6778SOL     OW21232   6.195   5.530   2.063
 6778SOL    HW121233   6.174   5.450   2.120
 6778SOL    HW221234   6.233   5.602   2.121
 6779SOL     OW21235   5.772   5.581   7.017
 6779SOL    HW121236   5.683   5.569   6.974
 6779SOL    HW221237   5.761   5.588   0.095
 6780SOL     OW21238   1.018   2.561   2.294
 6780SOL    HW121239   1.110   2.585   2.263
 6780SOL    HW221240   0.952   2.627   2.258
 6781SOL     OW21241   6.598   1.679   3.824
 6781SOL    HW121242   6.622   1.582   3.815
 6781SOL    HW221243   6.498   1.688   3.824
 6782SOL     OW21244   0.085   0.701   3.136
 6782SOL    HW121245   0.102   0.604   3.154
 6782SOL    HW221246   0.000   0.729   3.181
 6783SOL     OW21247   6.169   1.892   5.366
 6783SOL    HW121248   6.212   1.882   5.277
 6783SOL    HW221249   6.085   1.945   5.357
 6784SOL     OW21250   2.013   3.035   0.230
 6784SOL    HW121251   2.040   2.952   0.182
 6784SOL    HW221252   1.914   3.046   0.227
 6785SOL     OW21253   5.987   5.593   4.035
 6785SOL    HW121254   6.049   5.517   4.054
 6785SOL    HW221255   5.962   5.638   4.120
 6786SOL     OW21256   1.385   2.398   0.153
 6786SOL    HW121257   1.370   2.304   0.123
 6786SOL    HW221258   1.426   2.398   0.244
 6787SOL     OW21259   2.152   2.628   0.702
 6787SOL    HW121260   2.110   2.552   0.652
 6787SOL    HW221261   2.179   2.597   0.793
 6788SOL     OW21262   1.007   3.951   1.430
 6788SOL    HW121263   1.107   3.958   1.434
 6788SOL    HW221264   0.981   3.880   1.366
 6789SOL     OW21265   0.299   5.464   2.733
 6789SOL    HW121266   0.264   5.385   2.782
 6789SOL    HW221267   0.353   5.521   2.795
 6790SOL     OW21268   0.130   3.602   0.909
 6790SOL    HW121269   0.225   3.571   0.908
 6790SOL    HW221270   0.101   3.619   1.003
 6791SOL     OW21271   4.204   2.246   1.944
 6791SOL    HW121272   4.243   2.217   1.856
 6791SOL    HW221273   4.111   2.281   1.929
 6792SOL     OW21274   6.438   6.286   5.001
 6792SOL    HW121275   6.404   6.378   5.024
 6792SOL    HW221276   6.377   6.244   4.934
 6793SOL     OW21277   1.906   2.198   0.596
 6793SOL    HW121278   1.887   2.104   0.624
 6793SOL    HW221279   1.862   2.261   0.660
 6794SOL     OW21280   4.432   1.192   6.058
 6794SOL    HW121281   4.342   1.234   6.042
 6794SOL    HW221282   4.430   1.141   6.144
 6795SOL     OW21283   2.495   6.797   1.132
 6795SOL    HW121284   2.466   6.705   1.157
 6795SOL    HW221285   2.590   6.794   1.098
 6796SOL     OW21286   6.947   0.042   2.213
 6796SOL    HW121287   6.856   0.007   2.192
 6796SOL    HW221288   6.939   0.132   2.254
 6797SOL     OW21289   6.481   2.241   1.462
 6797SOL    HW121290   6.415   2.214   1.391
 6797SOL    HW221291   6.521   2.329   1.438
 6798SOL     OW21292   5.092   0.153   2.366
 6798SOL    HW121293   5.091   0.250   2.388
 6798SOL    HW221294   5.037   0.136   2.284
 6799SOL     OW21295   6.826   6.425   1.950
 6799SOL    HW121296   6.890   6.474   2.009
 6799SOL    HW221297   6.747   6.484   1.931
 6800SOL     OW21298   2.088   3.621   2.200
 6800SOL    HW121299   2.115   3.548   2.137
 6800SOL    HW221300   2.094   3.587   2.294
 6801SOL     OW21301   1.075   6.790   3.316
 6801SOL    HW121302   0.994   6.801   3.373
 6801SOL    HW221303   1.049   6.747   3.229
 6802SOL     OW21304   2.948   6.073   1.309
 6802SOL    HW121305   3.032   6.127   1.308
 6802SOL    HW221306   2.880   6.115   1.248
 6803SOL     OW21307   4.497   2.814   5.807
 6803SOL    HW121308   4.556   2.735   5.821
 6803SOL    HW221309   4.477   2.857   5.895
 6804SOL     OW21310   3.411   5.415   3.704
 6804SOL    HW121311   3.464   5.354   3.645
 6804SOL    HW221312   3.417   5.509   3.669
 6805SOL     OW21313   0.097   4.893   5.976
 6805SOL    HW121314   0.094   4.794   5.992
 6805SOL    HW221315   0.107   4.941   6.063
 6806SOL     OW21316   5.708   0.593   3.821
 6806SOL    HW121317   5.638   0.659   3.846
 6806SOL    HW221318   5.758   0.626   3.742
 6807SOL     OW21319   3.323   3.388   1.036
 6807SOL    HW121320   3.393   3.350   0.976
 6807SOL    HW221321   3.340   3.360   1.130
 6808SOL     OW21322   6.471   2.290   5.150
 6808SOL    HW121323   6.475   2.383   5.112
 6808SOL    HW221324   6.380   2.272   5.185
 6809SOL     OW21325   0.748   2.989   1.505
 6809SOL    HW121326   0.705   3.065   1.553
 6809SOL    HW221327   0.776   2.919   1.571
 6810SOL     OW21328   1.326   0.911   2.378
 6810SOL    HW121329   1.332   1.009   2.359
 6810SOL    HW221330   1.287   0.897   2.469
 6811SOL     OW21331   6.048   3.600   1.241
 6811SOL    HW121332   6.009   3.655   1.315
 6811SOL    HW221333   6.083   3.661   1.169
 6812SOL     OW21334   2.904   3.605   3.779
 6812SOL    HW121335   2.942   3.567   3.863
 6812SOL    HW221336   2.825   3.549   3.751
 6813SOL     OW21337   5.207   2.589   2.375
 6813SOL    HW121338   5.277   2.584   2.303
 6813SOL    HW221339   5.174   2.683   2.382
 6814SOL     OW21340   3.418   1.942   6.313
 6814SOL    HW121341   3.352   1.882   6.268
 6814SOL    HW221342   3.410   2.035   6.277
 6815SOL     OW21343   3.304   6.917   1.499
 6815SOL    HW121344   3.315   6.819   1.512
 6815SOL    HW221345   3.327   6.965   1.584
 6816SOL     OW21346   6.754   6.913   6.415
 6816SOL    HW121347   6.761   6.885   6.319
 6816SOL    HW221348   6.722   7.008   6.420
 6817SOL     OW21349   2.496   2.645   3.075
 6817SOL    HW121350   2.564   2.592   3.127
 6817SOL    HW221351   2.517   2.639   2.978
 6818SOL     OW21352   2.535   6.159   2.255
 6818SOL    HW121353   2.442   6.166   2.217
 6818SOL    HW221354   2.566   6.249   2.284
 6819SOL     OW21355   5.302   1.574   3.616
 6819SOL    HW121356   5.346   1.492   3.652
 6819SOL    HW221357   5.235   1.549   3.546
 6820SOL     OW21358   2.324   5.214   2.142
 6820SOL    HW121359   2.424   5.222   2.134
 6820SOL    HW221360   2.298   5.221   2.238
 6821SOL     OW21361   3.573   2.016   4.873
 6821SOL    HW121362   3.669   2.044   4.873
 6821SOL    HW221363   3.526   2.057   4.951
 6822SOL     OW21364   5.197   2.506   6.484
 6822SOL    HW121365   5.108   2.551   6.475
 6822SOL    HW221366   5.214   2.449   6.403
 6823SOL     OW21367   4.294   3.146   5.532
 6823SOL    HW121368   4.319   3.166   5.626
 6823SOL    HW221369   4.307   3.228   5.476
 6824SOL     OW21370   0.962   1.966   6.546
 6824SOL    HW121371   1.030   1.963   6.619
 6824SOL    HW221372   0.890   2.030   6.571
 6825SOL     OW21373   5.190   6.335   1.370
 6825SOL    HW121374   5.100   6.319   1.328
 6825SOL    HW221375   5.202   6.432   1.387
 6826SOL     OW21376   1.769   3.432   3.196
 6826SOL    HW121377   1.787   3.336   3.174
 6826SOL    HW221378   1.670   3.447   3.198
 6827SOL     OW21379   4.434   5.695   5.929
 6827SOL    HW121380   4.484   5.667   5.847
 6827SOL    HW221381   4.419   5.615   5.988
 6828SOL     OW21382   2.978   1.831   1.749
 6828SOL    HW121383   3.014   1.923   1.730
 6828SOL    HW221384   2.964   1.782   1.663
 6829SOL     OW21385   4.333   6.533   4.749
 6829SOL    HW121386   4.315   6.558   4.653
 6829SOL    HW221387   4.428   6.554   4.772
 6830SOL     OW21388   5.129   1.226   3.464
 6830SOL    HW121389   5.096   1.161   3.395
 6830SOL    HW221390   5.051   1.266   3.512
 6831SOL     OW21391   1.360   0.451   6.782
 6831SOL    HW121392   1.299   0.389   6.731
 6831SOL    HW221393   1.347   0.545   6.750
 6832SOL     OW21394   2.579   4.301   1.051
 6832SOL    HW121395   2.617   4.266   0.966
 6832SOL    HW221396   2.583   4.230   1.121
 6833SOL     OW21397   3.327   4.554   6.197
 6833SOL    HW121398   3.354   4.595   6.110
 6833SOL    HW221399   3.295   4.626   6.259
 6834SOL     OW21400   4.797   6.625   1.103
 6834SOL    HW121401   4.829   6.542   1.058
 6834SOL    HW221402   4.698   6.632   1.094
 6835SOL     OW21403   4.045   0.397   4.391
 6835SOL    HW121404   4.046   0.422   4.488
 6835SOL    HW221405   4.078   0.473   4.336
 6836SOL     OW21406   2.521   5.198   0.513
 6836SOL    HW121407   2.618   5.218   0.494
 6836SOL    HW221408   2.501   5.103   0.488
 6837SOL     OW21409   0.464   2.134   2.194
 6837SOL    HW121410   0.561   2.111   2.182
 6837SOL    HW221411   0.414   2.051   2.220
 6838SOL     OW21412   3.390   6.390   0.380
 6838SOL    HW121413   3.470   6.417   0.434
 6838SOL    HW221414   3.360   6.467   0.324
 6839SOL     OW21415   5.255   1.099   6.670
 6839SOL    HW121416   5.309   1.098   6.754
 6839SOL    HW221417   5.199   1.016   6.665
 6840SOL     OW21418   3.593   0.823   4.712
 6840SOL    HW121419   3.553   0.914   4.705
 6840SOL    HW221420   3.520   0.754   4.712
 6841SOL     OW21421   4.117   4.442   0.066
 6841SOL    HW121422   4.090   4.361   0.015
 6841SOL    HW221423   4.039   4.504   0.073
 6842SOL     OW21424   2.125   4.516   1.211
 6842SOL    HW121425   2.156   4.435   1.260
 6842SOL    HW221426   2.188   4.536   1.136
 6843SOL     OW21427   5.875   6.711   1.303
 6843SOL    HW121428   5.959   6.765   1.296
 6843SOL    HW221429   5.886   6.626   1.250
 6844SOL     OW21430   5.384   0.690   4.185
 6844SOL    HW121431   5.305   0.722   4.133
 6844SOL    HW221432   5.423   0.610   4.140
 6845SOL     OW21433   6.342   3.341   2.984
 6845SOL    HW121434   6.319   3.438   2.987
 6845SOL    HW221435   6.436   3.328   3.016
 6846SOL     OW21436   3.603   3.022   6.839
 6846SOL    HW121437   3.694   2.987   6.863
 6846SOL    HW221438   3.592   3.019   6.739
 6847SOL     OW21439   0.137   3.043   4.610
 6847SOL    HW121440   0.177   3.058   4.700
 6847SOL    HW221441   0.162   2.951   4.578
 6848SOL     OW21442   4.864   5.255   3.683
 6848SOL    HW121443   4.773   5.241   3.723
 6848SOL    HW221444   4.863   5.339   3.628
 6849SOL     OW21445   4.653   5.232   5.487
 6849SOL    HW121446   4.688   5.141   5.507
 6849SOL    HW221447   4.564   5.225   5.443
 6850SOL     OW21448   5.511   3.180   2.431
 6850SOL    HW121449   5.567   3.175   2.514
 6850SOL    HW221450   5.465   3.093   2.416
 6851SOL     OW21451   0.101   1.377   3.064
 6851SOL    HW121452   0.187   1.421   3.088
 6851SOL    HW221453   0.114   1.320   2.983
 6852SOL     OW21454   2.612   4.654   1.294
 6852SOL    HW121455   2.622   4.745   1.252
 6852SOL    HW221456   2.612   4.664   1.394
 6853SOL     OW21457   5.596   4.693   6.976
 6853SOL    HW121458   5.526   4.628   7.006
 6853SOL    HW221459   5.606   4.688   6.877
 6854SOL     OW21460   5.322   1.252   5.710
 6854SOL    HW121461   5.250   1.315   5.740
 6854SOL    HW221462   5.310   1.231   5.613
 6855SOL     OW21463   4.486   6.658   4.108
 6855SOL    HW121464   4.511   6.630   4.016
 6855SOL    HW221465   4.386   6.664   4.114
 6856SOL     OW21466   6.847   2.751   5.351
 6856SOL    HW121467   6.931   2.697   5.349
 6856SOL    HW221468   6.839   2.802   5.265
 6857SOL     OW21469   2.128   2.215   6.643
 6857SOL    HW121470   2.188   2.293   6.626
 6857SOL    HW221471   2.184   2.135   6.666
 6858SOL     OW21472   4.082   3.398   2.296
 6858SOL    HW121473   4.022   3.362   2.368
 6858SOL    HW221474   4.085   3.333   2.220
 6859SOL     OW21475   0.969   1.470   0.898
 6859SOL    HW121476   1.026   1.549   0.920
 6859SOL    HW221477   0.924   1.436   0.980
 6860SOL     OW21478   0.047   5.305   1.278
 6860SOL    HW121479   0.030   5.381   1.216
 6860SOL    HW221480   0.078   5.225   1.226
 6861SOL     OW21481   3.977   4.625   0.204
 6861SOL    HW121482   3.925   4.703   0.169
 6861SOL    HW221483   3.916   4.566   0.256
 6862SOL     OW21484   1.192   5.169   5.965
 6862SOL    HW121485   1.264   5.107   5.935
 6862SOL    HW221486   1.230   5.235   6.031
 6863SOL     OW21487   5.394   6.869   5.935
 6863SOL    HW121488   5.355   6.901   5.848
 6863SOL    HW221489   5.352   6.919   6.011
 6864SOL     OW21490   2.073   4.678   4.858
 6864SOL    HW121491   2.110   4.595   4.816
 6864SOL    HW221492   2.034   4.737   4.787
 6865SOL     OW21493   1.119   6.091   4.428
 6865SOL    HW121494   1.025   6.122   4.432
 6865SOL    HW221495   1.123   5.993   4.450
 6866SOL     OW21496   5.707   5.501   3.382
 6866SOL    HW121497   5.739   5.595   3.385
 6866SOL    HW221498   5.610   5.498   3.358
 6867SOL     OW21499   2.188   4.068   2.290
 6867SOL    HW121500   2.183   4.017   2.204
 6867SOL    HW221501   2.174   4.006   2.367
 6868SOL     OW21502   1.782   6.270   6.598
 6868SOL    HW121503   1.710   6.210   6.635
 6868SOL    HW221504   1.855   6.279   6.666
 6869SOL     OW21505   4.946   1.303   6.404
 6869SOL    HW121506   4.993   1.323   6.490
 6869SOL    HW221507   5.005   1.327   6.328
 6870SOL     OW21508   6.993   4.212   1.617
 6870SOL    HW121509   7.017   4.266   1.536
 6870SOL    HW221510   6.944   4.130   1.588
 6871SOL     OW21511   6.391   4.262   3.147
 6871SOL    HW121512   6.378   4.328   3.221
 6871SOL    HW221513   6.405   4.171   3.185
 6872SOL     OW21514   0.819   2.322   1.265
 6872SOL    HW121515   0.808   2.276   1.178
 6872SOL    HW221516   0.801   2.420   1.253
 6873SOL     OW21517   6.589   3.776   4.142
 6873SOL    HW121518   6.685   3.763   4.169
 6873SOL    HW221519   6.583   3.779   4.042
 6874SOL     OW21520   6.804   5.446   2.757
 6874SOL    HW121521   6.810   5.531   2.704
 6874SOL    HW221522   6.896   5.413   2.778
 6875SOL     OW21523   2.309   2.814   2.615
 6875SOL    HW121524   2.330   2.814   2.713
 6875SOL    HW221525   2.381   2.764   2.566
 6876SOL     OW21526   4.246   0.222   4.096
 6876SOL    HW121527   4.154   0.235   4.060
 6876SOL    HW221528   4.260   0.281   4.176
 6877SOL     OW21529   2.693   4.185   0.840
 6877SOL    HW121530   2.666   4.090   0.852
 6877SOL    HW221531   2.784   4.190   0.801
 6878SOL     OW21532   3.959   1.053   4.126
 6878SOL    HW121533   3.898   0.977   4.149
 6878SOL    HW221534   3.951   1.074   4.029
 6879SOL     OW21535   1.183   2.809   1.295
 6879SOL    HW121536   1.119   2.860   1.238
 6879SOL    HW221537   1.219   2.731   1.244
 6880SOL     OW21538   1.851   5.545   5.658
 6880SOL    HW121539   1.861   5.642   5.636
 6880SOL    HW221540   1.798   5.500   5.586
 6881SOL     OW21541   2.107   3.548   1.496
 6881SOL    HW121542   2.199   3.579   1.521
 6881SOL    HW221543   2.046   3.558   1.575
 6882SOL     OW21544   3.004   0.668   0.115
 6882SOL    HW121545   3.008   0.622   0.027
 6882SOL    HW221546   3.095   0.670   0.157
 6883SOL     OW21547   4.809   1.613   6.837
 6883SOL    HW121548   4.815   1.542   6.767
 6883SOL    HW221549   4.876   1.685   6.818
 6884SOL     OW21550   0.970   4.451   3.594
 6884SOL    HW121551   1.015   4.432   3.506
 6884SOL    HW221552   1.025   4.517   3.645
 6885SOL     OW21553   4.480   4.907   4.107
 6885SOL    HW121554   4.575   4.937   4.100
 6885SOL    HW221555   4.449   4.916   4.201
 6886SOL     OW21556   6.672   1.456   4.076
 6886SOL    HW121557   6.603   1.421   4.139
 6886SOL    HW221558   6.685   1.554   4.092
 6887SOL     OW21559   5.005   5.417   5.962
 6887SOL    HW121560   4.936   5.480   5.925
 6887SOL    HW221561   5.066   5.388   5.888
 6888SOL     OW21562   5.610   5.510   6.576
 6888SOL    HW121563   5.550   5.575   6.529
 6888SOL    HW221564   5.633   5.435   6.515
 6889SOL     OW21565   1.181   3.059   5.997
 6889SOL    HW121566   1.164   2.993   5.923
 6889SOL    HW221567   1.213   3.145   5.957
 6890SOL     OW21568   3.624   6.340   2.139
 6890SOL    HW121569   3.560   6.320   2.213
 6890SOL    HW221570   3.711   6.292   2.156
 6891SOL     OW21571   2.219   3.958   2.722
 6891SOL    HW121572   2.148   3.911   2.775
 6891SOL    HW221573   2.274   4.015   2.783
 6892SOL     OW21574   3.671   2.143   3.734
 6892SOL    HW121575   3.702   2.238   3.737
 6892SOL    HW221576   3.730   2.091   3.672
 6893SOL     OW21577   4.312   4.050   6.866
 6893SOL    HW121578   4.319   4.147   6.889
 6893SOL    HW221579   4.404   4.010   6.861
 6894SOL     OW21580   5.983   4.715   0.348
 6894SOL    HW121581   5.939   4.760   0.271
 6894SOL    HW221582   6.011   4.622   0.321
 6895SOL     OW21583   2.312   4.396   0.928
 6895SOL    HW121584   2.401   4.354   0.946
 6895SOL    HW221585   2.240   4.334   0.959
 6896SOL     OW21586   3.192   1.183   3.833
 6896SOL    HW121587   3.195   1.257   3.766
 6896SOL    HW221588   3.200   1.221   3.925
 6897SOL     OW21589   4.992   3.821   5.018
 6897SOL    HW121590   4.921   3.750   5.020
 6897SOL    HW221591   4.963   3.898   5.075
 6898SOL     OW21592   4.127   1.498   1.347
 6898SOL    HW121593   4.095   1.562   1.417
 6898SOL    HW221594   4.102   1.531   1.257
 6899SOL     OW21595   4.619   6.274   1.790
 6899SOL    HW121596   4.712   6.288   1.755
 6899SOL    HW221597   4.598   6.344   1.857
 6900SOL     OW21598   5.942   5.718   5.105
 6900SOL    HW121599   5.965   5.786   5.035
 6900SOL    HW221600   5.995   5.736   5.187
 6901SOL     OW21601   6.237   5.942   6.357
 6901SOL    HW121602   6.202   5.854   6.326
 6901SOL    HW221603   6.317   5.967   6.302
 6902SOL     OW21604   6.707   5.935   0.135
 6902SOL    HW121605   6.711   5.892   0.045
 6902SOL    HW221606   6.686   6.032   0.125
 6903SOL     OW21607   3.030   5.162   5.517
 6903SOL    HW121608   2.950   5.155   5.576
 6903SOL    HW221609   3.109   5.122   5.564
 6904SOL     OW21610   6.271   0.601   5.044
 6904SOL    HW121611   6.183   0.556   5.059
 6904SOL    HW221612   6.312   0.625   5.132
 6905SOL     OW21613   5.602   6.119   0.063
 6905SOL    HW121614   5.623   6.023   0.081
 6905SOL    HW221615   5.505   6.128   0.039
 6906SOL     OW21616   3.744   1.475   4.075
 6906SOL    HW121617   3.812   1.533   4.119
 6906SOL    HW221618   3.724   1.509   3.983
 6907SOL     OW21619   5.507   2.364   1.592
 6907SOL    HW121620   5.416   2.349   1.631
 6907SOL    HW221621   5.564   2.285   1.609
 6908SOL     OW21622   1.526   5.499   6.923
 6908SOL    HW121623   1.475   5.427   6.876
 6908SOL    HW221624   1.467   5.578   6.938
 6909SOL     OW21625   4.776   4.064   1.327
 6909SOL    HW121626   4.868   4.054   1.366
 6909SOL    HW221627   4.714   4.100   1.396
 6910SOL     OW21628   1.093   3.028   3.540
 6910SOL    HW121629   1.027   2.956   3.559
 6910SOL    HW221630   1.162   2.994   3.476
 6911SOL     OW21631   4.323   6.621   4.468
 6911SOL    HW121632   4.266   6.664   4.398
 6911SOL    HW221633   4.378   6.549   4.426
 6912SOL     OW21634   2.910   3.589   6.359
 6912SOL    HW121635   2.838   3.608   6.426
 6912SOL    HW221636   2.876   3.523   6.291
 6913SOL     OW21637   5.755   6.223   3.911
 6913SOL    HW121638   5.727   6.198   3.818
 6913SOL    HW221639   5.733   6.148   3.974
 6914SOL     OW21640   6.113   4.468   3.542
 6914SOL    HW121641   6.033   4.472   3.601
 6914SOL    HW221642   6.178   4.401   3.579
 6915SOL     OW21643   6.177   2.589   1.815
 6915SOL    HW121644   6.232   2.614   1.894
 6915SOL    HW221645   6.101   2.532   1.844
 6916SOL     OW21646   5.382   1.923   6.691
 6916SOL    HW121647   5.285   1.947   6.686
 6916SOL    HW221648   5.430   1.989   6.749
 6917SOL     OW21649   3.410   6.498   1.420
 6917SOL    HW121650   3.314   6.529   1.423
 6917SOL    HW221651   3.419   6.424   1.354
 6918SOL     OW21652   0.853   2.384   4.014
 6918SOL    HW121653   0.882   2.471   3.973
 6918SOL    HW221654   0.806   2.329   3.946
 6919SOL     OW21655   5.578   6.139   4.369
 6919SOL    HW121656   5.601   6.203   4.443
 6919SOL    HW221657   5.534   6.058   4.408
 6920SOL     OW21658   4.536   6.822   5.753
 6920SOL    HW121659   4.514   6.845   5.848
 6920SOL    HW221660   4.615   6.761   5.751
 6921SOL     OW21661   4.694   6.263   4.288
 6921SOL    HW121662   4.786   6.231   4.308
 6921SOL    HW221663   4.689   6.296   4.194
 6922SOL     OW21664   1.725   6.538   4.759
 6922SOL    HW121665   1.676   6.474   4.700
 6922SOL    HW221666   1.732   6.627   4.712
 6923SOL     OW21667   5.370   5.630   2.810
 6923SOL    HW121668   5.409   5.675   2.890
 6923SOL    HW221669   5.273   5.614   2.824
 6924SOL     OW21670   1.920   4.345   6.783
 6924SOL    HW121671   1.939   4.357   6.880
 6924SOL    HW221672   1.923   4.247   6.760
 6925SOL     OW21673   4.924   6.117   4.378
 6925SOL    HW121674   4.901   6.065   4.460
 6925SOL    HW221675   5.006   6.171   4.395
 6926SOL     OW21676   2.814   2.760   0.866
 6926SOL    HW121677   2.862   2.828   0.921
 6926SOL    HW221678   2.798   2.678   0.921
 6927SOL     OW21679   3.824   3.008   5.837
 6927SOL    HW121680   3.790   2.920   5.807
 6927SOL    HW221681   3.886   3.046   5.768
 6928SOL     OW21682   5.725   5.715   0.806
 6928SOL    HW121683   5.818   5.749   0.798
 6928SOL    HW221684   5.661   5.783   0.770
 6929SOL     OW21685   4.917   5.697   1.463
 6929SOL    HW121686   4.857   5.620   1.483
 6929SOL    HW221687   5.012   5.665   1.457
 6930SOL     OW21688   1.330   0.579   1.612
 6930SOL    HW121689   1.429   0.583   1.627
 6930SOL    HW221690   1.292   0.499   1.659
 6931SOL     OW21691   2.023   1.257   2.476
 6931SOL    HW121692   1.924   1.270   2.472
 6931SOL    HW221693   2.055   1.222   2.388
 6932SOL     OW21694   4.221   6.968   6.782
 6932SOL    HW121695   4.204   0.046   6.783
 6932SOL    HW221696   4.133   6.920   6.784
 6933SOL     OW21697   3.736   6.097   5.370
 6933SOL    HW121698   3.786   6.179   5.342
 6933SOL    HW221699   3.790   6.045   5.436
 6934SOL     OW21700   4.432   3.164   6.239
 6934SOL    HW121701   4.383   3.252   6.243
 6934SOL    HW221702   4.415   3.120   6.151
 6935SOL     OW21703   4.629   5.404   2.893
 6935SOL    HW121704   4.636   5.362   2.983
 6935SOL    HW221705   4.671   5.344   2.825
 6936SOL     OW21706   6.191   2.901   3.569
 6936SOL    HW121707   6.191   2.861   3.661
 6936SOL    HW221708   6.129   2.979   3.567
 6937SOL     OW21709   6.036   6.235   0.595
 6937SOL    HW121710   6.102   6.253   0.668
 6937SOL    HW221711   6.041   6.138   0.570
 6938SOL     OW21712   6.433   2.961   5.175
 6938SOL    HW121713   6.340   2.991   5.151
 6938SOL    HW221714   6.499   3.026   5.137
 6939SOL     OW21715   0.809   5.498   2.105
 6939SOL    HW121716   0.763   5.564   2.046
 6939SOL    HW221717   0.745   5.428   2.134
 6940SOL     OW21718   3.441   0.338   6.073
 6940SOL    HW121719   3.534   0.321   6.106
 6940SOL    HW221720   3.376   0.327   6.148
 6941SOL     OW21721   3.052   4.104   1.797
 6941SOL    HW121722   3.004   4.038   1.739
 6941SOL    HW221723   3.088   4.058   1.878
 6942SOL     OW21724   6.201   6.798   2.242
 6942SOL    HW121725   6.242   6.711   2.213
 6942SOL    HW221726   6.141   6.782   2.320
 6943SOL     OW21727   3.481   5.788   1.040
 6943SOL    HW121728   3.433   5.747   1.118
 6943SOL    HW221729   3.546   5.722   1.002
 6944SOL     OW21730   0.672   4.944   6.618
 6944SOL    HW121731   0.716   4.925   6.706
 6944SOL    HW221732   0.592   4.886   6.608
 6945SOL     OW21733   6.762   1.355   0.418
 6945SOL    HW121734   6.845   1.299   0.414
 6945SOL    HW221735   6.782   1.447   0.385
 6946SOL     OW21736   4.263   6.674   1.076
 6946SOL    HW121737   4.194   6.601   1.068
 6946SOL    HW221738   4.282   6.711   0.985
 6947SOL     OW21739   3.305   5.439   6.917
 6947SOL    HW121740   3.384   5.485   6.957
 6947SOL    HW221741   3.222   5.487   6.943
 6948SOL     OW21742   0.758   6.650   1.200
 6948SOL    HW121743   0.818   6.687   1.129
 6948SOL    HW221744   0.681   6.713   1.214
 6949SOL     OW21745   4.211   0.202   3.545
 6949SOL    HW121746   4.309   0.186   3.541
 6949SOL    HW221747   4.171   0.148   3.619
 6950SOL     OW21748   1.324   1.393   5.053
 6950SOL    HW121749   1.393   1.334   5.094
 6950SOL    HW221750   1.367   1.455   4.987
 6951SOL     OW21751   6.406   5.938   5.880
 6951SOL    HW121752   6.487   5.880   5.877
 6951SOL    HW221753   6.430   6.031   5.851
 6952SOL     OW21754   0.899   5.947   3.333
 6952SOL    HW121755   0.917   5.938   3.236
 6952SOL    HW221756   0.967   6.008   3.374
 6953SOL     OW21757   4.248   6.458   1.965
 6953SOL    HW121758   4.220   6.532   1.904
 6953SOL    HW221759   4.227   6.482   2.059
 6954SOL     OW21760   0.442   4.044   2.105
 6954SOL    HW121761   0.358   4.032   2.052
 6954SOL    HW221762   0.476   4.137   2.092
 6955SOL     OW21763   5.685   0.650   1.949
 6955SOL    HW121764   5.700   0.552   1.935
 6955SOL    HW221765   5.590   0.673   1.928
 6956SOL     OW21766   5.478   5.890   3.461
 6956SOL    HW121767   5.417   5.910   3.538
 6956SOL    HW221768   5.453   5.947   3.383
 6957SOL     OW21769   5.964   5.507   0.947
 6957SOL    HW121770   5.984   5.507   0.849
 6957SOL    HW221771   5.903   5.431   0.970
 6958SOL     OW21772   3.823   3.344   4.974
 6958SOL    HW121773   3.759   3.281   4.930
 6958SOL    HW221774   3.913   3.334   4.932
 6959SOL     OW21775   2.193   3.018   3.551
 6959SOL    HW121776   2.122   3.088   3.538
 6959SOL    HW221777   2.212   3.010   3.649
 6960SOL     OW21778   1.271   3.922   1.403
 6960SOL    HW121779   1.252   3.854   1.332
 6960SOL    HW221780   1.321   3.999   1.363
 6961SOL     OW21781   6.182   0.801   4.525
 6961SOL    HW121782   6.155   0.738   4.598
 6961SOL    HW221783   6.131   0.886   4.533
 6962SOL     OW21784   4.403   6.119   1.733
 6962SOL    HW121785   4.309   6.147   1.718
 6962SOL    HW221786   4.462   6.200   1.736
 6963SOL     OW21787   5.177   5.633   1.415
 6963SOL    HW121788   5.150   5.684   1.334
 6963SOL    HW221789   5.258   5.675   1.456
 6964SOL     OW21790   3.786   1.225   5.433
 6964SOL    HW121791   3.837   1.284   5.369
 6964SOL    HW221792   3.722   1.168   5.381
 6965SOL     OW21793   1.410   1.126   6.953
 6965SOL    HW121794   1.449   1.217   6.938
 6965SOL    HW221795   1.476   1.069   7.002
 6966SOL     OW21796   1.031   1.938   2.281
 6966SOL    HW121797   1.104   2.006   2.275
 6966SOL    HW221798   1.010   1.904   2.189
 6967SOL     OW21799   3.272   1.026   6.088
 6967SOL    HW121800   3.298   0.931   6.105
 6967SOL    HW221801   3.189   1.028   6.032
 6968SOL     OW21802   4.043   0.694   3.440
 6968SOL    HW121803   4.061   0.761   3.512
 6968SOL    HW221804   4.077   0.729   3.353
 6969SOL     OW21805   2.798   2.198   1.810
 6969SOL    HW121806   2.853   2.277   1.837
 6969SOL    HW221807   2.759   2.154   1.891
 6970SOL     OW21808   4.035   3.642   5.983
 6970SOL    HW121809   4.086   3.727   5.972
 6970SOL    HW221810   4.034   3.616   6.079
 6971SOL     OW21811   6.185   4.688   0.737
 6971SOL    HW121812   6.210   4.613   0.799
 6971SOL    HW221813   6.179   4.773   0.790
 6972SOL     OW21814   5.775   4.737   3.208
 6972SOL    HW121815   5.737   4.656   3.254
 6972SOL    HW221816   5.701   4.787   3.163
 6973SOL     OW21817   0.567   3.386   3.157
 6973SOL    HW121818   0.569   3.292   3.125
 6973SOL    HW221819   0.623   3.394   3.240
 6974SOL     OW21820   2.937   3.767   2.513
 6974SOL    HW121821   2.886   3.724   2.438
 6974SOL    HW221822   3.025   3.721   2.524
 6975SOL     OW21823   1.374   6.647   5.681
 6975SOL    HW121824   1.286   6.622   5.722
 6975SOL    HW221825   1.398   6.740   5.709
 6976SOL     OW21826   6.672   5.529   6.126
 6976SOL    HW121827   6.749   5.467   6.144
 6976SOL    HW221828   6.638   5.513   6.033
 6977SOL     OW21829   3.422   2.932   1.129
 6977SOL    HW121830   3.456   3.004   1.190
 6977SOL    HW221831   3.450   2.843   1.165
 6978SOL     OW21832   5.592   2.071   2.137
 6978SOL    HW121833   5.649   2.071   2.219
 6978SOL    HW221834   5.505   2.117   2.156
 6979SOL     OW21835   1.099   4.320   1.140
 6979SOL    HW121836   1.018   4.275   1.175
 6979SOL    HW221837   1.154   4.356   1.216
 6980SOL     OW21838   1.361   0.706   3.274
 6980SOL    HW121839   1.319   0.685   3.185
 6980SOL    HW221840   1.292   0.695   3.346
 6981SOL     OW21841   3.625   3.747   5.782
 6981SOL    HW121842   3.648   3.695   5.700
 6981SOL    HW221843   3.653   3.697   5.864
 6982SOL     OW21844   0.977   1.318   4.424
 6982SOL    HW121845   1.047   1.320   4.496
 6982SOL    HW221846   0.919   1.237   4.436
 6983SOL     OW21847   4.424   2.177   4.038
 6983SOL    HW121848   4.327   2.156   4.052
 6983SOL    HW221849   4.474   2.159   4.122
 6984SOL     OW21850   1.592   1.689   3.279
 6984SOL    HW121851   1.650   1.676   3.199
 6984SOL    HW221852   1.552   1.781   3.277
 6985SOL     OW21853   5.889   4.928   1.385
 6985SOL    HW121854   5.859   4.886   1.299
 6985SOL    HW221855   5.885   5.028   1.375
 6986SOL     OW21856   2.696   6.930   6.261
 6986SOL    HW121857   2.779   6.906   6.312
 6986SOL    HW221858   2.616   6.920   6.320
 6987SOL     OW21859   6.283   0.995   6.001
 6987SOL    HW121860   6.362   1.047   5.968
 6987SOL    HW221861   6.234   0.955   5.923
 6988SOL     OW21862   0.902   6.719   6.696
 6988SOL    HW121863   0.856   6.807   6.687
 6988SOL    HW221864   0.882   6.680   6.786
 6989SOL     OW21865   0.955   4.500   3.096
 6989SOL    HW121866   0.953   4.494   2.997
 6989SOL    HW221867   0.947   4.596   3.124
 6990SOL     OW21868   4.507   2.756   1.197
 6990SOL    HW121869   4.547   2.674   1.155
 6990SOL    HW221870   4.517   2.750   1.297
 6991SOL     OW21871   4.589   4.383   3.811
 6991SOL    HW121872   4.564   4.311   3.875
 6991SOL    HW221873   4.667   4.353   3.756
 6992SOL     OW21874   5.383   0.342   6.350
 6992SOL    HW121875   5.382   0.244   6.373
 6992SOL    HW221876   5.318   0.391   6.408
 6993SOL     OW21877   6.165   6.819   2.697
 6993SOL    HW121878   6.131   6.865   2.615
 6993SOL    HW221879   6.214   6.885   2.754
 6994SOL     OW21880   0.346   2.215   3.826
 6994SOL    HW121881   0.317   2.171   3.741
 6994SOL    HW221882   0.442   2.193   3.844
 6995SOL     OW21883   0.897   4.161   6.493
 6995SOL    HW121884   0.936   4.081   6.539
 6995SOL    HW221885   0.804   4.177   6.526
 6996SOL     OW21886   1.692   0.223   6.787
 6996SOL    HW121887   1.662   0.300   6.844
 6996SOL    HW221888   1.675   0.137   6.836
 6997SOL     OW21889   0.361   5.323   5.730
 6997SOL    HW121890   0.334   5.326   5.826
 6997SOL    HW221891   0.359   5.415   5.692
 6998SOL     OW21892   1.386   1.262   1.536
 6998SOL    HW121893   1.396   1.334   1.605
 6998SOL    HW221894   1.295   1.269   1.493
 6999SOL     OW21895   2.116   2.758   6.432
 6999SOL    HW121896   2.071   2.769   6.521
 6999SOL    HW221897   2.054   2.712   6.369
 7000SOL     OW21898   5.668   6.396   1.914
 7000SOL    HW121899   5.723   6.464   1.961
 7000SOL    HW221900   5.647   6.320   1.976
 7001SOL     OW21901   1.626   3.825   5.678
 7001SOL    HW121902   1.622   3.730   5.648
 7001SOL    HW221903   1.649   3.884   5.601
 7002SOL     OW21904   1.478   5.699   4.397
 7002SOL    HW121905   1.489   5.739   4.487
 7002SOL    HW221906   1.549   5.734   4.336
 7003SOL     OW21907   4.451   5.600   1.047
 7003SOL    HW121908   4.423   5.536   0.975
 7003SOL    HW221909   4.377   5.665   1.063
 7004SOL     OW21910   0.493   5.631   1.436
 7004SOL    HW121911   0.555   5.625   1.358
 7004SOL    HW221912   0.398   5.632   1.403
 7005SOL     OW21913   1.180   0.296   0.800
 7005SOL    HW121914   1.265   0.262   0.761
 7005SOL    HW221915   1.131   0.222   0.846
 7006SOL     OW21916   5.145   5.313   3.974
 7006SOL    HW121917   5.231   5.323   4.024
 7006SOL    HW221918   5.162   5.321   3.876
 7007SOL     OW21919   4.476   0.940   4.354
 7007SOL    HW121920   4.403   0.986   4.303
 7007SOL    HW221921   4.450   0.846   4.373
 7008SOL     OW21922   0.541   4.685   4.209
 7008SOL    HW121923   0.547   4.593   4.172
 7008SOL    HW221924   0.457   4.728   4.177
 7009SOL     OW21925   4.056   6.139   2.597
 7009SOL    HW121926   3.990   6.129   2.522
 7009SOL    HW221927   4.147   6.113   2.564
 7010SOL     OW21928   5.617   4.456   3.599
 7010SOL    HW121929   5.651   4.364   3.615
 7010SOL    HW221930   5.571   4.489   3.681
 7011SOL     OW21931   3.230   6.260   6.599
 7011SOL    HW121932   3.184   6.226   6.517
 7011SOL    HW221933   3.233   6.360   6.597
 7012SOL     OW21934   1.171   2.095   0.999
 7012SOL    HW121935   1.269   2.088   1.020
 7012SOL    HW221936   1.159   2.114   0.902
 7013SOL     OW21937   0.876   6.399   0.113
 7013SOL    HW121938   0.944   6.472   0.104
 7013SOL    HW221939   0.919   6.311   0.094
 7014SOL     OW21940   4.730   3.216   0.696
 7014SOL    HW121941   4.660   3.247   0.760
 7014SOL    HW221942   4.744   3.286   0.625
 7015SOL     OW21943   5.670   4.080   1.650
 7015SOL    HW121944   5.670   4.059   1.552
 7015SOL    HW221945   5.645   4.176   1.663
 7016SOL     OW21946   3.503   5.335   1.369
 7016SOL    HW121947   3.545   5.424   1.385
 7016SOL    HW221948   3.569   5.274   1.326
 7017SOL     OW21949   2.785   5.211   3.469
 7017SOL    HW121950   2.884   5.196   3.462
 7017SOL    HW221951   2.737   5.127   3.441
 7018SOL     OW21952   5.147   3.530   4.089
 7018SOL    HW121953   5.156   3.521   4.188
 7018SOL    HW221954   5.063   3.486   4.058
 7019SOL     OW21955   4.034   5.056   0.516
 7019SOL    HW121956   4.078   4.982   0.465
 7019SOL    HW221957   3.944   5.026   0.547
 7020SOL     OW21958   6.511   4.244   5.743
 7020SOL    HW121959   6.423   4.196   5.749
 7020SOL    HW221960   6.496   4.337   5.711
 7021SOL     OW21961   1.795   2.339   4.873
 7021SOL    HW121962   1.883   2.336   4.826
 7021SOL    HW221963   1.784   2.257   4.928
 7022SOL     OW21964   4.574   0.507   6.762
 7022SOL    HW121965   4.579   0.535   6.666
 7022SOL    HW221966   4.664   0.477   6.793
 7023SOL     OW21967   1.447   2.907   3.059
 7023SOL    HW121968   1.479   2.991   3.016
 7023SOL    HW221969   1.522   2.841   3.064
 7024SOL     OW21970   3.227   3.621   4.358
 7024SOL    HW121971   3.310   3.634   4.303
 7024SOL    HW221972   3.189   3.711   4.381
 7025SOL     OW21973   3.810   0.784   1.012
 7025SOL    HW121974   3.740   0.818   1.074
 7025SOL    HW221975   3.817   0.845   0.932
 7026SOL     OW21976   3.486   2.047   2.086
 7026SOL    HW121977   3.565   2.097   2.120
 7026SOL    HW221978   3.512   1.951   2.070
 7027SOL     OW21979   2.488   5.434   4.216
 7027SOL    HW121980   2.442   5.479   4.140
 7027SOL    HW221981   2.495   5.498   4.293
 7028SOL     OW21982   3.588   1.338   2.733
 7028SOL    HW121983   3.635   1.393   2.664
 7028SOL    HW221984   3.655   1.304   2.799
 7029SOL     OW21985   4.119   4.454   5.295
 7029SOL    HW121986   4.200   4.433   5.241
 7029SOL    HW221987   4.069   4.369   5.315
 7030SOL     OW21988   0.446   0.750   5.264
 7030SOL    HW121989   0.463   0.754   5.362
 7030SOL    HW221990   0.425   0.842   5.230
 7031SOL     OW21991   3.738   5.975   6.783
 7031SOL    HW121992   3.655   6.018   6.820
 7031SOL    HW221993   3.818   6.010   6.832
 7032SOL     OW21994   4.551   1.394   4.058
 7032SOL    HW121995   4.582   1.332   4.130
 7032SOL    HW221996   4.591   1.484   4.071
 7033SOL     OW21997   1.518   2.577   3.383
 7033SOL    HW121998   1.541   2.673   3.366
 7033SOL    HW221999   1.434   2.571   3.438
 7034SOL     OW22000   0.086   1.564   2.780
 7034SOL    HW122001   0.126   1.476   2.752
 7034SOL    HW222002   7.008   1.557   2.778
 7035SOL     OW22003   1.403   0.196   0.691
 7035SOL    HW122004   1.414   0.106   0.649
 7035SOL    HW222005   1.466   0.205   0.768
 7036SOL     OW22006   6.521   1.258   2.021
 7036SOL    HW122007   6.433   1.285   1.981
 7036SOL    HW222008   6.595   1.295   1.966
 7037SOL     OW22009   0.941   1.408   6.533
 7037SOL    HW122010   1.022   1.359   6.502
 7037SOL    HW222011   0.967   1.498   6.567
 7038SOL     OW22012   2.269   4.277   4.948
 7038SOL    HW122013   2.313   4.356   4.990
 7038SOL    HW222014   2.312   4.193   4.983
 7039SOL     OW22015   0.692   5.923   2.647
 7039SOL    HW122016   0.667   6.014   2.680
 7039SOL    HW222017   0.694   5.923   2.547
 7040SOL     OW22018   5.641   2.575   5.523
 7040SOL    HW122019   5.607   2.504   5.585
 7040SOL    HW222020   5.714   2.536   5.466
 7041SOL     OW22021   6.509   1.551   1.881
 7041SOL    HW122022   6.527   1.549   1.980
 7041SOL    HW222023   6.558   1.628   1.840
 7042SOL     OW22024   4.218   5.938   4.720
 7042SOL    HW122025   4.300   5.950   4.664
 7042SOL    HW222026   4.156   5.874   4.675
 7043SOL     OW22027   2.440   4.579   3.460
 7043SOL    HW122028   2.428   4.535   3.371
 7043SOL    HW222029   2.359   4.564   3.515
 7044SOL     OW22030   5.688   5.132   5.245
 7044SOL    HW122031   5.720   5.044   5.211
 7044SOL    HW222032   5.765   5.194   5.256
 7045SOL     OW22033   5.069   5.133   2.600
 7045SOL    HW122034   5.116   5.057   2.644
 7045SOL    HW222035   5.077   5.215   2.657
 7046SOL     OW22036   3.109   1.645   3.439
 7046SOL    HW122037   3.200   1.617   3.471
 7046SOL    HW222038   3.066   1.568   3.392
 7047SOL     OW22039   6.504   0.676   1.935
 7047SOL    HW122040   6.564   0.611   1.982
 7047SOL    HW222041   6.413   0.637   1.926
 7048SOL     OW22042   6.042   6.759   4.222
 7048SOL    HW122043   6.072   6.854   4.223
 7048SOL    HW222044   6.014   6.733   4.129
 7049SOL     OW22045   4.022   1.934   0.840
 7049SOL    HW122046   4.043   2.007   0.904
 7049SOL    HW222047   3.958   1.870   0.882
 7050SOL     OW22048   4.206   3.470   1.242
 7050SOL    HW122049   4.134   3.532   1.273
 7050SOL    HW222050   4.285   3.475   1.303
 7051SOL     OW22051   0.215   6.392   1.146
 7051SOL    HW122052   0.225   6.403   1.047
 7051SOL    HW222053   0.302   6.414   1.190
 7052SOL     OW22054   6.804   1.290   3.469
 7052SOL    HW122055   6.875   1.245   3.416
 7052SOL    HW222056   6.843   1.369   3.518
 7053SOL     OW22057   1.830   3.618   4.455
 7053SOL    HW122058   1.809   3.633   4.359
 7053SOL    HW222059   1.869   3.701   4.494
 7054SOL     OW22060   0.040   6.598   0.896
 7054SOL    HW122061   6.962   6.593   0.884
 7054SOL    HW222062   0.085   6.544   0.825
 7055SOL     OW22063   2.817   0.132   6.898
 7055SOL    HW122064   2.819   0.200   6.971
 7055SOL    HW222065   2.723   0.108   6.877
 7056SOL     OW22066   6.487   5.116   1.527
 7056SOL    HW122067   6.547   5.191   1.556
 7056SOL    HW222068   6.397   5.153   1.502
 7057SOL     OW22069   2.952   5.214   3.817
 7057SOL    HW122070   2.997   5.147   3.876
 7057SOL    HW222071   2.873   5.172   3.772
 7058SOL     OW22072   5.374   2.563   5.873
 7058SOL    HW122073   5.304   2.567   5.945
 7058SOL    HW222074   5.465   2.566   5.915
 7059SOL     OW22075   0.914   1.066   3.903
 7059SOL    HW122076   0.948   0.978   3.869
 7059SOL    HW222077   0.929   1.136   3.834
 7060SOL     OW22078   3.570   0.424   0.875
 7060SOL    HW122079   3.551   0.449   0.781
 7060SOL    HW222080   3.484   0.415   0.926
 7061SOL     OW22081   0.609   3.119   3.693
 7061SOL    HW122082   0.648   3.033   3.727
 7061SOL    HW222083   0.511   3.109   3.681
 7062SOL     OW22084   3.423   2.135   5.068
 7062SOL    HW122085   3.419   2.060   5.134
 7062SOL    HW222086   3.334   2.181   5.065
 7063SOL     OW22087   1.280   6.727   1.690
 7063SOL    HW122088   1.257   6.817   1.726
 7063SOL    HW222089   1.336   6.737   1.608
 7064SOL     OW22090   3.818   2.169   6.946
 7064SOL    HW122091   3.810   2.162   0.024
 7064SOL    HW222092   3.730   2.195   6.907
 7065SOL     OW22093   3.386   3.875   5.543
 7065SOL    HW122094   3.362   3.864   5.446
 7065SOL    HW222095   3.450   3.951   5.553
 7066SOL     OW22096   3.631   0.135   5.944
 7066SOL    HW122097   3.545   0.183   5.960
 7066SOL    HW222098   3.706   0.201   5.935
 7067SOL     OW22099   1.199   3.314   5.541
 7067SOL    HW122100   1.297   3.333   5.533
 7067SOL    HW222101   1.156   3.325   5.451
 7068SOL     OW22102   6.042   4.068   4.969
 7068SOL    HW122103   6.140   4.069   4.989
 7068SOL    HW222104   6.028   4.065   4.870
 7069SOL     OW22105   5.687   1.331   4.904
 7069SOL    HW122106   5.674   1.341   4.805
 7069SOL    HW222107   5.785   1.332   4.925
 7070SOL     OW22108   0.872   6.634   4.391
 7070SOL    HW122109   0.924   6.712   4.426
 7070SOL    HW222110   0.935   6.562   4.363
 7071SOL     OW22111   3.563   6.028   7.013
 7071SOL    HW122112   3.463   6.024   7.003
 7071SOL    HW222113   3.590   5.980   0.076
 7072SOL     OW22114   1.919   5.652   0.150
 7072SOL    HW122115   1.847   5.626   0.086
 7072SOL    HW222116   1.957   5.570   0.193
 7073SOL     OW22117   4.835   6.954   3.469
 7073SOL    HW122118   4.836   6.984   3.564
 7073SOL    HW222119   4.929   6.939   3.438
 7074SOL     OW22120   6.092   3.292   2.129
 7074SOL    HW122121   6.145   3.259   2.207
 7074SOL    HW222122   6.016   3.230   2.111
 7075SOL     OW22123   1.535   4.297   4.632
 7075SOL    HW122124   1.603   4.230   4.604
 7075SOL    HW222125   1.571   4.389   4.621
 7076SOL     OW22126   5.506   3.029   0.335
 7076SOL    HW122127   5.572   2.974   0.283
 7076SOL    HW222128   5.439   3.069   0.272
 7077SOL     OW22129   2.206   4.089   3.672
 7077SOL    HW122130   2.228   4.094   3.575
 7077SOL    HW222131   2.111   4.059   3.684
 7078SOL     OW22132   6.271   6.184   1.265
 7078SOL    HW122133   6.238   6.247   1.195
 7078SOL    HW222134   6.342   6.229   1.319
 7079SOL     OW22135   0.923   6.578   3.729
 7079SOL    HW122136   0.856   6.543   3.663
 7079SOL    HW222137   0.889   6.564   3.822
 7080SOL     OW22138   3.480   1.178   4.431
 7080SOL    HW122139   3.408   1.229   4.477
 7080SOL    HW222140   3.512   1.231   4.352
 7081SOL     OW22141   1.441   5.603   0.485
 7081SOL    HW122142   1.532   5.568   0.466
 7081SOL    HW222143   1.376   5.527   0.488
 7082SOL     OW22144   6.833   4.208   0.299
 7082SOL    HW122145   6.798   4.288   0.347
 7082SOL    HW222146   6.903   4.237   0.233
 7083SOL     OW22147   0.440   1.571   1.745
 7083SOL    HW122148   0.489   1.496   1.789
 7083SOL    HW222149   0.499   1.651   1.739
 7084SOL     OW22150   1.101   5.249   5.635
 7084SOL    HW122151   1.076   5.270   5.729
 7084SOL    HW222152   1.019   5.253   5.577
 7085SOL     OW22153   0.207   1.983   2.360
 7085SOL    HW122154   0.172   2.035   2.282
 7085SOL    HW222155   0.156   1.897   2.367
 7086SOL     OW22156   5.365   1.037   5.885
 7086SOL    HW122157   5.430   0.977   5.839
 7086SOL    HW222158   5.333   1.106   5.821
 7087SOL     OW22159   5.807   4.412   2.658
 7087SOL    HW122160   5.903   4.436   2.651
 7087SOL    HW222161   5.782   4.351   2.583
 7088SOL     OW22162   5.090   2.386   5.276
 7088SOL    HW122163   5.018   2.451   5.300
 7088SOL    HW222164   5.179   2.430   5.287
 7089SOL     OW22165   2.308   2.876   3.829
 7089SOL    HW122166   2.238   2.823   3.781
 7089SOL    HW222167   2.335   2.828   3.912
 7090SOL     OW22168   2.681   1.375   0.265
 7090SOL    HW122169   2.763   1.364   0.209
 7090SOL    HW222170   2.649   1.469   0.260
 7091SOL     OW22171   0.583   1.110   0.929
 7091SOL    HW122172   0.657   1.117   0.862
 7091SOL    HW222173   0.621   1.087   1.018
 7092SOL     OW22174   4.077   2.924   5.623
 7092SOL    HW122175   4.072   3.020   5.650
 7092SOL    HW222176   4.029   2.910   5.537
 7093SOL     OW22177   3.485   4.100   1.872
 7093SOL    HW122178   3.558   4.060   1.926
 7093SOL    HW222179   3.413   4.032   1.857
 7094SOL     OW22180   0.451   6.392   5.753
 7094SOL    HW122181   0.361   6.349   5.753
 7094SOL    HW222182   0.502   6.363   5.671
 7095SOL     OW22183   2.926   4.997   5.943
 7095SOL    HW122184   2.844   4.953   5.980
 7095SOL    HW222185   3.007   4.959   5.989
 7096SOL     OW22186   6.327   6.734   1.689
 7096SOL    HW122187   6.253   6.701   1.748
 7096SOL    HW222188   6.302   6.720   1.594
 7097SOL     OW22189   4.980   0.802   2.256
 7097SOL    HW122190   4.905   0.820   2.321
 7097SOL    HW222191   4.960   0.718   2.205
 7098SOL     OW22192   1.578   5.332   5.723
 7098SOL    HW122193   1.579   5.336   5.823
 7098SOL    HW222194   1.567   5.237   5.694
 7099SOL     OW22195   3.826   1.999   4.567
 7099SOL    HW122196   3.811   1.901   4.556
 7099SOL    HW222197   3.862   2.036   4.482
 7100SOL     OW22198   6.145   3.205   0.442
 7100SOL    HW122199   6.183   3.173   0.529
 7100SOL    HW222200   6.201   3.170   0.367
 7101SOL     OW22201   2.686   1.269   5.005
 7101SOL    HW122202   2.587   1.258   5.000
 7101SOL    HW222203   2.709   1.331   5.081
 7102SOL     OW22204   5.863   6.813   0.270
 7102SOL    HW122205   5.877   6.892   0.328
 7102SOL    HW222206   5.808   6.745   0.318
 7103SOL     OW22207   5.636   5.199   1.841
 7103SOL    HW122208   5.618   5.229   1.935
 7103SOL    HW222209   5.672   5.106   1.842
 7104SOL     OW22210   6.687   3.507   2.917
 7104SOL    HW122211   6.684   3.561   3.001
 7104SOL    HW222212   6.594   3.488   2.886
 7105SOL     OW22213   3.316   3.330   4.806
 7105SOL    HW122214   3.359   3.361   4.891
 7105SOL    HW222215   3.277   3.408   4.758
 7106SOL     OW22216   3.647   3.014   1.691
 7106SOL    HW122217   3.702   3.056   1.763
 7106SOL    HW222218   3.575   3.077   1.663
 7107SOL     OW22219   4.760   0.382   0.571
 7107SOL    HW122220   4.778   0.296   0.618
 7107SOL    HW222221   4.835   0.401   0.507
 7108SOL     OW22222   2.804   5.644   2.715
 7108SOL    HW122223   2.855   5.730   2.711
 7108SOL    HW222224   2.715   5.655   2.670
 7109SOL     OW22225   1.932   0.450   6.784
 7109SOL    HW122226   1.854   0.390   6.803
 7109SOL    HW222227   1.907   0.544   6.805
 7110SOL     OW22228   2.974   5.909   4.029
 7110SOL    HW122229   2.911   5.903   4.106
 7110SOL    HW222230   3.050   5.846   4.043
 7111SOL     OW22231   1.715   2.527   4.236
 7111SOL    HW122232   1.717   2.627   4.232
 7111SOL    HW222233   1.686   2.491   4.147
 7112SOL     OW22234   2.488   5.089   4.666
 7112SOL    HW122235   2.455   5.003   4.705
 7112SOL    HW222236   2.503   5.077   4.567
 7113SOL     OW22237   3.348   4.127   4.744
 7113SOL    HW122238   3.344   4.151   4.647
 7113SOL    HW222239   3.349   4.211   4.798
 7114SOL     OW22240   4.943   5.585   1.147
 7114SOL    HW122241   4.861   5.641   1.158
 7114SOL    HW222242   4.952   5.523   1.225
 7115SOL     OW22243   4.640   2.977   6.868
 7115SOL    HW122244   4.687   2.899   6.907
 7115SOL    HW222245   4.693   3.060   6.885
 7116SOL     OW22246   5.237   4.366   3.320
 7116SOL    HW122247   5.290   4.316   3.388
 7116SOL    HW222248   5.296   4.431   3.272
 7117SOL     OW22249   0.300   0.229   4.678
 7117SOL    HW122250   0.370   0.190   4.738
 7117SOL    HW222251   0.344   0.270   4.598
 7118SOL     OW22252   3.788   4.648   5.979
 7118SOL    HW122253   3.717   4.711   6.010
 7118SOL    HW222254   3.856   4.699   5.924
 7119SOL     OW22255   5.260   1.073   4.942
 7119SOL    HW122256   5.270   1.096   5.039
 7119SOL    HW222257   5.315   0.992   4.922
 7120SOL     OW22258   4.055   1.911   1.164
 7120SOL    HW122259   4.096   1.820   1.158
 7120SOL    HW222260   4.127   1.981   1.165
 7121SOL     OW22261   0.748   6.636   3.109
 7121SOL    HW122262   0.763   6.724   3.155
 7121SOL    HW222263   0.687   6.580   3.165
 7122SOL     OW22264   1.666   0.477   5.850
 7122SOL    HW122265   1.696   0.510   5.761
 7122SOL    HW222266   1.627   0.553   5.902
 7123SOL     OW22267   1.100   4.950   3.936
 7123SOL    HW122268   1.040   4.906   4.003
 7123SOL    HW222269   1.143   5.030   3.977
 7124SOL     OW22270   0.781   2.672   1.802
 7124SOL    HW122271   0.762   2.764   1.837
 7124SOL    HW222272   0.704   2.611   1.825
 7125SOL     OW22273   0.815   1.117   0.774
 7125SOL    HW122274   0.845   1.031   0.733
 7125SOL    HW222275   0.891   1.156   0.827
 7126SOL     OW22276   4.241   5.723   0.637
 7126SOL    HW122277   4.283   5.653   0.580
 7126SOL    HW222278   4.195   5.680   0.715
 7127SOL     OW22279   3.221   5.718   6.883
 7127SOL    HW122280   3.156   5.663   6.935
 7127SOL    HW222281   3.193   5.719   6.787
 7128SOL     OW22282   3.444   4.297   6.686
 7128SOL    HW122283   3.542   4.278   6.676
 7128SOL    HW222284   3.422   4.383   6.641
 7129SOL     OW22285   1.967   1.310   0.946
 7129SOL    HW122286   1.971   1.217   0.908
 7129SOL    HW222287   1.997   1.307   1.042
 7130SOL     OW22288   3.468   6.288   4.100
 7130SOL    HW122289   3.563   6.259   4.100
 7130SOL    HW222290   3.409   6.208   4.111
 7131SOL     OW22291   3.429   1.229   1.649
 7131SOL    HW122292   3.492   1.295   1.691
 7131SOL    HW222293   3.375   1.275   1.579
 7132SOL     OW22294   4.335   4.152   0.498
 7132SOL    HW122295   4.249   4.201   0.514
 7132SOL    HW222296   4.337   4.119   0.404
 7133SOL     OW22297   3.775   4.965   5.023
 7133SOL    HW122298   3.780   4.920   5.112
 7133SOL    HW222299   3.863   5.008   5.002
 7134SOL     OW22300   5.175   0.106   1.944
 7134SOL    HW122301   5.253   0.098   2.005
 7134SOL    HW222302   5.106   0.166   1.985
 7135SOL     OW22303   2.558   2.522   3.343
 7135SOL    HW122304   2.657   2.517   3.355
 7135SOL    HW222305   2.525   2.438   3.300
 7136SOL     OW22306   3.441   1.523   0.630
 7136SOL    HW122307   3.451   1.497   0.727
 7136SOL    HW222308   3.431   1.440   0.575
 7137SOL     OW22309   2.713   2.197   0.226
 7137SOL    HW122310   2.811   2.178   0.225
 7137SOL    HW222311   2.696   2.282   0.276
 7138SOL     OW22312   2.127   1.404   0.723
 7138SOL    HW122313   2.060   1.380   0.794
 7138SOL    HW222314   2.193   1.469   0.760
 7139SOL     OW22315   4.898   4.645   2.549
 7139SOL    HW122316   4.989   4.617   2.582
 7139SOL    HW222317   4.854   4.568   2.504
 7140SOL     OW22318   6.182   4.093   0.582
 7140SOL    HW122319   6.270   4.047   0.593
 7140SOL    HW222320   6.133   4.054   0.504
 7141SOL     OW22321   3.751   6.934   1.186
 7141SOL    HW122322   3.709   0.002   1.205
 7141SOL    HW222323   3.819   6.944   1.113
 7142SOL     OW22324   4.133   6.814   4.328
 7142SOL    HW122325   4.149   6.835   4.424
 7142SOL    HW222326   4.172   6.886   4.271
 7143SOL     OW22327   2.327   3.660   6.961
 7143SOL    HW122328   2.255   3.607   6.916
 7143SOL    HW222329   2.333   3.632   0.036
 7144SOL     OW22330   0.920   1.216   2.702
 7144SOL    HW122331   0.843   1.240   2.643
 7144SOL    HW222332   0.888   1.162   2.780
 7145SOL     OW22333   4.184   0.323   6.491
 7145SOL    HW122334   4.153   0.228   6.486
 7145SOL    HW222335   4.258   0.331   6.559
 7146SOL     OW22336   1.740   0.789   6.206
 7146SOL    HW122337   1.751   0.697   6.245
 7146SOL    HW222338   1.804   0.800   6.130
 7147SOL     OW22339   6.997   6.104   3.469
 7147SOL    HW122340   6.983   6.155   3.554
 7147SOL    HW222341   6.969   6.161   3.391
 7148SOL     OW22342   5.913   6.153   1.852
 7148SOL    HW122343   5.856   6.148   1.770
 7148SOL    HW222344   5.879   6.088   1.920
 7149SOL     OW22345   0.536   5.253   3.717
 7149SOL    HW122346   0.471   5.184   3.749
 7149SOL    HW222347   0.602   5.210   3.656
 7150SOL     OW22348   3.494   3.349   0.194
 7150SOL    HW122349   3.526   3.430   0.146
 7150SOL    HW222350   3.479   3.275   0.129
 7151SOL     OW22351   2.633   0.039   0.866
 7151SOL    HW122352   2.551   7.004   0.878
 7151SOL    HW222353   2.650   0.092   0.950
 7152SOL     OW22354   6.679   0.467   5.812
 7152SOL    HW122355   6.693   0.549   5.757
 7152SOL    HW222356   6.738   0.394   5.778
 7153SOL     OW22357   3.319   5.111   1.763
 7153SOL    HW122358   3.365   5.193   1.796
 7153SOL    HW222359   3.376   5.031   1.782
 7154SOL     OW22360   4.490   6.549   2.907
 7154SOL    HW122361   4.391   6.558   2.925
 7154SOL    HW222362   4.530   6.640   2.898
 7155SOL     OW22363   3.369   3.467   1.750
 7155SOL    HW122364   3.464   3.487   1.726
 7155SOL    HW222365   3.353   3.369   1.744
 7156SOL     OW22366   5.279   3.324   2.394
 7156SOL    HW122367   5.215   3.255   2.360
 7156SOL    HW222368   5.370   3.284   2.403
 7157SOL     OW22369   6.634   5.340   1.844
 7157SOL    HW122370   6.660   5.316   1.938
 7157SOL    HW222371   6.535   5.336   1.835
 7158SOL     OW22372   0.828   6.904   3.164
 7158SOL    HW122373   0.824   6.945   3.255
 7158SOL    HW222374   0.882   6.962   3.103
 7159SOL     OW22375   1.349   4.867   4.262
 7159SOL    HW122376   1.355   4.834   4.356
 7159SOL    HW222377   1.305   4.957   4.260
 7160SOL     OW22378   6.271   6.146   2.730
 7160SOL    HW122379   6.199   6.215   2.740
 7160SOL    HW222380   6.354   6.190   2.696
 7161SOL     OW22381   3.158   3.972   2.694
 7161SOL    HW122382   3.178   3.874   2.695
 7161SOL    HW222383   3.147   4.002   2.600
 7162SOL     OW22384   0.765   5.026   6.068
 7162SOL    HW122385   0.845   5.079   6.098
 7162SOL    HW222386   0.765   5.022   5.968
 7163SOL     OW22387   2.972   0.654   2.149
 7163SOL    HW122388   2.955   0.590   2.074
 7163SOL    HW222389   2.996   0.603   2.231
 7164SOL     OW22390   2.417   0.396   4.791
 7164SOL    HW122391   2.449   0.303   4.809
 7164SOL    HW222392   2.456   0.459   4.858
 7165SOL     OW22393   5.655   6.159   2.082
 7165SOL    HW122394   5.706   6.120   2.006
 7165SOL    HW222395   5.616   6.085   2.138
 7166SOL     OW22396   5.250   1.998   0.125
 7166SOL    HW122397   5.321   2.029   0.062
 7166SOL    HW222398   5.185   1.940   0.077
 7167SOL     OW22399   4.919   3.044   4.922
 7167SOL    HW122400   5.016   3.071   4.925
 7167SOL    HW222401   4.867   3.114   4.873
 7168SOL     OW22402   3.007   2.257   3.356
 7168SOL    HW122403   2.944   2.283   3.282
 7168SOL    HW222404   3.100   2.252   3.320
 7169SOL     OW22405   6.915   4.383   4.935
 7169SOL    HW122406   6.947   4.392   5.029
 7169SOL    HW222407   6.816   4.398   4.932
 7170SOL     OW22408   4.490   6.801   2.594
 7170SOL    HW122409   4.510   6.798   2.692
 7170SOL    HW222410   4.573   6.823   2.543
 7171SOL     OW22411   5.931   3.628   0.590
 7171SOL    HW122412   6.020   3.589   0.612
 7171SOL    HW222413   5.860   3.557   0.598
 7172SOL     OW22414   2.228   0.986   5.381
 7172SOL    HW122415   2.307   0.930   5.409
 7172SOL    HW222416   2.223   1.067   5.438
 7173SOL     OW22417   6.188   4.818   6.182
 7173SOL    HW122418   6.164   4.792   6.089
 7173SOL    HW222419   6.286   4.839   6.187
 7174SOL     OW22420   0.133   4.482   0.747
 7174SOL    HW122421   0.099   4.552   0.810
 7174SOL    HW222422   0.082   4.487   0.661
 7175SOL     OW22423   0.250   3.073   5.417
 7175SOL    HW122424   0.305   3.148   5.454
 7175SOL    HW222425   0.261   2.992   5.474
 7176SOL     OW22426   6.670   1.908   3.974
 7176SOL    HW122427   6.628   1.982   3.922
 7176SOL    HW222428   6.647   1.821   3.932
 7177SOL     OW22429   1.498   4.581   5.680
 7177SOL    HW122430   1.506   4.654   5.748
 7177SOL    HW222431   1.426   4.604   5.614
 7178SOL     OW22432   0.478   1.603   6.382
 7178SOL    HW122433   0.493   1.620   6.285
 7178SOL    HW222434   0.485   1.504   6.399
 7179SOL     OW22435   1.311   3.511   4.680
 7179SOL    HW122436   1.256   3.429   4.663
 7179SOL    HW222437   1.278   3.557   4.761
 7180SOL     OW22438   2.335   4.147   0.265
 7180SOL    HW122439   2.393   4.184   0.192
 7180SOL    HW222440   2.301   4.057   0.238
 7181SOL     OW22441   2.210   0.278   0.272
 7181SOL    HW122442   2.184   0.361   0.321
 7181SOL    HW222443   2.141   0.256   0.203
 7182SOL     OW22444   0.902   3.717   3.749
 7182SOL    HW122445   0.941   3.789   3.693
 7182SOL    HW222446   0.912   3.629   3.702
 7183SOL     OW22447   1.857   5.727   1.973
 7183SOL    HW122448   1.847   5.629   1.989
 7183SOL    HW222449   1.865   5.775   2.060
 7184SOL     OW22450   6.948   0.733   3.520
 7184SOL    HW122451   6.925   0.778   3.606
 7184SOL    HW222452   6.892   0.651   3.509
 7185SOL     OW22453   5.732   1.282   5.494
 7185SOL    HW122454   5.723   1.286   5.594
 7185SOL    HW222455   5.652   1.238   5.455
 7186SOL     OW22456   6.663   1.626   1.462
 7186SOL    HW122457   6.654   1.610   1.561
 7186SOL    HW222458   6.707   1.715   1.447
 7187SOL     OW22459   3.076   4.082   5.439
 7187SOL    HW122460   3.117   4.109   5.526
 7187SOL    HW222461   2.977   4.090   5.445
 7188SOL     OW22462   4.629   5.860   0.143
 7188SOL    HW122463   4.719   5.854   0.101
 7188SOL    HW222464   4.597   5.767   0.164
 7189SOL     OW22465   6.409   2.844   5.849
 7189SOL    HW122466   6.461   2.915   5.896
 7189SOL    HW222467   6.386   2.875   5.757
 7190SOL     OW22468   6.052   6.041   1.394
 7190SOL    HW122469   6.095   5.962   1.436
 7190SOL    HW222470   6.121   6.095   1.346
 7191SOL     OW22471   0.863   4.523   2.807
 7191SOL    HW122472   0.861   4.537   2.708
 7191SOL    HW222473   0.870   4.425   2.827
 7192SOL     OW22474   1.656   4.193   6.627
 7192SOL    HW122475   1.715   4.115   6.608
 7192SOL    HW222476   1.619   4.229   6.541
 7193SOL     OW22477   2.134   2.239   2.428
 7193SOL    HW122478   2.064   2.270   2.363
 7193SOL    HW222479   2.208   2.193   2.377
 7194SOL     OW22480   2.006   2.896   6.665
 7194SOL    HW122481   2.077   2.946   6.714
 7194SOL    HW222482   1.954   2.840   6.731
 7195SOL     OW22483   6.491   4.295   6.811
 7195SOL    HW122484   6.562   4.284   6.881
 7195SOL    HW222485   6.429   4.368   6.838
 7196SOL     OW22486   2.552   3.797   1.666
 7196SOL    HW122487   2.536   3.896   1.666
 7196SOL    HW222488   2.466   3.749   1.654
 7197SOL     OW22489   1.387   3.567   5.827
 7197SOL    HW122490   1.483   3.558   5.800
 7197SOL    HW222491   1.359   3.662   5.818
 7198SOL     OW22492   0.755   1.080   0.251
 7198SOL    HW122493   0.801   1.140   0.316
 7198SOL    HW222494   0.664   1.115   0.231
 7199SOL     OW22495   0.986   0.263   2.928
 7199SOL    HW122496   1.005   0.329   2.856
 7199SOL    HW222497   1.072   0.224   2.962
 7200SOL     OW22498   2.444   2.833   6.778
 7200SOL    HW122499   2.447   2.806   6.875
 7200SOL    HW222500   2.529   2.806   6.733
 7201SOL     OW22501   0.919   5.889   4.107
 7201SOL    HW122502   0.955   5.894   4.014
 7201SOL    HW222503   0.992   5.910   4.172
 7202SOL     OW22504   4.681   6.455   6.509
 7202SOL    HW122505   4.592   6.412   6.493
 7202SOL    HW222506   4.691   6.533   6.448
 7203SOL     OW22507   0.019   1.229   1.546
 7203SOL    HW122508   6.977   1.247   1.471
 7203SOL    HW222509   0.019   1.132   1.568
 7204SOL     OW22510   0.172   1.252   6.455
 7204SOL    HW122511   0.220   1.186   6.397
 7204SOL    HW222512   0.190   1.344   6.422
 7205SOL     OW22513   1.402   4.223   5.290
 7205SOL    HW122514   1.418   4.161   5.213
 7205SOL    HW222515   1.464   4.200   5.365
 7206SOL     OW22516   1.632   1.003   2.074
 7206SOL    HW122517   1.653   1.076   2.009
 7206SOL    HW222518   1.535   0.979   2.067
 7207SOL     OW22519   3.529   0.449   4.327
 7207SOL    HW122520   3.572   0.376   4.274
 7207SOL    HW222521   3.515   0.418   4.421
 7208SOL     OW22522   4.805   0.322   3.446
 7208SOL    HW122523   4.786   0.420   3.445
 7208SOL    HW222524   4.899   0.306   3.414
 7209SOL     OW22525   2.237   2.990   1.620
 7209SOL    HW122526   2.292   2.944   1.690
 7209SOL    HW222527   2.259   3.087   1.620
 7210SOL     OW22528   4.266   1.963   3.654
 7210SOL    HW122529   4.319   2.044   3.631
 7210SOL    HW222530   4.179   1.991   3.694
 7211SOL     OW22531   2.362   6.120   4.952
 7211SOL    HW122532   2.370   6.170   4.866
 7211SOL    HW222533   2.272   6.138   4.992
 7212SOL     OW22534   0.526   6.117   5.492
 7212SOL    HW122535   0.436   6.101   5.532
 7212SOL    HW222536   0.528   6.081   5.399
 7213SOL     OW22537   3.544   6.317   0.025
 7213SOL    HW122538   3.613   6.373   0.072
 7213SOL    HW222539   3.552   6.222   0.054
 7214SOL     OW22540   6.233   0.407   5.554
 7214SOL    HW122541   6.159   0.389   5.618
 7214SOL    HW222542   6.242   0.506   5.541
 7215SOL     OW22543   6.047   3.065   4.209
 7215SOL    HW122544   5.952   3.060   4.178
 7215SOL    HW222545   6.108   3.039   4.134
 7216SOL     OW22546   2.795   0.280   2.266
 7216SOL    HW122547   2.805   0.196   2.319
 7216SOL    HW222548   2.758   0.353   2.325
 7217SOL     OW22549   1.959   3.563   3.349
 7217SOL    HW122550   1.879   3.504   3.336
 7217SOL    HW222551   1.931   3.659   3.341
 7218SOL     OW22552   6.657   2.784   4.193
 7218SOL    HW122553   6.720   2.821   4.262
 7218SOL    HW222554   6.575   2.841   4.188
 7219SOL     OW22555   3.229   0.699   2.512
 7219SOL    HW122556   3.189   0.703   2.604
 7219SOL    HW222557   3.209   0.784   2.463
 7220SOL     OW22558   6.620   4.630   4.147
 7220SOL    HW122559   6.612   4.658   4.243
 7220SOL    HW222560   6.609   4.710   4.088
 7221SOL     OW22561   3.790   6.179   4.689
 7221SOL    HW122562   3.758   6.178   4.595
 7221SOL    HW222563   3.714   6.160   4.751
 7222SOL     OW22564   6.157   6.316   3.655
 7222SOL    HW122565   6.256   6.325   3.664
 7222SOL    HW222566   6.119   6.273   3.736
 7223SOL     OW22567   3.159   1.274   0.641
 7223SOL    HW122568   3.249   1.253   0.602
 7223SOL    HW222569   3.130   1.365   0.610
 7224SOL     OW22570   5.024   2.492   4.327
 7224SOL    HW122571   5.076   2.575   4.346
 7224SOL    HW222572   5.088   2.420   4.296
 7225SOL     OW22573   1.560   6.216   0.476
 7225SOL    HW122574   1.465   6.190   0.496
 7225SOL    HW222575   1.612   6.218   0.562
 7226SOL     OW22576   5.797   6.749   0.914
 7226SOL    HW122577   5.876   6.805   0.939
 7226SOL    HW222578   5.734   6.802   0.858
 7227SOL     OW22579   2.456   1.968   1.347
 7227SOL    HW122580   2.519   2.045   1.354
 7227SOL    HW222581   2.487   1.894   1.408
 7228SOL     OW22582   1.378   1.193   2.456
 7228SOL    HW122583   1.367   1.258   2.531
 7228SOL    HW222584   1.475   1.186   2.432
 7229SOL     OW22585   1.152   6.653   5.492
 7229SOL    HW122586   1.156   6.560   5.528
 7229SOL    HW222587   1.238   6.699   5.511
 7230SOL     OW22588   3.254   5.813   3.945
 7230SOL    HW122589   3.310   5.859   3.875
 7230SOL    HW222590   3.265   5.714   3.937
 7231SOL     OW22591   4.023   0.581   6.524
 7231SOL    HW122592   4.062   0.489   6.529
 7231SOL    HW222593   3.952   0.591   6.594
 7232SOL     OW22594   4.649   5.665   2.899
 7232SOL    HW122595   4.668   5.567   2.906
 7232SOL    HW222596   4.551   5.680   2.912
 7233SOL     OW22597   1.363   1.445   4.102
 7233SOL    HW122598   1.415   1.386   4.165
 7233SOL    HW222599   1.421   1.468   4.024
 7234SOL     OW22600   5.965   3.200   2.798
 7234SOL    HW122601   6.036   3.129   2.805
 7234SOL    HW222602   6.009   3.290   2.802
 7235SOL     OW22603   6.967   4.373   2.143
 7235SOL    HW122604   6.874   4.397   2.115
 7235SOL    HW222605   6.973   4.373   2.243
 7236SOL     OW22606   2.712   2.128   2.610
 7236SOL    HW122607   2.694   2.030   2.602
 7236SOL    HW222608   2.627   2.178   2.594
 7237SOL     OW22609   3.926   0.403   5.293
 7237SOL    HW122610   3.844   0.432   5.343
 7237SOL    HW222611   3.900   0.336   5.223
 7238SOL     OW22612   4.307   2.140   6.167
 7238SOL    HW122613   4.353   2.205   6.106
 7238SOL    HW222614   4.368   2.115   6.241
 7239SOL     OW22615   0.978   2.200   1.445
 7239SOL    HW122616   0.989   2.103   1.422
 7239SOL    HW222617   0.910   2.241   1.384
 7240SOL     OW22618   6.916   1.319   5.613
 7240SOL    HW122619   6.905   1.250   5.684
 7240SOL    HW222620   6.976   1.392   5.647
 7241SOL     OW22621   2.604   0.435   1.250
 7241SOL    HW122622   2.513   0.401   1.226
 7241SOL    HW222623   2.619   0.420   1.348
 7242SOL     OW22624   6.083   5.854   6.961
 7242SOL    HW122625   6.102   5.918   6.886
 7242SOL    HW222626   6.081   5.761   6.926
 7243SOL     OW22627   6.652   4.627   6.365
 7243SOL    HW122628   6.624   4.542   6.320
 7243SOL    HW222629   6.700   4.606   6.450
 7244SOL     OW22630   0.099   0.680   1.503
 7244SOL    HW122631   0.097   0.655   1.406
 7244SOL    HW222632   0.024   0.744   1.521
 7245SOL     OW22633   1.286   3.418   5.116
 7245SOL    HW122634   1.368   3.391   5.065
 7245SOL    HW222635   1.274   3.517   5.108
 7246SOL     OW22636   1.370   0.312   3.503
 7246SOL    HW122637   1.419   0.397   3.484
 7246SOL    HW222638   1.353   0.305   3.601
 7247SOL     OW22639   2.424   1.558   4.876
 7247SOL    HW122640   2.517   1.568   4.840
 7247SOL    HW222641   2.374   1.492   4.819
 7248SOL     OW22642   3.358   1.333   2.523
 7248SOL    HW122643   3.445   1.325   2.571
 7248SOL    HW222644   3.308   1.412   2.558
 7249SOL     OW22645   5.041   4.904   2.359
 7249SOL    HW122646   5.123   4.939   2.404
 7249SOL    HW222647   4.968   4.893   2.426
 7250SOL     OW22648   5.410   6.117   5.648
 7250SOL    HW122649   5.462   6.119   5.734
 7250SOL    HW222650   5.405   6.210   5.611
 7251SOL     OW22651   0.456   6.676   5.834
 7251SOL    HW122652   0.529   6.700   5.770
 7251SOL    HW222653   0.437   6.578   5.828
 7252SOL     OW22654   3.552   3.399   2.261
 7252SOL    HW122655   3.608   3.321   2.289
 7252SOL    HW222656   3.486   3.421   2.332
 7253SOL     OW22657   1.986   5.958   6.905
 7253SOL    HW122658   2.074   5.973   6.860
 7253SOL    HW222659   1.932   6.043   6.903
 7254SOL     OW22660   5.267   5.154   4.647
 7254SOL    HW122661   5.321   5.132   4.728
 7254SOL    HW222662   5.285   5.088   4.575
 7255SOL     OW22663   3.930   3.629   0.232
 7255SOL    HW122664   3.927   3.538   0.273
 7255SOL    HW222665   3.848   3.679   0.256
 7256SOL     OW22666   3.130   5.788   4.936
 7256SOL    HW122667   3.174   5.745   4.857
 7256SOL    HW222668   3.129   5.887   4.924
 7257SOL     OW22669   6.665   1.868   3.625
 7257SOL    HW122670   6.655   1.834   3.531
 7257SOL    HW222671   6.650   1.793   3.689
 7258SOL     OW22672   4.950   2.205   2.671
 7258SOL    HW122673   4.927   2.179   2.765
 7258SOL    HW222674   4.986   2.298   2.670
 7259SOL     OW22675   1.901   3.601   1.683
 7259SOL    HW122676   1.913   3.696   1.655
 7259SOL    HW222677   1.803   3.582   1.693
 7260SOL     OW22678   5.431   1.617   1.471
 7260SOL    HW122679   5.519   1.661   1.449
 7260SOL    HW222680   5.448   1.528   1.512
 7261SOL     OW22681   1.473   4.162   1.724
 7261SOL    HW122682   1.500   4.200   1.812
 7261SOL    HW222683   1.401   4.095   1.736
 7262SOL     OW22684   5.362   2.777   6.389
 7262SOL    HW122685   5.423   2.746   6.317
 7262SOL    HW222686   5.415   2.799   6.471
 7263SOL     OW22687   0.467   6.520   7.010
 7263SOL    HW122688   0.409   6.597   6.982
 7263SOL    HW222689   0.409   6.445   0.020
 7264SOL     OW22690   4.996   1.784   6.775
 7264SOL    HW122691   5.000   1.878   6.740
 7264SOL    HW222692   5.017   1.783   6.872
 7265SOL     OW22693   5.253   5.033   6.379
 7265SOL    HW122694   5.268   4.946   6.425
 7265SOL    HW222695   5.173   5.078   6.419
 7266SOL     OW22696   5.526   0.220   2.637
 7266SOL    HW122697   5.440   0.170   2.645
 7266SOL    HW222698   5.553   0.253   2.728
 7267SOL     OW22699   6.048   6.277   5.063
 7267SOL    HW122700   6.040   6.366   5.109
 7267SOL    HW222701   6.120   6.282   4.994
 7268SOL     OW22702   7.019   5.717   3.981
 7268SOL    HW122703   6.970   5.768   4.052
 7268SOL    HW222704   6.985   5.744   3.891
 7269SOL     OW22705   1.197   5.848   6.004
 7269SOL    HW122706   1.142   5.906   5.943
 7269SOL    HW222707   1.293   5.873   5.996
 7270SOL     OW22708   0.848   2.956   4.892
 7270SOL    HW122709   0.914   2.883   4.874
 7270SOL    HW222710   0.755   2.920   4.887
 7271SOL     OW22711   1.334   5.129   4.585
 7271SOL    HW122712   1.400   5.194   4.548
 7271SOL    HW222713   1.381   5.066   4.648
 7272SOL     OW22714   6.058   5.354   2.908
 7272SOL    HW122715   6.051   5.338   3.007
 7272SOL    HW222716   6.144   5.315   2.875
 7273SOL     OW22717   6.167   4.001   1.372
 7273SOL    HW122718   6.229   3.923   1.366
 7273SOL    HW222719   6.178   4.045   1.461
 7274SOL     OW22720   0.746   5.436   5.949
 7274SOL    HW122721   0.743   5.426   6.049
 7274SOL    HW222722   0.742   5.533   5.926
 7275SOL     OW22723   0.639   5.696   2.806
 7275SOL    HW122724   0.544   5.688   2.836
 7275SOL    HW222725   0.655   5.787   2.769
 7276SOL     OW22726   5.092   0.630   3.091
 7276SOL    HW122727   5.166   0.680   3.045
 7276SOL    HW222728   5.089   0.537   3.056
 7277SOL     OW22729   5.358   0.956   4.209
 7277SOL    HW122730   5.285   0.978   4.274
 7277SOL    HW222731   5.383   0.860   4.218
 7278SOL     OW22732   3.844   2.479   1.367
 7278SOL    HW122733   3.869   2.575   1.378
 7278SOL    HW222734   3.882   2.444   1.281
 7279SOL     OW22735   4.081   4.799   5.690
 7279SOL    HW122736   4.036   4.848   5.616
 7279SOL    HW222737   4.138   4.726   5.652
 7280SOL     OW22738   0.118   1.875   3.992
 7280SOL    HW122739   0.073   1.901   3.907
 7280SOL    HW222740   0.149   1.780   3.985
 7281SOL     OW22741   2.838   1.400   6.870
 7281SOL    HW122742   2.851   1.346   6.953
 7281SOL    HW222743   2.805   1.491   6.895
 7282SOL     OW22744   6.394   4.950   2.971
 7282SOL    HW122745   6.336   5.014   3.021
 7282SOL    HW222746   6.345   4.865   2.956
 7283SOL     OW22747   4.575   0.930   2.602
 7283SOL    HW122748   4.659   0.938   2.655
 7283SOL    HW222749   4.501   0.899   2.661
 7284SOL     OW22750   0.457   2.559   6.044
 7284SOL    HW122751   0.524   2.486   6.034
 7284SOL    HW222752   0.449   2.584   6.140
 7285SOL     OW22753   5.389   2.954   2.396
 7285SOL    HW122754   5.310   2.917   2.444
 7285SOL    HW222755   5.413   2.893   2.320
 7286SOL     OW22756   2.560   1.307   0.505
 7286SOL    HW122757   2.577   1.292   0.407
 7286SOL    HW222758   2.542   1.404   0.521
 7287SOL     OW22759   0.471   2.231   5.823
 7287SOL    HW122760   0.471   2.143   5.774
 7287SOL    HW222761   0.407   2.293   5.778
 7288SOL     OW22762   2.211   0.883   0.593
 7288SOL    HW122763   2.309   0.903   0.593
 7288SOL    HW222764   2.192   0.808   0.656
 7289SOL     OW22765   4.961   2.216   4.514
 7289SOL    HW122766   4.866   2.226   4.542
 7289SOL    HW222767   5.020   2.223   4.595
 7290SOL     OW22768   3.531   0.849   5.074
 7290SOL    HW122769   3.464   0.814   5.009
 7290SOL    HW222770   3.614   0.793   5.071
 7291SOL     OW22771   2.079   6.555   0.795
 7291SOL    HW122772   2.019   6.631   0.770
 7291SOL    HW222773   2.023   6.477   0.823
 7292SOL     OW22774   3.709   0.880   3.960
 7292SOL    HW122775   3.631   0.819   3.948
 7292SOL    HW222776   3.690   0.967   3.915
 7293SOL     OW22777   1.390   1.735   4.747
 7293SOL    HW122778   1.436   1.795   4.813
 7293SOL    HW222779   1.291   1.744   4.757
 7294SOL     OW22780   2.716   5.104   6.784
 7294SOL    HW122781   2.665   5.136   6.864
 7294SOL    HW222782   2.781   5.174   6.755
 7295SOL     OW22783   6.185   2.703   1.260
 7295SOL    HW122784   6.104   2.654   1.290
 7295SOL    HW222785   6.234   2.649   1.192
 7296SOL     OW22786   3.251   5.906   2.090
 7296SOL    HW122787   3.349   5.909   2.108
 7296SOL    HW222788   3.207   5.987   2.128
 7297SOL     OW22789   4.102   0.150   1.656
 7297SOL    HW122790   4.154   0.158   1.570
 7297SOL    HW222791   4.041   0.071   1.650
 7298SOL     OW22792   5.468   5.179   5.914
 7298SOL    HW122793   5.395   5.129   5.868
 7298SOL    HW222794   5.454   5.177   6.013
 7299SOL     OW22795   1.119   2.210   0.739
 7299SOL    HW122796   1.111   2.307   0.759
 7299SOL    HW222797   1.051   2.184   0.671
 7300SOL     OW22798   0.814   6.282   3.542
 7300SOL    HW122799   0.747   6.352   3.567
 7300SOL    HW222800   0.865   6.254   3.623
 7301SOL     OW22801   5.569   1.709   4.583
 7301SOL    HW122802   5.638   1.708   4.512
 7301SOL    HW222803   5.522   1.797   4.583
 7302SOL     OW22804   0.811   2.414   5.249
 7302SOL    HW122805   0.816   2.451   5.157
 7302SOL    HW222806   0.722   2.434   5.289
 7303SOL     OW22807   3.782   0.323   0.271
 7303SOL    HW122808   3.733   0.306   0.356
 7303SOL    HW222809   3.741   0.401   0.224
 7304SOL     OW22810   3.255   5.739   1.664
 7304SOL    HW122811   3.222   5.700   1.750
 7304SOL    HW222812   3.292   5.830   1.680
 7305SOL     OW22813   4.378   0.859   0.708
 7305SOL    HW122814   4.371   0.839   0.805
 7305SOL    HW222815   4.370   0.775   0.655
 7306SOL     OW22816   5.157   1.315   0.773
 7306SOL    HW122817   5.136   1.307   0.871
 7306SOL    HW222818   5.134   1.407   0.742
 7307SOL     OW22819   2.667   6.411   2.358
 7307SOL    HW122820   2.670   6.333   2.420
 7307SOL    HW222821   2.672   6.496   2.411
 7308SOL     OW22822   6.959   2.920   5.843
 7308SOL    HW122823   6.888   2.976   5.801
 7308SOL    HW222824   7.015   2.977   5.904
 7309SOL     OW22825   4.123   5.393   1.591
 7309SOL    HW122826   4.126   5.295   1.571
 7309SOL    HW222827   4.031   5.419   1.618
 7310SOL     OW22828   2.553   3.817   1.181
 7310SOL    HW122829   2.503   3.814   1.268
 7310SOL    HW222830   2.562   3.725   1.145
 7311SOL     OW22831   2.265   1.671   1.341
 7311SOL    HW122832   2.190   1.640   1.400
 7311SOL    HW222833   2.238   1.755   1.294
 7312SOL     OW22834   0.800   3.746   4.973
 7312SOL    HW122835   0.779   3.779   4.881
 7312SOL    HW222836   0.741   3.668   4.994
 7313SOL     OW22837   2.402   1.035   0.278
 7313SOL    HW122838   2.318   1.083   0.303
 7313SOL    HW222839   2.440   1.076   0.195
 7314SOL     OW22840   0.036   5.456   5.790
 7314SOL    HW122841   0.014   5.553   5.784
 7314SOL    HW222842   0.071   5.424   5.702
 7315SOL     OW22843   6.011   0.106   2.031
 7315SOL    HW122844   5.948   0.041   2.072
 7315SOL    HW222845   5.978   0.131   1.940
 7316SOL     OW22846   2.982   3.909   6.949
 7316SOL    HW122847   3.033   3.955   6.877
 7316SOL    HW222848   2.926   3.836   6.909
 7317SOL     OW22849   5.327   1.058   2.857
 7317SOL    HW122850   5.385   1.005   2.795
 7317SOL    HW222851   5.289   1.136   2.808
 7318SOL     OW22852   1.791   0.544   1.824
 7318SOL    HW122853   1.753   0.516   1.912
 7318SOL    HW222854   1.806   0.643   1.825
 7319SOL     OW22855   0.327   3.370   6.309
 7319SOL    HW122856   0.294   3.275   6.312
 7319SOL    HW222857   0.379   3.390   6.392
 7320SOL     OW22858   0.203   3.625   2.889
 7320SOL    HW122859   0.130   3.693   2.906
 7320SOL    HW222860   0.283   3.672   2.852
 7321SOL     OW22861   1.862   0.366   6.086
 7321SOL    HW122862   1.820   0.326   6.005
 7321SOL    HW222863   1.928   0.437   6.059
 7322SOL     OW22864   6.703   2.796   3.286
 7322SOL    HW122865   6.674   2.722   3.226
 7322SOL    HW222866   6.792   2.830   3.256
 7323SOL     OW22867   1.381   2.568   2.089
 7323SOL    HW122868   1.330   2.595   2.170
 7323SOL    HW222869   1.383   2.644   2.024
 7324SOL     OW22870   4.508   5.848   2.214
 7324SOL    HW122871   4.417   5.860   2.175
 7324SOL    HW222872   4.572   5.908   2.166
 7325SOL     OW22873   3.140   0.099   0.093
 7325SOL    HW122874   3.092   0.058   0.171
 7325SOL    HW222875   3.213   0.158   0.127
 7326SOL     OW22876   2.556   6.076   6.387
 7326SOL    HW122877   2.505   6.086   6.472
 7326SOL    HW222878   2.502   6.111   6.311
 7327SOL     OW22879   6.211   1.639   6.100
 7327SOL    HW122880   6.130   1.634   6.158
 7327SOL    HW222881   6.287   1.590   6.145
 7328SOL     OW22882   3.228   0.843   5.813
 7328SOL    HW122883   3.314   0.802   5.784
 7328SOL    HW222884   3.152   0.797   5.766
 7329SOL     OW22885   6.542   4.123   1.584
 7329SOL    HW122886   6.569   4.166   1.498
 7329SOL    HW222887   6.501   4.192   1.644
 7330SOL     OW22888   2.530   2.264   6.790
 7330SOL    HW122889   2.510   2.312   6.704
 7330SOL    HW222890   2.624   2.230   6.787
 7331SOL     OW22891   5.281   6.583   1.499
 7331SOL    HW122892   5.183   6.606   1.495
 7331SOL    HW222893   5.313   6.589   1.593
 7332SOL     OW22894   2.652   5.948   0.271
 7332SOL    HW122895   2.610   6.035   0.246
 7332SOL    HW222896   2.585   5.874   0.260
 7333SOL     OW22897   0.102   2.819   2.132
 7333SOL    HW122898   0.131   2.763   2.209
 7333SOL    HW222899   0.118   2.770   2.047
 7334SOL     OW22900   2.825   5.564   6.713
 7334SOL    HW122901   2.888   5.620   6.767
 7334SOL    HW222902   2.847   5.467   6.727
 7335SOL     OW22903   2.218   2.395   3.275
 7335SOL    HW122904   2.275   2.421   3.354
 7335SOL    HW222905   2.199   2.477   3.221
 7336SOL     OW22906   1.833   6.493   2.887
 7336SOL    HW122907   1.804   6.456   2.799
 7336SOL    HW222908   1.835   6.420   2.955
 7337SOL     OW22909   0.629   3.184   1.201
 7337SOL    HW122910   0.686   3.106   1.228
 7337SOL    HW222911   0.644   3.260   1.265
 7338SOL     OW22912   5.840   1.791   1.622
 7338SOL    HW122913   5.798   1.876   1.654
 7338SOL    HW222914   5.892   1.750   1.696
 7339SOL     OW22915   5.882   6.917   3.943
 7339SOL    HW122916   5.959   6.981   3.953
 7339SOL    HW222917   5.838   6.932   3.854
 7340SOL     OW22918   3.117   1.553   0.550
 7340SOL    HW122919   3.027   1.525   0.516
 7340SOL    HW222920   3.153   1.627   0.492
 7341SOL     OW22921   1.119   3.915   6.228
 7341SOL    HW122922   1.204   3.894   6.275
 7341SOL    HW222923   1.042   3.885   6.284
 7342SOL     OW22924   0.496   1.909   0.558
 7342SOL    HW122925   0.474   1.843   0.487
 7342SOL    HW222926   0.417   1.970   0.573
 7343SOL     OW22927   6.293   3.476   1.358
 7343SOL    HW122928   6.208   3.526   1.346
 7343SOL    HW222929   6.295   3.398   1.295
 7344SOL     OW22930   1.341   0.923   6.416
 7344SOL    HW122931   1.248   0.887   6.408
 7344SOL    HW222932   1.366   0.931   6.512
 7345SOL     OW22933   4.103   4.708   5.276
 7345SOL    HW122934   4.017   4.756   5.294
 7345SOL    HW222935   4.089   4.610   5.290
 7346SOL     OW22936   3.754   4.867   2.154
 7346SOL    HW122937   3.746   4.846   2.252
 7346SOL    HW222938   3.725   4.787   2.101
 7347SOL     OW22939   0.920   2.129   0.526
 7347SOL    HW122940   0.919   2.087   0.436
 7347SOL    HW222941   0.842   2.095   0.580
 7348SOL     OW22942   1.699   3.645   4.206
 7348SOL    HW122943   1.739   3.608   4.122
 7348SOL    HW222944   1.650   3.572   4.254
 7349SOL     OW22945   5.037   1.633   1.266
 7349SOL    HW122946   5.101   1.561   1.237
 7349SOL    HW222947   4.946   1.613   1.230
 7350SOL     OW22948   2.496   2.695   5.578
 7350SOL    HW122949   2.551   2.614   5.593
 7350SOL    HW222950   2.493   2.716   5.480
 7351SOL     OW22951   5.315   5.625   4.775
 7351SOL    HW122952   5.233   5.590   4.820
 7351SOL    HW222953   5.347   5.560   4.707
 7352SOL     OW22954   1.887   1.420   3.114
 7352SOL    HW122955   1.923   1.383   3.029
 7352SOL    HW222956   1.959   1.470   3.163
 7353SOL     OW22957   0.828   6.750   6.148
 7353SOL    HW122958   0.838   6.831   6.206
 7353SOL    HW222959   0.782   6.677   6.199
 7354SOL     OW22960   0.752   2.385   4.691
 7354SOL    HW122961   0.804   2.382   4.606
 7354SOL    HW222962   0.694   2.304   4.699
 7355SOL     OW22963   1.544   0.432   0.913
 7355SOL    HW122964   1.495   0.489   0.847
 7355SOL    HW222965   1.535   0.471   1.004
 7356SOL     OW22966   3.996   3.793   6.324
 7356SOL    HW122967   4.092   3.805   6.348
 7356SOL    HW222968   3.965   3.870   6.269
 7357SOL     OW22969   3.134   0.079   1.976
 7357SOL    HW122970   3.081   0.015   1.919
 7357SOL    HW222971   3.099   0.172   1.962
 7358SOL     OW22972   6.288   3.448   2.524
 7358SOL    HW122973   6.269   3.367   2.469
 7358SOL    HW222974   6.353   3.507   2.475
 7359SOL     OW22975   3.925   2.249   5.613
 7359SOL    HW122976   3.953   2.307   5.536
 7359SOL    HW222977   3.912   2.306   5.695
 7360SOL     OW22978   2.940   3.323   5.708
 7360SOL    HW122979   2.861   3.263   5.698
 7360SOL    HW222980   2.990   3.327   5.622
 7361SOL     OW22981   4.570   0.536   1.990
 7361SOL    HW122982   4.641   0.559   1.923
 7361SOL    HW222983   4.606   0.467   2.053
 7362SOL     OW22984   1.482   5.177   5.986
 7362SOL    HW122985   1.516   5.265   6.020
 7362SOL    HW222986   1.469   5.114   6.062
 7363SOL     OW22987   4.787   1.656   1.542
 7363SOL    HW122988   4.767   1.650   1.640
 7363SOL    HW222989   4.760   1.571   1.497
 7364SOL     OW22990   4.802   0.668   1.447
 7364SOL    HW122991   4.738   0.661   1.370
 7364SOL    HW222992   4.794   0.758   1.490
 7365SOL     OW22993   0.354   5.842   1.912
 7365SOL    HW122994   0.389   5.786   1.987
 7365SOL    HW222995   0.414   5.921   1.900
 7366SOL     OW22996   2.264   6.011   6.824
 7366SOL    HW122997   2.322   5.930   6.839
 7366SOL    HW222998   2.303   6.089   6.873
 7367SOL     OW22999   5.421   2.314   1.319
 7367SOL    HW123000   5.463   2.329   1.408
 7367SOL    HW223001   5.457   2.230   1.279
 7368SOL     OW23002   3.703   2.913   2.835
 7368SOL    HW123003   3.788   2.917   2.887
 7368SOL    HW223004   3.637   2.978   2.873
 7369SOL     OW23005   3.492   2.168   0.668
 7369SOL    HW123006   3.544   2.202   0.590
 7369SOL    HW223007   3.441   2.244   0.709
 7370SOL     OW23008   2.678   0.969   4.630
 7370SOL    HW123009   2.671   1.067   4.612
 7370SOL    HW223010   2.683   0.954   4.729
 7371SOL     OW23011   2.637   6.638   3.575
 7371SOL    HW123012   2.594   6.647   3.485
 7371SOL    HW223013   2.629   6.725   3.625
 7372SOL     OW23014   4.873   1.000   4.250
 7372SOL    HW123015   4.837   0.981   4.341
 7372SOL    HW223016   4.834   0.935   4.184
 7373SOL     OW23017   5.958   1.997   3.716
 7373SOL    HW123018   5.868   2.041   3.723
 7373SOL    HW223019   5.951   1.916   3.658
 7374SOL     OW23020   2.902   1.847   5.144
 7374SOL    HW123021   2.899   1.944   5.123
 7374SOL    HW223022   2.942   1.797   5.067
 7375SOL     OW23023   2.544   2.544   2.810
 7375SOL    HW123024   2.591   2.587   2.732
 7375SOL    HW223025   2.455   2.511   2.780
 7376SOL     OW23026   1.789   2.253   0.334
 7376SOL    HW123027   1.842   2.286   0.256
 7376SOL    HW223028   1.841   2.270   0.418
 7377SOL     OW23029   5.634   4.622   0.756
 7377SOL    HW123030   5.646   4.617   0.657
 7377SOL    HW223031   5.716   4.588   0.801
 7378SOL     OW23032   0.092   0.878   5.687
 7378SOL    HW123033   0.105   0.794   5.740
 7378SOL    HW223034   0.088   0.856   5.590
 7379SOL     OW23035   3.145   2.126   2.580
 7379SOL    HW123036   3.132   2.166   2.490
 7379SOL    HW223037   3.154   2.027   2.571
 7380SOL     OW23038   0.001   4.367   3.669
 7380SOL    HW123039   6.999   4.281   3.715
 7380SOL    HW223040   0.099   4.368   3.648
 7381SOL     OW23041   4.255   3.035   0.642
 7381SOL    HW123042   4.315   2.955   0.651
 7381SOL    HW223043   4.202   3.047   0.726
 7382SOL     OW23044   0.669   0.284   5.033
 7382SOL    HW123045   0.680   0.271   4.934
 7382SOL    HW223046   0.576   0.257   5.059
 7383SOL     OW23047   2.648   6.514   1.004
 7383SOL    HW123048   2.667   6.583   0.934
 7383SOL    HW223049   2.557   6.531   1.043
 7384SOL     OW23050   6.083   6.347   2.742
 7384SOL    HW123051   6.126   6.435   2.719
 7384SOL    HW223052   6.039   6.310   2.661
 7385SOL     OW23053   3.294   5.869   2.660
 7385SOL    HW123054   3.343   5.872   2.748
 7385SOL    HW223055   3.196   5.861   2.677
 7386SOL     OW23056   0.208   2.829   0.064
 7386SOL    HW123057   0.187   2.927   0.065
 7386SOL    HW223058   0.137   2.779   0.114
 7387SOL     OW23059   5.953   6.023   5.799
 7387SOL    HW123060   5.946   6.119   5.773
 7387SOL    HW223061   5.910   6.010   5.889
 7388SOL     OW23062   1.236   5.523   2.014
 7388SOL    HW123063   1.319   5.491   1.969
 7388SOL    HW223064   1.232   5.623   2.010
 7389SOL     OW23065   5.711   4.207   5.837
 7389SOL    HW123066   5.779   4.145   5.798
 7389SOL    HW223067   5.707   4.290   5.781
 7390SOL     OW23068   1.869   2.758   1.360
 7390SOL    HW123069   1.834   2.768   1.453
 7390SOL    HW223070   1.793   2.765   1.295
 7391SOL     OW23071   4.118   3.428   3.588
 7391SOL    HW123072   4.087   3.353   3.646
 7391SOL    HW223073   4.183   3.484   3.639
 7392SOL     OW23074   2.999   5.879   6.785
 7392SOL    HW123075   3.076   5.816   6.796
 7392SOL    HW223076   3.032   5.973   6.784
 7393SOL     OW23077   6.224   4.735   2.295
 7393SOL    HW123078   6.198   4.827   2.324
 7393SOL    HW223079   6.188   4.669   2.361
 7394SOL     OW23080   2.011   2.809   5.489
 7394SOL    HW123081   1.927   2.760   5.513
 7394SOL    HW223082   2.044   2.860   5.568
 7395SOL     OW23083   1.775   3.506   1.358
 7395SOL    HW123084   1.758   3.407   1.360
 7395SOL    HW223085   1.843   3.529   1.428
 7396SOL     OW23086   1.840   6.475   1.322
 7396SOL    HW123087   1.819   6.496   1.227
 7396SOL    HW223088   1.926   6.424   1.327
 7397SOL     OW23089   4.522   5.766   4.596
 7397SOL    HW123090   4.510   5.730   4.689
 7397SOL    HW223091   4.603   5.724   4.555
 7398SOL     OW23092   1.332   4.474   3.695
 7398SOL    HW123093   1.330   4.516   3.785
 7398SOL    HW223094   1.321   4.375   3.703
 7399SOL     OW23095   0.647   2.749   4.455
 7399SOL    HW123096   0.599   2.836   4.464
 7399SOL    HW223097   0.585   2.680   4.418
 7400SOL     OW23098   4.429   2.996   5.995
 7400SOL    HW123099   4.406   3.061   5.922
 7400SOL    HW223100   4.348   2.943   6.020
 7401SOL     OW23101   1.327   2.652   3.561
 7401SOL    HW123102   1.371   2.740   3.581
 7401SOL    HW223103   1.228   2.662   3.568
 7402SOL     OW23104   3.035   5.198   6.344
 7402SOL    HW123105   3.087   5.164   6.423
 7402SOL    HW223106   3.098   5.229   6.273
 7403SOL     OW23107   1.773   3.788   2.203
 7403SOL    HW123108   1.809   3.752   2.117
 7403SOL    HW223109   1.676   3.806   2.193
 7404SOL     OW23110   2.498   4.582   1.952
 7404SOL    HW123111   2.594   4.579   1.981
 7404SOL    HW223112   2.442   4.537   2.021
 7405SOL     OW23113   3.598   4.930   4.467
 7405SOL    HW123114   3.694   4.906   4.451
 7405SOL    HW223115   3.542   4.896   4.392
 7406SOL     OW23116   0.224   2.382   3.435
 7406SOL    HW123117   0.129   2.362   3.411
 7406SOL    HW223118   0.283   2.309   3.399
 7407SOL     OW23119   0.609   6.675   5.355
 7407SOL    HW123120   0.633   6.749   5.292
 7407SOL    HW223121   0.683   6.662   5.421
 7408SOL     OW23122   3.323   4.246   6.921
 7408SOL    HW123123   3.359   4.160   6.956
 7408SOL    HW223124   3.362   4.265   6.831
 7409SOL     OW23125   5.320   3.163   0.204
 7409SOL    HW123126   5.351   3.237   0.145
 7409SOL    HW223127   5.220   3.167   0.214
 7410SOL     OW23128   0.472   0.490   0.593
 7410SOL    HW123129   0.410   0.453   0.524
 7410SOL    HW223130   0.543   0.545   0.547
 7411SOL     OW23131   1.890   0.646   6.451
 7411SOL    HW123132   1.828   0.616   6.523
 7411SOL    HW223133   1.925   0.737   6.473
 7412SOL     OW23134   4.810   0.584   1.852
 7412SOL    HW123135   4.838   0.502   1.802
 7412SOL    HW223136   4.840   0.665   1.801
 7413SOL     OW23137   4.620   5.184   3.794
 7413SOL    HW123138   4.609   5.106   3.732
 7413SOL    HW223139   4.532   5.207   3.835
 7414SOL     OW23140   0.839   1.341   3.167
 7414SOL    HW123141   0.937   1.355   3.154
 7414SOL    HW223142   0.817   1.344   3.264
 7415SOL     OW23143   1.349   4.574   4.694
 7415SOL    HW123144   1.404   4.491   4.698
 7415SOL    HW223145   1.373   4.634   4.770
 7416SOL     OW23146   1.966   0.939   2.422
 7416SOL    HW123147   2.056   0.940   2.379
 7416SOL    HW223148   1.959   1.015   2.487
 7417SOL     OW23149   2.002   2.087   1.516
 7417SOL    HW123150   2.090   2.133   1.528
 7417SOL    HW223151   1.932   2.154   1.495
 7418SOL     OW23152   1.895   5.811   0.588
 7418SOL    HW123153   1.807   5.856   0.600
 7418SOL    HW223154   1.917   5.757   0.669
 7419SOL     OW23155   0.051   3.623   4.319
 7419SOL    HW123156   6.988   3.575   4.343
 7419SOL    HW223157   0.102   3.569   4.252
 7420SOL     OW23158   0.595   6.028   1.645
 7420SOL    HW123159   0.655   6.067   1.715
 7420SOL    HW223160   0.603   5.928   1.646
 7421SOL     OW23161   4.165   3.896   1.260
 7421SOL    HW123162   4.081   3.909   1.208
 7421SOL    HW223163   4.218   3.820   1.220
 7422SOL     OW23164   0.571   4.318   2.075
 7422SOL    HW123165   0.531   4.359   2.157
 7422SOL    HW223166   0.566   4.382   1.999
 7423SOL     OW23167   6.175   3.030   5.737
 7423SOL    HW123168   6.094   2.997   5.787
 7423SOL    HW223169   6.146   3.075   5.653
 7424SOL     OW23170   6.627   0.668   5.371
 7424SOL    HW123171   6.705   0.731   5.381
 7424SOL    HW223172   6.646   0.583   5.420
 7425SOL     OW23173   4.371   6.513   0.140
 7425SOL    HW123174   4.416   6.455   0.072
 7425SOL    HW223175   4.309   6.577   0.094
 7426SOL     OW23176   3.167   1.578   5.236
 7426SOL    HW123177   3.189   1.676   5.235
 7426SOL    HW223178   3.091   1.562   5.299
 7427SOL     OW23179   4.998   0.514   3.604
 7427SOL    HW123180   5.002   0.566   3.519
 7427SOL    HW223181   5.073   0.543   3.664
 7428SOL     OW23182   4.245   1.746   5.227
 7428SOL    HW123183   4.233   1.786   5.136
 7428SOL    HW223184   4.200   1.804   5.295
 7429SOL     OW23185   0.106   6.354   4.034
 7429SOL    HW123186   0.168   6.410   4.088
 7429SOL    HW223187   0.043   6.413   3.983
 7430SOL     OW23188   1.471   3.475   0.920
 7430SOL    HW123189   1.435   3.383   0.904
 7430SOL    HW223190   1.456   3.531   0.839
 7431SOL     OW23191   0.872   2.483   2.726
 7431SOL    HW123192   0.833   2.571   2.700
 7431SOL    HW223193   0.921   2.493   2.813
 7432SOL     OW23194   1.074   0.506   3.158
 7432SOL    HW123195   1.065   0.435   3.228
 7432SOL    HW223196   1.018   0.481   3.079
 7433SOL     OW23197   4.161   5.721   6.137
 7433SOL    HW123198   4.113   5.775   6.068
 7433SOL    HW223199   4.187   5.633   6.098
 7434SOL     OW23200   4.918   4.958   5.093
 7434SOL    HW123201   4.991   5.017   5.056
 7434SOL    HW223202   4.829   4.998   5.071
 7435SOL     OW23203   4.216   5.937   1.442
 7435SOL    HW123204   4.266   5.857   1.408
 7435SOL    HW223205   4.265   6.020   1.416
 7436SOL     OW23206   4.117   4.248   6.687
 7436SOL    HW123207   4.062   4.249   6.604
 7436SOL    HW223208   4.058   4.273   6.765
 7437SOL     OW23209   2.105   5.713   6.885
 7437SOL    HW123210   2.126   5.662   6.968
 7437SOL    HW223211   2.032   5.780   6.905
 7438SOL     OW23212   1.093   6.321   0.395
 7438SOL    HW123213   1.155   6.284   0.464
 7438SOL    HW223214   1.082   6.419   0.408
 7439SOL     OW23215   1.871   6.483   6.053
 7439SOL    HW123216   1.846   6.487   5.956
 7439SOL    HW223217   1.789   6.488   6.110
 7440SOL     OW23218   0.274   3.107   3.685
 7440SOL    HW123219   0.299   3.155   3.601
 7440SOL    HW223220   0.283   3.169   3.763
 7441SOL     OW23221   5.328   6.590   4.310
 7441SOL    HW123222   5.286   6.596   4.401
 7441SOL    HW223223   5.360   6.496   4.295
 7442SOL     OW23224   6.139   1.359   6.282
 7442SOL    HW123225   6.219   1.389   6.229
 7442SOL    HW223226   6.103   1.436   6.334
 7443SOL     OW23227   6.276   6.245   1.622
 7443SOL    HW123228   6.200   6.311   1.619
 7443SOL    HW223229   6.332   6.256   1.541
 7444SOL     OW23230   5.394   2.593   6.904
 7444SOL    HW123231   5.356   2.675   6.948
 7444SOL    HW223232   5.322   2.547   6.852
 7445SOL     OW23233   3.745   0.512   1.048
 7445SOL    HW123234   3.688   0.487   0.970
 7445SOL    HW223235   3.749   0.611   1.057
 7446SOL     OW23236   5.316   2.956   0.752
 7446SOL    HW123237   5.275   2.869   0.779
 7446SOL    HW223238   5.251   3.030   0.766
 7447SOL     OW23239   6.799   3.631   6.904
 7447SOL    HW123240   6.718   3.638   6.846
 7447SOL    HW223241   6.843   3.720   6.911
 7448SOL     OW23242   6.431   6.854   4.974
 7448SOL    HW123243   6.482   6.860   4.888
 7448SOL    HW223244   6.338   6.824   4.955
 7449SOL     OW23245   0.758   4.586   1.539
 7449SOL    HW123246   0.687   4.595   1.609
 7449SOL    HW223247   0.788   4.491   1.533
 7450SOL     OW23248   5.550   2.853   5.140
 7450SOL    HW123249   5.633   2.907   5.124
 7450SOL    HW223250   5.575   2.762   5.173
 7451SOL     OW23251   6.601   5.814   2.568
 7451SOL    HW123252   6.697   5.788   2.579
 7451SOL    HW223253   6.545   5.755   2.626
 7452SOL     OW23254   5.894   6.058   4.274
 7452SOL    HW123255   5.911   6.156   4.290
 7452SOL    HW223256   5.820   6.048   4.208
 7453SOL     OW23257   5.611   5.215   4.709
 7453SOL    HW123258   5.533   5.178   4.758
 7453SOL    HW223259   5.684   5.238   4.774
 7454SOL     OW23260   1.574   2.295   1.185
 7454SOL    HW123261   1.672   2.303   1.167
 7454SOL    HW223262   1.534   2.229   1.121
 7455SOL     OW23263   6.842   2.933   1.160
 7455SOL    HW123264   6.768   2.897   1.217
 7455SOL    HW223265   6.870   3.022   1.195
 7456SOL     OW23266   1.002   0.911   4.617
 7456SOL    HW123267   1.029   0.820   4.648
 7456SOL    HW223268   1.029   0.923   4.521
 7457SOL     OW23269   3.339   0.890   5.274
 7457SOL    HW123270   3.251   0.858   5.239
 7457SOL    HW223271   3.392   0.930   5.199
 7458SOL     OW23272   2.253   6.655   6.146
 7458SOL    HW123273   2.266   6.587   6.218
 7458SOL    HW223274   2.336   6.710   6.138
 7459SOL     OW23275   5.150   0.589   2.018
 7459SOL    HW123276   5.086   0.533   2.071
 7459SOL    HW223277   5.198   0.652   2.079
 7460SOL     OW23278   0.756   5.102   0.477
 7460SOL    HW123279   0.671   5.115   0.426
 7460SOL    HW223280   0.822   5.172   0.450
 7461SOL     OW23281   6.570   6.850   6.729
 7461SOL    HW123282   6.556   6.949   6.722
 7461SOL    HW223283   6.531   6.817   6.816
 7462SOL     OW23284   1.409   4.569   2.026
 7462SOL    HW123285   1.369   4.600   2.113
 7462SOL    HW223286   1.343   4.580   1.953
 7463SOL     OW23287   2.505   4.566   0.623
 7463SOL    HW123288   2.510   4.466   0.617
 7463SOL    HW223289   2.580   4.599   0.680
 7464SOL     OW23290   5.278   6.983   6.620
 7464SOL    HW123291   5.181   6.961   6.610
 7464SOL    HW223292   5.287   0.060   6.642
 7465SOL     OW23293   2.586   5.651   6.540
 7465SOL    HW123294   2.500   5.679   6.584
 7465SOL    HW223295   2.660   5.654   6.607
 7466SOL     OW23296   0.045   0.362   5.096
 7466SOL    HW123297   6.993   0.418   5.057
 7466SOL    HW223298   0.128   0.371   5.042
 7467SOL     OW23299   0.165   1.216   6.709
 7467SOL    HW123300   0.165   1.257   6.618
 7467SOL    HW223301   0.238   1.257   6.764
 7468SOL     OW23302   6.031   3.432   3.713
 7468SOL    HW123303   6.046   3.473   3.803
 7468SOL    HW223304   6.006   3.504   3.648
 7469SOL     OW23305   0.076   0.238   0.296
 7469SOL    HW123306   7.006   0.270   0.267
 7469SOL    HW223307   0.131   0.217   0.215
 7470SOL     OW23308   6.151   3.541   3.159
 7470SOL    HW123309   6.138   3.539   3.060
 7470SOL    HW223310   6.065   3.519   3.205
 7471SOL     OW23311   4.971   6.549   5.622
 7471SOL    HW123312   4.925   6.500   5.547
 7471SOL    HW223313   5.062   6.510   5.636
 7472SOL     OW23314   5.788   0.764   6.117
 7472SOL    HW123315   5.795   0.834   6.046
 7472SOL    HW223316   5.699   0.719   6.110
 7473SOL     OW23317   5.039   5.655   3.753
 7473SOL    HW123318   5.036   5.566   3.709
 7473SOL    HW223319   4.958   5.708   3.725
 7474SOL     OW23320   0.131   1.793   5.768
 7474SOL    HW123321   0.148   1.717   5.706
 7474SOL    HW223322   0.107   1.875   5.716
 7475SOL     OW23323   5.133   2.337   2.311
 7475SOL    HW123324   5.166   2.424   2.347
 7475SOL    HW223325   5.071   2.354   2.234
 7476SOL     OW23326   3.385   1.276   3.350
 7476SOL    HW123327   3.336   1.195   3.382
 7476SOL    HW223328   3.447   1.251   3.276
 7477SOL     OW23329   6.557   2.081   4.961
 7477SOL    HW123330   6.461   2.060   4.942
 7477SOL    HW223331   6.562   2.144   5.039
 7478SOL     OW23332   6.425   3.742   5.756
 7478SOL    HW123333   6.392   3.785   5.841
 7478SOL    HW223334   6.441   3.645   5.772
 7479SOL     OW23335   4.363   2.065   2.266
 7479SOL    HW123336   4.342   2.116   2.349
 7479SOL    HW223337   4.405   1.978   2.290
 7480SOL     OW23338   1.022   4.914   2.327
 7480SOL    HW123339   1.120   4.920   2.347
 7480SOL    HW223340   0.999   4.819   2.304
 7481SOL     OW23341   5.763   5.283   1.034
 7481SOL    HW123342   5.745   5.249   1.126
 7481SOL    HW223343   5.708   5.364   1.017
 7482SOL     OW23344   4.471   2.478   2.783
 7482SOL    HW123345   4.471   2.529   2.697
 7482SOL    HW223346   4.563   2.442   2.801
 7483SOL     OW23347   4.893   3.461   4.219
 7483SOL    HW123348   4.902   3.442   4.121
 7483SOL    HW223349   4.878   3.375   4.268
 7484SOL     OW23350   1.479   6.354   4.175
 7484SOL    HW123351   1.433   6.394   4.095
 7484SOL    HW223352   1.461   6.410   4.256
 7485SOL     OW23353   3.024   0.108   4.493
 7485SOL    HW123354   2.946   0.047   4.501
 7485SOL    HW223355   2.993   0.201   4.473
 7486SOL     OW23356   1.239   5.994   0.345
 7486SOL    HW123357   1.243   6.059   0.270
 7486SOL    HW223358   1.320   5.935   0.344
 7487SOL     OW23359   2.430   0.615   2.978
 7487SOL    HW123360   2.404   0.660   2.892
 7487SOL    HW223361   2.373   0.534   2.991
 7488SOL     OW23362   2.566   5.587   5.026
 7488SOL    HW123363   2.636   5.615   5.092
 7488SOL    HW223364   2.565   5.651   4.949
 7489SOL     OW23365   6.153   2.690   6.163
 7489SOL    HW123366   6.057   2.672   6.144
 7489SOL    HW223367   6.171   2.788   6.152
 7490SOL     OW23368   1.308   0.146   3.309
 7490SOL    HW123369   1.338   0.210   3.380
 7490SOL    HW223370   1.318   0.052   3.343
 7491SOL     OW23371   4.275   3.541   6.440
 7491SOL    HW123372   4.258   3.640   6.444
 7491SOL    HW223373   4.360   3.520   6.488
 7492SOL     OW23374   1.717   0.737   3.524
 7492SOL    HW123375   1.697   0.668   3.454
 7492SOL    HW223376   1.649   0.732   3.596
 7493SOL     OW23377   0.880   2.871   6.309
 7493SOL    HW123378   0.975   2.865   6.341
 7493SOL    HW223379   0.878   2.920   6.222
 7494SOL     OW23380   5.906   1.242   3.025
 7494SOL    HW123381   5.910   1.260   2.927
 7494SOL    HW223382   5.830   1.293   3.065
 7495SOL     OW23383   1.674   2.363   6.861
 7495SOL    HW123384   1.662   2.383   6.763
 7495SOL    HW223385   1.729   2.434   6.903
 7496SOL     OW23386   6.541   3.876   3.864
 7496SOL    HW123387   6.593   3.840   3.786
 7496SOL    HW223388   6.585   3.960   3.897
 7497SOL     OW23389   1.833   4.401   1.450
 7497SOL    HW123390   1.822   4.348   1.366
 7497SOL    HW223391   1.769   4.369   1.519
 7498SOL     OW23392   2.937   1.142   5.047
 7498SOL    HW123393   2.986   1.196   5.115
 7498SOL    HW223394   2.855   1.191   5.017
 7499SOL     OW23395   4.161   1.891   2.985
 7499SOL    HW123396   4.206   1.808   2.952
 7499SOL    HW223397   4.065   1.870   3.007
 7500SOL     OW23398   3.666   5.990   3.486
 7500SOL    HW123399   3.688   6.078   3.443
 7500SOL    HW223400   3.751   5.942   3.508
 7501SOL     OW23401   5.083   4.137   4.714
 7501SOL    HW123402   5.134   4.066   4.763
 7501SOL    HW223403   4.986   4.111   4.710
 7502SOL     OW23404   2.932   1.215   4.293
 7502SOL    HW123405   3.002   1.167   4.240
 7502SOL    HW223406   2.884   1.149   4.351
 7503SOL     OW23407   2.385   6.762   1.733
 7503SOL    HW123408   2.286   6.751   1.719
 7503SOL    HW223409   2.425   6.808   1.653
 7504SOL     OW23410   0.722   6.315   3.825
 7504SOL    HW123411   0.775   6.245   3.874
 7504SOL    HW223412   0.748   6.406   3.859
 7505SOL     OW23413   1.271   3.066   5.643
 7505SOL    HW123414   1.179   3.033   5.666
 7505SOL    HW223415   1.264   3.148   5.586
 7506SOL     OW23416   5.457   2.080   3.611
 7506SOL    HW123417   5.383   2.147   3.606
 7506SOL    HW223418   5.423   1.990   3.582
 7507SOL     OW23419   5.979   1.719   2.804
 7507SOL    HW123420   5.976   1.716   2.704
 7507SOL    HW223421   5.958   1.811   2.836
 7508SOL     OW23422   1.888   5.623   1.179
 7508SOL    HW123423   1.871   5.669   1.092
 7508SOL    HW223424   1.819   5.650   1.246
 7509SOL     OW23425   6.373   3.715   0.637
 7509SOL    HW123426   6.315   3.781   0.684
 7509SOL    HW223427   6.423   3.660   0.704
 7510SOL     OW23428   3.206   3.603   5.203
 7510SOL    HW123429   3.115   3.563   5.189
 7510SOL    HW223430   3.196   3.699   5.229
 7511SOL     OW23431   2.738   5.876   3.418
 7511SOL    HW123432   2.724   5.955   3.477
 7511SOL    HW223433   2.658   5.865   3.358
 7512SOL     OW23434   2.947   0.552   6.433
 7512SOL    HW123435   3.004   0.488   6.383
 7512SOL    HW223436   2.852   0.519   6.433
 7513SOL     OW23437   1.039   1.451   1.839
 7513SOL    HW123438   1.061   1.449   1.936
 7513SOL    HW223439   1.102   1.514   1.792
 7514SOL     OW23440   2.132   4.881   2.619
 7514SOL    HW123441   2.087   4.855   2.533
 7514SOL    HW223442   2.188   4.962   2.604
 7515SOL     OW23443   6.972   5.250   4.299
 7515SOL    HW123444   0.005   5.334   4.299
 7515SOL    HW223445   7.006   5.189   4.226
 7516SOL     OW23446   6.787   5.227   6.044
 7516SOL    HW123447   6.849   5.220   6.122
 7516SOL    HW223448   6.725   5.149   6.043
 7517SOL     OW23449   0.155   2.009   0.191
 7517SOL    HW123450   0.144   1.934   0.126
 7517SOL    HW223451   0.101   1.990   0.273
 7518SOL     OW23452   4.894   3.972   4.239
 7518SOL    HW123453   4.856   3.972   4.332
 7518SOL    HW223454   4.941   3.886   4.222
 7519SOL     OW23455   6.694   6.614   4.646
 7519SOL    HW123456   6.624   6.589   4.713
 7519SOL    HW223457   6.746   6.533   4.620
 7520SOL     OW23458   2.564   0.458   2.812
 7520SOL    HW123459   2.531   0.513   2.888
 7520SOL    HW223460   2.494   0.391   2.787
 7521SOL     OW23461   4.875   2.748   5.600
 7521SOL    HW123462   4.931   2.677   5.643
 7521SOL    HW223463   4.812   2.706   5.534
 7522SOL     OW23464   1.373   1.198   5.652
 7522SOL    HW123465   1.428   1.193   5.736
 7522SOL    HW223466   1.433   1.219   5.575
 7523SOL     OW23467   4.810   0.518   6.367
 7523SOL    HW123468   4.897   0.468   6.372
 7523SOL    HW223469   4.827   0.611   6.336
 7524SOL     OW23470   1.035   2.713   4.766
 7524SOL    HW123471   1.019   2.698   4.864
 7524SOL    HW223472   0.949   2.704   4.716
 7525SOL     OW23473   3.612   0.468   0.072
 7525SOL    HW123474   3.537   0.481   0.007
 7525SOL    HW223475   3.683   0.411   0.031
 7526SOL     OW23476   2.865   3.077   1.458
 7526SOL    HW123477   2.847   3.117   1.368
 7526SOL    HW223478   2.791   3.103   1.521
 7527SOL     OW23479   3.237   6.258   3.732
 7527SOL    HW123480   3.270   6.184   3.674
 7527SOL    HW223481   3.315   6.306   3.773
 7528SOL     OW23482   6.462   2.059   6.551
 7528SOL    HW123483   6.533   2.077   6.620
 7528SOL    HW223484   6.376   2.037   6.597
 7529SOL     OW23485   5.446   1.473   4.650
 7529SOL    HW123486   5.525   1.417   4.629
 7529SOL    HW223487   5.468   1.570   4.636
 7530SOL     OW23488   6.823   2.065   2.409
 7530SOL    HW123489   6.776   2.020   2.485
 7530SOL    HW223490   6.889   2.131   2.445
 7531SOL     OW23491   5.748   3.390   4.214
 7531SOL    HW123492   5.716   3.476   4.254
 7531SOL    HW223493   5.705   3.376   4.126
 7532SOL     OW23494   4.747   6.457   0.765
 7532SOL    HW123495   4.819   6.413   0.818
 7532SOL    HW223496   4.746   6.555   0.785
 7533SOL     OW23497   3.698   2.079   1.519
 7533SOL    HW123498   3.794   2.085   1.547
 7533SOL    HW223499   3.640   2.095   1.599
 7534SOL     OW23500   4.756   6.027   4.963
 7534SOL    HW123501   4.827   6.071   4.908
 7534SOL    HW223502   4.752   5.930   4.940
 7535SOL     OW23503   2.057   0.183   4.958
 7535SOL    HW123504   2.058   0.283   4.961
 7535SOL    HW223505   2.101   0.153   4.873
 7536SOL     OW23506   5.157   4.343   4.174
 7536SOL    HW123507   5.244   4.324   4.219
 7536SOL    HW223508   5.083   4.300   4.226
 7537SOL     OW23509   1.671   4.955   2.465
 7537SOL    HW123510   1.640   5.010   2.543
 7537SOL    HW223511   1.623   4.985   2.382
 7538SOL     OW23512   2.066   2.393   1.707
 7538SOL    HW123513   2.003   2.375   1.783
 7538SOL    HW223514   2.018   2.439   1.633
 7539SOL     OW23515   1.529   3.454   4.352
 7539SOL    HW123516   1.475   3.371   4.367
 7539SOL    HW223517   1.553   3.495   4.440
 7540SOL     OW23518   4.523   0.798   5.065
 7540SOL    HW123519   4.534   0.855   4.984
 7540SOL    HW223520   4.425   0.780   5.080
 7541SOL     OW23521   0.518   3.885   4.722
 7541SOL    HW123522   0.462   3.927   4.794
 7541SOL    HW223523   0.470   3.894   4.635
 7542SOL     OW23524   0.606   5.590   0.119
 7542SOL    HW123525   0.586   5.548   0.031
 7542SOL    HW223526   0.631   5.519   0.185
 7543SOL     OW23527   3.619   1.031   5.334
 7543SOL    HW123528   3.603   1.038   5.432
 7543SOL    HW223529   3.577   0.947   5.300
 7544SOL     OW23530   6.417   2.459   4.234
 7544SOL    HW123531   6.517   2.468   4.228
 7544SOL    HW223532   6.374   2.532   4.182
 7545SOL     OW23533   0.862   5.950   6.425
 7545SOL    HW123534   0.790   5.967   6.492
 7545SOL    HW223535   0.932   6.022   6.432
 7546SOL     OW23536   4.588   1.803   1.399
 7546SOL    HW123537   4.679   1.842   1.411
 7546SOL    HW223538   4.547   1.786   1.489
 7547SOL     OW23539   5.275   1.738   0.805
 7547SOL    HW123540   5.293   1.831   0.772
 7547SOL    HW223541   5.201   1.698   0.752
 7548SOL     OW23542   4.370   2.388   6.433
 7548SOL    HW123543   4.297   2.399   6.366
 7548SOL    HW223544   4.452   2.352   6.387
 7549SOL     OW23545   3.270   3.336   6.665
 7549SOL    HW123546   3.279   3.395   6.745
 7549SOL    HW223547   3.202   3.374   6.602
 7550SOL     OW23548   1.926   4.515   4.105
 7550SOL    HW123549   1.994   4.582   4.135
 7550SOL    HW223550   1.961   4.464   4.027
 7551SOL     OW23551   6.115   3.023   5.472
 7551SOL    HW123552   6.032   2.967   5.470
 7551SOL    HW223553   6.110   3.093   5.401
 7552SOL     OW23554   1.345   6.056   3.677
 7552SOL    HW123555   1.295   5.972   3.697
 7552SOL    HW223556   1.290   6.114   3.616
 7553SOL     OW23557   4.293   0.310   5.766
 7553SOL    HW123558   4.227   0.263   5.708
 7553SOL    HW223559   4.357   0.361   5.708
 7554SOL     OW23560   5.070   0.886   6.572
 7554SOL    HW123561   4.975   0.915   6.558
 7554SOL    HW223562   5.078   0.836   6.658
 7555SOL     OW23563   3.342   5.336   6.161
 7555SOL    HW123564   3.428   5.301   6.199
 7555SOL    HW223565   3.362   5.407   6.094
 7556SOL     OW23566   2.791   2.501   0.582
 7556SOL    HW123567   2.769   2.469   0.490
 7556SOL    HW223568   2.744   2.588   0.599
 7557SOL     OW23569   5.066   0.902   6.283
 7557SOL    HW123570   5.077   0.924   6.380
 7557SOL    HW223571   5.070   0.986   6.229
 7558SOL     OW23572   1.851   2.600   4.660
 7558SOL    HW123573   1.901   2.519   4.629
 7558SOL    HW223574   1.759   2.600   4.621
 7559SOL     OW23575   3.948   2.964   6.074
 7559SOL    HW123576   4.032   3.018   6.074
 7559SOL    HW223577   3.890   2.994   5.998
 7560SOL     OW23578   4.792   6.698   0.528
 7560SOL    HW123579   4.753   6.747   0.450
 7560SOL    HW223580   4.735   6.713   0.609
 7561SOL     OW23581   6.694   3.409   6.129
 7561SOL    HW123582   6.761   3.336   6.139
 7561SOL    HW223583   6.649   3.425   6.216
 7562SOL     OW23584   0.573   5.260   5.507
 7562SOL    HW123585   0.474   5.277   5.512
 7562SOL    HW223586   0.605   5.230   5.597
 7563SOL     OW23587   3.050   0.194   1.690
 7563SOL    HW123588   3.117   0.133   1.647
 7563SOL    HW223589   2.996   0.239   1.619
 7564SOL     OW23590   4.244   0.661   4.061
 7564SOL    HW123591   4.149   0.629   4.056
 7564SOL    HW223592   4.251   0.751   4.018
 7565SOL     OW23593   5.669   3.660   6.738
 7565SOL    HW123594   5.737   3.639   6.668
 7565SOL    HW223595   5.650   3.578   6.792
 7566SOL     OW23596   5.650   5.180   2.658
 7566SOL    HW123597   5.580   5.232   2.707
 7566SOL    HW223598   5.620   5.163   2.564
 7567SOL     OW23599   1.726   1.434   5.938
 7567SOL    HW123600   1.780   1.514   5.915
 7567SOL    HW223601   1.640   1.462   5.981
 7568SOL     OW23602   5.395   4.575   3.194
 7568SOL    HW123603   5.483   4.551   3.236
 7568SOL    HW223604   5.409   4.595   3.097
 7569SOL     OW23605   3.230   4.373   5.941
 7569SOL    HW123606   3.266   4.280   5.951
 7569SOL    HW223607   3.278   4.420   5.867
 7570SOL     OW23608   5.168   3.928   4.136
 7570SOL    HW123609   5.103   3.981   4.081
 7570SOL    HW223610   5.180   3.970   4.225
 7571SOL     OW23611   4.697   4.259   3.464
 7571SOL    HW123612   4.691   4.198   3.543
 7571SOL    HW223613   4.757   4.220   3.395
 7572SOL     OW23614   5.048   0.818   2.542
 7572SOL    HW123615   5.060   0.856   2.450
 7572SOL    HW223616   4.959   0.774   2.548
 7573SOL     OW23617   0.182   6.901   5.326
 7573SOL    HW123618   0.101   6.889   5.384
 7573SOL    HW223619   0.264   6.874   5.376
 7574SOL     OW23620   5.331   0.826   5.514
 7574SOL    HW123621   5.234   0.851   5.524
 7574SOL    HW223622   5.348   0.795   5.421
 7575SOL     OW23623   5.242   0.074   6.909
 7575SOL    HW123624   5.235   0.143   6.837
 7575SOL    HW223625   5.155   0.070   6.959
 7576SOL     OW23626   5.002   3.564   0.517
 7576SOL    HW123627   4.921   3.606   0.558
 7576SOL    HW223628   4.985   3.466   0.502
 7577SOL     OW23629   0.592   6.446   6.597
 7577SOL    HW123630   0.503   6.486   6.618
 7577SOL    HW223631   0.639   6.424   6.682
 7578SOL     OW23632   3.191   5.295   2.927
 7578SOL    HW123633   3.154   5.223   2.986
 7578SOL    HW223634   3.282   5.321   2.959
 7579SOL     OW23635   0.316   1.979   1.770
 7579SOL    HW123636   0.383   1.954   1.700
 7579SOL    HW223637   0.347   2.061   1.818
 7580SOL     OW23638   1.028   3.957   3.685
 7580SOL    HW123639   0.996   4.052   3.691
 7580SOL    HW223640   1.109   3.952   3.627
 7581SOL     OW23641   0.803   2.023   1.116
 7581SOL    HW123642   0.897   1.996   1.096
 7581SOL    HW223643   0.777   2.101   1.059
 7582SOL     OW23644   3.958   1.408   3.327
 7582SOL    HW123645   3.940   1.496   3.370
 7582SOL    HW223646   4.036   1.364   3.373
 7583SOL     OW23647   4.895   2.407   2.158
 7583SOL    HW123648   4.818   2.361   2.113
 7583SOL    HW223649   4.927   2.483   2.102
 7584SOL     OW23650   2.107   0.783   3.143
 7584SOL    HW123651   2.084   0.837   3.224
 7584SOL    HW223652   2.033   0.790   3.076
 7585SOL     OW23653   2.191   2.864   6.109
 7585SOL    HW123654   2.124   2.790   6.101
 7585SOL    HW223655   2.267   2.847   6.046
 7586SOL     OW23656   1.992   6.544   3.709
 7586SOL    HW123657   1.899   6.550   3.673
 7586SOL    HW223658   2.041   6.470   3.662
 7587SOL     OW23659   2.267   1.042   6.611
 7587SOL    HW123660   2.283   1.132   6.570
 7587SOL    HW223661   2.295   1.043   6.707
 7588SOL     OW23662   2.090   2.289   3.554
 7588SOL    HW123663   2.093   2.198   3.596
 7588SOL    HW223664   2.131   2.285   3.463
 7589SOL     OW23665   0.280   0.545   2.579
 7589SOL    HW123666   0.307   0.565   2.485
 7589SOL    HW223667   0.183   0.520   2.582
 7590SOL     OW23668   4.330   1.913   6.888
 7590SOL    HW123669   4.268   1.901   6.966
 7590SOL    HW223670   4.373   2.003   6.893
 7591SOL     OW23671   5.249   4.415   0.616
 7591SOL    HW123672   5.290   4.501   0.648
 7591SOL    HW223673   5.281   4.340   0.674
 7592SOL     OW23674   6.311   5.787   4.657
 7592SOL    HW123675   6.360   5.736   4.586
 7592SOL    HW223676   6.264   5.724   4.717
 7593SOL     OW23677   6.448   3.432   6.658
 7593SOL    HW123678   6.413   3.370   6.728
 7593SOL    HW223679   6.524   3.389   6.609
 7594SOL     OW23680   1.791   4.646   1.793
 7594SOL    HW123681   1.874   4.599   1.822
 7594SOL    HW223682   1.805   4.745   1.798
 7595SOL     OW23683   5.728   3.326   6.152
 7595SOL    HW123684   5.652   3.388   6.136
 7595SOL    HW223685   5.769   3.300   6.064
 7596SOL     OW23686   3.552   6.740   4.776
 7596SOL    HW123687   3.513   6.679   4.845
 7596SOL    HW223688   3.509   6.722   4.688
 7597SOL     OW23689   2.096   6.334   3.267
 7597SOL    HW123690   2.031   6.269   3.307
 7597SOL    HW223691   2.178   6.285   3.238
 7598SOL     OW23692   6.833   0.689   3.234
 7598SOL    HW123693   6.774   0.694   3.154
 7598SOL    HW223694   6.801   0.753   3.304
 7599SOL     OW23695   5.287   2.295   1.944
 7599SOL    HW123696   5.253   2.383   1.978
 7599SOL    HW223697   5.303   2.233   2.021
 7600SOL     OW23698   0.685   1.274   3.671
 7600SOL    HW123699   0.778   1.291   3.701
 7600SOL    HW223700   0.683   1.192   3.613
 7601SOL     OW23701   2.551   4.640   2.397
 7601SOL    HW123702   2.503   4.727   2.387
 7601SOL    HW223703   2.570   4.623   2.494
 7602SOL     OW23704   1.587   3.376   0.049
 7602SOL    HW123705   1.685   3.384   0.071
 7602SOL    HW223706   1.572   3.411   6.977
 7603SOL     OW23707   2.200   6.293   6.535
 7603SOL    HW123708   2.136   6.217   6.538
 7603SOL    HW223709   2.243   6.298   6.445
 7604SOL     OW23710   0.959   2.996   4.628
 7604SOL    HW123711   1.023   2.994   4.705
 7604SOL    HW223712   0.869   3.027   4.660
 7605SOL     OW23713   0.962   0.395   0.654
 7605SOL    HW123714   1.007   0.439   0.576
 7605SOL    HW223715   1.031   0.363   0.719
 7606SOL     OW23716   5.788   3.026   4.088
 7606SOL    HW123717   5.721   3.007   4.160
 7606SOL    HW223718   5.781   2.958   4.016
 7607SOL     OW23719   4.093   4.927   0.810
 7607SOL    HW123720   4.025   4.994   0.779
 7607SOL    HW223721   4.108   4.860   0.738
 7608SOL     OW23722   4.793   3.221   1.178
 7608SOL    HW123723   4.783   3.270   1.092
 7608SOL    HW223724   4.714   3.239   1.236
 7609SOL     OW23725   1.551   3.048   4.510
 7609SOL    HW123726   1.584   3.045   4.416
 7609SOL    HW223727   1.454   3.026   4.513
 7610SOL     OW23728   4.097   4.539   5.859
 7610SOL    HW123729   4.180   4.485   5.874
 7610SOL    HW223730   4.115   4.635   5.882
 7611SOL     OW23731   5.415   4.402   1.141
 7611SOL    HW123732   5.459   4.398   1.230
 7611SOL    HW223733   5.484   4.387   1.069
 7612SOL     OW23734   4.922   3.157   2.934
 7612SOL    HW123735   5.014   3.136   2.967
 7612SOL    HW223736   4.911   3.125   2.840
 7613SOL     OW23737   0.658   1.695   0.892
 7613SOL    HW123738   0.627   1.734   0.979
 7613SOL    HW223739   0.679   1.598   0.904
 7614SOL     OW23740   5.137   2.875   1.226
 7614SOL    HW123741   5.064   2.815   1.192
 7614SOL    HW223742   5.215   2.872   1.162
 7615SOL     OW23743   4.218   4.619   6.833
 7615SOL    HW123744   4.206   4.547   6.901
 7615SOL    HW223745   4.289   4.592   6.768
 7616SOL     OW23746   6.829   6.344   4.625
 7616SOL    HW123747   6.925   6.321   4.637
 7616SOL    HW223748   6.772   6.266   4.650
 7617SOL     OW23749   3.715   6.229   3.373
 7617SOL    HW123750   3.670   6.236   3.283
 7617SOL    HW223751   3.658   6.275   3.441
 7618SOL     OW23752   0.719   2.593   6.435
 7618SOL    HW123753   0.801   2.603   6.378
 7618SOL    HW223754   0.742   2.613   6.530
 7619SOL     OW23755   7.001   2.755   4.907
 7619SOL    HW123756   0.068   2.792   4.876
 7619SOL    HW223757   6.942   2.831   4.935
 7620SOL     OW23758   4.203   5.627   2.073
 7620SOL    HW123759   4.161   5.560   2.012
 7620SOL    HW223760   4.281   5.587   2.119
 7621SOL     OW23761   6.679   1.005   0.714
 7621SOL    HW123762   6.624   1.014   0.798
 7621SOL    HW223763   6.740   1.084   0.707
 7622SOL     OW23764   5.041   4.154   6.179
 7622SOL    HW123765   4.954   4.170   6.132
 7622SOL    HW223766   5.117   4.166   6.115
 7623SOL     OW23767   4.334   4.295   0.140
 7623SOL    HW123768   4.266   4.365   0.116
 7623SOL    HW223769   4.401   4.288   0.067
 7624SOL     OW23770   6.590   3.694   4.466
 7624SOL    HW123771   6.654   3.763   4.502
 7624SOL    HW223772   6.578   3.707   4.368
 7625SOL     OW23773   5.467   1.383   0.006
 7625SOL    HW123774   5.440   1.469   0.050
 7625SOL    HW223775   5.552   1.350   0.047
 7626SOL     OW23776   6.041   0.356   5.733
 7626SOL    HW123777   6.003   0.270   5.766
 7626SOL    HW223778   5.992   0.433   5.774
 7627SOL     OW23779   3.530   2.667   0.723
 7627SOL    HW123780   3.584   2.692   0.803
 7627SOL    HW223781   3.556   2.725   0.646
 7628SOL     OW23782   3.592   2.788   1.841
 7628SOL    HW123783   3.600   2.869   1.783
 7628SOL    HW223784   3.634   2.709   1.796
 7629SOL     OW23785   0.441   4.003   3.408
 7629SOL    HW123786   0.345   4.027   3.399
 7629SOL    HW223787   0.498   4.077   3.373
 7630SOL     OW23788   0.927   0.896   0.332
 7630SOL    HW123789   0.871   0.976   0.311
 7630SOL    HW223790   0.867   0.818   0.355
 7631SOL     OW23791   1.044   1.884   5.587
 7631SOL    HW123792   1.121   1.845   5.637
 7631SOL    HW223793   1.076   1.918   5.498
 7632SOL     OW23794   4.780   4.777   0.726
 7632SOL    HW123795   4.837   4.852   0.760
 7632SOL    HW223796   4.684   4.797   0.745
 7633SOL     OW23797   5.370   0.989   1.880
 7633SOL    HW123798   5.447   1.043   1.914
 7633SOL    HW223799   5.312   1.047   1.822
 7634SOL     OW23800   1.963   1.166   1.563
 7634SOL    HW123801   1.992   1.071   1.556
 7634SOL    HW223802   2.044   1.225   1.573
 7635SOL     OW23803   3.364   5.251   5.271
 7635SOL    HW123804   3.338   5.155   5.283
 7635SOL    HW223805   3.365   5.297   5.360
 7636SOL     OW23806   1.301   3.264   4.360
 7636SOL    HW123807   1.267   3.249   4.267
 7636SOL    HW223808   1.339   3.178   4.395
 7637SOL     OW23809   2.509   5.748   2.651
 7637SOL    HW123810   2.413   5.731   2.672
 7637SOL    HW223811   2.517   5.830   2.593
 7638SOL     OW23812   2.016   5.261   2.437
 7638SOL    HW123813   1.949   5.286   2.367
 7638SOL    HW223814   1.968   5.228   2.519
 7639SOL     OW23815   0.217   0.942   0.775
 7639SOL    HW123816   0.166   0.864   0.738
 7639SOL    HW223817   0.285   0.972   0.709
 7640SOL     OW23818   2.528   2.275   6.080
 7640SOL    HW123819   2.603   2.226   6.126
 7640SOL    HW223820   2.462   2.209   6.045
 7641SOL     OW23821   0.363   3.155   2.695
 7641SOL    HW123822   0.268   3.145   2.665
 7641SOL    HW223823   0.385   3.252   2.702
 7642SOL     OW23824   4.076   1.542   2.332
 7642SOL    HW123825   4.102   1.451   2.300
 7642SOL    HW223826   4.043   1.536   2.426
 7643SOL     OW23827   4.939   1.503   3.122
 7643SOL    HW123828   4.953   1.602   3.127
 7643SOL    HW223829   5.018   1.460   3.080
 7644SOL     OW23830   4.677   2.719   1.987
 7644SOL    HW123831   4.590   2.682   2.020
 7644SOL    HW223832   4.673   2.819   1.986
 7645SOL     OW23833   4.667   3.893   5.882
 7645SOL    HW123834   4.735   3.904   5.811
 7645SOL    HW223835   4.584   3.943   5.858
 7646SOL     OW23836   0.768   3.095   4.110
 7646SOL    HW123837   0.799   3.126   4.200
 7646SOL    HW223838   0.679   3.051   4.119
 7647SOL     OW23839   0.041   2.702   4.279
 7647SOL    HW123840   0.108   2.642   4.236
 7647SOL    HW223841   0.070   2.797   4.268
 7648SOL     OW23842   2.302   1.836   2.406
 7648SOL    HW123843   2.249   1.755   2.385
 7648SOL    HW223844   2.348   1.869   2.324
 7649SOL     OW23845   1.424   0.145   3.908
 7649SOL    HW123846   1.492   0.152   3.982
 7649SOL    HW223847   1.438   0.059   3.859
 7650SOL     OW23848   5.731   0.584   0.482
 7650SOL    HW123849   5.711   0.518   0.409
 7650SOL    HW223850   5.660   0.580   0.552
 7651SOL     OW23851   2.274   0.321   4.446
 7651SOL    HW123852   2.361   0.362   4.418
 7651SOL    HW223853   2.273   0.224   4.421
 7652SOL     OW23854   5.525   2.384   4.843
 7652SOL    HW123855   5.583   2.304   4.829
 7652SOL    HW223856   5.462   2.366   4.919
 7653SOL     OW23857   0.806   1.628   0.397
 7653SOL    HW123858   0.788   1.706   0.337
 7653SOL    HW223859   0.840   1.552   0.342
 7654SOL     OW23860   4.836   3.143   4.212
 7654SOL    HW123861   4.813   3.143   4.114
 7654SOL    HW223862   4.935   3.136   4.223
 7655SOL     OW23863   4.170   6.835   3.894
 7655SOL    HW123864   4.109   6.845   3.815
 7655SOL    HW223865   4.255   6.885   3.876
 7656SOL     OW23866   3.997   4.098   6.377
 7656SOL    HW123867   3.996   4.072   6.280
 7656SOL    HW223868   4.014   4.017   6.433
 7657SOL     OW23869   1.639   1.988   2.944
 7657SOL    HW123870   1.548   1.978   2.984
 7657SOL    HW223871   1.708   1.972   3.014
 7658SOL     OW23872   2.367   0.359   1.117
 7658SOL    HW123873   2.353   0.292   1.044
 7658SOL    HW223874   2.278   0.385   1.156
 7659SOL     OW23875   4.882   4.523   6.999
 7659SOL    HW123876   4.839   4.572   6.923
 7659SOL    HW223877   4.949   4.583   0.023
 7660SOL     OW23878   7.002   5.999   3.837
 7660SOL    HW123879   6.979   6.088   3.797
 7660SOL    HW223880   6.989   6.002   3.936
 7661SOL     OW23881   5.554   2.580   5.259
 7661SOL    HW123882   5.570   2.484   5.236
 7661SOL    HW223883   5.598   2.602   5.345
 7662SOL     OW23884   1.287   2.376   4.301
 7662SOL    HW123885   1.296   2.412   4.209
 7662SOL    HW223886   1.214   2.424   4.350
 7663SOL     OW23887   5.927   4.761   6.453
 7663SOL    HW123888   5.918   4.718   6.363
 7663SOL    HW223889   5.948   4.858   6.441
 7664SOL     OW23890   4.481   1.177   2.068
 7664SOL    HW123891   4.440   1.087   2.058
 7664SOL    HW223892   4.414   1.240   2.108
 7665SOL     OW23893   5.776   0.869   5.319
 7665SOL    HW123894   5.865   0.915   5.319
 7665SOL    HW223895   5.724   0.898   5.238
 7666SOL     OW23896   0.581   4.793   3.314
 7666SOL    HW123897   0.559   4.765   3.220
 7666SOL    HW223898   0.619   4.715   3.364
 7667SOL     OW23899   4.202   0.450   2.243
 7667SOL    HW123900   4.212   0.351   2.236
 7667SOL    HW223901   4.106   0.475   2.227
 7668SOL     OW23902   2.487   4.859   0.964
 7668SOL    HW123903   2.549   4.877   1.039
 7668SOL    HW223904   2.451   4.945   0.928
 7669SOL     OW23905   4.947   1.219   5.585
 7669SOL    HW123906   4.923   1.315   5.571
 7669SOL    HW223907   4.989   1.208   5.675
 7670SOL     OW23908   1.072   5.306   0.772
 7670SOL    HW123909   1.052   5.209   0.759
 7670SOL    HW223910   1.043   5.333   0.864
 7671SOL     OW23911   3.563   0.870   2.665
 7671SOL    HW123912   3.641   0.928   2.686
 7671SOL    HW223913   3.532   0.889   2.572
 7672SOL     OW23914   0.213   5.884   3.119
 7672SOL    HW123915   0.207   5.912   3.215
 7672SOL    HW223916   0.265   5.952   3.068
 7673SOL     OW23917   1.881   5.201   2.644
 7673SOL    HW123918   1.899   5.151   2.729
 7673SOL    HW223919   1.784   5.192   2.620
 7674SOL     OW23920   5.114   1.111   4.110
 7674SOL    HW123921   5.164   1.028   4.084
 7674SOL    HW223922   5.069   1.096   4.197
 7675SOL     OW23923   5.797   6.315   3.019
 7675SOL    HW123924   5.831   6.227   2.984
 7675SOL    HW223925   5.793   6.381   2.945
 7676SOL     OW23926   3.227   2.295   6.285
 7676SOL    HW123927   3.166   2.248   6.221
 7676SOL    HW223928   3.211   2.393   6.281
 7677SOL     OW23929   0.557   3.936   1.406
 7677SOL    HW123930   0.607   3.883   1.474
 7677SOL    HW223931   0.574   4.034   1.421
 7678SOL     OW23932   2.505   2.601   5.047
 7678SOL    HW123933   2.421   2.641   5.013
 7678SOL    HW223934   2.553   2.554   4.972
 7679SOL     OW23935   2.331   6.119   5.364
 7679SOL    HW123936   2.252   6.134   5.423
 7679SOL    HW223937   2.413   6.103   5.420
 7680SOL     OW23938   1.558   0.170   0.905
 7680SOL    HW123939   1.546   0.266   0.927
 7680SOL    HW223940   1.580   0.119   0.988
 7681SOL     OW23941   2.667   0.974   0.824
 7681SOL    HW123942   2.692   0.878   0.840
 7681SOL    HW223943   2.638   0.986   0.729
 7682SOL     OW23944   4.071   6.917   2.093
 7682SOL    HW123945   4.086   6.821   2.117
 7682SOL    HW223946   4.059   6.971   2.177
 7683SOL     OW23947   0.099   1.564   4.629
 7683SOL    HW123948   0.191   1.575   4.592
 7683SOL    HW223949   0.075   1.645   4.682
 7684SOL     OW23950   4.350   1.530   0.894
 7684SOL    HW123951   4.320   1.576   0.977
 7684SOL    HW223952   4.445   1.555   0.874
 7685SOL     OW23953   2.585   1.306   5.624
 7685SOL    HW123954   2.507   1.266   5.671
 7685SOL    HW223955   2.594   1.266   5.533
 7686SOL     OW23956   6.517   6.969   3.544
 7686SOL    HW123957   6.531   0.006   3.464
 7686SOL    HW223958   6.601   6.965   3.598
 7687SOL     OW23959   5.652   5.203   4.444
 7687SOL    HW123960   5.673   5.108   4.421
 7687SOL    HW223961   5.634   5.210   4.542
 7688SOL     OW23962   0.271   6.121   5.598
 7688SOL    HW123963   0.229   6.194   5.652
 7688SOL    HW223964   0.200   6.066   5.555
 7689SOL     OW23965   5.503   6.385   2.645
 7689SOL    HW123966   5.439   6.361   2.718
 7689SOL    HW223967   5.512   6.308   2.582
 7690SOL     OW23968   5.429   5.455   0.735
 7690SOL    HW123969   5.390   5.539   0.698
 7690SOL    HW223970   5.417   5.381   0.668
 7691SOL     OW23971   5.950   4.296   2.989
 7691SOL    HW123972   6.050   4.287   2.991
 7691SOL    HW223973   5.920   4.352   3.067
 7692SOL     OW23974   0.811   5.745   1.793
 7692SOL    HW123975   0.835   5.765   1.888
 7692SOL    HW223976   0.711   5.739   1.784
 7693SOL     OW23977   2.875   0.451   1.203
 7693SOL    HW123978   2.777   0.464   1.212
 7693SOL    HW223979   2.914   0.429   1.293
 7694SOL     OW23980   5.622   3.191   3.409
 7694SOL    HW123981   5.673   3.267   3.368
 7694SOL    HW223982   5.662   3.104   3.378
 7695SOL     OW23983   5.439   1.069   1.435
 7695SOL    HW123984   5.418   0.975   1.463
 7695SOL    HW223985   5.528   1.096   1.472
 7696SOL     OW23986   6.622   1.698   6.118
 7696SOL    HW123987   6.652   1.770   6.056
 7696SOL    HW223988   6.661   1.610   6.089
 7697SOL     OW23989   2.364   0.445   3.667
 7697SOL    HW123990   2.331   0.537   3.647
 7697SOL    HW223991   2.287   0.387   3.694
 7698SOL     OW23992   5.857   0.905   4.387
 7698SOL    HW123993   5.822   0.860   4.468
 7698SOL    HW223994   5.783   0.958   4.344
 7699SOL     OW23995   2.611   5.544   6.296
 7699SOL    HW123996   2.607   5.584   6.387
 7699SOL    HW223997   2.565   5.455   6.296
 7700SOL     OW23998   4.531   6.037   3.780
 7700SOL    HW123999   4.588   5.961   3.811
 7700SOL    HW224000   4.518   6.030   3.681
 7701SOL     OW24001   0.045   2.950   6.609
 7701SOL    HW124002   6.977   2.970   6.568
 7701SOL    HW224003   0.106   2.912   6.538
 7702SOL     OW24004   4.507   5.310   5.141
 7702SOL    HW124005   4.418   5.288   5.181
 7702SOL    HW224006   4.513   5.409   5.126
 7703SOL     OW24007   6.062   6.194   6.306
 7703SOL    HW124008   5.978   6.197   6.253
 7703SOL    HW224009   6.109   6.107   6.289
 7704SOL     OW24010   6.081   0.503   2.823
 7704SOL    HW124011   5.997   0.532   2.776
 7704SOL    HW224012   6.084   0.404   2.827
 7705SOL     OW24013   2.163   5.971   1.165
 7705SOL    HW124014   2.138   6.053   1.113
 7705SOL    HW224015   2.159   5.991   1.262
 7706SOL     OW24016   3.526   3.187   3.988
 7706SOL    HW124017   3.441   3.235   3.966
 7706SOL    HW224018   3.509   3.088   3.992
 7707SOL     OW24019   0.390   4.666   6.213
 7707SOL    HW124020   0.440   4.600   6.269
 7707SOL    HW224021   0.452   4.741   6.187
 7708SOL     OW24022   1.270   6.379   4.746
 7708SOL    HW124023   1.299   6.311   4.813
 7708SOL    HW224024   1.316   6.466   4.764
 7709SOL     OW24025   6.513   4.876   1.686
 7709SOL    HW124026   6.561   4.931   1.754
 7709SOL    HW224027   6.494   4.932   1.605
 7710SOL     OW24028   2.304   2.256   0.658
 7710SOL    HW124029   2.306   2.328   0.728
 7710SOL    HW224030   2.254   2.177   0.693
 7711SOL     OW24031   5.484   5.738   5.480
 7711SOL    HW124032   5.534   5.822   5.458
 7711SOL    HW224033   5.499   5.671   5.408
 7712SOL     OW24034   6.187   5.240   0.482
 7712SOL    HW124035   6.145   5.285   0.561
 7712SOL    HW224036   6.115   5.206   0.422
 7713SOL     OW24037   1.898   3.517   0.396
 7713SOL    HW124038   1.947   3.431   0.379
 7713SOL    HW224039   1.802   3.498   0.417
 7714SOL     OW24040   6.918   5.174   5.220
 7714SOL    HW124041   6.907   5.266   5.258
 7714SOL    HW224042   6.897   5.106   5.291
 7715SOL     OW24043   2.986   2.421   6.556
 7715SOL    HW124044   3.010   2.416   6.459
 7715SOL    HW224045   2.927   2.344   6.580
 7716SOL     OW24046   6.630   4.372   0.475
 7716SOL    HW124047   6.530   4.383   0.471
 7716SOL    HW224048   6.656   4.345   0.568
 7717SOL     OW24049   1.201   1.333   5.436
 7717SOL    HW124050   1.131   1.360   5.502
 7717SOL    HW224051   1.288   1.375   5.463
 7718SOL     OW24052   6.627   3.582   3.205
 7718SOL    HW124053   6.537   3.554   3.236
 7718SOL    HW224054   6.692   3.579   3.281
 7719SOL     OW24055   0.662   3.938   4.436
 7719SOL    HW124056   0.706   3.936   4.346
 7719SOL    HW224057   0.571   3.897   4.429
 7720SOL     OW24058   6.916   2.414   6.424
 7720SOL    HW124059   6.846   2.396   6.354
 7720SOL    HW224060   6.875   2.407   6.515
 7721SOL     OW24061   0.898   5.753   2.047
 7721SOL    HW124062   0.939   5.667   2.076
 7721SOL    HW224063   0.923   5.825   2.111
 7722SOL     OW24064   1.932   4.302   3.532
 7722SOL    HW124065   1.860   4.321   3.599
 7722SOL    HW224066   2.005   4.370   3.542
 7723SOL     OW24067   3.849   3.463   6.645
 7723SOL    HW124068   3.780   3.471   6.574
 7723SOL    HW224069   3.922   3.402   6.613
 7724SOL     OW24070   3.362   4.695   0.699
 7724SOL    HW124071   3.336   4.779   0.651
 7724SOL    HW224072   3.319   4.694   0.789
 7725SOL     OW24073   6.279   1.690   3.217
 7725SOL    HW124074   6.197   1.647   3.180
 7725SOL    HW224075   6.316   1.632   3.290
 7726SOL     OW24076   1.454   4.334   6.353
 7726SOL    HW124077   1.531   4.275   6.330
 7726SOL    HW224078   1.376   4.310   6.296
 7727SOL     OW24079   6.463   2.367   2.189
 7727SOL    HW124080   6.446   2.343   2.285
 7727SOL    HW224081   6.548   2.419   2.183
 7728SOL     OW24082   2.139   3.112   5.149
 7728SOL    HW124083   2.165   3.100   5.245
 7728SOL    HW224084   2.208   3.071   5.091
 7729SOL     OW24085   5.834   0.743   1.759
 7729SOL    HW124086   5.762   0.725   1.826
 7729SOL    HW224087   5.921   0.709   1.794
 7730SOL     OW24088   0.174   5.006   6.224
 7730SOL    HW124089   0.260   5.034   6.183
 7730SOL    HW224090   0.182   4.913   6.260
 7731SOL     OW24091   6.294   6.939   0.240
 7731SOL    HW124092   6.330   6.848   0.220
 7731SOL    HW224093   6.206   6.951   0.193
 7732SOL     OW24094   3.919   0.049   0.031
 7732SOL    HW124095   3.874   6.984   0.052
 7732SOL    HW224096   3.865   0.125   0.068
 7733SOL     OW24097   5.872   5.946   2.028
 7733SOL    HW124098   5.869   5.921   2.125
 7733SOL    HW224099   5.832   5.872   1.974
 7734SOL     OW24100   1.239   4.929   5.206
 7734SOL    HW124101   1.224   4.882   5.119
 7734SOL    HW224102   1.160   4.985   5.228
 7735SOL     OW24103   5.855   5.505   6.122
 7735SOL    HW124104   5.861   5.551   6.034
 7735SOL    HW224105   5.856   5.573   6.196
 7736SOL     OW24106   2.773   3.028   6.900
 7736SOL    HW124107   2.773   3.015   6.999
 7736SOL    HW224108   2.683   3.059   6.870
 7737SOL     OW24109   3.614   0.144   1.934
 7737SOL    HW124110   3.572   0.079   1.997
 7737SOL    HW224111   3.611   0.236   1.974
 7738SOL     OW24112   2.802   5.511   0.723
 7738SOL    HW124113   2.756   5.472   0.803
 7738SOL    HW224114   2.809   5.441   0.651
 7739SOL     OW24115   1.351   1.924   2.386
 7739SOL    HW124116   1.297   1.842   2.400
 7739SOL    HW224117   1.298   1.992   2.335
 7740SOL     OW24118   2.765   1.411   3.271
 7740SOL    HW124119   2.857   1.444   3.252
 7740SOL    HW224120   2.740   1.342   3.203
 7741SOL     OW24121   0.361   4.047   4.878
 7741SOL    HW124122   0.295   3.989   4.926
 7741SOL    HW224123   0.420   4.092   4.945
 7742SOL     OW24124   4.476   2.507   4.079
 7742SOL    HW124125   4.445   2.412   4.075
 7742SOL    HW224126   4.439   2.550   4.161
 7743SOL     OW24127   4.564   1.393   6.858
 7743SOL    HW124128   4.607   1.457   6.922
 7743SOL    HW224129   4.621   1.386   6.776
 7744SOL     OW24130   0.834   6.825   3.829
 7744SOL    HW124131   0.760   6.769   3.867
 7744SOL    HW224132   0.892   6.769   3.770
 7745SOL     OW24133   2.915   0.146   0.400
 7745SOL    HW124134   2.960   0.057   0.401
 7745SOL    HW224135   2.970   0.212   0.451
 7746SOL     OW24136   0.871   0.149   0.485
 7746SOL    HW124137   0.776   0.120   0.480
 7746SOL    HW224138   0.880   0.220   0.556
 7747SOL     OW24139   6.590   6.584   1.392
 7747SOL    HW124140   6.498   6.612   1.421
 7747SOL    HW224141   6.658   6.634   1.446
 7748SOL     OW24142   3.887   4.061   4.301
 7748SOL    HW124143   3.837   3.980   4.333
 7748SOL    HW224144   3.838   4.102   4.224
 7749SOL     OW24145   3.186   3.365   4.112
 7749SOL    HW124146   3.273   3.380   4.159
 7749SOL    HW224147   3.169   3.267   4.103
 7750SOL     OW24148   6.360   5.417   0.215
 7750SOL    HW124149   6.382   5.514   0.199
 7750SOL    HW224150   6.393   5.390   0.305
 7751SOL     OW24151   1.017   2.510   2.961
 7751SOL    HW124152   1.014   2.482   3.057
 7751SOL    HW224153   1.071   2.593   2.953
 7752SOL     OW24154   5.253   5.683   5.230
 7752SOL    HW124155   5.294   5.774   5.241
 7752SOL    HW224156   5.317   5.623   5.182
 7753SOL     OW24157   2.164   0.286   3.899
 7753SOL    HW124158   2.155   0.221   3.824
 7753SOL    HW224159   2.095   0.358   3.889
 7754SOL     OW24160   5.360   6.640   1.750
 7754SOL    HW124161   5.306   6.715   1.787
 7754SOL    HW224162   5.360   6.564   1.815
 7755SOL     OW24163   1.223   1.484   5.756
 7755SOL    HW124164   1.253   1.388   5.758
 7755SOL    HW224165   1.236   1.524   5.847
 7756SOL     OW24166   3.411   4.971   3.119
 7756SOL    HW124167   3.499   4.931   3.145
 7756SOL    HW224168   3.395   4.954   3.021
 7757SOL     OW24169   4.886   5.949   4.599
 7757SOL    HW124170   4.929   5.863   4.570
 7757SOL    HW224171   4.938   5.989   4.674
 7758SOL     OW24172   1.363   1.909   0.265
 7758SOL    HW124173   1.385   1.948   0.354
 7758SOL    HW224174   1.358   1.982   0.197
 7759SOL     OW24175   1.111   1.796   4.815
 7759SOL    HW124176   1.090   1.891   4.793
 7759SOL    HW224177   1.115   1.784   4.914
 7760SOL     OW24178   6.015   3.507   2.645
 7760SOL    HW124179   6.077   3.467   2.577
 7760SOL    HW224180   5.925   3.520   2.604
 7761SOL     OW24181   1.273   0.228   6.654
 7761SOL    HW124182   1.299   0.188   6.742
 7761SOL    HW224183   1.237   0.157   6.594
 7762SOL     OW24184   4.275   1.041   3.901
 7762SOL    HW124185   4.221   1.018   3.981
 7762SOL    HW224186   4.304   0.958   3.854
 7763SOL     OW24187   0.858   1.380   0.652
 7763SOL    HW124188   0.868   1.419   0.743
 7763SOL    HW224189   0.763   1.386   0.623
 7764SOL     OW24190   3.185   3.040   3.319
 7764SOL    HW124191   3.114   3.086   3.373
 7764SOL    HW224192   3.143   2.986   3.247
 7765SOL     OW24193   5.595   2.730   3.903
 7765SOL    HW124194   5.510   2.765   3.941
 7765SOL    HW224195   5.580   2.696   3.810
 7766SOL     OW24196   5.780   2.201   0.164
 7766SOL    HW124197   5.751   2.296   0.175
 7766SOL    HW224198   5.819   2.169   0.250
 7767SOL     OW24199   4.762   6.671   3.611
 7767SOL    HW124200   4.823   6.748   3.628
 7767SOL    HW224201   4.783   6.632   3.521
 7768SOL     OW24202   3.868   5.094   2.592
 7768SOL    HW124203   3.825   5.179   2.563
 7768SOL    HW224204   3.892   5.101   2.689
 7769SOL     OW24205   5.043   2.478   2.602
 7769SOL    HW124206   4.986   2.549   2.642
 7769SOL    HW224207   5.109   2.519   2.539
 7770SOL     OW24208   0.988   3.808   2.288
 7770SOL    HW124209   0.923   3.854   2.228
 7770SOL    HW224210   0.973   3.709   2.284
 7771SOL     OW24211   2.455   2.159   5.088
 7771SOL    HW124212   2.439   2.215   5.006
 7771SOL    HW224213   2.463   2.063   5.061
 7772SOL     OW24214   5.783   0.942   2.767
 7772SOL    HW124215   5.846   0.913   2.695
 7772SOL    HW224216   5.695   0.896   2.754
 7773SOL     OW24217   3.142   5.570   5.104
 7773SOL    HW124218   3.130   5.651   5.046
 7773SOL    HW224219   3.184   5.497   5.051
 7774SOL     OW24220   5.889   2.698   6.058
 7774SOL    HW124221   5.794   2.696   6.088
 7774SOL    HW224222   5.909   2.786   6.015
 7775SOL     OW24223   3.952   6.399   2.659
 7775SOL    HW124224   4.015   6.469   2.693
 7775SOL    HW224225   3.998   6.310   2.659
 7776SOL     OW24226   3.032   4.848   6.860
 7776SOL    HW124227   3.001   4.870   6.767
 7776SOL    HW224228   3.000   4.756   6.885
 7777SOL     OW24229   1.015   0.628   5.209
 7777SOL    HW124230   0.967   0.707   5.173
 7777SOL    HW224231   1.093   0.605   5.150
 7778SOL     OW24232   4.797   5.298   0.490
 7778SOL    HW124233   4.757   5.388   0.502
 7778SOL    HW224234   4.835   5.290   0.397
 7779SOL     OW24235   2.942   2.937   1.032
 7779SOL    HW124236   3.041   2.938   1.015
 7779SOL    HW224237   2.924   2.896   1.121
 7780SOL     OW24238   0.873   5.634   5.548
 7780SOL    HW124239   0.865   5.552   5.604
 7780SOL    HW224240   0.881   5.609   5.451
 7781SOL     OW24241   1.448   4.890   6.988
 7781SOL    HW124242   1.449   4.907   6.889
 7781SOL    HW224243   1.540   4.867   7.019
 7782SOL     OW24244   0.915   4.868   4.950
 7782SOL    HW124245   0.850   4.811   4.900
 7782SOL    HW224246   0.888   4.872   5.046
 7783SOL     OW24247   1.489   5.963   4.740
 7783SOL    HW124248   1.469   6.020   4.660
 7783SOL    HW224249   1.511   5.870   4.711
 7784SOL     OW24250   3.136   2.993   0.708
 7784SOL    HW124251   3.118   3.090   0.695
 7784SOL    HW224252   3.161   2.976   0.804
 7785SOL     OW24253   1.629   6.732   4.362
 7785SOL    HW124254   1.680   6.817   4.375
 7785SOL    HW224255   1.594   6.727   4.268
 7786SOL     OW24256   3.139   6.024   0.172
 7786SOL    HW124257   3.041   6.018   0.152
 7786SOL    HW224258   3.153   6.082   0.252
 7787SOL     OW24259   2.683   3.124   5.958
 7787SOL    HW124260   2.660   3.089   5.867
 7787SOL    HW224261   2.771   3.087   5.986
 7788SOL     OW24262   1.961   6.072   1.883
 7788SOL    HW124263   1.872   6.028   1.869
 7788SOL    HW224264   1.948   6.171   1.889
 7789SOL     OW24265   2.890   6.823   6.853
 7789SOL    HW124266   2.984   6.858   6.846
 7789SOL    HW224267   2.837   6.882   6.913
 7790SOL     OW24268   5.166   5.308   2.831
 7790SOL    HW124269   5.145   5.405   2.833
 7790SOL    HW224270   5.218   5.283   2.913
 7791SOL     OW24271   2.398   5.953   3.588
 7791SOL    HW124272   2.465   5.890   3.628
 7791SOL    HW224273   2.334   5.984   3.658
 7792SOL     OW24274   1.759   5.462   5.261
 7792SOL    HW124275   1.742   5.559   5.281
 7792SOL    HW224276   1.727   5.406   5.337
 7793SOL     OW24277   3.372   0.526   6.942
 7793SOL    HW124278   3.277   0.505   6.963
 7793SOL    HW224279   3.380   0.622   6.915
 7794SOL     OW24280   6.050   5.154   3.484
 7794SOL    HW124281   5.998   5.206   3.417
 7794SOL    HW224282   6.128   5.209   3.515
 7795SOL     OW24283   2.402   4.013   5.663
 7795SOL    HW124284   2.323   3.960   5.629
 7795SOL    HW224285   2.372   4.105   5.687
 7796SOL     OW24286   3.152   3.614   3.249
 7796SOL    HW124287   3.187   3.522   3.228
 7796SOL    HW224288   3.140   3.624   3.347
 7797SOL     OW24289   1.226   0.020   2.905
 7797SOL    HW124290   1.244   0.115   2.933
 7797SOL    HW224291   1.313   6.993   2.895
 7798SOL     OW24292   1.697   4.369   5.883
 7798SOL    HW124293   1.635   4.310   5.935
 7798SOL    HW224294   1.696   4.341   5.787
 7799SOL     OW24295   1.357   5.931   2.232
 7799SOL    HW124296   1.453   5.954   2.218
 7799SOL    HW224297   1.315   5.997   2.294
 7800SOL     OW24298   1.283   5.375   0.592
 7800SOL    HW124299   1.211   5.365   0.661
 7800SOL    HW224300   1.326   5.286   0.576
 7801SOL     OW24301   2.091   2.257   2.058
 7801SOL    HW124302   2.136   2.345   2.076
 7801SOL    HW224303   2.158   2.183   2.065
 7802SOL     OW24304   5.615   2.318   0.954
 7802SOL    HW124305   5.596   2.373   0.872
 7802SOL    HW224306   5.707   2.341   0.988
 7803SOL     OW24307   4.053   2.185   6.111
 7803SOL    HW124308   4.009   2.242   6.181
 7803SOL    HW224309   4.149   2.169   6.137
 7804SOL     OW24310   5.009   1.670   4.549
 7804SOL    HW124311   5.006   1.600   4.477
 7804SOL    HW224312   5.000   1.761   4.509
 7805SOL     OW24313   5.442   1.799   0.497
 7805SOL    HW124314   5.536   1.831   0.508
 7805SOL    HW224315   5.386   1.872   0.459
 7806SOL     OW24316   5.789   1.839   6.729
 7806SOL    HW124317   5.833   1.806   6.646
 7806SOL    HW224318   5.851   1.901   6.778
 7807SOL     OW24319   0.412   4.363   5.213
 7807SOL    HW124320   0.317   4.387   5.236
 7807SOL    HW224321   0.436   4.278   5.259
 7808SOL     OW24322   6.435   2.944   4.208
 7808SOL    HW124323   6.477   3.020   4.257
 7808SOL    HW224324   6.371   2.980   4.139
 7809SOL     OW24325   2.264   5.622   4.248
 7809SOL    HW124326   2.279   5.602   4.345
 7809SOL    HW224327   2.269   5.720   4.232
 7810SOL     OW24328   3.911   0.682   4.852
 7810SOL    HW124329   3.984   0.627   4.893
 7810SOL    HW224330   3.900   0.658   4.756
 7811SOL     OW24331   1.073   5.191   2.905
 7811SOL    HW124332   1.125   5.240   2.834
 7811SOL    HW224333   0.982   5.169   2.870
 7812SOL     OW24334   1.195   2.345   3.401
 7812SOL    HW124335   1.142   2.260   3.395
 7812SOL    HW224336   1.280   2.335   3.349
 7813SOL     OW24337   3.716   2.379   6.630
 7813SOL    HW124338   3.684   2.472   6.613
 7813SOL    HW224339   3.815   2.379   6.641
 7814SOL     OW24340   6.473   2.954   3.361
 7814SOL    HW124341   6.486   3.031   3.423
 7814SOL    HW224342   6.562   2.914   3.337
 7815SOL     OW24343   4.873   0.393   5.879
 7815SOL    HW124344   4.842   0.430   5.967
 7815SOL    HW224345   4.924   0.464   5.830
 7816SOL     OW24346   1.546   1.848   6.585
 7816SOL    HW124347   1.473   1.914   6.568
 7816SOL    HW224348   1.634   1.889   6.565
 7817SOL     OW24349   5.671   4.526   3.344
 7817SOL    HW124350   5.692   4.430   3.324
 7817SOL    HW224351   5.658   4.538   3.442
 7818SOL     OW24352   4.820   0.715   3.029
 7818SOL    HW124353   4.903   0.702   3.082
 7818SOL    HW224354   4.842   0.713   2.931
 7819SOL     OW24355   6.744   3.195   1.747
 7819SOL    HW124356   6.754   3.240   1.658
 7819SOL    HW224357   6.817   3.128   1.759
 7820SOL     OW24358   1.405   2.301   4.828
 7820SOL    HW124359   1.326   2.351   4.792
 7820SOL    HW224360   1.486   2.360   4.825
 7821SOL     OW24361   5.479   6.458   1.099
 7821SOL    HW124362   5.447   6.553   1.095
 7821SOL    HW224363   5.502   6.435   1.194
 7822SOL     OW24364   0.645   1.471   5.954
 7822SOL    HW124365   0.670   1.565   5.975
 7822SOL    HW224366   0.547   1.457   5.971
 7823SOL     OW24367   2.694   3.852   5.311
 7823SOL    HW124368   2.682   3.763   5.356
 7823SOL    HW224369   2.607   3.881   5.271
 7824SOL     OW24370   5.822   1.238   3.885
 7824SOL    HW124371   5.885   1.309   3.917
 7824SOL    HW224372   5.743   1.234   3.945
 7825SOL     OW24373   1.342   2.994   1.485
 7825SOL    HW124374   1.442   2.987   1.484
 7825SOL    HW224375   1.304   2.944   1.407
 7826SOL     OW24376   6.563   1.271   1.324
 7826SOL    HW124377   6.554   1.183   1.277
 7826SOL    HW224378   6.482   1.326   1.307
 7827SOL     OW24379   1.912   5.103   1.172
 7827SOL    HW124380   1.878   5.099   1.266
 7827SOL    HW224381   1.936   5.012   1.140
 7828SOL     OW24382   0.531   4.597   6.807
 7828SOL    HW124383   0.491   4.672   6.753
 7828SOL    HW224384   0.470   4.518   6.803
 7829SOL     OW24385   2.139   3.868   1.757
 7829SOL    HW124386   2.141   3.954   1.808
 7829SOL    HW224387   2.069   3.874   1.686
 7830SOL     OW24388   2.669   4.703   5.234
 7830SOL    HW124389   2.746   4.670   5.179
 7830SOL    HW224390   2.699   4.716   5.329
 7831SOL     OW24391   2.168   6.549   2.175
 7831SOL    HW124392   2.169   6.535   2.076
 7831SOL    HW224393   2.110   6.627   2.197
 7832SOL     OW24394   5.854   0.747   3.439
 7832SOL    HW124395   5.883   0.660   3.479
 7832SOL    HW224396   5.913   0.769   3.361
 7833SOL     OW24397   0.826   1.391   6.197
 7833SOL    HW124398   0.779   1.479   6.191
 7833SOL    HW224399   0.775   1.322   6.147
 7834SOL     OW24400   6.842   1.556   3.612
 7834SOL    HW124401   6.827   1.545   3.710
 7834SOL    HW224402   6.940   1.550   3.592
 7835SOL     OW24403   3.463   2.314   5.276
 7835SOL    HW124404   3.504   2.253   5.208
 7835SOL    HW224405   3.373   2.343   5.244
 7836SOL     OW24406   3.191   3.058   4.975
 7836SOL    HW124407   3.145   3.147   4.978
 7836SOL    HW224408   3.127   2.987   5.006
 7837SOL     OW24409   5.089   4.886   0.185
 7837SOL    HW124410   5.113   4.840   0.270
 7837SOL    HW224411   5.170   4.895   0.128
 7838SOL     OW24412   4.203   7.000   0.924
 7838SOL    HW124413   4.194   0.048   0.852
 7838SOL    HW224414   4.115   6.953   0.935
 7839SOL     OW24415   5.876   4.319   5.375
 7839SOL    HW124416   5.919   4.248   5.319
 7839SOL    HW224417   5.855   4.398   5.318
 7840SOL     OW24418   6.427   2.992   3.697
 7840SOL    HW124419   6.363   2.987   3.620
 7840SOL    HW224420   6.458   2.900   3.721
 7841SOL     OW24421   3.616   1.867   5.998
 7841SOL    HW124422   3.677   1.892   5.923
 7841SOL    HW224423   3.613   1.941   6.065
 7842SOL     OW24424   2.907   2.241   2.731
 7842SOL    HW124425   2.835   2.184   2.692
 7842SOL    HW224426   2.984   2.246   2.669
 7843SOL     OW24427   1.140   6.088   3.365
 7843SOL    HW124428   1.149   6.167   3.426
 7843SOL    HW224429   1.220   6.082   3.306
 7844SOL     OW24430   3.246   0.560   3.078
 7844SOL    HW124431   3.267   0.513   3.164
 7844SOL    HW224432   3.308   0.637   3.065
 7845SOL     OW24433   5.599   1.763   2.878
 7845SOL    HW124434   5.615   1.833   2.809
 7845SOL    HW224435   5.630   1.796   2.967
 7846SOL     OW24436   0.560   2.257   1.373
 7846SOL    HW124437   0.655   2.288   1.372
 7846SOL    HW224438   0.556   2.161   1.345
 7847SOL     OW24439   6.864   0.988   3.189
 7847SOL    HW124440   6.802   0.960   3.116
 7847SOL    HW224441   6.860   1.087   3.201
 7848SOL     OW24442   3.070   4.562   0.531
 7848SOL    HW124443   3.017   4.502   0.590
 7848SOL    HW224444   3.080   4.652   0.574
 7849SOL     OW24445   6.232   4.384   4.696
 7849SOL    HW124446   6.262   4.288   4.700
 7849SOL    HW224447   6.274   4.429   4.617
 7850SOL     OW24448   0.271   1.301   4.256
 7850SOL    HW124449   0.339   1.363   4.218
 7850SOL    HW224450   0.199   1.354   4.301
 7851SOL     OW24451   6.844   1.324   1.392
 7851SOL    HW124452   6.755   1.279   1.402
 7851SOL    HW224453   6.844   1.379   1.308
 7852SOL     OW24454   3.269   1.857   6.547
 7852SOL    HW124455   3.329   1.912   6.488
 7852SOL    HW224456   3.316   1.772   6.572
 7853SOL     OW24457   4.960   2.330   1.842
 7853SOL    HW124458   5.014   2.407   1.809
 7853SOL    HW224459   4.981   2.313   1.938
 7854SOL     OW24460   3.496   3.593   6.503
 7854SOL    HW124461   3.497   3.591   6.603
 7854SOL    HW224462   3.581   3.633   6.470
 7855SOL     OW24463   4.646   6.685   4.466
 7855SOL    HW124464   4.594   6.616   4.416
 7855SOL    HW224465   4.635   6.774   4.421
 7856SOL     OW24466   6.372   5.899   5.039
 7856SOL    HW124467   6.376   5.805   5.072
 7856SOL    HW224468   6.288   5.943   5.071
 7857SOL     OW24469   4.660   2.821   0.221
 7857SOL    HW124470   4.718   2.745   0.247
 7857SOL    HW224471   4.652   2.885   0.298
 7858SOL     OW24472   6.148   6.438   4.044
 7858SOL    HW124473   6.107   6.371   3.982
 7858SOL    HW224474   6.095   6.523   4.041
 7859SOL     OW24475   4.320   2.730   6.329
 7859SOL    HW124476   4.289   2.806   6.271
 7859SOL    HW224477   4.417   2.741   6.348
 7860SOL     OW24478   4.283   0.794   3.782
 7860SOL    HW124479   4.366   0.742   3.760
 7860SOL    HW224480   4.255   0.848   3.703
 7861SOL     OW24481   3.580   4.599   1.543
 7861SOL    HW124482   3.590   4.589   1.642
 7861SOL    HW224483   3.531   4.520   1.506
 7862SOL     OW24484   2.039   4.585   1.850
 7862SOL    HW124485   2.056   4.592   1.751
 7862SOL    HW224486   2.105   4.643   1.898
 7863SOL     OW24487   6.961   3.956   4.641
 7863SOL    HW124488   0.020   3.938   4.584
 7863SOL    HW224489   6.930   4.050   4.626
 7864SOL     OW24490   0.606   5.736   5.581
 7864SOL    HW124491   0.588   5.796   5.658
 7864SOL    HW224492   0.705   5.724   5.570
 7865SOL     OW24493   6.627   6.234   3.942
 7865SOL    HW124494   6.706   6.259   3.997
 7865SOL    HW224495   6.650   6.155   3.885
 7866SOL     OW24496   0.917   1.604   5.884
 7866SOL    HW124497   0.844   1.536   5.896
 7866SOL    HW224498   0.978   1.601   5.963
 7867SOL     OW24499   6.005   6.154   3.304
 7867SOL    HW124500   6.073   6.226   3.314
 7867SOL    HW224501   5.928   6.187   3.250
 7868SOL     OW24502   5.011   6.282   2.013
 7868SOL    HW124503   4.970   6.265   2.102
 7868SOL    HW224504   4.944   6.325   1.952
 7869SOL     OW24505   5.417   3.758   7.004
 7869SOL    HW124506   5.370   3.835   0.026
 7869SOL    HW224507   5.516   3.767   7.019
 7870SOL     OW24508   4.804   6.058   3.997
 7870SOL    HW124509   4.777   6.004   4.077
 7870SOL    HW224510   4.737   6.131   3.983
 7871SOL     OW24511   4.537   1.987   2.001
 7871SOL    HW124512   4.443   1.955   1.986
 7871SOL    HW224513   4.536   2.063   2.066
 7872SOL     OW24514   2.091   3.543   2.997
 7872SOL    HW124515   2.003   3.589   2.997
 7872SOL    HW224516   2.156   3.594   3.054
 7873SOL     OW24517   5.578   6.843   6.369
 7873SOL    HW124518   5.667   6.807   6.342
 7873SOL    HW224519   5.554   6.809   6.460
 7874SOL     OW24520   4.905   2.737   0.649
 7874SOL    HW124521   4.885   2.713   0.554
 7874SOL    HW224522   4.924   2.835   0.654
 7875SOL     OW24523   4.465   2.912   6.661
 7875SOL    HW124524   4.532   2.956   6.720
 7875SOL    HW224525   4.416   2.982   6.609
 7876SOL     OW24526   1.435   6.659   3.744
 7876SOL    HW124527   1.342   6.630   3.726
 7876SOL    HW224528   1.499   6.587   3.717
 7877SOL     OW24529   0.755   1.630   2.341
 7877SOL    HW124530   0.833   1.671   2.294
 7877SOL    HW224531   0.755   1.659   2.437
 7878SOL     OW24532   4.715   4.223   4.489
 7878SOL    HW124533   4.718   4.256   4.583
 7878SOL    HW224534   4.729   4.124   4.487
 7879SOL     OW24535   4.027   5.488   3.455
 7879SOL    HW124536   3.943   5.537   3.431
 7879SOL    HW224537   4.105   5.550   3.446
 7880SOL     OW24538   1.928   3.690   1.974
 7880SOL    HW124539   1.977   3.671   2.060
 7880SOL    HW224540   1.963   3.630   1.903
 7881SOL     OW24541   5.883   4.922   4.977
 7881SOL    HW124542   5.847   4.914   4.884
 7881SOL    HW224543   5.942   5.003   4.984
 7882SOL     OW24544   1.632   3.425   2.421
 7882SOL    HW124545   1.609   3.342   2.471
 7882SOL    HW224546   1.555   3.489   2.424
 7883SOL     OW24547   1.098   0.383   0.369
 7883SOL    HW124548   1.186   0.413   0.333
 7883SOL    HW224549   1.081   0.289   0.340
 7884SOL     OW24550   2.094   3.911   4.195
 7884SOL    HW124551   2.126   3.946   4.107
 7884SOL    HW224552   2.108   3.812   4.198
 7885SOL     OW24553   6.384   5.669   1.243
 7885SOL    HW124554   6.469   5.695   1.197
 7885SOL    HW224555   6.355   5.743   1.304
 7886SOL     OW24556   3.823   5.347   0.275
 7886SOL    HW124557   3.793   5.252   0.286
 7886SOL    HW224558   3.819   5.373   0.179
 7887SOL     OW24559   3.317   2.320   5.698
 7887SOL    HW124560   3.298   2.272   5.613
 7887SOL    HW224561   3.259   2.402   5.705
 7888SOL     OW24562   6.343   0.664   5.299
 7888SOL    HW124563   6.425   0.657   5.357
 7888SOL    HW224564   6.271   0.712   5.350
 7889SOL     OW24565   1.379   4.143   1.270
 7889SOL    HW124566   1.356   4.219   1.330
 7889SOL    HW224567   1.347   4.164   1.177
 7890SOL     OW24568   1.801   2.879   3.076
 7890SOL    HW124569   1.724   2.815   3.079
 7890SOL    HW224570   1.846   2.873   2.987
 7891SOL     OW24571   1.786   3.275   3.698
 7891SOL    HW124572   1.813   3.201   3.637
 7891SOL    HW224573   1.700   3.251   3.744
 7892SOL     OW24574   2.601   1.514   3.961
 7892SOL    HW124575   2.628   1.496   3.867
 7892SOL    HW224576   2.665   1.579   4.003
 7893SOL     OW24577   6.945   6.227   2.728
 7893SOL    HW124578   6.917   6.147   2.675
 7893SOL    HW224579   0.013   6.211   2.769
 7894SOL     OW24580   3.315   0.347   0.997
 7894SOL    HW124581   3.228   0.397   0.996
 7894SOL    HW224582   3.303   0.261   1.046
 7895SOL     OW24583   6.128   0.767   5.464
 7895SOL    HW124584   6.099   0.863   5.459
 7895SOL    HW224585   6.048   0.708   5.456
 7896SOL     OW24586   4.811   3.803   6.958
 7896SOL    HW124587   4.771   3.712   6.948
 7896SOL    HW224588   4.906   3.795   6.987
 7897SOL     OW24589   2.508   4.195   0.062
 7897SOL    HW124590   2.597   4.241   0.062
 7897SOL    HW224591   2.509   4.119   7.018
 7898SOL     OW24592   4.430   1.878   3.100
 7898SOL    HW124593   4.415   1.843   3.192
 7898SOL    HW224594   4.345   1.874   3.047
 7899SOL     OW24595   5.955   1.224   0.617
 7899SOL    HW124596   5.924   1.258   0.706
 7899SOL    HW224597   5.879   1.180   0.569
 7900SOL     OW24598   1.361   5.479   1.476
 7900SOL    HW124599   1.279   5.503   1.528
 7900SOL    HW224600   1.395   5.560   1.428
 7901SOL     OW24601   5.072   1.313   6.647
 7901SOL    HW124602   5.101   1.393   6.699
 7901SOL    HW224603   5.146   1.246   6.646
 7902SOL     OW24604   5.319   5.820   1.214
 7902SOL    HW124605   5.413   5.833   1.182
 7902SOL    HW224606   5.267   5.769   1.146
 7903SOL     OW24607   5.823   1.364   0.292
 7903SOL    HW124608   5.745   1.317   0.252
 7903SOL    HW224609   5.888   1.389   0.220
 7904SOL     OW24610   5.844   6.441   3.266
 7904SOL    HW124611   5.764   6.500   3.274
 7904SOL    HW224612   5.831   6.377   3.190
 7905SOL     OW24613   4.501   2.618   0.434
 7905SOL    HW124614   4.471   2.525   0.414
 7905SOL    HW224615   4.598   2.617   0.461
 7906SOL     OW24616   0.043   5.401   0.529
 7906SOL    HW124617   6.964   5.403   0.532
 7906SOL    HW224618   0.080   5.449   0.609
 7907SOL     OW24619   5.451   2.430   3.420
 7907SOL    HW124620   5.384   2.504   3.412
 7907SOL    HW224621   5.519   2.454   3.490
 7908SOL     OW24622   0.771   1.898   5.185
 7908SOL    HW124623   0.804   1.806   5.206
 7908SOL    HW224624   0.672   1.901   5.193
 7909SOL     OW24625   5.411   3.841   4.948
 7909SOL    HW124626   5.467   3.920   4.972
 7909SOL    HW224627   5.380   3.796   5.032
 7910SOL     OW24628   2.820   3.590   5.705
 7910SOL    HW124629   2.865   3.513   5.660
 7910SOL    HW224630   2.887   3.642   5.757
 7911SOL     OW24631   1.837   3.082   6.573
 7911SOL    HW124632   1.778   3.101   6.651
 7911SOL    HW224633   1.902   3.010   6.597
 7912SOL     OW24634   6.868   5.039   0.443
 7912SOL    HW124635   6.884   4.941   0.435
 7912SOL    HW224636   6.803   5.068   0.372
 7913SOL     OW24637   1.178   5.102   1.008
 7913SOL    HW124638   1.255   5.156   1.044
 7913SOL    HW224639   1.104   5.100   1.075
 7914SOL     OW24640   6.942   4.539   6.108
 7914SOL    HW124641   0.013   4.547   6.070
 7914SOL    HW224642   6.948   4.527   6.207
 7915SOL     OW24643   4.857   2.823   2.245
 7915SOL    HW124644   4.813   2.770   2.173
 7915SOL    HW224645   4.906   2.900   2.204
 7916SOL     OW24646   0.026   3.647   5.639
 7916SOL    HW124647   0.003   3.727   5.694
 7916SOL    HW224648   0.068   3.578   5.697
 7917SOL     OW24649   3.471   3.738   3.489
 7917SOL    HW124650   3.499   3.653   3.443
 7917SOL    HW224651   3.514   3.816   3.444
 7918SOL     OW24652   0.282   1.558   0.119
 7918SOL    HW124653   0.339   1.631   0.082
 7918SOL    HW224654   0.282   1.480   0.055
 7919SOL     OW24655   1.588   4.567   2.898
 7919SOL    HW124656   1.563   4.471   2.892
 7919SOL    HW224657   1.586   4.597   2.993
 7920SOL     OW24658   0.494   5.141   0.943
 7920SOL    HW124659   0.588   5.121   0.915
 7920SOL    HW224660   0.476   5.238   0.931
 7921SOL     OW24661   4.293   6.622   0.576
 7921SOL    HW124662   4.385   6.614   0.540
 7921SOL    HW224663   4.252   6.531   0.584
 7922SOL     OW24664   6.686   6.229   0.061
 7922SOL    HW124665   6.757   6.257   7.017
 7922SOL    HW224666   6.692   6.286   0.143
 7923SOL     OW24667   3.241   0.843   1.902
 7923SOL    HW124668   3.300   0.921   1.885
 7923SOL    HW224669   3.294   0.769   1.943
 7924SOL     OW24670   4.381   6.285   2.671
 7924SOL    HW124671   4.468   6.308   2.716
 7924SOL    HW224672   4.306   6.325   2.723
 7925SOL     OW24673   0.784   1.730   6.403
 7925SOL    HW124674   0.798   1.631   6.401
 7925SOL    HW224675   0.689   1.751   6.428
 7926SOL     OW24676   5.342   1.656   5.429
 7926SOL    HW124677   5.398   1.640   5.510
 7926SOL    HW224678   5.337   1.754   5.409
 7927SOL     OW24679   3.982   5.555   4.404
 7927SOL    HW124680   3.893   5.576   4.363
 7927SOL    HW224681   4.001   5.457   4.394
 7928SOL     OW24682   1.586   2.448   4.472
 7928SOL    HW124683   1.505   2.397   4.445
 7928SOL    HW224684   1.639   2.472   4.392
 7929SOL     OW24685   3.741   3.994   5.737
 7929SOL    HW124686   3.710   4.075   5.788
 7929SOL    HW224687   3.676   3.920   5.750
 7930SOL     OW24688   4.391   5.682   3.982
 7930SOL    HW124689   4.344   5.701   3.896
 7930SOL    HW224690   4.329   5.631   4.043
 7931SOL     OW24691   1.550   1.889   6.230
 7931SOL    HW124692   1.487   1.817   6.259
 7931SOL    HW224693   1.604   1.857   6.152
 7932SOL     OW24694   2.851   6.282   6.676
 7932SOL    HW124695   2.851   6.240   6.585
 7932SOL    HW224696   2.886   6.376   6.669
 7933SOL     OW24697   0.457   6.113   6.791
 7933SOL    HW124698   0.399   6.128   6.871
 7933SOL    HW224699   0.408   6.056   6.725
 7934SOL     OW24700   2.468   4.955   0.451
 7934SOL    HW124701   2.546   4.918   0.401
 7934SOL    HW224702   2.424   4.881   0.502
 7935SOL     OW24703   5.701   6.350   0.193
 7935SOL    HW124704   5.652   6.267   0.166
 7935SOL    HW224705   5.797   6.328   0.208
 7936SOL     OW24706   3.731   5.121   2.877
 7936SOL    HW124707   3.642   5.146   2.840
 7936SOL    HW224708   3.778   5.203   2.909
 7937SOL     OW24709   6.120   0.025   3.894
 7937SOL    HW124710   6.119   0.049   3.797
 7937SOL    HW224711   6.213   0.031   3.929
 7938SOL     OW24712   6.201   5.240   5.203
 7938SOL    HW124713   6.280   5.301   5.214
 7938SOL    HW224714   6.163   5.217   5.292
 7939SOL     OW24715   1.008   2.692   5.873
 7939SOL    HW124716   0.988   2.657   5.782
 7939SOL    HW224717   0.926   2.691   5.929
 7940SOL     OW24718   1.750   3.514   2.728
 7940SOL    HW124719   1.674   3.450   2.727
 7940SOL    HW224720   1.738   3.582   2.657
 7941SOL     OW24721   6.787   6.460   0.600
 7941SOL    HW124722   6.810   6.476   0.696
 7941SOL    HW224723   6.833   6.529   0.543
 7942SOL     OW24724   6.797   5.608   2.977
 7942SOL    HW124725   6.848   5.600   2.892
 7942SOL    HW224726   6.853   5.655   3.046
 7943SOL     OW24727   5.912   2.869   0.225
 7943SOL    HW124728   6.008   2.848   0.206
 7943SOL    HW224729   5.903   2.898   0.320
 7944SOL     OW24730   0.538   3.388   1.455
 7944SOL    HW124731   0.486   3.451   1.514
 7944SOL    HW224732   0.579   3.440   1.380
 7945SOL     OW24733   5.269   6.255   2.009
 7945SOL    HW124734   5.293   6.158   2.014
 7945SOL    HW224735   5.170   6.264   2.018
 7946SOL     OW24736   2.288   1.918   5.690
 7946SOL    HW124737   2.353   1.982   5.731
 7946SOL    HW224738   2.314   1.900   5.595
 7947SOL     OW24739   3.780   2.439   6.060
 7947SOL    HW124740   3.789   2.435   6.160
 7947SOL    HW224741   3.789   2.534   6.030
 7948SOL     OW24742   0.542   5.969   1.011
 7948SOL    HW124743   0.443   5.962   1.025
 7948SOL    HW224744   0.589   5.941   1.095
 7949SOL     OW24745   4.478   4.561   4.306
 7949SOL    HW124746   4.509   4.584   4.398
 7949SOL    HW224747   4.385   4.595   4.292
 7950SOL     OW24748   5.434   5.185   4.279
 7950SOL    HW124749   5.515   5.228   4.318
 7950SOL    HW224750   5.378   5.146   4.352
 7951SOL     OW24751   1.532   3.777   1.146
 7951SOL    HW124752   1.519   3.706   1.216
 7951SOL    HW224753   1.611   3.754   1.089
 7952SOL     OW24754   0.875   3.457   6.688
 7952SOL    HW124755   0.808   3.398   6.644
 7952SOL    HW224756   0.945   3.483   6.622
 7953SOL     OW24757   1.897   3.017   3.300
 7953SOL    HW124758   1.890   2.945   3.230
 7953SOL    HW224759   1.966   3.084   3.271
 7954SOL     OW24760   4.723   4.539   5.209
 7954SOL    HW124761   4.793   4.604   5.240
 7954SOL    HW224762   4.757   4.446   5.220
 7955SOL     OW24763   1.282   6.943   6.446
 7955SOL    HW124764   1.188   6.976   6.448
 7955SOL    HW224765   1.283   6.843   6.448
 7956SOL     OW24766   3.041   5.861   2.713
 7956SOL    HW124767   3.019   5.939   2.654
 7956SOL    HW224768   3.027   5.887   2.809
 7957SOL     OW24769   2.001   1.214   0.362
 7957SOL    HW124770   2.069   1.237   0.431
 7957SOL    HW224771   2.046   1.197   0.275
 7958SOL     OW24772   3.168   5.390   4.176
 7958SOL    HW124773   3.134   5.472   4.221
 7958SOL    HW224774   3.150   5.395   4.078
 7959SOL     OW24775   4.417   5.819   1.316
 7959SOL    HW124776   4.433   5.840   1.220
 7959SOL    HW224777   4.443   5.725   1.335
 7960SOL     OW24778   3.719   1.786   0.701
 7960SOL    HW124779   3.741   1.879   0.671
 7960SOL    HW224780   3.678   1.790   0.792
 7961SOL     OW24781   1.028   6.355   0.701
 7961SOL    HW124782   1.117   6.313   0.681
 7961SOL    HW224783   0.963   6.330   0.629
 7962SOL     OW24784   2.265   0.116   0.501
 7962SOL    HW124785   2.333   0.148   0.567
 7962SOL    HW224786   2.264   0.177   0.422
 7963SOL     OW24787   0.360   0.491   3.409
 7963SOL    HW124788   0.275   0.517   3.454
 7963SOL    HW224789   0.435   0.546   3.446
 7964SOL     OW24790   0.063   5.393   3.227
 7964SOL    HW124791   0.068   5.304   3.273
 7964SOL    HW224792   6.997   5.401   3.179
 7965SOL     OW24793   3.437   3.161   7.000
 7965SOL    HW124794   3.502   3.131   6.931
 7965SOL    HW224795   3.350   3.186   6.956
 7966SOL     OW24796   0.291   2.866   5.594
 7966SOL    HW124797   0.378   2.817   5.594
 7966SOL    HW224798   0.218   2.806   5.626
 7967SOL     OW24799   2.934   6.187   4.264
 7967SOL    HW124800   3.021   6.158   4.306
 7967SOL    HW224801   2.947   6.273   4.217
 7968SOL     OW24802   2.263   2.049   3.384
 7968SOL    HW124803   2.359   2.069   3.365
 7968SOL    HW224804   2.256   1.999   3.471
 7969SOL     OW24805   4.684   6.948   2.236
 7969SOL    HW124806   4.666   6.927   2.140
 7969SOL    HW224807   4.702   6.864   2.286
 7970SOL     OW24808   0.388   3.529   3.318
 7970SOL    HW124809   0.311   3.565   3.266
 7970SOL    HW224810   0.459   3.499   3.255
 7971SOL     OW24811   4.274   1.439   0.455
 7971SOL    HW124812   4.275   1.420   0.357
 7971SOL    HW224813   4.365   1.419   0.493
 7972SOL     OW24814   1.354   3.709   1.583
 7972SOL    HW124815   1.347   3.801   1.547
 7972SOL    HW224816   1.265   3.663   1.577
 7973SOL     OW24817   4.839   4.218   3.212
 7973SOL    HW124818   4.764   4.238   3.149
 7973SOL    HW224819   4.926   4.229   3.165
 7974SOL     OW24820   5.565   0.634   4.863
 7974SOL    HW124821   5.650   0.601   4.821
 7974SOL    HW224822   5.498   0.560   4.863
 7975SOL     OW24823   6.088   0.201   2.502
 7975SOL    HW124824   5.999   0.242   2.484
 7975SOL    HW224825   6.157   0.274   2.508
 7976SOL     OW24826   0.565   0.848   6.311
 7976SOL    HW124827   0.544   0.754   6.336
 7976SOL    HW224828   0.663   0.858   6.297
 7977SOL     OW24829   4.759   5.361   1.842
 7977SOL    HW124830   4.780   5.318   1.755
 7977SOL    HW224831   4.775   5.295   1.916
 7978SOL     OW24832   5.588   3.771   6.411
 7978SOL    HW124833   5.517   3.707   6.440
 7978SOL    HW224834   5.678   3.734   6.435
 7979SOL     OW24835   3.745   0.651   5.055
 7979SOL    HW124836   3.717   0.555   5.057
 7979SOL    HW224837   3.799   0.668   4.973
 7980SOL     OW24838   2.627   5.440   0.161
 7980SOL    HW124839   2.615   5.425   0.063
 7980SOL    HW224840   2.707   5.499   0.176
 7981SOL     OW24841   0.473   5.782   2.154
 7981SOL    HW124842   0.483   5.767   2.252
 7981SOL    HW224843   0.499   5.876   2.131
 7982SOL     OW24844   0.271   1.365   6.971
 7982SOL    HW124845   0.284   1.278   7.017
 7982SOL    HW224846   0.335   1.372   6.894
 7983SOL     OW24847   5.557   1.985   2.680
 7983SOL    HW124848   5.502   1.932   2.616
 7983SOL    HW224849   5.609   2.054   2.630
 7984SOL     OW24850   1.717   1.644   2.056
 7984SOL    HW124851   1.790   1.580   2.034
 7984SOL    HW224852   1.755   1.736   2.064
 7985SOL     OW24853   2.506   6.325   3.850
 7985SOL    HW124854   2.556   6.344   3.765
 7985SOL    HW224855   2.491   6.227   3.859
 7986SOL     OW24856   2.947   0.337   6.726
 7986SOL    HW124857   2.926   0.407   6.794
 7986SOL    HW224858   2.916   0.248   6.760
 7987SOL     OW24859   1.366   3.270   6.725
 7987SOL    HW124860   1.283   3.247   6.777
 7987SOL    HW224861   1.341   3.321   6.643
 7988SOL     OW24862   1.662   1.890   4.089
 7988SOL    HW124863   1.681   1.956   4.162
 7988SOL    HW224864   1.731   1.817   4.092
 7989SOL     OW24865   3.322   2.629   5.309
 7989SOL    HW124866   3.419   2.620   5.290
 7989SOL    HW224867   3.271   2.555   5.264
 7990SOL     OW24868   6.361   4.505   3.274
 7990SOL    HW124869   6.449   4.524   3.317
 7990SOL    HW224870   6.297   4.579   3.293
 7991SOL     OW24871   6.746   1.063   4.687
 7991SOL    HW124872   6.762   0.965   4.694
 7991SOL    HW224873   6.689   1.094   4.763
 7992SOL     OW24874   1.344   6.236   1.194
 7992SOL    HW124875   1.431   6.217   1.241
 7992SOL    HW224876   1.337   6.334   1.176
 7993SOL     OW24877   1.482   6.184   6.721
 7993SOL    HW124878   1.431   6.209   6.803
 7993SOL    HW224879   1.434   6.218   6.640
 7994SOL     OW24880   5.027   7.003   2.788
 7994SOL    HW124881   5.041   6.910   2.753
 7994SOL    HW224882   5.002   6.999   2.885
 7995SOL     OW24883   4.345   5.397   3.808
 7995SOL    HW124884   4.248   5.406   3.785
 7995SOL    HW224885   4.356   5.397   3.907
 7996SOL     OW24886   3.191   0.029   4.875
 7996SOL    HW124887   3.175   6.966   4.926
 7996SOL    HW224888   3.177   0.108   4.935
 7997SOL     OW24889   6.997   1.139   0.879
 7997SOL    HW124890   0.023   1.227   0.871
 7997SOL    HW224891   0.018   1.073   0.816
 7998SOL     OW24892   3.626   5.578   1.420
 7998SOL    HW124893   3.621   5.569   1.520
 7998SOL    HW224894   3.650   5.672   1.397
 7999SOL     OW24895   1.232   0.121   6.156
 7999SOL    HW124896   1.239   0.021   6.159
 7999SOL    HW224897   1.174   0.152   6.232
 8000SOL     OW24898   5.169   0.423   0.533
 8000SOL    HW124899   5.142   0.518   0.543
 8000SOL    HW224900   5.239   0.400   0.601
 8001SOL     OW24901   3.343   5.748   1.279
 8001SOL    HW124902   3.353   5.810   1.357
 8001SOL    HW224903   3.335   5.654   1.312
 8002SOL     OW24904   0.586   2.301   5.563
 8002SOL    HW124905   0.621   2.209   5.545
 8002SOL    HW224906   0.661   2.360   5.592
 8003SOL     OW24907   2.613   4.660   2.673
 8003SOL    HW124908   2.544   4.697   2.735
 8003SOL    HW224909   2.702   4.701   2.694
 8004SOL     OW24910   1.498   3.687   3.621
 8004SOL    HW124911   1.539   3.768   3.579
 8004SOL    HW224912   1.533   3.605   3.576
 8005SOL     OW24913   2.904   1.524   2.633
 8005SOL    HW124914   2.956   1.447   2.594
 8005SOL    HW224915   2.923   1.607   2.581
 8006SOL     OW24916   2.609   6.774   0.061
 8006SOL    HW124917   2.700   6.737   0.043
 8006SOL    HW224918   2.540   6.708   0.033
 8007SOL     OW24919   0.776   0.382   4.129
 8007SOL    HW124920   0.848   0.363   4.063
 8007SOL    HW224921   0.813   0.372   4.222
 8008SOL     OW24922   4.579   6.543   5.936
 8008SOL    HW124923   4.590   6.529   5.838
 8008SOL    HW224924   4.521   6.471   5.974
 8009SOL     OW24925   6.291   0.424   2.604
 8009SOL    HW124926   6.338   0.410   2.691
 8009SOL    HW224927   6.277   0.521   2.589
 8010SOL     OW24928   1.268   1.199   0.704
 8010SOL    HW124929   1.325   1.117   0.703
 8010SOL    HW224930   1.225   1.211   0.615
 8011SOL     OW24931   3.251   2.484   1.062
 8011SOL    HW124932   3.222   2.550   1.132
 8011SOL    HW224933   3.257   2.530   0.973
 8012SOL     OW24934   2.492   5.728   1.568
 8012SOL    HW124935   2.590   5.750   1.573
 8012SOL    HW224936   2.480   5.645   1.513
 8013SOL     OW24937   0.943   4.883   4.160
 8013SOL    HW124938   1.015   4.882   4.228
 8013SOL    HW224939   0.854   4.869   4.204
 8014SOL     OW24940   0.575   6.287   5.123
 8014SOL    HW124941   0.657   6.337   5.149
 8014SOL    HW224942   0.516   6.346   5.069
 8015SOL     OW24943   3.201   1.213   0.045
 8015SOL    HW124944   3.149   1.127   0.044
 8015SOL    HW224945   3.187   1.262   6.980
 8016SOL     OW24946   4.435   0.429   7.006
 8016SOL    HW124947   4.486   0.473   6.931
 8016SOL    HW224948   4.394   0.499   0.043
 8017SOL     OW24949   6.811   5.661   0.213
 8017SOL    HW124950   6.728   5.700   0.252
 8017SOL    HW224951   6.816   5.563   0.234
 8018SOL     OW24952   3.200   2.657   6.030
 8018SOL    HW124953   3.187   2.586   5.960
 8018SOL    HW224954   3.270   2.721   6.000
 8019SOL     OW24955   2.220   3.872   6.846
 8019SOL    HW124956   2.246   3.785   6.889
 8019SOL    HW224957   2.248   3.872   6.750
 8020SOL     OW24958   6.477   5.706   0.585
 8020SOL    HW124959   6.381   5.701   0.609
 8020SOL    HW224960   6.521   5.780   0.636
 8021SOL     OW24961   1.186   1.978   1.417
 8021SOL    HW124962   1.252   2.040   1.461
 8021SOL    HW224963   1.234   1.919   1.351
 8022SOL     OW24964   4.011   0.265   2.628
 8022SOL    HW124965   4.041   0.286   2.721
 8022SOL    HW224966   3.979   0.349   2.584
 8023SOL     OW24967   5.810   5.293   3.274
 8023SOL    HW124968   5.719   5.252   3.274
 8023SOL    HW224969   5.804   5.386   3.310
 8024SOL     OW24970   3.646   5.157   0.244
 8024SOL    HW124971   3.613   5.093   0.175
 8024SOL    HW224972   3.585   5.235   0.249
 8025SOL     OW24973   2.362   5.734   6.739
 8025SOL    HW124974   2.438   5.707   6.798
 8025SOL    HW224975   2.278   5.741   6.793
 8026SOL     OW24976   0.823   4.623   6.946
 8026SOL    HW124977   0.755   4.561   6.906
 8026SOL    HW224978   0.811   4.715   6.907
 8027SOL     OW24979   3.990   1.897   5.030
 8027SOL    HW124980   3.922   1.842   5.078
 8027SOL    HW224981   3.947   1.942   4.951
 8028SOL     OW24982   2.644   5.422   5.464
 8028SOL    HW124983   2.684   5.500   5.416
 8028SOL    HW224984   2.673   5.423   5.560
 8029SOL     OW24985   5.313   3.479   0.046
 8029SOL    HW124986   5.275   3.492   0.137
 8029SOL    HW224987   5.374   3.555   0.024
 8030SOL     OW24988   4.748   4.098   0.090
 8030SOL    HW124989   4.736   4.165   0.163
 8030SOL    HW224990   4.768   4.145   0.004
 8031SOL     OW24991   4.598   6.048   2.784
 8031SOL    HW124992   4.581   6.104   2.703
 8031SOL    HW224993   4.634   5.959   2.756
 8032SOL     OW24994   5.675   4.588   5.936
 8032SOL    HW124995   5.593   4.603   5.880
 8032SOL    HW224996   5.648   4.567   6.030
 8033SOL     OW24997   5.074   3.726   6.465
 8033SOL    HW124998   5.090   3.811   6.415
 8033SOL    HW224999   5.128   3.726   6.549
 8034SOL     OW25000   6.699   1.141   5.103
 8034SOL    HW125001   6.625   1.121   5.167
 8034SOL    HW225002   6.776   1.079   5.120
 8035SOL     OW25003   4.831   0.855   5.458
 8035SOL    HW125004   4.777   0.906   5.390
 8035SOL    HW225005   4.806   0.758   5.455
 8036SOL     OW25006   0.669   4.025   2.520
 8036SOL    HW125007   0.641   4.120   2.538
 8036SOL    HW225008   0.701   3.982   2.604
 8037SOL     OW25009   1.643   3.516   1.680
 8037SOL    HW125010   1.555   3.564   1.689
 8037SOL    HW225011   1.627   3.420   1.660
 8038SOL     OW25012   4.566   0.668   2.793
 8038SOL    HW125013   4.500   0.594   2.786
 8038SOL    HW225014   4.519   0.753   2.818
 8039SOL     OW25015   1.049   0.314   3.793
 8039SOL    HW125016   1.053   0.229   3.845
 8039SOL    HW225017   0.978   0.373   3.831
 8040SOL     OW25018   1.223   6.001   0.766
 8040SOL    HW125019   1.123   5.999   0.773
 8040SOL    HW225020   1.255   5.914   0.728
 8041SOL     OW25021   3.140   1.814   1.968
 8041SOL    HW125022   3.133   1.810   1.869
 8041SOL    HW225023   3.070   1.876   2.004
 8042SOL     OW25024   3.701   3.231   3.687
 8042SOL    HW125025   3.756   3.179   3.621
 8042SOL    HW225026   3.730   3.209   3.780
 8043SOL     OW25027   3.408   0.015   1.746
 8043SOL    HW125028   3.388   6.979   1.825
 8043SOL    HW225029   3.464   0.093   1.774
 8044SOL     OW25030   3.664   3.458   0.417
 8044SOL    HW125031   3.729   3.497   0.482
 8044SOL    HW225032   3.706   3.381   0.370
 8045SOL     OW25033   5.519   0.464   1.033
 8045SOL    HW125034   5.437   0.477   1.089
 8045SOL    HW225035   5.559   0.374   1.052
 8046SOL     OW25036   6.789   5.153   0.210
 8046SOL    HW125037   6.729   5.180   0.134
 8046SOL    HW225038   6.871   5.109   0.173
 8047SOL     OW25039   3.823   5.088   4.693
 8047SOL    HW125040   3.867   5.074   4.782
 8047SOL    HW225041   3.745   5.150   4.704
 8048SOL     OW25042   5.262   0.466   5.884
 8048SOL    HW125043   5.313   0.482   5.799
 8048SOL    HW225044   5.190   0.534   5.893
 8049SOL     OW25045   1.869   0.345   0.953
 8049SOL    HW125046   1.808   0.310   0.882
 8049SOL    HW225047   1.850   0.297   1.040
 8050SOL     OW25048   1.274   4.128   2.347
 8050SOL    HW125049   1.330   4.125   2.265
 8050SOL    HW225050   1.242   4.036   2.370
 8051SOL     OW25051   4.660   6.054   3.346
 8051SOL    HW125052   4.590   6.110   3.302
 8051SOL    HW225053   4.714   6.110   3.408
 8052SOL     OW25054   4.123   1.694   1.857
 8052SOL    HW125055   4.131   1.613   1.799
 8052SOL    HW225056   4.177   1.680   1.940
 8053SOL     OW25057   3.843   3.943   3.316
 8053SOL    HW125058   3.845   3.850   3.354
 8053SOL    HW225059   3.912   3.951   3.245
 8054SOL     OW25060   5.276   6.862   4.333
 8054SOL    HW125061   5.313   6.769   4.322
 8054SOL    HW225062   5.342   6.928   4.296
 8055SOL     OW25063   6.942   0.737   6.311
 8055SOL    HW125064   6.999   0.820   6.307
 8055SOL    HW225065   6.889   0.729   6.227
 8056SOL     OW25066   4.435   1.785   4.190
 8056SOL    HW125067   4.386   1.707   4.230
 8056SOL    HW225068   4.405   1.798   4.095
 8057SOL     OW25069   2.724   2.321   3.401
 8057SOL    HW125070   2.683   2.237   3.435
 8057SOL    HW225071   2.813   2.335   3.444
 8058SOL     OW25072   4.329   0.274   2.949
 8058SOL    HW125073   4.408   0.310   2.900
 8058SOL    HW225074   4.341   0.289   3.047
 8059SOL     OW25075   4.511   2.463   4.584
 8059SOL    HW125076   4.510   2.400   4.506
 8059SOL    HW225077   4.489   2.556   4.552
 8060SOL     OW25078   0.455   2.365   4.426
 8060SOL    HW125079   0.431   2.369   4.329
 8060SOL    HW225080   0.478   2.271   4.451
 8061SOL     OW25081   6.580   6.785   1.757
 8061SOL    HW125082   6.620   6.860   1.808
 8061SOL    HW225083   6.481   6.797   1.751
 8062SOL     OW25084   2.875   4.856   4.279
 8062SOL    HW125085   2.837   4.833   4.369
 8062SOL    HW225086   2.951   4.920   4.291
 8063SOL     OW25087   1.358   2.583   0.837
 8063SOL    HW125088   1.403   2.643   0.771
 8063SOL    HW225089   1.265   2.562   0.805
 8064SOL     OW25090   0.031   4.997   1.291
 8064SOL    HW125091   6.957   4.967   1.304
 8064SOL    HW225092   0.086   4.965   1.368
 8065SOL     OW25093   4.602   6.558   3.856
 8065SOL    HW125094   4.700   6.574   3.865
 8065SOL    HW225095   4.580   6.541   3.760
 8066SOL     OW25096   0.955   1.824   6.082
 8066SOL    HW125097   1.035   1.859   6.033
 8066SOL    HW225098   0.879   1.814   6.019
 8067SOL     OW25099   4.692   3.216   1.656
 8067SOL    HW125100   4.646   3.154   1.718
 8067SOL    HW225101   4.705   3.172   1.567
 8068SOL     OW25102   6.083   4.462   0.211
 8068SOL    HW125103   6.170   4.413   0.222
 8068SOL    HW225104   6.011   4.412   0.258
 8069SOL     OW25105   1.946   5.987   1.401
 8069SOL    HW125106   1.873   5.936   1.447
 8069SOL    HW225107   2.007   6.026   1.469
 8070SOL     OW25108   2.715   3.234   0.465
 8070SOL    HW125109   2.785   3.185   0.412
 8070SOL    HW225110   2.714   3.200   0.559
 8071SOL     OW25111   3.181   6.037   4.896
 8071SOL    HW125112   3.162   6.082   4.808
 8071SOL    HW225113   3.184   6.106   4.968
 8072SOL     OW25114   3.551   0.523   6.705
 8072SOL    HW125115   3.481   0.535   6.775
 8072SOL    HW225116   3.639   0.551   6.741
 8073SOL     OW25117   4.083   6.057   5.987
 8073SOL    HW125118   4.013   6.128   5.979
 8073SOL    HW225119   4.169   6.098   6.015
 8074SOL     OW25120   2.969   2.690   0.019
 8074SOL    HW125121   2.986   2.600   7.000
 8074SOL    HW225122   2.996   2.761   6.975
 8075SOL     OW25123   6.559   1.043   0.950
 8075SOL    HW125124   6.634   1.108   0.949
 8075SOL    HW225125   6.520   1.037   1.042
 8076SOL     OW25126   5.061   2.593   5.705
 8076SOL    HW125127   5.025   2.614   5.795
 8076SOL    HW225128   5.126   2.518   5.712
 8077SOL     OW25129   1.718   5.448   1.788
 8077SOL    HW125130   1.787   5.420   1.854
 8077SOL    HW225131   1.754   5.523   1.732
 8078SOL     OW25132   6.066   1.185   6.870
 8078SOL    HW125133   6.033   1.162   6.778
 8078SOL    HW225134   6.155   1.230   6.863
 8079SOL     OW25135   5.518   1.209   3.258
 8079SOL    HW125136   5.457   1.229   3.334
 8079SOL    HW225137   5.602   1.166   3.292
 8080SOL     OW25138   0.464   4.011   0.026
 8080SOL    HW125139   0.503   4.024   0.117
 8080SOL    HW225140   0.538   3.994   6.981
 8081SOL     OW25141   4.849   0.210   4.649
 8081SOL    HW125142   4.774   0.256   4.696
 8081SOL    HW225143   4.906   0.163   4.716
 8082SOL     OW25144   6.039   0.808   1.582
 8082SOL    HW125145   5.963   0.771   1.636
 8082SOL    HW225146   6.097   0.733   1.552
 8083SOL     OW25147   5.236   3.602   2.330
 8083SOL    HW125148   5.235   3.504   2.348
 8083SOL    HW225149   5.156   3.626   2.274
 8084SOL     OW25150   5.457   6.953   0.675
 8084SOL    HW125151   5.554   6.953   0.697
 8084SOL    HW225152   5.443   6.996   0.586
 8085SOL     OW25153   6.489   0.181   2.600
 8085SOL    HW125154   6.434   0.265   2.596
 8085SOL    HW225155   6.586   0.205   2.604
 8086SOL     OW25156   4.876   1.146   3.984
 8086SOL    HW125157   4.894   1.242   3.965
 8086SOL    HW225158   4.945   1.111   4.047
 8087SOL     OW25159   2.853   1.852   1.364
 8087SOL    HW125160   2.786   1.801   1.309
 8087SOL    HW225161   2.810   1.934   1.402
 8088SOL     OW25162   5.504   2.097   1.096
 8088SOL    HW125163   5.485   2.001   1.078
 8088SOL    HW225164   5.554   2.136   1.018
 8089SOL     OW25165   5.165   3.142   0.836
 8089SOL    HW125166   5.075   3.125   0.796
 8089SOL    HW225167   5.155   3.168   0.932
 8090SOL     OW25168   4.236   2.604   6.708
 8090SOL    HW125169   4.298   2.529   6.682
 8090SOL    HW225170   4.144   2.566   6.725
 8091SOL     OW25171   2.613   3.760   6.991
 8091SOL    HW125172   2.604   3.855   6.962
 8091SOL    HW225173   2.522   3.721   7.006
 8092SOL     OW25174   0.892   1.977   4.757
 8092SOL    HW125175   0.842   1.893   4.737
 8092SOL    HW225176   0.852   2.021   4.838
 8093SOL     OW25177   4.751   6.011   1.710
 8093SOL    HW125178   4.670   6.052   1.751
 8093SOL    HW225179   4.735   5.991   1.614
 8094SOL     OW25180   2.079   4.138   4.332
 8094SOL    HW125181   2.081   4.048   4.290
 8094SOL    HW225182   2.044   4.131   4.425
 8095SOL     OW25183   5.592   4.400   4.424
 8095SOL    HW125184   5.589   4.459   4.504
 8095SOL    HW225185   5.510   4.342   4.422
 8096SOL     OW25186   3.225   5.505   3.883
 8096SOL    HW125187   3.290   5.475   3.813
 8096SOL    HW225188   3.133   5.510   3.844
 8097SOL     OW25189   5.032   0.027   3.157
 8097SOL    HW125190   4.935   0.014   3.136
 8097SOL    HW225191   5.046   0.119   3.195
 8098SOL     OW25192   2.212   6.779   4.076
 8098SOL    HW125193   2.265   6.842   4.134
 8098SOL    HW225194   2.128   6.754   4.123
 8099SOL     OW25195   5.428   0.218   3.979
 8099SOL    HW125196   5.512   0.182   3.940
 8099SOL    HW225197   5.352   0.200   3.916
 8100SOL     OW25198   0.212   6.707   6.958
 8100SOL    HW125199   0.171   6.722   6.869
 8100SOL    HW225200   0.198   6.612   6.986
 8101SOL     OW25201   2.034   0.169   4.126
 8101SOL    HW125202   2.109   0.198   4.066
 8101SOL    HW225203   2.071   0.144   4.216
 8102SOL     OW25204   1.218   4.813   4.958
 8102SOL    HW125205   1.174   4.843   4.874
 8102SOL    HW225206   1.164   4.740   5.000
 8103SOL     OW25207   4.393   0.606   0.607
 8103SOL    HW125208   4.299   0.578   0.625
 8103SOL    HW225209   4.439   0.535   0.554
 8104SOL     OW25210   2.662   6.222   6.049
 8104SOL    HW125211   2.619   6.288   5.987
 8104SOL    HW225212   2.761   6.238   6.050
 8105SOL     OW25213   1.888   2.303   2.562
 8105SOL    HW125214   1.986   2.323   2.552
 8105SOL    HW225215   1.876   2.206   2.585
 8106SOL     OW25216   2.557   5.715   3.699
 8106SOL    HW125217   2.651   5.749   3.709
 8106SOL    HW225218   2.559   5.626   3.653
 8107SOL     OW25219   1.289   6.036   5.006
 8107SOL    HW125220   1.234   6.087   5.072
 8107SOL    HW225221   1.356   6.097   4.964
 8108SOL     OW25222   5.559   3.471   4.981
 8108SOL    HW125223   5.615   3.543   4.940
 8108SOL    HW225224   5.534   3.498   5.074
 8109SOL     OW25225   1.184   3.840   3.913
 8109SOL    HW125226   1.136   3.836   3.825
 8109SOL    HW225227   1.118   3.859   3.986
 8110SOL     OW25228   3.376   6.637   1.082
 8110SOL    HW125229   3.413   6.698   1.152
 8110SOL    HW225230   3.450   6.604   1.023
 8111SOL     OW25231   4.552   0.667   5.527
 8111SOL    HW125232   4.517   0.749   5.481
 8111SOL    HW225233   4.637   0.638   5.484
 8112SOL     OW25234   1.689   1.461   4.479
 8112SOL    HW125235   1.639   1.535   4.434
 8112SOL    HW225236   1.750   1.417   4.412
 8113SOL     OW25237   2.978   3.571   0.239
 8113SOL    HW125238   3.004   3.667   0.249
 8113SOL    HW225239   2.923   3.543   0.317
 8114SOL     OW25240   1.858   3.215   1.425
 8114SOL    HW125241   1.936   3.273   1.404
 8114SOL    HW225242   1.802   3.259   1.496
 8115SOL     OW25243   4.135   1.458   1.710
 8115SOL    HW125244   4.224   1.417   1.693
 8115SOL    HW225245   4.069   1.427   1.641
 8116SOL     OW25246   5.035   0.539   4.692
 8116SOL    HW125247   5.074   0.583   4.773
 8116SOL    HW225248   5.098   0.470   4.657
 8117SOL     OW25249   2.304   1.357   4.733
 8117SOL    HW125250   2.383   1.297   4.720
 8117SOL    HW225251   2.224   1.302   4.757
 8118SOL     OW25252   6.401   3.268   5.741
 8118SOL    HW125253   6.463   3.307   5.808
 8118SOL    HW225254   6.370   3.178   5.771
 8119SOL     OW25255   6.132   5.507   5.089
 8119SOL    HW125256   6.070   5.580   5.117
 8119SOL    HW225257   6.097   5.419   5.122
 8120SOL     OW25258   3.589   4.602   6.760
 8120SOL    HW125259   3.603   4.594   6.661
 8120SOL    HW225260   3.491   4.598   6.779
 8121SOL     OW25261   0.122   5.055   2.532
 8121SOL    HW125262   0.142   5.062   2.435
 8121SOL    HW225263   0.162   4.971   2.569
 8122SOL     OW25264   1.052   5.666   2.525
 8122SOL    HW125265   0.972   5.658   2.466
 8122SOL    HW225266   1.065   5.581   2.576
 8123SOL     OW25267   0.102   0.312   6.824
 8123SOL    HW125268   0.159   0.356   6.894
 8123SOL    HW225269   0.112   0.213   6.830
 8124SOL     OW25270   0.358   6.156   0.826
 8124SOL    HW125271   0.298   6.101   0.768
 8124SOL    HW225272   0.327   6.150   0.921
 8125SOL     OW25273   1.043   6.413   2.728
 8125SOL    HW125274   0.971   6.423   2.796
 8125SOL    HW225275   1.029   6.328   2.676
 8126SOL     OW25276   6.521   3.926   2.428
 8126SOL    HW125277   6.511   3.885   2.338
 8126SOL    HW225278   6.445   3.990   2.445
 8127SOL     OW25279   2.189   6.200   0.980
 8127SOL    HW125280   2.118   6.266   0.959
 8127SOL    HW225281   2.191   6.128   0.910
 8128SOL     OW25282   2.692   3.065   1.112
 8128SOL    HW125283   2.753   3.138   1.144
 8128SOL    HW225284   2.734   3.019   1.035
 8129SOL     OW25285   4.182   1.663   5.867
 8129SOL    HW125286   4.201   1.647   5.771
 8129SOL    HW225287   4.256   1.716   5.908
 8130SOL     OW25288   0.330   4.524   6.456
 8130SOL    HW125289   0.269   4.480   6.390
 8130SOL    HW225290   0.343   4.464   6.535
 8131SOL     OW25291   2.627   0.601   0.690
 8131SOL    HW125292   2.676   0.672   0.740
 8131SOL    HW225293   2.549   0.570   0.745
 8132SOL     OW25294   5.416   6.340   6.287
 8132SOL    HW125295   5.368   6.387   6.213
 8132SOL    HW225296   5.357   6.336   6.368
 8133SOL     OW25297   3.479   4.887   1.743
 8133SOL    HW125298   3.560   4.851   1.789
 8133SOL    HW225299   3.422   4.811   1.711
 8134SOL     OW25300   0.896   1.581   4.375
 8134SOL    HW125301   0.946   1.497   4.351
 8134SOL    HW225302   0.907   1.599   4.473
 8135SOL     OW25303   2.424   5.528   1.383
 8135SOL    HW125304   2.364   5.604   1.360
 8135SOL    HW225305   2.371   5.443   1.386
 8136SOL     OW25306   4.549   4.443   2.693
 8136SOL    HW125307   4.592   4.353   2.702
 8136SOL    HW225308   4.521   4.475   2.783
 8137SOL     OW25309   2.401   1.352   3.955
 8137SOL    HW125310   2.466   1.428   3.952
 8137SOL    HW225311   2.345   1.358   4.038
 8138SOL     OW25312   5.305   2.258   0.490
 8138SOL    HW125313   5.238   2.188   0.467
 8138SOL    HW225314   5.361   2.279   0.410
 8139SOL     OW25315   1.869   2.484   3.446
 8139SOL    HW125316   1.942   2.424   3.477
 8139SOL    HW225317   1.795   2.485   3.513
 8140SOL     OW25318   3.606   6.798   0.632
 8140SOL    HW125319   3.633   6.867   0.565
 8140SOL    HW225320   3.588   6.842   0.720
 8141SOL     OW25321   4.676   6.674   5.334
 8141SOL    HW125322   4.598   6.618   5.363
 8141SOL    HW225323   4.753   6.615   5.311
 8142SOL     OW25324   2.022   4.990   0.535
 8142SOL    HW125325   2.087   5.047   0.485
 8142SOL    HW225326   1.995   5.037   0.620
 8143SOL     OW25327   5.176   5.189   0.452
 8143SOL    HW125328   5.107   5.120   0.470
 8143SOL    HW225329   5.133   5.278   0.439
 8144SOL     OW25330   0.902   6.065   5.397
 8144SOL    HW125331   0.967   5.989   5.392
 8144SOL    HW225332   0.830   6.051   5.329
 8145SOL     OW25333   5.425   4.918   0.876
 8145SOL    HW125334   5.413   5.014   0.901
 8145SOL    HW225335   5.511   4.906   0.827
 8146SOL     OW25336   5.600   0.043   5.792
 8146SOL    HW125337   5.549   6.986   5.757
 8146SOL    HW225338   5.635   0.098   5.715
 8147SOL     OW25339   6.808   0.715   1.042
 8147SOL    HW125340   6.770   0.762   0.962
 8147SOL    HW225341   6.775   0.620   1.044
 8148SOL     OW25342   4.541   4.774   6.555
 8148SOL    HW125343   4.455   4.821   6.535
 8148SOL    HW225344   4.596   4.832   6.616
 8149SOL     OW25345   1.813   6.772   2.932
 8149SOL    HW125346   1.904   6.813   2.936
 8149SOL    HW225347   1.822   6.673   2.930
 8150SOL     OW25348   0.770   4.052   1.034
 8150SOL    HW125349   0.697   4.103   0.989
 8150SOL    HW225350   0.847   4.042   0.970
 8151SOL     OW25351   5.540   5.333   3.593
 8151SOL    HW125352   5.492   5.261   3.642
 8151SOL    HW225353   5.513   5.422   3.630
 8152SOL     OW25354   5.963   3.185   3.237
 8152SOL    HW125355   5.891   3.116   3.225
 8152SOL    HW225356   6.022   3.186   3.156
 8153SOL     OW25357   1.134   1.374   2.700
 8153SOL    HW125358   1.148   1.410   2.792
 8153SOL    HW225359   1.059   1.307   2.702
 8154SOL     OW25360   3.627   6.333   2.523
 8154SOL    HW125361   3.677   6.419   2.513
 8154SOL    HW225362   3.566   6.339   2.602
 8155SOL     OW25363   1.636   4.114   2.078
 8155SOL    HW125364   1.731   4.137   2.098
 8155SOL    HW225365   1.618   4.021   2.107
 8156SOL     OW25366   4.767   6.211   1.082
 8156SOL    HW125367   4.752   6.152   1.002
 8156SOL    HW225368   4.766   6.155   1.165
 8157SOL     OW25369   6.492   4.424   6.190
 8157SOL    HW125370   6.421   4.461   6.131
 8157SOL    HW225371   6.529   4.340   6.149
 8158SOL     OW25372   5.036   4.288   0.070
 8158SOL    HW125373   5.107   4.306   0.138
 8158SOL    HW225374   4.985   4.372   0.052
 8159SOL     OW25375   3.224   5.697   4.691
 8159SOL    HW125376   3.130   5.674   4.667
 8159SOL    HW225377   3.281   5.615   4.683
 8160SOL     OW25378   5.006   0.600   3.880
 8160SOL    HW125379   5.104   0.606   3.866
 8160SOL    HW225380   4.971   0.688   3.911
 8161SOL     OW25381   5.785   4.097   6.474
 8161SOL    HW125382   5.858   4.033   6.451
 8161SOL    HW225383   5.699   4.048   6.484
 8162SOL     OW25384   6.733   5.218   6.562
 8162SOL    HW125385   6.700   5.243   6.471
 8162SOL    HW225386   6.658   5.177   6.614
 8163SOL     OW25387   2.699   4.768   5.512
 8163SOL    HW125388   2.661   4.851   5.554
 8163SOL    HW225389   2.652   4.688   5.547
 8164SOL     OW25390   4.320   1.386   0.168
 8164SOL    HW125391   4.355   1.303   0.123
 8164SOL    HW225392   4.309   1.458   0.099
 8165SOL     OW25393   6.730   3.932   6.426
 8165SOL    HW125394   6.820   3.916   6.384
 8165SOL    HW225395   6.706   4.029   6.416
 8166SOL     OW25396   1.561   0.525   3.414
 8166SOL    HW125397   1.499   0.585   3.365
 8166SOL    HW225398   1.636   0.498   3.353
 8167SOL     OW25399   0.331   0.804   3.101
 8167SOL    HW125400   0.245   0.756   3.118
 8167SOL    HW225401   0.390   0.746   3.045
 8168SOL     OW25402   2.382   0.346   1.723
 8168SOL    HW125403   2.355   0.301   1.808
 8168SOL    HW225404   2.383   0.279   1.649
 8169SOL     OW25405   3.884   2.209   0.184
 8169SOL    HW125406   3.895   2.118   0.223
 8169SOL    HW225407   3.974   2.248   0.163
 8170SOL     OW25408   6.594   4.679   1.502
 8170SOL    HW125409   6.551   4.736   1.572
 8170SOL    HW225410   6.526   4.615   1.464
 8171SOL     OW25411   2.173   1.386   6.731
 8171SOL    HW125412   2.188   1.484   6.745
 8171SOL    HW225413   2.231   1.354   6.656
 8172SOL     OW25414   6.925   1.960   1.585
 8172SOL    HW125415   6.876   2.018   1.649
 8172SOL    HW225416   6.977   1.891   1.635
 8173SOL     OW25417   5.460   1.564   2.121
 8173SOL    HW125418   5.540   1.518   2.083
 8173SOL    HW225419   5.419   1.507   2.192
 8174SOL     OW25420   0.671   6.808   2.714
 8174SOL    HW125421   0.612   6.881   2.680
 8174SOL    HW225422   0.765   6.825   2.687
 8175SOL     OW25423   0.261   2.848   4.875
 8175SOL    HW125424   0.255   2.755   4.913
 8175SOL    HW225425   0.246   2.914   4.949
 8176SOL     OW25426   2.429   4.812   1.768
 8176SOL    HW125427   2.430   4.911   1.783
 8176SOL    HW225428   2.445   4.765   1.855
 8177SOL     OW25429   5.243   0.922   3.747
 8177SOL    HW125430   5.181   0.934   3.669
 8177SOL    HW225431   5.332   0.960   3.725
 8178SOL     OW25432   3.038   6.903   0.876
 8178SOL    HW125433   3.027   7.002   0.874
 8178SOL    HW225434   3.135   6.879   0.871
 8179SOL     OW25435   5.622   1.003   4.856
 8179SOL    HW125436   5.597   1.100   4.848
 8179SOL    HW225437   5.589   0.954   4.775
 8180SOL     OW25438   6.115   0.430   6.538
 8180SOL    HW125439   6.153   0.449   6.448
 8180SOL    HW225440   6.187   0.433   6.607
 8181SOL     OW25441   1.755   1.315   0.438
 8181SOL    HW125442   1.754   1.393   0.500
 8181SOL    HW225443   1.850   1.295   0.411
 8182SOL     OW25444   2.900   3.038   5.230
 8182SOL    HW125445   2.959   3.079   5.299
 8182SOL    HW225446   2.931   2.944   5.210
 8183SOL     OW25447   6.530   2.100   4.533
 8183SOL    HW125448   6.514   2.198   4.529
 8183SOL    HW225449   6.529   2.062   4.440
 8184SOL     OW25450   0.582   6.851   0.393
 8184SOL    HW125451   0.494   6.861   0.440
 8184SOL    HW225452   0.598   6.754   0.374
 8185SOL     OW25453   2.008   0.184   0.130
 8185SOL    HW125454   1.911   0.164   0.149
 8185SOL    HW225455   2.038   0.131   0.051
 8186SOL     OW25456   2.797   4.612   5.924
 8186SOL    HW125457   2.707   4.575   5.899
 8186SOL    HW225458   2.785   4.697   5.975
 8187SOL     OW25459   2.142   1.033   4.939
 8187SOL    HW125460   2.101   0.960   4.993
 8187SOL    HW225461   2.118   1.021   4.843
 8188SOL     OW25462   4.716   2.876   3.908
 8188SOL    HW125463   4.779   2.840   3.976
 8188SOL    HW225464   4.640   2.813   3.895
 8189SOL     OW25465   5.188   4.909   2.717
 8189SOL    HW125466   5.147   4.823   2.688
 8189SOL    HW225467   5.258   4.891   2.786
 8190SOL     OW25468   5.019   4.081   3.958
 8190SOL    HW125469   4.937   4.131   3.988
 8190SOL    HW225470   5.079   4.143   3.907
 8191SOL     OW25471   3.481   5.189   2.790
 8191SOL    HW125472   3.505   5.276   2.746
 8191SOL    HW225473   3.399   5.152   2.745
 8192SOL     OW25474   2.263   5.550   2.059
 8192SOL    HW125475   2.209   5.482   2.010
 8192SOL    HW225476   2.267   5.635   2.007
 8193SOL     OW25477   6.153   5.840   5.845
 8193SOL    HW125478   6.240   5.886   5.860
 8193SOL    HW225479   6.080   5.908   5.837
 8194SOL     OW25480   5.087   0.577   1.476
 8194SOL    HW125481   4.989   0.592   1.483
 8194SOL    HW225482   5.128   0.576   1.567
 8195SOL     OW25483   6.562   0.055   3.284
 8195SOL    HW125484   6.517   6.997   3.243
 8195SOL    HW225485   6.536   0.138   3.236
 8196SOL     OW25486   3.985   6.039   6.955
 8196SOL    HW125487   4.003   5.946   6.987
 8196SOL    HW225488   3.956   6.096   0.011
 8197SOL     OW25489   3.492   0.987   0.505
 8197SOL    HW125490   3.423   1.024   0.443
 8197SOL    HW225491   3.580   0.984   0.458
 8198SOL     OW25492   3.295   6.476   2.415
 8198SOL    HW125493   3.260   6.544   2.351
 8198SOL    HW225494   3.341   6.403   2.365
 8199SOL     OW25495   5.962   3.204   5.641
 8199SOL    HW125496   5.874   3.247   5.620
 8199SOL    HW225497   5.980   3.131   5.575
 8200SOL     OW25498   6.033   4.232   1.337
 8200SOL    HW125499   6.073   4.140   1.340
 8200SOL    HW225500   5.991   4.247   1.248
 8201SOL     OW25501   6.204   0.911   4.991
 8201SOL    HW125502   6.218   0.813   4.991
 8201SOL    HW225503   6.179   0.942   5.083
 8202SOL     OW25504   0.934   5.384   3.708
 8202SOL    HW125505   0.948   5.427   3.618
 8202SOL    HW225506   0.898   5.452   3.772
 8203SOL     OW25507   2.798   2.212   6.825
 8203SOL    HW125508   2.755   2.137   6.875
 8203SOL    HW225509   2.897   2.208   6.836
 8204SOL     OW25510   3.851   4.857   0.102
 8204SOL    HW125511   3.781   4.835   0.033
 8204SOL    HW225512   3.902   4.937   0.072
 8205SOL     OW25513   0.304   4.808   6.869
 8205SOL    HW125514   0.276   4.743   6.939
 8205SOL    HW225515   0.237   4.808   6.794
 8206SOL     OW25516   4.761   2.187   0.227
 8206SOL    HW125517   4.704   2.269   0.228
 8206SOL    HW225518   4.709   2.110   0.190
 8207SOL     OW25519   2.905   3.444   4.425
 8207SOL    HW125520   2.954   3.357   4.419
 8207SOL    HW225521   2.864   3.466   4.337
 8208SOL     OW25522   1.059   0.801   1.311
 8208SOL    HW125523   1.054   0.875   1.378
 8208SOL    HW225524   1.025   0.834   1.223
 8209SOL     OW25525   0.184   1.312   4.760
 8209SOL    HW125526   0.131   1.383   4.713
 8209SOL    HW225527   0.208   1.240   4.695
 8210SOL     OW25528   2.573   2.106   0.667
 8210SOL    HW125529   2.537   2.122   0.575
 8210SOL    HW225530   2.663   2.063   0.660
 8211SOL     OW25531   3.866   4.567   1.449
 8211SOL    HW125532   3.887   4.614   1.363
 8211SOL    HW225533   3.770   4.580   1.472
 8212SOL     OW25534   1.792   2.569   2.536
 8212SOL    HW125535   1.726   2.589   2.608
 8212SOL    HW225536   1.822   2.474   2.543
 8213SOL     OW25537   6.673   4.279   1.833
 8213SOL    HW125538   6.676   4.331   1.918
 8213SOL    HW225539   6.709   4.187   1.848
 8214SOL     OW25540   5.719   5.336   3.967
 8214SOL    HW125541   5.647   5.267   3.979
 8214SOL    HW225542   5.781   5.333   4.045
 8215SOL     OW25543   3.163   5.936   5.732
 8215SOL    HW125544   3.246   5.992   5.737
 8215SOL    HW225545   3.181   5.846   5.771
 8216SOL     OW25546   5.410   5.321   4.050
 8216SOL    HW125547   5.434   5.277   3.964
 8216SOL    HW225548   5.422   5.256   4.125
 8217SOL     OW25549   1.846   4.771   0.346
 8217SOL    HW125550   1.909   4.697   0.371
 8217SOL    HW225551   1.837   4.834   0.422
 8218SOL     OW25552   0.247   6.863   6.279
 8218SOL    HW125553   0.282   6.910   6.198
 8218SOL    HW225554   0.173   6.917   6.319
 8219SOL     OW25555   4.388   2.406   0.797
 8219SOL    HW125556   4.393   2.443   0.890
 8219SOL    HW225557   4.293   2.390   0.773
 8220SOL     OW25558   3.609   2.895   3.523
 8220SOL    HW125559   3.570   2.902   3.615
 8220SOL    HW225560   3.538   2.866   3.459
 8221SOL     OW25561   5.557   6.381   4.076
 8221SOL    HW125562   5.518   6.431   3.999
 8221SOL    HW225563   5.636   6.329   4.045
 8222SOL     OW25564   5.760   1.186   1.573
 8222SOL    HW125565   5.773   1.119   1.646
 8222SOL    HW225566   5.808   1.270   1.596
 8223SOL     OW25567   1.187   4.755   5.825
 8223SOL    HW125568   1.275   4.750   5.870
 8223SOL    HW225569   1.125   4.813   5.878
 8224SOL     OW25570   6.377   1.001   2.728
 8224SOL    HW125571   6.460   0.992   2.783
 8224SOL    HW225572   6.316   0.923   2.745
 8225SOL     OW25573   3.208   0.937   6.875
 8225SOL    HW125574   3.230   0.860   6.814
 8225SOL    HW225575   3.216   1.022   6.824
 8226SOL     OW25576   4.219   7.012   1.220
 8226SOL    HW125577   4.193   7.009   1.124
 8226SOL    HW225578   4.218   6.920   1.258
 8227SOL     OW25579   6.626   2.044   3.027
 8227SOL    HW125580   6.623   1.946   3.050
 8227SOL    HW225581   6.583   2.096   3.100
 8228SOL     OW25582   6.419   2.193   5.545
 8228SOL    HW125583   6.363   2.274   5.528
 8228SOL    HW225584   6.516   2.218   5.540
 8229SOL     OW25585   3.894   3.305   0.665
 8229SOL    HW125586   3.967   3.320   0.732
 8229SOL    HW225587   3.876   3.390   0.616
 8230SOL     OW25588   4.719   6.935   5.350
 8230SOL    HW125589   4.704   6.838   5.333
 8230SOL    HW225590   4.686   6.958   5.442
 8231SOL     OW25591   3.819   5.032   0.821
 8231SOL    HW125592   3.831   5.131   0.833
 8231SOL    HW225593   3.728   5.014   0.783
 8232SOL     OW25594   4.876   1.387   1.882
 8232SOL    HW125595   4.777   1.394   1.871
 8232SOL    HW225596   4.921   1.441   1.811
 8233SOL     OW25597   1.334   6.236   6.495
 8233SOL    HW125598   1.282   6.244   6.410
 8233SOL    HW225599   1.274   6.252   6.573
 8234SOL     OW25600   3.182   4.422   6.561
 8234SOL    HW125601   3.134   4.337   6.579
 8234SOL    HW225602   3.117   4.493   6.536
 8235SOL     OW25603   0.806   3.756   0.042
 8235SOL    HW125604   0.764   3.810   6.991
 8235SOL    HW225605   0.833   3.667   0.005
 8236SOL     OW25606   0.501   4.856   0.352
 8236SOL    HW125607   0.484   4.888   0.445
 8236SOL    HW225608   0.416   4.858   0.300
 8237SOL     OW25609   4.124   6.737   4.781
 8237SOL    HW125610   4.193   6.665   4.773
 8237SOL    HW225611   4.131   6.798   4.702
 8238SOL     OW25612   1.165   5.505   6.548
 8238SOL    HW125613   1.119   5.577   6.497
 8238SOL    HW225614   1.145   5.416   6.506
 8239SOL     OW25615   6.187   1.252   5.886
 8239SOL    HW125616   6.101   1.302   5.895
 8239SOL    HW225617   6.206   1.204   5.971
 8240SOL     OW25618   3.598   4.139   2.578
 8240SOL    HW125619   3.524   4.174   2.636
 8240SOL    HW225620   3.683   4.134   2.631
 8241SOL     OW25621   3.969   0.373   6.282
 8241SOL    HW125622   4.053   0.399   6.235
 8241SOL    HW225623   3.959   0.428   6.365
 8242SOL     OW25624   0.172   4.599   6.038
 8242SOL    HW125625   0.244   4.607   6.108
 8242SOL    HW225626   0.213   4.606   5.947
 8243SOL     OW25627   0.738   2.552   0.665
 8243SOL    HW125628   0.799   2.630   0.651
 8243SOL    HW225629   0.745   2.490   0.587
 8244SOL     OW25630   0.127   0.631   4.890
 8244SOL    HW125631   0.049   0.632   4.827
 8244SOL    HW225632   0.147   0.725   4.919
 8245SOL     OW25633   4.264   2.090   2.832
 8245SOL    HW125634   4.204   2.016   2.861
 8245SOL    HW225635   4.324   2.056   2.759
 8246SOL     OW25636   1.260   2.663   5.939
 8246SOL    HW125637   1.167   2.657   5.905
 8246SOL    HW225638   1.311   2.730   5.885
 8247SOL     OW25639   1.208   6.866   2.608
 8247SOL    HW125640   1.220   6.926   2.686
 8247SOL    HW225641   1.285   6.801   2.603
 8248SOL     OW25642   6.011   5.074   4.603
 8248SOL    HW125643   6.046   5.161   4.638
 8248SOL    HW225644   6.085   5.008   4.599
 8249SOL     OW25645   1.846   3.023   5.363
 8249SOL    HW125646   1.923   2.961   5.377
 8249SOL    HW225647   1.781   3.014   5.439
 8250SOL     OW25648   3.157   3.946   2.024
 8250SOL    HW125649   3.179   3.867   1.967
 8250SOL    HW225650   3.210   3.941   2.109
 8251SOL     OW25651   5.515   3.707   4.014
 8251SOL    HW125652   5.507   3.622   3.962
 8251SOL    HW225653   5.427   3.755   4.013
 8252SOL     OW25654   2.967   1.504   5.441
 8252SOL    HW125655   3.022   1.480   5.521
 8252SOL    HW225656   2.879   1.540   5.471
 8253SOL     OW25657   4.290   4.781   5.466
 8253SOL    HW125658   4.216   4.766   5.400
 8253SOL    HW225659   4.281   4.872   5.506
 8254SOL     OW25660   4.586   4.800   5.026
 8254SOL    HW125661   4.591   4.857   4.944
 8254SOL    HW225662   4.673   4.752   5.039
 8255SOL     OW25663   2.127   0.266   4.658
 8255SOL    HW125664   2.160   0.315   4.578
 8255SOL    HW225665   2.119   0.329   4.735
 8256SOL     OW25666   6.862   6.698   2.236
 8256SOL    HW125667   6.852   6.782   2.291
 8256SOL    HW225668   6.785   6.690   2.173
 8257SOL     OW25669   5.737   3.848   3.079
 8257SOL    HW125670   5.835   3.827   3.087
 8257SOL    HW225671   5.717   3.934   3.125
 8258SOL     OW25672   5.554   2.017   0.202
 8258SOL    HW125673   5.494   1.937   0.197
 8258SOL    HW225674   5.643   1.994   0.163
 8259SOL     OW25675   3.705   1.758   3.582
 8259SOL    HW125676   3.659   1.771   3.669
 8259SOL    HW225677   3.662   1.814   3.512
 8260SOL     OW25678   2.468   6.819   1.974
 8260SOL    HW125679   2.559   6.856   1.960
 8260SOL    HW225680   2.422   6.807   1.886
 8261SOL     OW25681   5.694   0.479   2.210
 8261SOL    HW125682   5.645   0.397   2.241
 8261SOL    HW225683   5.739   0.461   2.123
 8262SOL     OW25684   0.282   3.132   0.581
 8262SOL    HW125685   0.242   3.117   0.490
 8262SOL    HW225686   0.211   3.164   0.644
 8263SOL     OW25687   0.935   2.305   6.568
 8263SOL    HW125688   0.854   2.261   6.604
 8263SOL    HW225689   0.913   2.352   6.482
 8264SOL     OW25690   2.734   6.608   2.541
 8264SOL    HW125691   2.707   6.570   2.629
 8264SOL    HW225692   2.694   6.699   2.530
 8265SOL     OW25693   0.088   0.187   1.223
 8265SOL    HW125694   0.072   0.142   1.135
 8265SOL    HW225695   0.179   0.229   1.223
 8266SOL     OW25696   2.071   0.902   3.386
 8266SOL    HW125697   2.149   0.955   3.420
 8266SOL    HW225698   1.990   0.960   3.383
 8267SOL     OW25699   1.611   2.923   1.737
 8267SOL    HW125700   1.616   2.830   1.772
 8267SOL    HW225701   1.694   2.973   1.763
 8268SOL     OW25702   1.821   6.154   5.805
 8268SOL    HW125703   1.848   6.183   5.897
 8268SOL    HW225704   1.865   6.067   5.783
 8269SOL     OW25705   4.244   1.631   2.098
 8269SOL    HW125706   4.340   1.606   2.107
 8269SOL    HW225707   4.197   1.612   2.184
 8270SOL     OW25708   2.767   6.651   5.548
 8270SOL    HW125709   2.675   6.644   5.508
 8270SOL    HW225710   2.828   6.587   5.501
 8271SOL     OW25711   0.282   0.276   2.942
 8271SOL    HW125712   0.331   0.341   2.885
 8271SOL    HW225713   0.238   0.207   2.884
 8272SOL     OW25714   5.592   1.751   2.359
 8272SOL    HW125715   5.563   1.695   2.282
 8272SOL    HW225716   5.520   1.817   2.381
 8273SOL     OW25717   2.867   0.854   6.708
 8273SOL    HW125718   2.837   0.837   6.614
 8273SOL    HW225719   2.880   0.767   6.754
 8274SOL     OW25720   5.245   4.932   4.126
 8274SOL    HW125721   5.151   4.944   4.094
 8274SOL    HW225722   5.267   5.002   4.193
 8275SOL     OW25723   5.581   1.361   5.748
 8275SOL    HW125724   5.581   1.336   5.845
 8275SOL    HW225725   5.491   1.342   5.709
 8276SOL     OW25726   0.409   2.178   3.315
 8276SOL    HW125727   0.379   2.100   3.260
 8276SOL    HW225728   0.479   2.230   3.265
 8277SOL     OW25729   6.857   6.101   6.687
 8277SOL    HW125730   6.906   6.016   6.665
 8277SOL    HW225731   6.842   6.153   6.604
 8278SOL     OW25732   2.889   2.217   5.722
 8278SOL    HW125733   2.898   2.138   5.782
 8278SOL    HW225734   2.797   2.219   5.683
 8279SOL     OW25735   1.428   6.605   4.766
 8279SOL    HW125736   1.358   6.667   4.731
 8279SOL    HW225737   1.517   6.633   4.731
 8280SOL     OW25738   2.508   3.579   0.938
 8280SOL    HW125739   2.427   3.571   0.997
 8280SOL    HW225740   2.503   3.664   0.885
 8281SOL     OW25741   3.171   4.431   1.678
 8281SOL    HW125742   3.227   4.356   1.643
 8281SOL    HW225743   3.075   4.401   1.686
 8282SOL     OW25744   4.423   3.663   6.817
 8282SOL    HW125745   4.464   3.754   6.816
 8282SOL    HW225746   4.331   3.666   6.778
 8283SOL     OW25747   1.608   5.417   6.007
 8283SOL    HW125748   1.599   5.515   6.026
 8283SOL    HW225749   1.705   5.392   6.009
 8284SOL     OW25750   1.086   3.591   1.315
 8284SOL    HW125751   1.150   3.622   1.244
 8284SOL    HW225752   1.000   3.641   1.307
 8285SOL     OW25753   2.951   3.676   4.565
 8285SOL    HW125754   2.968   3.649   4.660
 8285SOL    HW225755   2.918   3.597   4.514
 8286SOL     OW25756   5.800   2.129   6.384
 8286SOL    HW125757   5.775   2.223   6.360
 8286SOL    HW225758   5.897   2.125   6.407
 8287SOL     OW25759   2.038   5.340   4.497
 8287SOL    HW125760   1.987   5.297   4.423
 8287SOL    HW225761   2.055   5.273   4.569
 8288SOL     OW25762   3.254   1.914   1.584
 8288SOL    HW125763   3.354   1.927   1.583
 8288SOL    HW225764   3.217   1.948   1.670
 8289SOL     OW25765   0.472   5.401   0.893
 8289SOL    HW125766   0.466   5.483   0.950
 8289SOL    HW225767   0.545   5.412   0.827
 8290SOL     OW25768   5.721   1.327   1.190
 8290SOL    HW125769   5.658   1.252   1.167
 8290SOL    HW225770   5.815   1.293   1.186
 8291SOL     OW25771   5.011   6.344   5.195
 8291SOL    HW125772   4.986   6.349   5.099
 8291SOL    HW225773   5.046   6.433   5.225
 8292SOL     OW25774   2.762   6.592   6.893
 8292SOL    HW125775   2.668   6.593   6.859
 8292SOL    HW225776   2.810   6.672   6.860
 8293SOL     OW25777   3.158   6.088   0.637
 8293SOL    HW125778   3.216   6.007   0.637
 8293SOL    HW225779   3.130   6.109   0.730
 8294SOL     OW25780   5.553   3.712   5.546
 8294SOL    HW125781   5.504   3.792   5.581
 8294SOL    HW225782   5.617   3.679   5.616
 8295SOL     OW25783   5.243   5.304   1.940
 8295SOL    HW125784   5.163   5.263   1.896
 8295SOL    HW225785   5.306   5.337   1.869
 8296SOL     OW25786   1.157   4.849   6.606
 8296SOL    HW125787   1.134   4.755   6.581
 8296SOL    HW225788   1.145   4.861   6.704
 8297SOL     OW25789   6.620   2.864   2.364
 8297SOL    HW125790   6.585   2.828   2.278
 8297SOL    HW225791   6.604   2.799   2.438
 8298SOL     OW25792   6.488   1.373   1.685
 8298SOL    HW125793   6.525   1.451   1.734
 8298SOL    HW225794   6.547   1.293   1.699
 8299SOL     OW25795   6.400   2.744   1.420
 8299SOL    HW125796   6.311   2.728   1.379
 8299SOL    HW225797   6.409   2.688   1.503
 8300SOL     OW25798   0.333   6.140   4.860
 8300SOL    HW125799   0.277   6.177   4.935
 8300SOL    HW225800   0.391   6.066   4.895
 8301SOL     OW25801   3.965   1.575   1.146
 8301SOL    HW125802   3.962   1.588   1.047
 8301SOL    HW225803   3.877   1.602   1.186
 8302SOL     OW25804   6.053   6.697   6.846
 8302SOL    HW125805   6.107   6.683   6.763
 8302SOL    HW225806   5.956   6.680   6.826
 8303SOL     OW25807   6.479   0.876   3.555
 8303SOL    HW125808   6.503   0.812   3.482
 8303SOL    HW225809   6.485   0.830   3.643
 8304SOL     OW25810   0.106   3.251   0.745
 8304SOL    HW125811   0.087   3.251   0.843
 8304SOL    HW225812   0.051   3.322   0.701
 8305SOL     OW25813   4.997   5.093   4.395
 8305SOL    HW125814   4.980   4.994   4.400
 8305SOL    HW225815   4.942   5.140   4.464
 8306SOL     OW25816   6.211   2.609   5.754
 8306SOL    HW125817   6.258   2.654   5.830
 8306SOL    HW225818   6.206   2.671   5.676
 8307SOL     OW25819   3.443   5.494   1.677
 8307SOL    HW125820   3.370   5.486   1.609
 8307SOL    HW225821   3.449   5.589   1.708
 8308SOL     OW25822   3.438   5.887   1.494
 8308SOL    HW125823   3.506   5.952   1.460
 8308SOL    HW225824   3.475   5.838   1.573
 8309SOL     OW25825   0.085   5.062   4.154
 8309SOL    HW125826   0.183   5.080   4.147
 8309SOL    HW225827   0.071   4.980   4.211
 8310SOL     OW25828   6.962   5.171   0.694
 8310SOL    HW125829   0.029   5.191   0.652
 8310SOL    HW225830   6.920   5.092   0.648
 8311SOL     OW25831   0.511   1.519   4.324
 8311SOL    HW125832   0.444   1.573   4.373
 8311SOL    HW225833   0.537   1.440   4.380
 8312SOL     OW25834   5.123   0.609   0.030
 8312SOL    HW125835   5.029   0.626   0.001
 8312SOL    HW225836   5.176   0.693   0.024
 8313SOL     OW25837   5.201   0.265   0.972
 8313SOL    HW125838   5.264   0.206   0.922
 8313SOL    HW225839   5.111   0.220   0.977
 8314SOL     OW25840   4.717   0.688   0.444
 8314SOL    HW125841   4.673   0.774   0.415
 8314SOL    HW225842   4.724   0.687   0.544
 8315SOL     OW25843   4.238   2.794   1.411
 8315SOL    HW125844   4.327   2.749   1.412
 8315SOL    HW225845   4.233   2.859   1.487
 8316SOL     OW25846   1.094   2.195   1.877
 8316SOL    HW125847   1.069   2.275   1.932
 8316SOL    HW225848   1.191   2.174   1.891
 8317SOL     OW25849   1.979   2.889   2.864
 8317SOL    HW125850   2.047   2.959   2.884
 8317SOL    HW225851   2.023   2.815   2.813
 8318SOL     OW25852   4.334   1.323   4.848
 8318SOL    HW125853   4.319   1.276   4.935
 8318SOL    HW225854   4.309   1.263   4.773
 8319SOL     OW25855   1.754   1.854   6.975
 8319SOL    HW125856   1.805   1.806   6.904
 8319SOL    HW225857   1.785   1.949   6.980
 8320SOL     OW25858   3.164   3.490   2.126
 8320SOL    HW125859   3.102   3.511   2.050
 8320SOL    HW225860   3.212   3.573   2.154
 8321SOL     OW25861   6.509   0.301   6.332
 8321SOL    HW125862   6.518   0.374   6.400
 8321SOL    HW225863   6.549   0.332   6.245
 8322SOL     OW25864   6.505   6.750   0.778
 8322SOL    HW125865   6.547   6.715   0.862
 8322SOL    HW225866   6.464   6.839   0.796
 8323SOL     OW25867   5.349   5.304   2.448
 8323SOL    HW125868   5.307   5.284   2.359
 8323SOL    HW225869   5.278   5.307   2.518
 8324SOL     OW25870   5.531   6.933   1.302
 8324SOL    HW125871   5.474   6.923   1.221
 8324SOL    HW225872   5.593   7.011   1.290
 8325SOL     OW25873   2.661   3.601   5.448
 8325SOL    HW125874   2.621   3.510   5.453
 8325SOL    HW225875   2.715   3.619   5.530
 8326SOL     OW25876   5.010   3.535   5.537
 8326SOL    HW125877   4.989   3.474   5.460
 8326SOL    HW225878   4.941   3.525   5.608
 8327SOL     OW25879   6.495   1.316   6.451
 8327SOL    HW125880   6.535   1.225   6.461
 8327SOL    HW225881   6.553   1.384   6.495
 8328SOL     OW25882   2.720   5.928   5.999
 8328SOL    HW125883   2.784   5.957   5.927
 8328SOL    HW225884   2.697   6.006   6.056
 8329SOL     OW25885   0.861   2.990   5.986
 8329SOL    HW125886   0.837   3.051   6.062
 8329SOL    HW225887   0.901   3.045   5.911
 8330SOL     OW25888   2.636   1.004   6.807
 8330SOL    HW125889   2.656   1.046   6.895
 8330SOL    HW225890   2.716   0.952   6.776
 8331SOL     OW25891   3.554   1.356   1.358
 8331SOL    HW125892   3.564   1.422   1.284
 8331SOL    HW225893   3.526   1.403   1.442
 8332SOL     OW25894   4.629   5.125   2.528
 8332SOL    HW125895   4.531   5.142   2.531
 8332SOL    HW225896   4.646   5.027   2.522
 8333SOL     OW25897   0.055   6.171   6.127
 8333SOL    HW125898   0.118   6.226   6.182
 8333SOL    HW225899   7.008   6.231   6.084
 8334SOL     OW25900   3.931   1.127   3.868
 8334SOL    HW125901   3.836   1.115   3.839
 8334SOL    HW225902   3.989   1.138   3.787
 8335SOL     OW25903   5.777   6.478   6.806
 8335SOL    HW125904   5.755   6.514   6.715
 8335SOL    HW225905   5.795   6.380   6.799
 8336SOL     OW25906   6.822   5.391   3.150
 8336SOL    HW125907   6.844   5.317   3.087
 8336SOL    HW225908   6.798   5.473   3.097
 8337SOL     OW25909   2.232   5.957   2.682
 8337SOL    HW125910   2.239   5.994   2.590
 8337SOL    HW225911   2.228   5.857   2.679
 8338SOL     OW25912   2.987   5.480   1.888
 8338SOL    HW125913   3.042   5.563   1.893
 8338SOL    HW225914   2.910   5.494   1.826
 8339SOL     OW25915   5.887   0.752   1.057
 8339SOL    HW125916   5.922   0.769   1.149
 8339SOL    HW225917   5.940   0.804   0.990
 8340SOL     OW25918   4.825   2.811   1.339
 8340SOL    HW125919   4.745   2.753   1.355
 8340SOL    HW225920   4.904   2.772   1.387
 8341SOL     OW25921   2.638   6.407   0.520
 8341SOL    HW125922   2.667   6.322   0.476
 8341SOL    HW225923   2.665   6.485   0.464
 8342SOL     OW25924   4.523   6.460   1.936
 8342SOL    HW125925   4.545   6.553   1.966
 8342SOL    HW225926   4.431   6.436   1.965
 8343SOL     OW25927   1.655   5.930   5.497
 8343SOL    HW125928   1.573   5.896   5.452
 8343SOL    HW225929   1.654   6.030   5.499
 8344SOL     OW25930   4.778   6.300   4.734
 8344SOL    HW125931   4.811   6.347   4.652
 8344SOL    HW225932   4.679   6.291   4.731
 8345SOL     OW25933   4.249   1.531   3.098
 8345SOL    HW125934   4.284   1.562   3.009
 8345SOL    HW225935   4.149   1.536   3.098
 8346SOL     OW25936   3.230   5.015   0.811
 8346SOL    HW125937   3.302   4.982   0.872
 8346SOL    HW225938   3.246   4.983   0.718
 8347SOL     OW25939   3.362   5.398   4.731
 8347SOL    HW125940   3.318   5.327   4.676
 8347SOL    HW225941   3.342   5.383   4.828
 8348SOL     OW25942   2.397   0.363   2.364
 8348SOL    HW125943   2.366   0.399   2.276
 8348SOL    HW225944   2.329   0.385   2.434
 8349SOL     OW25945   5.683   6.191   1.711
 8349SOL    HW125946   5.690   6.267   1.775
 8349SOL    HW225947   5.587   6.173   1.690
 8350SOL     OW25948   4.331   6.708   5.594
 8350SOL    HW125949   4.265   6.659   5.650
 8350SOL    HW225950   4.386   6.768   5.652
 8351SOL     OW25951   5.288   4.735   4.336
 8351SOL    HW125952   5.256   4.705   4.246
 8351SOL    HW225953   5.278   4.661   4.402
 8352SOL     OW25954   0.877   0.023   3.404
 8352SOL    HW125955   0.973   0.051   3.410
 8352SOL    HW225956   0.819   0.103   3.422
 8353SOL     OW25957   6.892   3.160   1.351
 8353SOL    HW125958   6.969   3.115   1.397
 8353SOL    HW225959   6.924   3.243   1.306
 8354SOL     OW25960   3.647   6.616   6.297
 8354SOL    HW125961   3.603   6.654   6.215
 8354SOL    HW225962   3.627   6.518   6.303
 8355SOL     OW25963   2.701   0.842   6.475
 8355SOL    HW125964   2.645   0.816   6.397
 8355SOL    HW225965   2.671   0.931   6.510
 8356SOL     OW25966   0.968   6.075   0.880
 8356SOL    HW125967   1.033   6.139   0.920
 8356SOL    HW225968   0.876   6.114   0.885
 8357SOL     OW25969   4.308   0.386   5.031
 8357SOL    HW125970   4.400   0.426   5.035
 8357SOL    HW225971   4.314   0.293   4.994
 8358SOL     OW25972   1.003   4.354   5.590
 8358SOL    HW125973   1.039   4.367   5.497
 8358SOL    HW225974   0.969   4.441   5.625
 8359SOL     OW25975   2.796   0.882   5.120
 8359SOL    HW125976   2.842   0.971   5.129
 8359SOL    HW225977   2.838   0.817   5.183
 8360SOL     OW25978   2.909   5.829   1.644
 8360SOL    HW125979   2.984   5.836   1.579
 8360SOL    HW225980   2.837   5.895   1.620
 8361SOL     OW25981   3.326   0.194   2.531
 8361SOL    HW125982   3.330   0.288   2.498
 8361SOL    HW225983   3.418   0.162   2.553
 8362SOL     OW25984   3.885   2.236   0.478
 8362SOL    HW125985   3.811   2.230   0.411
 8362SOL    HW225986   3.892   2.150   0.529
 8363SOL     OW25987   0.223   2.890   6.402
 8363SOL    HW125988   0.241   2.792   6.393
 8363SOL    HW225989   0.224   2.934   6.312
 8364SOL     OW25990   0.912   3.102   2.849
 8364SOL    HW125991   0.866   3.191   2.846
 8364SOL    HW225992   0.997   3.111   2.902
 8365SOL     OW25993   2.441   4.219   1.897
 8365SOL    HW125994   2.356   4.242   1.944
 8365SOL    HW225995   2.500   4.166   1.957
 8366SOL     OW25996   2.068   5.792   1.747
 8366SOL    HW125997   1.993   5.788   1.814
 8366SOL    HW225998   2.155   5.804   1.796
 8367SOL     OW25999   4.148   6.412   3.586
 8367SOL    HW126000   4.104   6.474   3.650
 8367SOL    HW226001   4.206   6.465   3.523
 8368SOL     OW26002   2.295   6.511   6.642
 8368SOL    HW126003   2.261   6.494   6.735
 8368SOL    HW226004   2.267   6.436   6.582
 8369SOL     OW26005   2.227   6.728   6.465
 8369SOL    HW126006   2.279   6.656   6.511
 8369SOL    HW226007   2.290   6.798   6.431
 8370SOL     OW26008   2.718   1.892   5.481
 8370SOL    HW126009   2.817   1.908   5.483
 8370SOL    HW226010   2.673   1.968   5.433
 8371SOL     OW26011   2.142   4.175   0.734
 8371SOL    HW126012   2.197   4.150   0.813
 8371SOL    HW226013   2.060   4.223   0.764
 8372SOL     OW26014   0.571   5.350   2.177
 8372SOL    HW126015   0.496   5.354   2.244
 8372SOL    HW226016   0.571   5.261   2.132
 8373SOL     OW26017   1.436   6.921   3.785
 8373SOL    HW126018   1.458   6.976   3.705
 8373SOL    HW226019   1.455   6.825   3.765
 8374SOL     OW26020   6.805   0.859   5.401
 8374SOL    HW126021   6.889   0.811   5.427
 8374SOL    HW226022   6.828   0.952   5.370
 8375SOL     OW26023   3.949   6.976   5.059
 8375SOL    HW126024   4.010   6.907   5.097
 8375SOL    HW226025   3.897   6.936   4.982
 8376SOL     OW26026   1.737   0.738   4.274
 8376SOL    HW126027   1.685   0.656   4.251
 8376SOL    HW226028   1.679   0.819   4.263
 8377SOL     OW26029   5.189   6.113   1.538
 8377SOL    HW126030   5.181   6.194   1.479
 8377SOL    HW226031   5.126   6.043   1.506
 8378SOL     OW26032   4.255   4.631   2.758
 8378SOL    HW126033   4.326   4.566   2.787
 8378SOL    HW226034   4.236   4.694   2.833
 8379SOL     OW26035   6.002   2.401   1.152
 8379SOL    HW126036   6.080   2.365   1.203
 8379SOL    HW226037   5.957   2.326   1.103
 8380SOL     OW26038   6.959   0.271   2.371
 8380SOL    HW126039   7.008   0.240   2.453
 8380SOL    HW226040   6.870   0.307   2.397
 8381SOL     OW26041   0.068   2.643   5.159
 8381SOL    HW126042   0.123   2.709   5.211
 8381SOL    HW226043   0.052   2.678   5.067
 8382SOL     OW26044   2.616   0.621   2.592
 8382SOL    HW126045   2.619   0.717   2.618
 8382SOL    HW226046   2.612   0.564   2.674
 8383SOL     OW26047   2.177   0.064   5.572
 8383SOL    HW126048   2.233   0.131   5.524
 8383SOL    HW226049   2.228   7.000   5.582
 8384SOL     OW26050   0.081   0.720   0.723
 8384SOL    HW126051   7.005   0.711   0.698
 8384SOL    HW226052   0.099   0.668   0.806
 8385SOL     OW26053   6.475   1.611   1.214
 8385SOL    HW126054   6.383   1.599   1.251
 8385SOL    HW226055   6.542   1.605   1.288
 8386SOL     OW26056   1.571   5.070   1.892
 8386SOL    HW126057   1.495   5.134   1.900
 8386SOL    HW226058   1.536   4.980   1.866
 8387SOL     OW26059   1.724   1.403   2.471
 8387SOL    HW126060   1.767   1.409   2.561
 8387SOL    HW226061   1.715   1.307   2.444
 8388SOL     OW26062   2.455   6.337   0.731
 8388SOL    HW126063   2.515   6.387   0.669
 8388SOL    HW226064   2.503   6.317   0.816
 8389SOL     OW26065   6.875   2.895   2.979
 8389SOL    HW126066   6.846   2.808   2.939
 8389SOL    HW226067   6.796   2.939   3.023
 8390SOL     OW26068   4.037   1.216   5.887
 8390SOL    HW126069   4.047   1.118   5.902
 8390SOL    HW226070   3.962   1.251   5.944
 8391SOL     OW26071   6.460   5.017   0.941
 8391SOL    HW126072   6.509   5.075   1.007
 8391SOL    HW226073   6.518   4.940   0.915
 8392SOL     OW26074   6.530   3.458   4.598
 8392SOL    HW126075   6.477   3.402   4.535
 8392SOL    HW226076   6.546   3.548   4.557
 8393SOL     OW26077   0.045   0.049   3.021
 8393SOL    HW126078   0.012   0.098   3.101
 8393SOL    HW226079   6.988   0.019   2.966
 8394SOL     OW26080   6.312   2.283   1.000
 8394SOL    HW126081   6.353   2.286   0.909
 8394SOL    HW226082   6.224   2.237   0.996
 8395SOL     OW26083   3.062   6.730   5.436
 8395SOL    HW126084   3.002   6.719   5.357
 8395SOL    HW226085   3.031   6.807   5.492
 8396SOL     OW26086   4.695   5.798   3.300
 8396SOL    HW126087   4.745   5.805   3.213
 8396SOL    HW226088   4.671   5.890   3.332
 8397SOL     OW26089   1.543   0.754   2.297
 8397SOL    HW126090   1.476   0.825   2.319
 8397SOL    HW226091   1.584   0.772   2.207
 8398SOL     OW26092   3.869   2.240   5.923
 8398SOL    HW126093   3.831   2.330   5.944
 8398SOL    HW226094   3.920   2.205   6.001
 8399SOL     OW26095   5.728   7.010   6.744
 8399SOL    HW126096   5.661   0.001   6.818
 8399SOL    HW226097   5.756   6.914   6.740
 8400SOL     OW26098   1.984   0.931   3.999
 8400SOL    HW126099   2.007   0.854   4.058
 8400SOL    HW226100   1.887   0.928   3.976
 8401SOL     OW26101   2.378   1.353   5.238
 8401SOL    HW126102   2.398   1.443   5.200
 8401SOL    HW226103   2.295   1.316   5.196
 8402SOL     OW26104   4.711   1.868   6.441
 8402SOL    HW126105   4.746   1.803   6.373
 8402SOL    HW226106   4.630   1.830   6.485
 8403SOL     OW26107   6.867   3.489   4.493
 8403SOL    HW126108   6.911   3.400   4.505
 8403SOL    HW226109   6.798   3.502   4.565
 8404SOL     OW26110   3.586   6.515   5.864
 8404SOL    HW126111   3.684   6.535   5.864
 8404SOL    HW226112   3.569   6.430   5.814
 8405SOL     OW26113   2.297   1.466   5.658
 8405SOL    HW126114   2.366   1.516   5.605
 8405SOL    HW226115   2.301   1.496   5.753
 8406SOL     OW26116   3.972   0.814   0.149
 8406SOL    HW126117   3.966   0.825   0.050
 8406SOL    HW226118   4.068   0.808   0.177
 8407SOL     OW26119   3.460   6.521   3.101
 8407SOL    HW126120   3.477   6.425   3.082
 8407SOL    HW226121   3.453   6.535   3.200
 8408SOL     OW26122   5.466   3.965   1.301
 8408SOL    HW126123   5.541   4.012   1.347
 8408SOL    HW226124   5.471   3.867   1.320
 8409SOL     OW26125   4.790   1.482   3.371
 8409SOL    HW126126   4.722   1.414   3.346
 8409SOL    HW226127   4.849   1.502   3.292
 8410SOL     OW26128   5.622   0.821   1.448
 8410SOL    HW126129   5.610   0.743   1.388
 8410SOL    HW226130   5.665   0.792   1.533
 8411SOL     OW26131   0.821   5.142   0.088
 8411SOL    HW126132   0.782   5.054   0.117
 8411SOL    HW226133   0.760   5.216   0.114
 8412SOL     OW26134   3.538   2.714   1.232
 8412SOL    HW126135   3.522   2.615   1.233
 8412SOL    HW226136   3.561   2.745   1.324
 8413SOL     OW26137   4.660   5.879   6.804
 8413SOL    HW126138   4.606   5.796   6.790
 8413SOL    HW226139   4.738   5.859   6.864
 8414SOL     OW26140   3.503   6.944   3.516
 8414SOL    HW126141   3.453   6.862   3.543
 8414SOL    HW226142   3.601   6.922   3.511
 8415SOL     OW26143   0.550   6.073   4.015
 8415SOL    HW126144   0.549   6.083   3.915
 8415SOL    HW226145   0.640   6.098   4.050
 8416SOL     OW26146   6.054   2.603   2.871
 8416SOL    HW126147   5.981   2.616   2.938
 8416SOL    HW226148   6.142   2.627   2.912
 8417SOL     OW26149   0.933   3.300   5.703
 8417SOL    HW126150   0.924   3.342   5.793
 8417SOL    HW226151   1.029   3.303   5.674
 8418SOL     OW26152   6.057   5.412   1.284
 8418SOL    HW126153   5.997   5.487   1.256
 8418SOL    HW226154   6.085   5.360   1.203
 8419SOL     OW26155   5.537   0.300   1.958
 8419SOL    HW126156   5.501   0.242   1.885
 8419SOL    HW226157   5.637   0.304   1.950
 8420SOL     OW26158   4.127   0.150   0.715
 8420SOL    HW126159   4.150   0.075   0.653
 8420SOL    HW226160   4.072   0.218   0.667
 8421SOL     OW26161   3.283   5.778   0.119
 8421SOL    HW126162   3.227   5.859   0.132
 8421SOL    HW226163   3.300   5.763   0.021
 8422SOL     OW26164   4.199   1.379   1.993
 8422SOL    HW126165   4.185   1.470   2.033
 8422SOL    HW226166   4.187   1.383   1.894
 8423SOL     OW26167   3.469   5.127   5.957
 8423SOL    HW126168   3.466   5.221   5.991
 8423SOL    HW226169   3.382   5.082   5.975
 8424SOL     OW26170   1.688   2.053   2.347
 8424SOL    HW126171   1.600   2.046   2.395
 8424SOL    HW226172   1.758   2.004   2.398
 8425SOL     OW26173   4.400   4.677   5.932
 8425SOL    HW126174   4.395   4.582   5.903
 8425SOL    HW226175   4.375   4.684   6.029
 8426SOL     OW26176   3.893   3.362   3.100
 8426SOL    HW126177   3.851   3.345   3.189
 8426SOL    HW226178   3.982   3.405   3.113
 8427SOL     OW26179   3.795   3.926   3.920
 8427SOL    HW126180   3.813   3.828   3.912
 8427SOL    HW226181   3.801   3.969   3.830
 8428SOL     OW26182   0.549   6.129   1.410
 8428SOL    HW126183   0.586   6.069   1.340
 8428SOL    HW226184   0.577   6.096   1.500
 8429SOL     OW26185   1.674   6.169   5.123
 8429SOL    HW126186   1.602   6.218   5.173
 8429SOL    HW226187   1.738   6.130   5.189
 8430SOL     OW26188   3.588   5.314   4.045
 8430SOL    HW126189   3.549   5.404   4.062
 8430SOL    HW226190   3.645   5.317   3.962
 8431SOL     OW26191   3.829   3.578   0.913
 8431SOL    HW126192   3.804   3.567   0.817
 8431SOL    HW226193   3.767   3.525   0.970
 8432SOL     OW26194   5.805   6.301   5.250
 8432SOL    HW126195   5.884   6.264   5.298
 8432SOL    HW226196   5.807   6.271   5.154
 8433SOL     OW26197   4.359   2.768   0.666
 8433SOL    HW126198   4.274   2.727   0.701
 8433SOL    HW226199   4.388   2.718   0.584
 8434SOL     OW26200   2.838   0.386   4.686
 8434SOL    HW126201   2.769   0.398   4.758
 8434SOL    HW226202   2.929   0.400   4.724
 8435SOL     OW26203   6.019   0.610   1.907
 8435SOL    HW126204   6.109   0.566   1.913
 8435SOL    HW226205   6.016   0.687   1.972
 8436SOL     OW26206   3.268   6.311   3.388
 8436SOL    HW126207   3.348   6.292   3.445
 8436SOL    HW226208   3.208   6.232   3.388
 8437SOL     OW26209   2.207   0.968   3.834
 8437SOL    HW126210   2.275   1.019   3.886
 8437SOL    HW226211   2.131   0.943   3.894
 8438SOL     OW26212   2.077   4.229   2.779
 8438SOL    HW126213   2.092   4.247   2.877
 8438SOL    HW226214   2.133   4.152   2.750
 8439SOL     OW26215   5.882   4.984   2.769
 8439SOL    HW126216   5.817   5.057   2.792
 8439SOL    HW226217   5.874   4.911   2.836
 8440SOL     OW26218   2.214   1.415   3.772
 8440SOL    HW126219   2.261   1.381   3.853
 8440SOL    HW226220   2.188   1.511   3.787
 8441SOL     OW26221   5.265   6.988   0.219
 8441SOL    HW126222   5.324   6.924   0.268
 8441SOL    HW226223   5.207   6.938   0.155
 8442SOL     OW26224   3.677   2.452   5.376
 8442SOL    HW126225   3.604   2.407   5.325
 8442SOL    HW226226   3.658   2.447   5.474
 8443SOL     OW26227   2.473   4.438   3.763
 8443SOL    HW126228   2.518   4.491   3.691
 8443SOL    HW226229   2.540   4.410   3.831
 8444SOL     OW26230   3.378   6.657   4.520
 8444SOL    HW126231   3.308   6.727   4.514
 8444SOL    HW226232   3.360   6.585   4.452
 8445SOL     OW26233   2.718   0.366   1.511
 8445SOL    HW126234   2.805   0.363   1.461
 8445SOL    HW226235   2.733   0.411   1.600
 8446SOL     OW26236   5.547   5.763   5.982
 8446SOL    HW126237   5.558   5.705   6.062
 8446SOL    HW226238   5.510   5.852   6.010
 8447SOL     OW26239   4.574   1.874   2.313
 8447SOL    HW126240   4.550   1.802   2.248
 8447SOL    HW226241   4.673   1.881   2.321
 8448SOL     OW26242   4.226   6.414   4.256
 8448SOL    HW126243   4.231   6.468   4.172
 8448SOL    HW226244   4.166   6.336   4.242
 8449SOL     OW26245   7.018   3.462   3.849
 8449SOL    HW126246   0.007   3.379   3.905
 8449SOL    HW226247   6.983   3.437   3.759
 8450SOL     OW26248   0.631   0.067   1.442
 8450SOL    HW126249   0.727   0.095   1.447
 8450SOL    HW226250   0.576   0.141   1.404
 8451SOL     OW26251   3.319   1.719   0.454
 8451SOL    HW126252   3.358   1.653   0.519
 8451SOL    HW226253   3.327   1.811   0.491
 8452SOL     OW26254   6.050   2.396   3.789
 8452SOL    HW126255   6.121   2.344   3.836
 8452SOL    HW226256   6.067   2.393   3.690
 8453SOL     OW26257   0.285   4.922   0.195
 8453SOL    HW126258   0.211   4.979   0.157
 8453SOL    HW226259   0.372   4.951   0.156
 8454SOL     OW26260   0.002   6.034   1.386
 8454SOL    HW126261   7.015   5.954   1.444
 8454SOL    HW226262   0.097   6.066   1.386
 8455SOL     OW26263   0.063   1.777   1.708
 8455SOL    HW126264   0.072   1.678   1.696
 8455SOL    HW226265   0.077   1.801   1.804
 8456SOL     OW26266   3.970   6.209   3.363
 8456SOL    HW126267   3.879   6.228   3.399
 8456SOL    HW226268   4.031   6.182   3.439
 8457SOL     OW26269   0.363   7.011   4.428
 8457SOL    HW126270   0.453   6.996   4.388
 8457SOL    HW226271   0.363   6.976   4.522
 8458SOL     OW26272   2.979   0.557   0.392
 8458SOL    HW126273   2.971   0.577   0.295
 8458SOL    HW226274   3.042   0.622   0.435
 8459SOL     OW26275   2.820   5.575   2.226
 8459SOL    HW126276   2.733   5.529   2.209
 8459SOL    HW226277   2.887   5.509   2.259
 8460SOL     OW26278   4.420   4.392   5.365
 8460SOL    HW126279   4.390   4.401   5.270
 8460SOL    HW226280   4.379   4.310   5.406
 8461SOL     OW26281   0.345   3.331   4.895
 8461SOL    HW126282   0.295   3.418   4.897
 8461SOL    HW226283   0.411   3.333   4.820
 8462SOL     OW26284   2.038   2.492   6.593
 8462SOL    HW126285   2.010   2.485   6.689
 8462SOL    HW226286   2.137   2.508   6.588
 8463SOL     OW26287   0.184   0.040   1.565
 8463SOL    HW126288   0.142   6.975   1.536
 8463SOL    HW226289   0.115   0.098   1.608
 8464SOL     OW26290   5.738   4.352   4.196
 8464SOL    HW126291   5.711   4.325   4.288
 8464SOL    HW226292   5.766   4.448   4.196
 8465SOL     OW26293   0.707   3.360   0.620
 8465SOL    HW126294   0.792   3.399   0.583
 8465SOL    HW226295   0.661   3.307   0.549
 8466SOL     OW26296   0.576   0.212   4.020
 8466SOL    HW126297   0.647   0.273   4.053
 8466SOL    HW226298   0.594   0.119   4.053
 8467SOL     OW26299   3.170   6.563   0.632
 8467SOL    HW126300   3.226   6.480   0.637
 8467SOL    HW226301   3.229   6.643   0.622
 8468SOL     OW26302   3.812   1.738   0.376
 8468SOL    HW126303   3.720   1.777   0.367
 8468SOL    HW226304   3.806   1.653   0.428
 8469SOL     OW26305   3.806   2.024   6.561
 8469SOL    HW126306   3.723   2.074   6.583
 8469SOL    HW226307   3.876   2.087   6.528
 8470SOL     OW26308   1.199   3.347   0.374
 8470SOL    HW126309   1.237   3.274   0.431
 8470SOL    HW226310   1.270   3.416   0.358
 8471SOL     OW26311   3.038   1.461   3.256
 8471SOL    HW126312   3.108   1.515   3.210
 8471SOL    HW226313   3.064   1.364   3.252
 8472SOL     OW26314   0.478   0.577   4.763
 8472SOL    HW126315   0.570   0.601   4.730
 8472SOL    HW226316   0.465   0.616   4.854
 8473SOL     OW26317   6.076   4.982   6.408
 8473SOL    HW126318   6.138   4.929   6.350
 8473SOL    HW226319   6.122   5.064   6.441
 8474SOL     OW26320   3.345   3.075   2.378
 8474SOL    HW126321   3.313   3.045   2.288
 8474SOL    HW226322   3.295   3.157   2.405
 8475SOL     OW26323   0.280   1.992   3.089
 8475SOL    HW126324   0.330   2.063   3.039
 8475SOL    HW226325   0.263   1.914   3.029
 8476SOL     OW26326   6.403   1.025   1.185
 8476SOL    HW126327   6.385   0.996   1.279
 8476SOL    HW226328   6.337   1.096   1.160
 8477SOL     OW26329   4.251   6.282   2.408
 8477SOL    HW126330   4.166   6.335   2.413
 8477SOL    HW226331   4.297   6.285   2.496
 8478SOL     OW26332   1.358   0.882   6.028
 8478SOL    HW126333   1.440   0.934   6.052
 8478SOL    HW226334   1.363   0.791   6.070
 8479SOL     OW26335   6.146   2.539   0.965
 8479SOL    HW126336   6.074   2.547   1.033
 8479SOL    HW226337   6.109   2.494   0.883
 8480SOL     OW26338   3.736   1.175   0.119
 8480SOL    HW126339   3.689   1.256   0.084
 8480SOL    HW226340   3.835   1.189   0.115
 8481SOL     OW26341   4.835   1.907   3.803
 8481SOL    HW126342   4.787   1.995   3.808
 8481SOL    HW226343   4.769   1.833   3.790
 8482SOL     OW26344   3.876   6.749   3.051
 8482SOL    HW126345   3.956   6.809   3.045
 8482SOL    HW226346   3.842   6.748   3.145
 8483SOL     OW26347   4.217   5.517   2.384
 8483SOL    HW126348   4.232   5.514   2.483
 8483SOL    HW226349   4.302   5.540   2.337
 8484SOL     OW26350   0.629   5.587   3.165
 8484SOL    HW126351   0.662   5.502   3.124
 8484SOL    HW226352   0.530   5.582   3.178
 8485SOL     OW26353   3.179   3.575   6.825
 8485SOL    HW126354   3.265   3.612   6.792
 8485SOL    HW226355   3.188   3.550   6.921
 8486SOL     OW26356   4.845   1.024   2.658
 8486SOL    HW126357   4.894   1.040   2.573
 8486SOL    HW226358   4.908   0.991   2.728
 8487SOL     OW26359   5.911   0.589   6.679
 8487SOL    HW126360   5.986   0.539   6.635
 8487SOL    HW226361   5.828   0.579   6.625
 8488SOL     OW26362   5.915   4.527   5.182
 8488SOL    HW126363   5.926   4.625   5.164
 8488SOL    HW226364   5.957   4.474   5.108
 8489SOL     OW26365   6.122   1.057   1.105
 8489SOL    HW126366   6.118   0.984   1.037
 8489SOL    HW226367   6.081   1.025   1.190
 8490SOL     OW26368   4.173   6.935   4.564
 8490SOL    HW126369   4.165   0.013   4.575
 8490SOL    HW226370   4.261   6.904   4.601
 8491SOL     OW26371   1.809   0.183   1.165
 8491SOL    HW126372   1.815   0.262   1.225
 8491SOL    HW226373   1.718   0.142   1.173
 8492SOL     OW26374   4.038   4.027   6.949
 8492SOL    HW126375   4.111   4.050   6.884
 8492SOL    HW226376   4.078   3.981   0.008
 8493SOL     OW26377   2.749   1.808   6.159
 8493SOL    HW126378   2.834   1.853   6.186
 8493SOL    HW226379   2.768   1.713   6.134
 8494SOL     OW26380   2.841   4.848   0.555
 8494SOL    HW126381   2.847   4.785   0.633
 8494SOL    HW226382   2.885   4.934   0.580
 8495SOL     OW26383   6.363   4.124   0.860
 8495SOL    HW126384   6.348   4.149   0.955
 8495SOL    HW226385   6.461   4.126   0.840
 8496SOL     OW26386   0.593   2.207   1.666
 8496SOL    HW126387   0.572   2.209   1.568
 8496SOL    HW226388   0.693   2.209   1.678
 8497SOL     OW26389   6.368   0.836   3.805
 8497SOL    HW126390   6.299   0.818   3.876
 8497SOL    HW226391   6.432   0.905   3.838
 8498SOL     OW26392   0.337   6.017   2.679
 8498SOL    HW126393   0.366   6.051   2.589
 8498SOL    HW226394   0.244   6.048   2.698
 8499SOL     OW26395   2.523   5.245   6.937
 8499SOL    HW126396   2.447   5.236   6.873
 8499SOL    HW226397   2.497   5.205   0.004
 8500SOL     OW26398   2.332   0.273   5.472
 8500SOL    HW126399   2.409   0.239   5.418
 8500SOL    HW226400   2.366   0.313   5.557
 8501SOL     OW26401   0.688   2.928   0.274
 8501SOL    HW126402   0.674   2.947   0.177
 8501SOL    HW226403   0.674   2.831   0.292
 8502SOL     OW26404   1.508   4.927   1.283
 8502SOL    HW126405   1.552   4.927   1.193
 8502SOL    HW226406   1.515   5.017   1.324
 8503SOL     OW26407   1.452   6.428   3.424
 8503SOL    HW126408   1.405   6.341   3.404
 8503SOL    HW226409   1.389   6.504   3.406
 8504SOL     OW26410   2.355   5.661   3.463
 8504SOL    HW126411   2.370   5.747   3.512
 8504SOL    HW226412   2.403   5.587   3.511
 8505SOL     OW26413   4.934   3.866   3.823
 8505SOL    HW126414   4.931   3.958   3.861
 8505SOL    HW226415   4.898   3.800   3.890
 8506SOL     OW26416   6.650   0.696   0.125
 8506SOL    HW126417   6.632   0.773   0.063
 8506SOL    HW226418   6.705   0.627   0.078
 8507SOL     OW26419   3.103   1.206   5.612
 8507SOL    HW126420   3.173   1.171   5.675
 8507SOL    HW226421   3.013   1.179   5.644
 8508SOL     OW26422   6.693   2.504   5.234
 8508SOL    HW126423   6.731   2.554   5.312
 8508SOL    HW226424   6.729   2.411   5.233
 8509SOL     OW26425   4.696   1.728   3.455
 8509SOL    HW126426   4.715   1.637   3.418
 8509SOL    HW226427   4.713   1.728   3.554
 8510SOL     OW26428   5.029   4.225   3.012
 8510SOL    HW126429   5.035   4.130   3.042
 8510SOL    HW226430   5.122   4.262   3.002
 8511SOL     OW26431   5.988   3.961   1.891
 8511SOL    HW126432   5.914   3.917   1.840
 8511SOL    HW226433   6.072   3.907   1.881
 8512SOL     OW26434   3.079   2.244   0.972
 8512SOL    HW126435   3.043   2.155   0.943
 8512SOL    HW226436   3.158   2.229   1.033
 8513SOL     OW26437   4.819   4.117   1.649
 8513SOL    HW126438   4.852   4.099   1.742
 8513SOL    HW226439   4.893   4.097   1.584
 8514SOL     OW26440   3.040   1.949   4.142
 8514SOL    HW126441   3.065   1.914   4.052
 8514SOL    HW226442   3.075   1.888   4.213
 8515SOL     OW26443   5.900   1.521   6.692
 8515SOL    HW126444   5.834   1.554   6.760
 8515SOL    HW226445   5.864   1.438   6.649
 8516SOL     OW26446   6.861   1.439   1.128
 8516SOL    HW126447   6.808   1.521   1.105
 8516SOL    HW226448   6.830   1.362   1.073
 8517SOL     OW26449   1.689   3.275   6.467
 8517SOL    HW126450   1.751   3.202   6.494
 8517SOL    HW226451   1.600   3.236   6.442
 8518SOL     OW26452   4.892   4.559   6.224
 8518SOL    HW126453   4.814   4.619   6.209
 8518SOL    HW226454   4.937   4.540   6.137
 8519SOL     OW26455   1.699   4.644   1.477
 8519SOL    HW126456   1.759   4.595   1.413
 8519SOL    HW226457   1.692   4.592   1.562
 8520SOL     OW26458   3.491   3.578   6.827
 8520SOL    HW126459   3.518   3.671   6.854
 8520SOL    HW226460   3.562   3.513   6.855
 8521SOL     OW26461   2.257   4.748   5.750
 8521SOL    HW126462   2.215   4.826   5.797
 8521SOL    HW226463   2.308   4.692   5.816
 8522SOL     OW26464   1.562   6.244   1.349
 8522SOL    HW126465   1.574   6.187   1.430
 8522SOL    HW226466   1.560   6.341   1.376
 8523SOL     OW26467   2.001   6.342   6.760
 8523SOL    HW126468   2.082   6.396   6.782
 8523SOL    HW226469   1.955   6.315   6.844
 8524SOL     OW26470   0.314   2.347   5.580
 8524SOL    HW126471   0.270   2.268   5.622
 8524SOL    HW226472   0.414   2.338   5.588
 8525SOL     OW26473   6.482   3.912   1.754
 8525SOL    HW126474   6.496   3.982   1.684
 8525SOL    HW226475   6.486   3.954   1.845
 8526SOL     OW26476   4.216   6.446   6.899
 8526SOL    HW126477   4.297   6.388   6.911
 8526SOL    HW226478   4.146   6.395   6.848
 8527SOL     OW26479   2.897   1.142   6.409
 8527SOL    HW126480   2.851   1.193   6.482
 8527SOL    HW226481   2.991   1.122   6.437
 8528SOL     OW26482   4.033   0.850   6.898
 8528SOL    HW126483   3.933   0.841   6.893
 8528SOL    HW226484   4.068   0.880   6.810
 8529SOL     OW26485   1.180   6.871   0.945
 8529SOL    HW126486   1.262   6.920   0.915
 8529SOL    HW226487   1.185   6.855   1.044
 8530SOL     OW26488   3.939   4.183   5.688
 8530SOL    HW126489   3.867   4.126   5.729
 8530SOL    HW226490   3.948   4.268   5.741
 8531SOL     OW26491   6.093   4.978   2.352
 8531SOL    HW126492   6.011   4.997   2.298
 8531SOL    HW226493   6.080   5.011   2.445
 8532SOL     OW26494   4.196   5.098   4.706
 8532SOL    HW126495   4.161   5.125   4.796
 8532SOL    HW226496   4.131   5.125   4.636
 8533SOL     OW26497   1.791   6.230   0.308
 8533SOL    HW126498   1.702   6.222   0.352
 8533SOL    HW226499   1.863   6.198   0.370
 8534SOL     OW26500   6.081   2.575   4.311
 8534SOL    HW126501   6.164   2.613   4.270
 8534SOL    HW226502   6.083   2.591   4.410
 8535SOL     OW26503   6.478   1.088   3.383
 8535SOL    HW126504   6.472   1.047   3.292
 8535SOL    HW226505   6.500   1.018   3.450
 8536SOL     OW26506   0.073   2.379   4.468
 8536SOL    HW126507   0.126   2.426   4.539
 8536SOL    HW226508   0.100   2.414   4.378
 8537SOL     OW26509   5.788   0.422   3.017
 8537SOL    HW126510   5.870   0.400   2.965
 8537SOL    HW226511   5.779   0.521   3.025
 8538SOL     OW26512   1.166   0.836   0.420
 8538SOL    HW126513   1.073   0.844   0.383
 8538SOL    HW226514   1.219   0.773   0.364
 8539SOL     OW26515   6.168   0.753   2.713
 8539SOL    HW126516   6.090   0.755   2.650
 8539SOL    HW226517   6.167   0.666   2.764
 8540SOL     OW26518   5.197   0.656   6.194
 8540SOL    HW126519   5.148   0.732   6.236
 8540SOL    HW226520   5.176   0.653   6.097
 8541SOL     OW26521   2.782   1.685   4.065
 8541SOL    HW126522   2.734   1.748   4.127
 8541SOL    HW226523   2.787   1.726   3.974
 8542SOL     OW26524   4.251   4.797   6.603
 8542SOL    HW126525   4.231   4.818   6.699
 8542SOL    HW226526   4.238   4.700   6.587
 8543SOL     OW26527   2.629   1.482   1.283
 8543SOL    HW126528   2.687   1.404   1.305
 8543SOL    HW226529   2.591   1.470   1.191
 8544SOL     OW26530   5.487   3.397   3.953
 8544SOL    HW126531   5.444   3.345   3.879
 8544SOL    HW226532   5.417   3.438   4.011
 8545SOL     OW26533   4.549   0.097   4.715
 8545SOL    HW126534   4.544   0.009   4.763
 8545SOL    HW226535   4.604   0.161   4.769
 8546SOL     OW26536   5.912   1.914   4.290
 8546SOL    HW126537   5.844   1.976   4.251
 8546SOL    HW226538   5.994   1.913   4.232
 8547SOL     OW26539   1.385   6.563   6.087
 8547SOL    HW126540   1.448   6.577   6.164
 8547SOL    HW226541   1.293   6.546   6.122
 8548SOL     OW26542   5.992   2.423   5.954
 8548SOL    HW126543   6.073   2.385   5.999
 8548SOL    HW226544   5.994   2.523   5.963
 8549SOL     OW26545   1.163   2.837   3.976
 8549SOL    HW126546   1.086   2.774   3.967
 8549SOL    HW226547   1.130   2.932   3.970
 8550SOL     OW26548   1.908   4.610   0.105
 8550SOL    HW126549   1.998   4.645   0.077
 8550SOL    HW226550   1.846   4.686   0.120
 8551SOL     OW26551   3.728   3.915   6.091
 8551SOL    HW126552   3.746   3.829   6.044
 8551SOL    HW226553   3.630   3.925   6.109
 8552SOL     OW26554   2.142   0.148   3.675
 8552SOL    HW126555   2.068   0.098   3.630
 8552SOL    HW226556   2.196   0.196   3.606
 8553SOL     OW26557   4.878   4.837   6.340
 8553SOL    HW126558   4.887   4.870   6.434
 8553SOL    HW226559   4.945   4.883   6.282
 8554SOL     OW26560   0.723   4.902   0.196
 8554SOL    HW126561   0.656   4.853   0.253
 8554SOL    HW226562   0.815   4.869   0.218
 8555SOL     OW26563   1.598   0.666   2.012
 8555SOL    HW126564   1.530   0.724   1.968
 8555SOL    HW226565   1.553   0.584   2.049
 8556SOL     OW26566   0.872   6.567   5.065
 8556SOL    HW126567   0.796   6.608   5.014
 8556SOL    HW226568   0.952   6.559   5.006
 8557SOL     OW26569   5.786   0.135   2.661
 8557SOL    HW126570   5.689   0.129   2.638
 8557SOL    HW226571   5.826   0.214   2.613
 8558SOL     OW26572   2.795   5.587   3.395
 8558SOL    HW126573   2.782   5.685   3.406
 8558SOL    HW226574   2.893   5.566   3.393
 8559SOL     OW26575   6.660   0.489   2.060
 8559SOL    HW126576   6.651   0.469   2.158
 8559SOL    HW226577   6.757   0.490   2.035
 8560SOL     OW26578   0.218   6.145   2.125
 8560SOL    HW126579   0.246   6.081   2.197
 8560SOL    HW226580   0.192   6.232   2.166
 8561SOL     OW26581   3.429   0.638   1.994
 8561SOL    HW126582   3.371   0.568   2.038
 8561SOL    HW226583   3.513   0.595   1.962
 8562SOL     OW26584   3.886   6.228   5.034
 8562SOL    HW126585   3.931   6.221   5.123
 8562SOL    HW226586   3.940   6.178   4.966
 8563SOL     OW26587   2.850   4.501   0.302
 8563SOL    HW126588   2.927   4.540   0.353
 8563SOL    HW226589   2.821   4.416   0.345
 8564SOL     OW26590   3.417   1.038   4.098
 8564SOL    HW126591   3.459   1.129   4.104
 8564SOL    HW226592   3.386   1.021   4.005
 8565SOL     OW26593   4.205   5.721   1.086
 8565SOL    HW126594   4.145   5.719   1.006
 8565SOL    HW226595   4.154   5.757   1.165
 8566SOL     OW26596   1.265   0.609   1.357
 8566SOL    HW126597   1.209   0.688   1.332
 8566SOL    HW226598   1.288   0.613   1.454
 8567SOL     OW26599   6.853   1.475   2.573
 8567SOL    HW126600   6.772   1.481   2.632
 8567SOL    HW226601   6.843   1.538   2.496
 8568SOL     OW26602   5.589   1.240   5.998
 8568SOL    HW126603   5.560   1.268   6.089
 8568SOL    HW226604   5.527   1.169   5.964
 8569SOL     OW26605   4.948   1.627   5.841
 8569SOL    HW126606   4.911   1.559   5.905
 8569SOL    HW226607   5.048   1.620   5.839
 8570SOL     OW26608   1.026   2.563   5.291
 8570SOL    HW126609   0.947   2.502   5.291
 8570SOL    HW226610   1.093   2.531   5.357
 8571SOL     OW26611   1.290   5.064   5.608
 8571SOL    HW126612   1.227   5.130   5.649
 8571SOL    HW226613   1.385   5.094   5.624
 8572SOL     OW26614   3.526   5.169   6.516
 8572SOL    HW126615   3.608   5.154   6.572
 8572SOL    HW226616   3.467   5.235   6.561
 8573SOL     OW26617   3.213   6.318   5.942
 8573SOL    HW126618   3.124   6.273   5.942
 8573SOL    HW226619   3.219   6.381   5.865
 8574SOL     OW26620   6.999   5.716   5.785
 8574SOL    HW126621   6.928   5.766   5.736
 8574SOL    HW226622   6.993   5.736   5.882
 8575SOL     OW26623   2.959   2.448   5.611
 8575SOL    HW126624   2.944   2.355   5.643
 8575SOL    HW226625   2.997   2.446   5.519
 8576SOL     OW26626   1.749   5.819   6.856
 8576SOL    HW126627   1.839   5.862   6.848
 8576SOL    HW226628   1.759   5.727   6.894
 8577SOL     OW26629   0.478   6.288   4.349
 8577SOL    HW126630   0.550   6.338   4.397
 8577SOL    HW226631   0.413   6.252   4.416
 8578SOL     OW26632   5.516   0.912   4.612
 8578SOL    HW126633   5.449   0.845   4.579
 8578SOL    HW226634   5.507   0.997   4.560
 8579SOL     OW26635   1.279   0.239   3.036
 8579SOL    HW126636   1.319   0.324   3.003
 8579SOL    HW226637   1.299   0.228   3.134
 8580SOL     OW26638   2.378   6.546   2.600
 8580SOL    HW126639   2.405   6.626   2.546
 8580SOL    HW226640   2.330   6.576   2.683
 8581SOL     OW26641   3.286   3.255   1.998
 8581SOL    HW126642   3.250   3.346   2.022
 8581SOL    HW226643   3.239   3.185   2.052
 8582SOL     OW26644   4.047   4.759   2.623
 8582SOL    HW126645   3.968   4.781   2.679
 8582SOL    HW226646   4.102   4.689   2.668
 8583SOL     OW26647   5.657   0.372   5.185
 8583SOL    HW126648   5.747   0.403   5.215
 8583SOL    HW226649   5.658   0.273   5.173
 8584SOL     OW26650   0.358   3.633   5.869
 8584SOL    HW126651   0.289   3.586   5.814
 8584SOL    HW226652   0.322   3.649   5.961
 8585SOL     OW26653   0.888   6.109   6.038
 8585SOL    HW126654   0.810   6.047   6.029
 8585SOL    HW226655   0.967   6.071   5.991
 8586SOL     OW26656   3.112   0.314   3.523
 8586SOL    HW126657   3.013   0.298   3.525
 8586SOL    HW226658   3.153   0.276   3.605
 8587SOL     OW26659   2.076   6.879   2.949
 8587SOL    HW126660   2.131   6.847   2.872
 8587SOL    HW226661   2.112   6.841   3.034
 8588SOL     OW26662   2.611   0.493   0.165
 8588SOL    HW126663   2.572   0.401   0.158
 8588SOL    HW226664   2.593   0.530   0.256
 8589SOL     OW26665   5.103   2.691   4.866
 8589SOL    HW126666   5.075   2.730   4.778
 8589SOL    HW226667   5.197   2.718   4.886
 8590SOL     OW26668   6.672   6.506   4.004
 8590SOL    HW126669   6.714   6.464   4.085
 8590SOL    HW226670   6.572   6.501   4.014
 8591SOL     OW26671   0.592   4.490   6.337
 8591SOL    HW126672   0.652   4.566   6.359
 8591SOL    HW226673   0.518   4.485   6.404
 8592SOL     OW26674   0.403   3.028   6.905
 8592SOL    HW126675   0.485   3.003   6.957
 8592SOL    HW226676   0.333   3.061   6.968
 8593SOL     OW26677   1.756   0.420   2.084
 8593SOL    HW126678   1.805   0.335   2.105
 8593SOL    HW226679   1.802   0.497   2.128
 8594SOL     OW26680   3.442   3.069   5.263
 8594SOL    HW126681   3.361   3.115   5.227
 8594SOL    HW226682   3.523   3.123   5.242
 8595SOL     OW26683   1.845   2.379   2.943
 8595SOL    HW126684   1.775   2.393   3.013
 8595SOL    HW226685   1.926   2.434   2.965
 8596SOL     OW26686   6.218   5.294   3.624
 8596SOL    HW126687   6.197   5.387   3.655
 8596SOL    HW226688   6.315   5.276   3.636
 8597SOL     OW26689   4.592   1.162   0.868
 8597SOL    HW126690   4.560   1.182   0.961
 8597SOL    HW226691   4.529   1.204   0.802
 8598SOL     OW26692   6.884   5.906   0.995
 8598SOL    HW126693   6.804   5.964   0.978
 8598SOL    HW226694   6.903   5.851   0.914
 8599SOL     OW26695   1.109   2.405   3.843
 8599SOL    HW126696   1.058   2.486   3.872
 8599SOL    HW226697   1.175   2.380   3.915
 8600SOL     OW26698   5.548   4.950   5.513
 8600SOL    HW126699   5.608   4.929   5.436
 8600SOL    HW226700   5.460   4.983   5.479
 8601SOL     OW26701   0.800   0.647   4.960
 8601SOL    HW126702   0.701   0.636   4.965
 8601SOL    HW226703   0.831   0.697   5.041
 8602SOL     OW26704   3.436   5.686   3.634
 8602SOL    HW126705   3.452   5.767   3.690
 8602SOL    HW226706   3.363   5.704   3.569
 8603SOL     OW26707   4.017   5.493   0.738
 8603SOL    HW126708   3.981   5.509   0.646
 8603SOL    HW226709   4.086   5.421   0.734
 8604SOL     OW26710   0.698   3.359   3.732
 8604SOL    HW126711   0.660   3.267   3.721
 8604SOL    HW226712   0.692   3.386   3.828
 8605SOL     OW26713   3.217   5.103   4.394
 8605SOL    HW126714   3.145   5.111   4.325
 8605SOL    HW226715   3.201   5.021   4.449
 8606SOL     OW26716   1.659   4.185   6.320
 8606SOL    HW126717   1.650   4.098   6.367
 8606SOL    HW226718   1.734   4.180   6.254
 8607SOL     OW26719   3.450   5.921   0.788
 8607SOL    HW126720   3.443   5.896   0.884
 8607SOL    HW226721   3.450   5.838   0.732
 8608SOL     OW26722   4.703   4.724   3.201
 8608SOL    HW126723   4.655   4.751   3.284
 8608SOL    HW226724   4.793   4.688   3.225
 8609SOL     OW26725   5.449   1.009   3.091
 8609SOL    HW126726   5.462   1.092   3.146
 8609SOL    HW226727   5.388   1.030   3.014
 8610SOL     OW26728   1.528   1.564   2.392
 8610SOL    HW126729   1.498   1.602   2.479
 8610SOL    HW226730   1.616   1.517   2.405
 8611SOL     OW26731   2.103   2.085   3.934
 8611SOL    HW126732   2.065   2.012   3.991
 8611SOL    HW226733   2.072   2.174   3.968
 8612SOL     OW26734   3.491   3.143   0.498
 8612SOL    HW126735   3.577   3.107   0.464
 8612SOL    HW226736   3.466   3.096   0.582
 8613SOL     OW26737   2.311   2.170   1.473
 8613SOL    HW126738   2.364   2.190   1.555
 8613SOL    HW226739   2.336   2.080   1.437
 8614SOL     OW26740   0.782   3.370   2.861
 8614SOL    HW126741   0.712   3.355   2.930
 8614SOL    HW226742   0.740   3.411   2.780
 8615SOL     OW26743   4.902   1.474   5.545
 8615SOL    HW126744   4.904   1.537   5.623
 8615SOL    HW226745   4.856   1.518   5.468
 8616SOL     OW26746   2.468   5.101   1.327
 8616SOL    HW126747   2.412   5.079   1.406
 8616SOL    HW226748   2.551   5.150   1.357
 8617SOL     OW26749   6.898   1.047   6.537
 8617SOL    HW126750   6.970   1.079   6.477
 8617SOL    HW226751   6.851   1.125   6.579
 8618SOL     OW26752   5.866   6.443   1.202
 8618SOL    HW126753   5.785   6.454   1.144
 8618SOL    HW226754   5.865   6.352   1.244
 8619SOL     OW26755   3.520   4.986   2.028
 8619SOL    HW126756   3.536   5.068   1.973
 8619SOL    HW226757   3.567   4.908   1.986
 8620SOL     OW26758   0.968   0.459   3.555
 8620SOL    HW126759   0.947   0.403   3.635
 8620SOL    HW226760   0.882   0.487   3.511
 8621SOL     OW26761   6.273   1.386   3.143
 8621SOL    HW126762   6.202   1.443   3.103
 8621SOL    HW226763   6.353   1.386   3.083
 8622SOL     OW26764   5.003   3.586   0.184
 8622SOL    HW126765   5.074   3.598   0.254
 8622SOL    HW226766   5.016   3.653   0.111
 8623SOL     OW26767   0.895   4.114   3.261
 8623SOL    HW126768   0.947   4.078   3.184
 8623SOL    HW226769   0.823   4.049   3.286
 8624SOL     OW26770   1.347   3.893   4.176
 8624SOL    HW126771   1.258   3.906   4.132
 8624SOL    HW226772   1.393   3.814   4.135
 8625SOL     OW26773   4.895   6.811   4.591
 8625SOL    HW126774   4.828   6.790   4.521
 8625SOL    HW226775   4.860   6.783   4.681
 8626SOL     OW26776   3.796   2.949   5.024
 8626SOL    HW126777   3.705   2.936   4.984
 8626SOL    HW226778   3.851   3.005   4.963
 8627SOL     OW26779   0.304   0.945   3.447
 8627SOL    HW126780   0.339   0.999   3.370
 8627SOL    HW226781   0.205   0.935   3.438
 8628SOL     OW26782   5.834   0.212   0.997
 8628SOL    HW126783   5.830   0.227   0.898
 8628SOL    HW226784   5.910   0.152   1.019
 8629SOL     OW26785   1.413   4.894   5.427
 8629SOL    HW126786   1.378   4.956   5.498
 8629SOL    HW226787   1.366   4.913   5.341
 8630SOL     OW26788   5.630   4.505   3.913
 8630SOL    HW126789   5.561   4.478   3.980
 8630SOL    HW226790   5.690   4.427   3.894
 8631SOL     OW26791   2.972   5.942   6.301
 8631SOL    HW126792   2.905   5.904   6.365
 8631SOL    HW226793   3.033   5.868   6.269
 8632SOL     OW26794   3.136   6.868   3.805
 8632SOL    HW126795   3.068   6.807   3.765
 8632SOL    HW226796   3.152   6.842   3.900
 8633SOL     OW26797   5.786   1.707   4.415
 8633SOL    HW126798   5.855   1.678   4.481
 8633SOL    HW226799   5.816   1.791   4.369
 8634SOL     OW26800   5.339   3.332   0.463
 8634SOL    HW126801   5.431   3.368   0.475
 8634SOL    HW226802   5.341   3.255   0.399
 8635SOL     OW26803   6.088   4.474   6.340
 8635SOL    HW126804   6.008   4.484   6.280
 8635SOL    HW226805   6.139   4.560   6.342
 8636SOL     OW26806   5.207   5.930   0.589
 8636SOL    HW126807   5.172   5.951   0.681
 8636SOL    HW226808   5.246   5.838   0.588
 8637SOL     OW26809   2.058   1.129   0.119
 8637SOL    HW126810   2.066   1.037   0.082
 8637SOL    HW226811   1.986   1.179   0.070
 8638SOL     OW26812   3.078   2.882   6.881
 8638SOL    HW126813   3.145   2.954   6.903
 8638SOL    HW226814   3.031   2.906   6.796
 8639SOL     OW26815   5.691   2.021   1.701
 8639SOL    HW126816   5.730   2.064   1.620
 8639SOL    HW226817   5.723   2.067   1.783
 8640SOL     OW26818   4.549   3.976   0.743
 8640SOL    HW126819   4.530   3.902   0.679
 8640SOL    HW226820   4.562   4.061   0.691
 8641SOL     OW26821   6.048   5.072   4.139
 8641SOL    HW126822   6.091   5.059   4.050
 8641SOL    HW226823   5.985   5.150   4.134
 8642SOL     OW26824   3.438   1.012   3.040
 8642SOL    HW126825   3.407   1.091   2.987
 8642SOL    HW226826   3.537   1.012   3.046
 8643SOL     OW26827   3.521   0.572   6.296
 8643SOL    HW126828   3.555   0.494   6.244
 8643SOL    HW226829   3.506   0.546   6.391
 8644SOL     OW26830   4.519   2.416   5.698
 8644SOL    HW126831   4.459   2.432   5.620
 8644SOL    HW226832   4.488   2.335   5.748
 8645SOL     OW26833   4.638   4.284   1.061
 8645SOL    HW126834   4.624   4.360   0.998
 8645SOL    HW226835   4.719   4.233   1.033
 8646SOL     OW26836   6.363   1.141   1.753
 8646SOL    HW126837   6.371   1.234   1.718
 8646SOL    HW226838   6.276   1.101   1.721
 8647SOL     OW26839   2.543   5.447   5.982
 8647SOL    HW126840   2.553   5.455   6.081
 8647SOL    HW226841   2.459   5.397   5.961
 8648SOL     OW26842   6.285   0.652   3.614
 8648SOL    HW126843   6.340   0.721   3.661
 8648SOL    HW226844   6.217   0.697   3.556
 8649SOL     OW26845   5.354   4.433   6.868
 8649SOL    HW126846   5.276   4.477   6.823
 8649SOL    HW226847   5.421   4.406   6.799
 8650SOL     OW26848   2.219   4.249   6.243
 8650SOL    HW126849   2.132   4.295   6.262
 8650SOL    HW226850   2.255   4.282   6.155
 8651SOL     OW26851   3.386   0.978   0.795
 8651SOL    HW126852   3.299   0.938   0.768
 8651SOL    HW226853   3.439   1.001   0.714
 8652SOL     OW26854   1.594   3.894   3.977
 8652SOL    HW126855   1.564   3.980   3.936
 8652SOL    HW226856   1.555   3.817   3.926
 8653SOL     OW26857   5.665   1.185   6.678
 8653SOL    HW126858   5.672   1.086   6.669
 8653SOL    HW226859   5.728   1.229   6.612
 8654SOL     OW26860   1.178   5.409   1.218
 8654SOL    HW126861   1.224   5.342   1.276
 8654SOL    HW226862   1.244   5.476   1.184
 8655SOL     OW26863   5.869   1.493   3.506
 8655SOL    HW126864   5.946   1.443   3.545
 8655SOL    HW226865   5.785   1.440   3.518
 8656SOL     OW26866   6.431   0.693   0.307
 8656SOL    HW126867   6.405   0.782   0.346
 8656SOL    HW226868   6.509   0.706   0.246
 8657SOL     OW26869   5.135   4.690   0.415
 8657SOL    HW126870   5.220   4.641   0.396
 8657SOL    HW226871   5.132   4.716   0.512
 8658SOL     OW26872   4.084   6.681   6.998
 8658SOL    HW126873   4.061   6.753   6.932
 8658SOL    HW226874   4.137   6.609   6.953
 8659SOL     OW26875   4.147   1.703   3.316
 8659SOL    HW126876   4.173   1.705   3.412
 8659SOL    HW226877   4.214   1.649   3.265
 8660SOL     OW26878   5.837   3.671   0.928
 8660SOL    HW126879   5.778   3.622   0.991
 8660SOL    HW226880   5.785   3.696   0.846
 8661SOL     OW26881   5.884   3.942   1.178
 8661SOL    HW126882   5.816   3.976   1.114
 8661SOL    HW226883   5.960   3.900   1.128
 8662SOL     OW26884   4.560   5.939   1.057
 8662SOL    HW126885   4.487   5.997   1.022
 8662SOL    HW226886   4.612   5.989   1.126
 8663SOL     OW26887   2.705   5.638   1.189
 8663SOL    HW126888   2.670   5.662   1.099
 8663SOL    HW226889   2.805   5.641   1.189
 8664SOL     OW26890   3.096   6.637   1.137
 8664SOL    HW126891   3.052   6.609   1.051
 8664SOL    HW226892   3.194   6.652   1.121
 8665SOL     OW26893   5.227   6.130   4.693
 8665SOL    HW126894   5.254   6.194   4.621
 8665SOL    HW226895   5.264   6.040   4.672
 8666SOL     OW26896   4.911   1.402   3.937
 8666SOL    HW126897   4.992   1.411   3.994
 8666SOL    HW226898   4.876   1.493   3.915
 8667SOL     OW26899   4.968   2.433   3.196
 8667SOL    HW126900   5.002   2.476   3.279
 8667SOL    HW226901   4.977   2.496   3.119
 8668SOL     OW26902   5.668   3.558   3.033
 8668SOL    HW126903   5.716   3.642   3.061
 8668SOL    HW226904   5.623   3.574   2.945
 8669SOL     OW26905   2.288   6.301   0.296
 8669SOL    HW126906   2.269   6.399   0.306
 8669SOL    HW226907   2.208   6.255   0.259
 8670SOL     OW26908   3.711   4.713   5.651
 8670SOL    HW126909   3.761   4.692   5.567
 8670SOL    HW226910   3.642   4.782   5.632
 8671SOL     OW26911   5.385   1.817   3.254
 8671SOL    HW126912   5.314   1.860   3.198
 8671SOL    HW226913   5.380   1.851   3.348
 8672SOL     OW26914   1.807   5.060   3.748
 8672SOL    HW126915   1.725   5.105   3.785
 8672SOL    HW226916   1.885   5.080   3.807
 8673SOL     OW26917   6.776   2.357   0.045
 8673SOL    HW126918   6.846   2.425   0.066
 8673SOL    HW226919   6.799   2.308   6.982
 8674SOL     OW26920   5.422   5.319   2.761
 8674SOL    HW126921   5.322   5.320   2.751
 8674SOL    HW226922   5.454   5.411   2.783
 8675SOL     OW26923   3.204   2.164   4.400
 8675SOL    HW126924   3.174   2.226   4.326
 8675SOL    HW226925   3.242   2.218   4.475
 8676SOL     OW26926   3.956   0.015   2.558
 8676SOL    HW126927   3.986   0.103   2.596
 8676SOL    HW226928   3.887   6.996   2.618
 8677SOL     OW26929   2.627   6.190   5.679
 8677SOL    HW126930   2.684   6.149   5.750
 8677SOL    HW226931   2.575   6.119   5.633
 8678SOL     OW26932   6.838   0.128   1.341
 8678SOL    HW126933   6.858   0.122   1.439
 8678SOL    HW226934   6.922   0.119   1.288
 8679SOL     OW26935   6.264   2.292   3.950
 8679SOL    HW126936   6.275   2.209   3.896
 8679SOL    HW226937   6.294   2.276   4.044
 8680SOL     OW26938   1.164   4.209   1.602
 8680SOL    HW126939   1.200   4.118   1.584
 8680SOL    HW226940   1.197   4.242   1.691
 8681SOL     OW26941   4.792   5.355   6.786
 8681SOL    HW126942   4.765   5.269   6.829
 8681SOL    HW226943   4.860   5.337   6.716
 8682SOL     OW26944   5.024   6.646   1.511
 8682SOL    HW126945   5.015   6.693   1.598
 8682SOL    HW226946   4.938   6.651   1.461
 8683SOL     OW26947   2.071   2.685   2.691
 8683SOL    HW126948   2.015   2.643   2.620
 8683SOL    HW226949   2.147   2.734   2.649
 8684SOL     OW26950   0.761   2.668   4.686
 8684SOL    HW126951   0.725   2.685   4.594
 8684SOL    HW226952   0.756   2.570   4.706
 8685SOL     OW26953   0.210   2.095   5.628
 8685SOL    HW126954   0.156   2.146   5.696
 8685SOL    HW226955   0.151   2.070   5.551
 8686SOL     OW26956   6.931   0.928   1.775
 8686SOL    HW126957   6.978   0.948   1.689
 8686SOL    HW226958   6.847   0.877   1.757
 8687SOL     OW26959   3.493   5.485   2.465
 8687SOL    HW126960   3.525   5.458   2.555
 8687SOL    HW226961   3.464   5.581   2.467
 8688SOL     OW26962   2.869   6.098   0.072
 8688SOL    HW126963   2.792   6.135   0.124
 8688SOL    HW226964   2.933   6.172   0.051
 8689SOL     OW26965   3.282   4.178   1.627
 8689SOL    HW126966   3.366   4.159   1.677
 8689SOL    HW226967   3.203   4.151   1.681
 8690SOL     OW26968   1.639   3.128   3.347
 8690SOL    HW126969   1.589   3.136   3.260
 8690SOL    HW226970   1.727   3.083   3.330
 8691SOL     OW26971   3.247   2.040   6.893
 8691SOL    HW126972   3.242   1.942   6.873
 8691SOL    HW226973   3.340   2.072   6.879
 8692SOL     OW26974   2.023   1.205   3.454
 8692SOL    HW126975   1.999   1.173   3.545
 8692SOL    HW226976   1.990   1.299   3.442
 8693SOL     OW26977   6.724   1.171   0.096
 8693SOL    HW126978   6.671   1.176   0.181
 8693SOL    HW226979   6.663   1.153   0.019
 8694SOL     OW26980   4.093   0.988   4.983
 8694SOL    HW126981   4.097   1.086   5.000
 8694SOL    HW226982   4.002   0.964   4.948
 8695SOL     OW26983   3.772   2.697   5.976
 8695SOL    HW126984   3.844   2.759   6.007
 8695SOL    HW226985   3.746   2.721   5.882
 8696SOL     OW26986   2.344   5.902   0.637
 8696SOL    HW126987   2.359   5.822   0.579
 8696SOL    HW226988   2.342   5.984   0.580
 8697SOL     OW26989   7.017   2.920   0.456
 8697SOL    HW126990   6.963   3.000   0.482
 8697SOL    HW226991   6.957   2.845   0.432
 8698SOL     OW26992   5.572   5.821   4.716
 8698SOL    HW126993   5.480   5.791   4.693
 8698SOL    HW226994   5.567   5.897   4.782
 8699SOL     OW26995   1.935   2.728   5.150
 8699SOL    HW126996   2.026   2.699   5.181
 8699SOL    HW226997   1.942   2.815   5.103
 8700SOL     OW26998   1.178   0.757   4.458
 8700SOL    HW126999   1.087   0.723   4.438
 8700SOL    HW227000   1.237   0.681   4.485
 8701SOL     OW27001   1.616   0.565   0.156
 8701SOL    HW127002   1.656   0.475   0.167
 8701SOL    HW227003   1.687   0.635   0.169
 8702SOL     OW27004   5.371   4.643   0.704
 8702SOL    HW127005   5.455   4.632   0.758
 8702SOL    HW227006   5.314   4.714   0.744
 8703SOL     OW27007   3.249   5.678   0.712
 8703SOL    HW127008   3.261   5.636   0.802
 8703SOL    HW227009   3.155   5.709   0.701
 8704SOL     OW27010   0.378   3.434   2.665
 8704SOL    HW127011   0.330   3.480   2.740
 8704SOL    HW227012   0.340   3.464   2.578
 8705SOL     OW27013   5.018   0.836   6.932
 8705SOL    HW127014   4.963   0.855   7.013
 8705SOL    HW227015   5.112   0.868   6.948
 8706SOL     OW27016   4.478   2.245   5.937
 8706SOL    HW127017   4.438   2.157   5.910
 8706SOL    HW227018   4.565   2.229   5.983
 8707SOL     OW27019   6.922   2.754   6.991
 8707SOL    HW127020   6.976   2.680   0.010
 8707SOL    HW227021   6.844   2.715   6.942
 8708SOL     OW27022   4.397   1.907   2.601
 8708SOL    HW127023   4.451   1.857   2.534
 8708SOL    HW227024   4.449   1.915   2.687
 8709SOL     OW27025   6.983   6.007   0.496
 8709SOL    HW127026   6.932   6.001   0.410
 8709SOL    HW227027   6.997   5.915   0.533
 8710SOL     OW27028   1.900   3.200   4.041
 8710SOL    HW127029   1.852   3.119   4.007
 8710SOL    HW227030   1.881   3.213   4.138
 8711SOL     OW27031   1.367   6.191   3.227
 8711SOL    HW127032   1.294   6.155   3.170
 8711SOL    HW227033   1.456   6.171   3.186
 8712SOL     OW27034   4.072   2.206   4.931
 8712SOL    HW127035   4.113   2.297   4.929
 8712SOL    HW227036   4.104   2.157   5.012
 8713SOL     OW27037   0.671   3.775   3.961
 8713SOL    HW127038   0.614   3.852   3.932
 8713SOL    HW227039   0.721   3.738   3.882
 8714SOL     OW27040   1.202   1.293   6.062
 8714SOL    HW127041   1.257   1.273   6.143
 8714SOL    HW227042   1.196   1.211   6.005
 8715SOL     OW27043   4.706   0.768   0.998
 8715SOL    HW127044   4.709   0.715   1.083
 8715SOL    HW227045   4.619   0.750   0.951
 8716SOL     OW27046   0.232   6.905   1.269
 8716SOL    HW127047   0.279   6.993   1.264
 8716SOL    HW227048   0.295   6.835   1.302
 8717SOL     OW27049   3.541   3.196   3.360
 8717SOL    HW127050   3.549   3.174   3.263
 8717SOL    HW227051   3.537   3.111   3.413
 8718SOL     OW27052   0.494   4.523   4.420
 8718SOL    HW127053   0.509   4.576   4.336
 8718SOL    HW227054   0.553   4.442   4.419
 8719SOL     OW27055   2.478   6.869   6.448
 8719SOL    HW127056   2.507   6.811   6.525
 8719SOL    HW227057   2.479   6.965   6.476
 8720SOL     OW27058   6.254   5.483   5.886
 8720SOL    HW127059   6.265   5.529   5.798
 8720SOL    HW227060   6.211   5.394   5.873
 8721SOL     OW27061   6.968   2.570   2.737
 8721SOL    HW127062   0.035   2.578   2.784
 8721SOL    HW227063   6.916   2.494   2.776
 8722SOL     OW27064   3.964   1.395   6.532
 8722SOL    HW127065   3.914   1.370   6.615
 8722SOL    HW227066   4.054   1.353   6.534
 8723SOL     OW27067   4.683   5.692   1.166
 8723SOL    HW127068   4.665   5.789   1.148
 8723SOL    HW227069   4.602   5.639   1.141
 8724SOL     OW27070   5.535   0.110   6.071
 8724SOL    HW127071   5.450   0.161   6.080
 8724SOL    HW227072   5.553   0.094   5.974
 8725SOL     OW27073   2.154   7.011   6.661
 8725SOL    HW127074   2.144   6.981   6.566
 8725SOL    HW227075   2.074   0.043   6.688
 8726SOL     OW27076   6.175   0.328   2.078
 8726SOL    HW127077   6.255   0.297   2.128
 8726SOL    HW227078   6.115   0.250   2.059
 8727SOL     OW27079   0.511   6.040   2.057
 8727SOL    HW127080   0.590   6.077   2.107
 8727SOL    HW227081   0.463   6.115   2.012
 8728SOL     OW27082   4.513   0.622   4.005
 8728SOL    HW127083   4.499   0.593   3.911
 8728SOL    HW227084   4.429   0.610   4.057
 8729SOL     OW27085   5.038   6.185   3.847
 8729SOL    HW127086   4.965   6.135   3.894
 8729SOL    HW227087   5.104   6.120   3.810
 8730SOL     OW27088   6.412   4.133   2.720
 8730SOL    HW127089   6.367   4.044   2.713
 8730SOL    HW227090   6.429   4.170   2.629
 8731SOL     OW27091   2.312   2.804   2.885
 8731SOL    HW127092   2.326   2.745   2.965
 8731SOL    HW227093   2.273   2.891   2.915
 8732SOL     OW27094   5.658   4.355   1.641
 8732SOL    HW127095   5.631   4.436   1.692
 8732SOL    HW227096   5.757   4.352   1.632
 8733SOL     OW27097   2.209   5.284   1.420
 8733SOL    HW127098   2.118   5.324   1.430
 8733SOL    HW227099   2.222   5.211   1.488
 8734SOL     OW27100   1.295   4.928   2.386
 8734SOL    HW127101   1.269   4.953   2.480
 8734SOL    HW227102   1.362   4.994   2.352
 8735SOL     OW27103   1.015   1.810   0.559
 8735SOL    HW127104   0.932   1.755   0.556
 8735SOL    HW227105   1.004   1.885   0.625
 8736SOL     OW27106   0.616   6.117   5.972
 8736SOL    HW127107   0.589   6.212   5.981
 8736SOL    HW227108   0.578   6.064   6.048
 8737SOL     OW27109   2.559   6.661   6.173
 8737SOL    HW127110   2.544   6.618   6.084
 8737SOL    HW227111   2.603   6.750   6.161
 8738SOL     OW27112   1.944   5.106   4.338
 8738SOL    HW127113   2.013   5.043   4.373
 8738SOL    HW227114   1.856   5.059   4.332
 8739SOL     OW27115   5.667   5.330   6.238
 8739SOL    HW127116   5.721   5.387   6.176
 8739SOL    HW227117   5.704   5.237   6.238
 8740SOL     OW27118   5.290   1.200   5.366
 8740SOL    HW127119   5.235   1.129   5.410
 8740SOL    HW227120   5.253   1.290   5.390
 8741SOL     OW27121   2.940   1.415   1.154
 8741SOL    HW127122   2.923   1.429   1.056
 8741SOL    HW227123   3.029   1.372   1.166
 8742SOL     OW27124   5.495   6.457   1.373
 8742SOL    HW127125   5.412   6.489   1.418
 8742SOL    HW227126   5.553   6.536   1.350
 8743SOL     OW27127   1.715   0.556   2.489
 8743SOL    HW127128   1.654   0.621   2.445
 8743SOL    HW227129   1.807   0.595   2.494
 8744SOL     OW27130   3.414   2.860   6.338
 8744SOL    HW127131   3.392   2.795   6.411
 8744SOL    HW227132   3.446   2.809   6.258
 8745SOL     OW27133   6.040   2.903   5.948
 8745SOL    HW127134   5.982   2.957   6.009
 8745SOL    HW227135   6.136   2.916   5.972
 8746SOL     OW27136   5.182   3.925   4.860
 8746SOL    HW127137   5.106   3.882   4.910
 8746SOL    HW227138   5.269   3.897   4.901
 8747SOL     OW27139   0.302   2.352   2.577
 8747SOL    HW127140   0.282   2.433   2.522
 8747SOL    HW227141   0.373   2.297   2.531
 8748SOL     OW27142   6.890   1.832   5.129
 8748SOL    HW127143   6.874   1.750   5.184
 8748SOL    HW227144   6.947   1.809   5.050
 8749SOL     OW27145   2.645   0.594   6.619
 8749SOL    HW127146   2.685   0.671   6.569
 8749SOL    HW227147   2.545   0.604   6.622
 8750SOL     OW27148   3.059   3.436   5.454
 8750SOL    HW127149   3.042   3.533   5.470
 8750SOL    HW227150   3.157   3.418   5.459
 8751SOL     OW27151   6.341   0.272   2.876
 8751SOL    HW127152   6.335   0.338   2.951
 8751SOL    HW227153   6.250   0.253   2.841
 8752SOL     OW27154   2.554   4.573   0.336
 8752SOL    HW127155   2.645   4.613   0.337
 8752SOL    HW227156   2.510   4.585   0.425
 8753SOL     OW27157   4.674   1.764   5.194
 8753SOL    HW127158   4.702   1.855   5.225
 8753SOL    HW227159   4.594   1.772   5.133
 8754SOL     OW27160   1.123   2.973   5.097
 8754SOL    HW127161   1.123   3.056   5.152
 8754SOL    HW227162   1.122   2.997   5.000
 8755SOL     OW27163   2.571   0.574   0.422
 8755SOL    HW127164   2.597   0.584   0.518
 8755SOL    HW227165   2.554   0.665   0.383
 8756SOL     OW27166   1.865   3.029   3.586
 8756SOL    HW127167   1.893   3.019   3.491
 8756SOL    HW227168   1.870   2.940   3.632
 8757SOL     OW27169   4.544   6.276   5.848
 8757SOL    HW127170   4.578   6.319   5.764
 8757SOL    HW227171   4.477   6.206   5.825
 8758SOL     OW27172   4.622   6.622   2.160
 8758SOL    HW127173   4.537   6.597   2.207
 8758SOL    HW227174   4.678   6.679   2.221
 8759SOL     OW27175   3.852   2.440   0.673
 8759SOL    HW127176   3.830   2.532   0.639
 8759SOL    HW227177   3.844   2.374   0.599
 8760SOL     OW27178   0.949   1.114   5.010
 8760SOL    HW127179   0.900   1.182   5.065
 8760SOL    HW227180   0.944   1.139   4.914
 8761SOL     OW27181   5.177   2.072   2.455
 8761SOL    HW127182   5.140   1.994   2.405
 8761SOL    HW227183   5.132   2.156   2.423
 8762SOL     OW27184   0.819   4.350   1.817
 8762SOL    HW127185   0.740   4.293   1.796
 8762SOL    HW227186   0.872   4.365   1.733
 8763SOL     OW27187   6.054   6.319   5.949
 8763SOL    HW127188   6.121   6.337   6.021
 8763SOL    HW227189   5.971   6.280   5.990
 8764SOL     OW27190   5.097   1.323   4.690
 8764SOL    HW127191   5.025   1.391   4.705
 8764SOL    HW227192   5.108   1.307   4.592
 8765SOL     OW27193   6.086   6.532   5.430
 8765SOL    HW127194   6.020   6.491   5.492
 8765SOL    HW227195   6.095   6.474   5.348
 8766SOL     OW27196   4.535   4.612   3.942
 8766SOL    HW127197   4.549   4.524   3.896
 8766SOL    HW227198   4.438   4.636   3.938
 8767SOL     OW27199   4.078   6.949   3.030
 8767SOL    HW127200   4.127   6.987   2.952
 8767SOL    HW227201   4.142   6.933   3.105
 8768SOL     OW27202   1.169   2.936   0.366
 8768SOL    HW127203   1.259   2.929   0.409
 8768SOL    HW227204   1.101   2.958   0.435
 8769SOL     OW27205   1.451   0.137   4.519
 8769SOL    HW127206   1.515   0.168   4.448
 8769SOL    HW227207   1.360   0.172   4.499
 8770SOL     OW27208   5.685   3.700   2.184
 8770SOL    HW127209   5.610   3.641   2.213
 8770SOL    HW227210   5.754   3.646   2.137
 8771SOL     OW27211   1.054   0.655   6.108
 8771SOL    HW127212   1.002   0.657   6.194
 8771SOL    HW227213   1.120   0.580   6.111
 8772SOL     OW27214   5.065   6.620   6.739
 8772SOL    HW127215   4.976   6.576   6.748
 8772SOL    HW227216   5.079   6.685   6.813
 8773SOL     OW27217   4.459   2.425   3.667
 8773SOL    HW127218   4.378   2.411   3.722
 8773SOL    HW227219   4.514   2.341   3.667
 8774SOL     OW27220   1.989   1.216   6.817
 8774SOL    HW127221   2.071   1.268   6.793
 8774SOL    HW227222   1.931   1.271   6.876
 8775SOL     OW27223   6.710   0.185   4.901
 8775SOL    HW127224   6.636   0.210   4.839
 8775SOL    HW227225   6.752   0.099   4.870
 8776SOL     OW27226   3.837   3.566   5.581
 8776SOL    HW127227   3.919   3.514   5.606
 8776SOL    HW227228   3.758   3.504   5.577
 8777SOL     OW27229   0.226   4.081   1.686
 8777SOL    HW127230   0.137   4.125   1.698
 8777SOL    HW227231   0.224   4.024   1.604
 8778SOL     OW27232   6.152   2.153   4.522
 8778SOL    HW127233   6.251   2.140   4.519
 8778SOL    HW227234   6.120   2.188   4.434
 8779SOL     OW27235   3.112   5.191   2.122
 8779SOL    HW127236   3.161   5.273   2.092
 8779SOL    HW227237   3.080   5.140   2.043
 8780SOL     OW27238   1.055   5.604   3.183
 8780SOL    HW127239   0.965   5.617   3.226
 8780SOL    HW227240   1.085   5.690   3.142
 8781SOL     OW27241   6.395   1.887   3.423
 8781SOL    HW127242   6.372   1.841   3.337
 8781SOL    HW227243   6.367   1.830   3.500
 8782SOL     OW27244   4.914   0.084   2.182
 8782SOL    HW127245   4.824   0.043   2.198
 8782SOL    HW227246   4.967   0.026   2.121
 8783SOL     OW27247   6.955   4.130   3.802
 8783SOL    HW127248   6.965   4.115   3.901
 8783SOL    HW227249   6.995   4.053   3.753
 8784SOL     OW27250   5.740   4.363   6.467
 8784SOL    HW127251   5.767   4.269   6.487
 8784SOL    HW227252   5.820   4.423   6.470
 8785SOL     OW27253   6.652   3.694   6.512
 8785SOL    HW127254   6.662   3.789   6.484
 8785SOL    HW227255   6.743   3.652   6.519
 8786SOL     OW27256   1.971   0.149   0.445
 8786SOL    HW127257   2.014   0.143   0.355
 8786SOL    HW227258   1.969   0.058   0.488
 8787SOL     OW27259   2.341   2.822   1.842
 8787SOL    HW127260   2.330   2.725   1.817
 8787SOL    HW227261   2.431   2.854   1.812
 8788SOL     OW27262   0.049   2.198   5.896
 8788SOL    HW127263   0.056   2.159   5.987
 8788SOL    HW227264   0.110   2.277   5.888
 8789SOL     OW27265   6.486   7.009   5.662
 8789SOL    HW127266   6.467   0.083   5.636
 8789SOL    HW227267   6.433   6.947   5.604
 8790SOL     OW27268   0.005   0.857   6.684
 8790SOL    HW127269   6.986   0.918   6.616
 8790SOL    HW227270   6.960   0.785   6.707
 8791SOL     OW27271   6.158   6.831   4.923
 8791SOL    HW127272   6.179   6.910   4.980
 8791SOL    HW227273   6.178   6.852   4.828
 8792SOL     OW27274   3.299   6.620   3.380
 8792SOL    HW127275   3.256   6.530   3.371
 8792SOL    HW227276   3.254   6.671   3.453
 8793SOL     OW27277   1.369   5.377   3.383
 8793SOL    HW127278   1.314   5.293   3.389
 8793SOL    HW227279   1.459   5.355   3.347
 8794SOL     OW27280   4.205   6.690   1.823
 8794SOL    HW127281   4.144   6.707   1.745
 8794SOL    HW227282   4.158   6.716   1.907
 8795SOL     OW27283   1.120   6.683   5.211
 8795SOL    HW127284   1.038   6.711   5.161
 8795SOL    HW227285   1.093   6.648   5.301
 8796SOL     OW27286   4.340   1.620   4.387
 8796SOL    HW127287   4.416   1.613   4.452
 8796SOL    HW227288   4.315   1.529   4.355
 8797SOL     OW27289   0.846   6.936   5.305
 8797SOL    HW127290   0.939   6.938   5.267
 8797SOL    HW227291   0.850   6.965   5.401
 8798SOL     OW27292   5.123   5.323   5.710
 8798SOL    HW127293   5.203   5.311   5.651
 8798SOL    HW227294   5.042   5.337   5.653
 8799SOL     OW27295   2.058   4.377   3.907
 8799SOL    HW127296   2.106   4.378   3.820
 8799SOL    HW227297   2.101   4.310   3.968
 8800SOL     OW27298   6.071   4.288   5.572
 8800SOL    HW127299   6.040   4.338   5.654
 8800SOL    HW227300   6.015   4.316   5.494
 8801SOL     OW27301   0.974   1.637   4.641
 8801SOL    HW127302   1.042   1.710   4.646
 8801SOL    HW227303   0.997   1.565   4.706
 8802SOL     OW27304   1.560   0.066   1.149
 8802SOL    HW127305   1.550   6.998   1.193
 8802SOL    HW227306   1.480   0.122   1.168
 8803SOL     OW27307   0.183   5.318   5.984
 8803SOL    HW127308   0.222   5.401   6.022
 8803SOL    HW227309   0.133   5.340   5.900
 8804SOL     OW27310   3.339   1.001   2.359
 8804SOL    HW127311   3.245   1.005   2.393
 8804SOL    HW227312   3.363   1.089   2.317
 8805SOL     OW27313   2.721   0.003   4.199
 8805SOL    HW127314   2.809   0.008   4.151
 8805SOL    HW227315   2.687   6.930   4.196
 8806SOL     OW27316   2.423   4.928   2.105
 8806SOL    HW127317   2.522   4.932   2.116
 8806SOL    HW227318   2.392   5.006   2.052
 8807SOL     OW27319   5.004   0.236   6.362
 8807SOL    HW127320   4.990   0.172   6.437
 8807SOL    HW227321   4.982   0.191   6.276
 8808SOL     OW27322   5.416   2.372   0.037
 8808SOL    HW127323   5.400   2.290   7.003
 8808SOL    HW227324   5.400   2.453   7.002
 8809SOL     OW27325   4.578   5.494   3.703
 8809SOL    HW127326   4.597   5.562   3.773
 8809SOL    HW227327   4.498   5.439   3.730
 8810SOL     OW27328   5.459   0.664   6.457
 8810SOL    HW127329   5.366   0.630   6.446
 8810SOL    HW227330   5.471   0.747   6.401
 8811SOL     OW27331   2.647   1.461   3.707
 8811SOL    HW127332   2.711   1.492   3.636
 8811SOL    HW227333   2.621   1.366   3.690
 8812SOL     OW27334   2.045   0.079   1.574
 8812SOL    HW127335   2.028   0.149   1.504
 8812SOL    HW227336   2.043   0.122   1.664
 8813SOL     OW27337   1.251   4.606   1.473
 8813SOL    HW127338   1.306   4.642   1.397
 8813SOL    HW227339   1.181   4.673   1.499
 8814SOL     OW27340   5.689   0.083   0.640
 8814SOL    HW127341   5.726   0.040   0.558
 8814SOL    HW227342   5.646   0.170   0.615
 8815SOL     OW27343   6.885   6.225   0.989
 8815SOL    HW127344   6.961   6.186   1.042
 8815SOL    HW227345   6.888   6.187   0.896
 8816SOL     OW27346   1.492   0.778   0.303
 8816SOL    HW127347   1.493   0.689   0.258
 8816SOL    HW227348   1.542   0.773   0.389
 8817SOL     OW27349   1.043   6.070   4.773
 8817SOL    HW127350   1.138   6.091   4.753
 8817SOL    HW227351   1.021   6.100   4.866
 8818SOL     OW27352   0.444   3.620   4.491
 8818SOL    HW127353   0.441   3.640   4.589
 8818SOL    HW227354   0.368   3.560   4.467
 8819SOL     OW27355   5.542   4.844   4.720
 8819SOL    HW127356   5.627   4.897   4.716
 8819SOL    HW227357   5.525   4.815   4.815
 8820SOL     OW27358   1.992   0.967   5.246
 8820SOL    HW127359   2.088   0.971   5.276
 8820SOL    HW227360   1.952   1.058   5.252
 8821SOL     OW27361   2.884   6.267   0.579
 8821SOL    HW127362   2.803   6.225   0.619
 8821SOL    HW227363   2.966   6.221   0.612
 8822SOL     OW27364   0.502   0.137   4.832
 8822SOL    HW127365   0.546   0.048   4.832
 8822SOL    HW227366   0.423   0.135   4.893
 8823SOL     OW27367   2.373   1.057   0.866
 8823SOL    HW127368   2.419   1.140   0.899
 8823SOL    HW227369   2.424   1.019   0.788
 8824SOL     OW27370   0.791   3.459   1.052
 8824SOL    HW127371   0.721   3.410   1.000
 8824SOL    HW227372   0.846   3.514   0.990
 8825SOL     OW27373   1.426   0.434   2.911
 8825SOL    HW127374   1.360   0.508   2.928
 8825SOL    HW227375   1.465   0.444   2.820
 8826SOL     OW27376   6.361   2.932   0.911
 8826SOL    HW127377   6.342   2.947   0.814
 8826SOL    HW227378   6.398   3.016   0.951
 8827SOL     OW27379   3.739   1.048   3.057
 8827SOL    HW127380   3.750   0.949   3.055
 8827SOL    HW227381   3.755   1.082   3.150
 8828SOL     OW27382   4.125   5.413   5.682
 8828SOL    HW127383   4.034   5.406   5.642
 8828SOL    HW227384   4.137   5.341   5.751
 8829SOL     OW27385   6.438   2.292   0.746
 8829SOL    HW127386   6.514   2.356   0.742
 8829SOL    HW227387   6.471   2.199   0.729
 8830SOL     OW27388   0.994   1.652   2.160
 8830SOL    HW127389   1.038   1.563   2.165
 8830SOL    HW227390   0.902   1.642   2.123
 8831SOL     OW27391   5.084   1.400   4.130
 8831SOL    HW127392   5.083   1.300   4.132
 8831SOL    HW227393   5.169   1.433   4.170
 8832SOL     OW27394   0.046   5.937   2.738
 8832SOL    HW127395   0.036   5.971   2.831
 8832SOL    HW227396   0.050   5.837   2.739
 8833SOL     OW27397   2.168   6.199   5.559
 8833SOL    HW127398   2.193   6.285   5.602
 8833SOL    HW227399   2.163   6.127   5.628
 8834SOL     OW27400   5.336   3.645   4.741
 8834SOL    HW127401   5.378   3.718   4.794
 8834SOL    HW227402   5.324   3.564   4.800
 8835SOL     OW27403   5.477   0.966   6.204
 8835SOL    HW127404   5.418   1.001   6.277
 8835SOL    HW227405   5.444   1.000   6.116
 8836SOL     OW27406   4.439   2.449   0.005
 8836SOL    HW127407   4.480   2.503   6.953
 8836SOL    HW227408   4.433   2.353   6.996
 8837SOL     OW27409   0.236   5.975   3.380
 8837SOL    HW127410   0.158   5.965   3.443
 8837SOL    HW227411   0.307   5.910   3.405
 8838SOL     OW27412   2.198   4.653   2.785
 8838SOL    HW127413   2.163   4.724   2.724
 8838SOL    HW227414   2.229   4.575   2.731
 8839SOL     OW27415   4.889   5.011   3.183
 8839SOL    HW127416   4.923   4.921   3.213
 8839SOL    HW227417   4.809   5.035   3.238
 8840SOL     OW27418   6.687   1.716   1.750
 8840SOL    HW127419   6.685   1.811   1.719
 8840SOL    HW227420   6.747   1.709   1.830
 8841SOL     OW27421   0.540   0.596   5.037
 8841SOL    HW127422   0.536   0.499   5.061
 8841SOL    HW227423   0.516   0.651   5.117
 8842SOL     OW27424   3.201   3.027   2.112
 8842SOL    HW127425   3.113   3.075   2.110
 8842SOL    HW227426   3.195   2.944   2.057
 8843SOL     OW27427   2.051   3.444   5.467
 8843SOL    HW127428   2.019   3.374   5.403
 8843SOL    HW227429   2.022   3.535   5.436
 8844SOL     OW27430   6.326   2.557   6.612
 8844SOL    HW127431   6.370   2.608   6.686
 8844SOL    HW227432   6.239   2.600   6.587
 8845SOL     OW27433   3.695   3.768   0.220
 8845SOL    HW127434   3.768   3.833   0.198
 8845SOL    HW227435   3.607   3.806   0.191
 8846SOL     OW27436   3.408   5.943   3.768
 8846SOL    HW127437   3.355   5.973   3.688
 8846SOL    HW227438   3.479   6.011   3.787
 8847SOL     OW27439   3.023   1.837   3.244
 8847SOL    HW127440   3.019   1.757   3.304
 8847SOL    HW227441   2.954   1.904   3.273
 8848SOL     OW27442   2.591   0.928   1.782
 8848SOL    HW127443   2.538   0.930   1.698
 8848SOL    HW227444   2.656   1.005   1.783
 8849SOL     OW27445   3.570   6.235   3.118
 8849SOL    HW127446   3.631   6.205   3.045
 8849SOL    HW227447   3.497   6.167   3.131
 8850SOL     OW27448   1.377   2.721   6.961
 8850SOL    HW127449   1.328   2.801   6.996
 8850SOL    HW227450   1.313   2.647   6.943
 8851SOL     OW27451   1.545   4.018   3.361
 8851SOL    HW127452   1.506   3.932   3.331
 8851SOL    HW227453   1.562   4.015   3.460
 8852SOL     OW27454   0.356   2.255   5.038
 8852SOL    HW127455   0.336   2.303   5.123
 8852SOL    HW227456   0.407   2.315   4.976
 8853SOL     OW27457   2.893   0.673   1.594
 8853SOL    HW127458   2.901   0.761   1.641
 8853SOL    HW227459   2.842   0.609   1.652
 8854SOL     OW27460   1.982   2.508   5.641
 8854SOL    HW127461   1.932   2.485   5.557
 8854SOL    HW227462   2.040   2.431   5.667
 8855SOL     OW27463   6.560   5.001   1.283
 8855SOL    HW127464   6.575   5.025   1.379
 8855SOL    HW227465   6.466   4.972   1.270
 8856SOL     OW27466   1.025   6.420   6.841
 8856SOL    HW127467   0.935   6.393   6.877
 8856SOL    HW227468   1.040   6.517   6.859
 8857SOL     OW27469   6.408   1.803   4.114
 8857SOL    HW127470   6.463   1.880   4.145
 8857SOL    HW227471   6.456   1.717   4.132
 8858SOL     OW27472   0.043   3.889   4.406
 8858SOL    HW127473   0.081   3.972   4.366
 8858SOL    HW227474   0.066   3.811   4.348
 8859SOL     OW27475   1.385   1.727   3.829
 8859SOL    HW127476   1.466   1.732   3.771
 8859SOL    HW227477   1.367   1.817   3.869
 8860SOL     OW27478   6.965   2.159   1.175
 8860SOL    HW127479   0.035   2.197   1.163
 8860SOL    HW227480   6.929   2.183   1.265
 8861SOL     OW27481   3.922   1.372   5.684
 8861SOL    HW127482   3.970   1.320   5.756
 8861SOL    HW227483   3.937   1.470   5.698
 8862SOL     OW27484   5.814   6.926   3.673
 8862SOL    HW127485   5.897   6.979   3.656
 8862SOL    HW227486   5.796   6.866   3.595
 8863SOL     OW27487   2.825   4.705   3.706
 8863SOL    HW127488   2.744   4.664   3.748
 8863SOL    HW227489   2.801   4.741   3.616
 8864SOL     OW27490   3.433   4.914   6.479
 8864SOL    HW127491   3.494   4.858   6.424
 8864SOL    HW227492   3.470   5.007   6.486
 8865SOL     OW27493   2.940   0.709   4.463
 8865SOL    HW127494   2.927   0.675   4.557
 8865SOL    HW227495   2.908   0.804   4.457
 8866SOL     OW27496   5.532   6.808   2.798
 8866SOL    HW127497   5.556   6.737   2.865
 8866SOL    HW227498   5.545   6.773   2.706
 8867SOL     OW27499   5.866   4.593   3.623
 8867SOL    HW127500   5.778   4.547   3.611
 8867SOL    HW227501   5.875   4.666   3.554
 8868SOL     OW27502   6.894   3.005   1.827
 8868SOL    HW127503   6.961   2.957   1.771
 8868SOL    HW227504   6.940   3.049   1.904
 8869SOL     OW27505   3.948   5.805   5.120
 8869SOL    HW127506   3.886   5.876   5.151
 8869SOL    HW227507   4.036   5.847   5.095
 8870SOL     OW27508   2.415   6.685   2.196
 8870SOL    HW127509   2.344   6.615   2.192
 8870SOL    HW227510   2.413   6.740   2.113
 8871SOL     OW27511   1.965   0.122   3.459
 8871SOL    HW127512   1.872   0.113   3.422
 8871SOL    HW227513   1.993   0.218   3.455
 8872SOL     OW27514   1.556   5.073   5.674
 8872SOL    HW127515   1.598   5.005   5.614
 8872SOL    HW227516   1.557   5.040   5.768
 8873SOL     OW27517   2.034   6.960   2.369
 8873SOL    HW127518   2.018   6.879   2.313
 8873SOL    HW227519   2.050   0.018   2.309
 8874SOL     OW27520   1.922   5.811   2.224
 8874SOL    HW127521   1.903   5.843   2.317
 8874SOL    HW227522   2.011   5.767   2.221
 8875SOL     OW27523   6.503   3.418   4.868
 8875SOL    HW127524   6.540   3.434   4.776
 8875SOL    HW227525   6.441   3.493   4.892
 8876SOL     OW27526   2.455   0.614   5.819
 8876SOL    HW127527   2.499   0.636   5.733
 8876SOL    HW227528   2.469   0.517   5.840
 8877SOL     OW27529   2.360   2.325   3.951
 8877SOL    HW127530   2.363   2.292   3.857
 8877SOL    HW227531   2.266   2.318   3.986
 8878SOL     OW27532   3.971   4.885   1.438
 8878SOL    HW127533   4.021   4.800   1.448
 8878SOL    HW227534   3.875   4.871   1.461
 8879SOL     OW27535   4.512   4.861   2.391
 8879SOL    HW127536   4.490   4.946   2.344
 8879SOL    HW227537   4.441   4.793   2.371
 8880SOL     OW27538   3.971   6.542   4.889
 8880SOL    HW127539   4.011   6.633   4.903
 8880SOL    HW227540   3.967   6.521   4.792
 8881SOL     OW27541   5.283   6.080   4.217
 8881SOL    HW127542   5.297   6.175   4.245
 8881SOL    HW227543   5.345   6.021   4.268
 8882SOL     OW27544   4.834   0.948   1.175
 8882SOL    HW127545   4.793   0.904   1.095
 8882SOL    HW227546   4.917   0.899   1.200
 8883SOL     OW27547   2.333   6.389   6.325
 8883SOL    HW127548   2.417   6.423   6.368
 8883SOL    HW227549   2.355   6.315   6.263
 8884SOL     OW27550   6.104   3.268   5.945
 8884SOL    HW127551   6.086   3.366   5.937
 8884SOL    HW227552   6.101   3.226   5.854
 8885SOL     OW27553   5.150   4.835   0.896
 8885SOL    HW127554   5.161   4.756   0.957
 8885SOL    HW227555   5.229   4.895   0.904
 8886SOL     OW27556   3.066   5.822   5.463
 8886SOL    HW127557   3.092   5.866   5.549
 8886SOL    HW227558   3.098   5.877   5.386
 8887SOL     OW27559   4.026   0.612   0.890
 8887SOL    HW127560   4.111   0.594   0.940
 8887SOL    HW227561   3.969   0.675   0.943
 8888SOL     OW27562   2.146   2.217   5.029
 8888SOL    HW127563   2.213   2.228   4.955
 8888SOL    HW227564   2.142   2.302   5.083
 8889SOL     OW27565   6.468   6.744   6.970
 8889SOL    HW127566   6.440   6.819   0.009
 8889SOL    HW227567   6.405   6.667   6.981
 8890SOL     OW27568   0.361   5.582   5.628
 8890SOL    HW127569   0.438   5.634   5.591
 8890SOL    HW227570   0.307   5.641   5.687
 8891SOL     OW27571   3.867   4.168   0.362
 8891SOL    HW127572   3.836   4.135   0.273
 8891SOL    HW227573   3.857   4.096   0.430
 8892SOL     OW27574   3.629   4.929   3.540
 8892SOL    HW127575   3.623   4.915   3.639
 8892SOL    HW227576   3.725   4.927   3.511
 8893SOL     OW27577   1.013   5.117   4.857
 8893SOL    HW127578   0.984   5.034   4.905
 8893SOL    HW227579   0.937   5.152   4.802
 8894SOL     OW27580   3.045   1.997   6.604
 8894SOL    HW127581   3.125   1.949   6.569
 8894SOL    HW227582   3.071   2.053   6.683
 8895SOL     OW27583   6.887   2.214   1.418
 8895SOL    HW127584   6.851   2.296   1.462
 8895SOL    HW227585   6.936   2.159   1.486
 8896SOL     OW27586   2.240   3.085   4.739
 8896SOL    HW127587   2.263   3.065   4.834
 8896SOL    HW227588   2.174   3.160   4.735
 8897SOL     OW27589   2.482   2.654   3.769
 8897SOL    HW127590   2.430   2.662   3.854
 8897SOL    HW227591   2.457   2.728   3.707
 8898SOL     OW27592   4.979   3.085   2.427
 8898SOL    HW127593   4.912   3.102   2.355
 8898SOL    HW227594   5.032   3.003   2.405
 8899SOL     OW27595   1.801   4.396   0.351
 8899SOL    HW127596   1.870   4.441   0.408
 8899SOL    HW227597   1.840   4.314   0.310
 8900SOL     OW27598   5.237   3.201   3.143
 8900SOL    HW127599   5.230   3.177   3.240
 8900SOL    HW227600   5.280   3.290   3.134
 8901SOL     OW27601   0.601   1.247   4.417
 8901SOL    HW127602   0.691   1.203   4.414
 8901SOL    HW227603   0.540   1.204   4.350
 8902SOL     OW27604   1.274   5.666   0.221
 8902SOL    HW127605   1.343   5.657   0.292
 8902SOL    HW227606   1.288   5.752   0.171
 8903SOL     OW27607   0.717   1.929   4.398
 8903SOL    HW127608   0.704   1.845   4.345
 8903SOL    HW227609   0.806   1.968   4.377
 8904SOL     OW27610   0.780   0.921   4.866
 8904SOL    HW127611   0.824   0.995   4.814
 8904SOL    HW227612   0.810   0.833   4.831
 8905SOL     OW27613   2.214   3.040   2.950
 8905SOL    HW127614   2.205   3.052   3.049
 8905SOL    HW227615   2.163   3.111   2.902
 8906SOL     OW27616   0.718   6.162   0.869
 8906SOL    HW127617   0.667   6.108   0.937
 8906SOL    HW227618   0.665   6.243   0.845
 8907SOL     OW27619   3.089   2.857   5.830
 8907SOL    HW127620   3.026   2.919   5.879
 8907SOL    HW227621   3.158   2.910   5.783
 8908SOL     OW27622   1.860   6.327   0.660
 8908SOL    HW127623   1.914   6.264   0.605
 8908SOL    HW227624   1.839   6.409   0.606
 8909SOL     OW27625   2.862   1.400   5.772
 8909SOL    HW127626   2.866   1.321   5.834
 8909SOL    HW227627   2.769   1.409   5.735
 8910SOL     OW27628   1.017   3.054   5.434
 8910SOL    HW127629   1.087   2.985   5.419
 8910SOL    HW227630   1.052   3.144   5.406
 8911SOL     OW27631   4.875   3.283   4.784
 8911SOL    HW127632   4.921   3.371   4.796
 8911SOL    HW227633   4.858   3.267   4.687
 8912SOL     OW27634   2.503   3.537   6.519
 8912SOL    HW127635   2.535   3.443   6.500
 8912SOL    HW227636   2.403   3.540   6.513
 8913SOL     OW27637   4.056   5.244   6.591
 8913SOL    HW127638   3.993   5.261   6.515
 8913SOL    HW227639   4.041   5.313   6.662
 8914SOL     OW27640   4.568   0.518   5.029
 8914SOL    HW127641   4.557   0.616   5.047
 8914SOL    HW227642   4.658   0.489   5.062
 8915SOL     OW27643   1.561   2.229   4.103
 8915SOL    HW127644   1.580   2.172   4.183
 8915SOL    HW227645   1.484   2.190   4.053
 8916SOL     OW27646   6.763   3.190   6.940
 8916SOL    HW127647   6.795   3.125   7.009
 8916SOL    HW227648   6.786   3.156   6.849
 8917SOL     OW27649   5.588   2.483   0.692
 8917SOL    HW127650   5.526   2.521   0.762
 8917SOL    HW227651   5.552   2.504   0.601
 8918SOL     OW27652   0.994   4.772   0.625
 8918SOL    HW127653   0.949   4.838   0.685
 8918SOL    HW227654   1.064   4.722   0.676
 8919SOL     OW27655   5.299   3.956   0.101
 8919SOL    HW127656   5.310   4.038   0.043
 8919SOL    HW227657   5.265   3.983   0.190
 8920SOL     OW27658   6.902   1.968   6.961
 8920SOL    HW127659   6.972   1.901   6.987
 8920SOL    HW227660   6.941   2.060   6.962
 8921SOL     OW27661   1.952   2.942   2.221
 8921SOL    HW127662   2.030   2.982   2.172
 8921SOL    HW227663   1.972   2.938   2.319
 8922SOL     OW27664   4.139   5.117   2.516
 8922SOL    HW127665   4.057   5.171   2.496
 8922SOL    HW227666   4.120   5.057   2.594
 8923SOL     OW27667   1.755   1.609   6.609
 8923SOL    HW127668   1.681   1.676   6.616
 8923SOL    HW227669   1.717   1.518   6.598
 8924SOL     OW27670   4.320   5.488   5.488
 8924SOL    HW127671   4.252   5.464   5.557
 8924SOL    HW227672   4.376   5.408   5.466
 8925SOL     OW27673   0.733   1.038   2.823
 8925SOL    HW127674   0.665   1.089   2.769
 8925SOL    HW227675   0.766   0.960   2.769
 8926SOL     OW27676   6.747   3.166   5.779
 8926SOL    HW127677   6.787   3.238   5.722
 8926SOL    HW227678   6.692   3.106   5.721
 8927SOL     OW27679   6.021   1.112   4.320
 8927SOL    HW127680   5.969   1.029   4.341
 8927SOL    HW227681   6.115   1.102   4.354
 8928SOL     OW27682   1.186   0.431   6.075
 8928SOL    HW127683   1.199   0.340   6.116
 8928SOL    HW227684   1.247   0.441   5.996
 8929SOL     OW27685   5.889   2.024   5.071
 8929SOL    HW127686   5.845   1.945   5.114
 8929SOL    HW227687   5.881   2.017   4.972
 8930SOL     OW27688   1.033   2.721   3.560
 8930SOL    HW127689   1.002   2.629   3.583
 8930SOL    HW227690   1.025   2.735   3.461
 8931SOL     OW27691   2.992   4.089   0.991
 8931SOL    HW127692   3.056   4.018   1.019
 8931SOL    HW227693   2.899   4.052   0.989
 8932SOL     OW27694   5.867   1.889   2.014
 8932SOL    HW127695   5.837   1.957   1.947
 8932SOL    HW227696   5.797   1.879   2.085
 8933SOL     OW27697   2.552   2.487   5.920
 8933SOL    HW127698   2.632   2.547   5.931
 8933SOL    HW227699   2.553   2.418   5.992
 8934SOL     OW27700   2.595   5.353   4.728
 8934SOL    HW127701   2.598   5.326   4.824
 8934SOL    HW227702   2.579   5.272   4.672
 8935SOL     OW27703   0.664   4.630   0.354
 8935SOL    HW127704   0.582   4.686   0.356
 8935SOL    HW227705   0.646   4.546   0.303
 8936SOL     OW27706   1.248   4.593   1.782
 8936SOL    HW127707   1.182   4.641   1.839
 8936SOL    HW227708   1.211   4.583   1.689
 8937SOL     OW27709   0.778   6.935   5.945
 8937SOL    HW127710   0.775   6.861   6.012
 8937SOL    HW227711   0.751   0.000   5.989
 8938SOL     OW27712   0.569   5.876   0.726
 8938SOL    HW127713   0.581   5.906   0.632
 8938SOL    HW227714   0.571   5.956   0.787
 8939SOL     OW27715   5.063   2.813   3.977
 8939SOL    HW127716   5.017   2.851   4.058
 8939SOL    HW227717   5.081   2.886   3.912
 8940SOL     OW27718   0.293   1.553   2.188
 8940SOL    HW127719   0.297   1.645   2.148
 8940SOL    HW227720   0.363   1.545   2.260
 8941SOL     OW27721   6.461   2.471   5.442
 8941SOL    HW127722   6.513   2.500   5.362
 8941SOL    HW227723   6.512   2.495   5.525
 8942SOL     OW27724   6.880   4.731   4.884
 8942SOL    HW127725   6.844   4.637   4.884
 8942SOL    HW227726   6.929   4.748   4.799
 8943SOL     OW27727   3.556   4.813   6.074
 8943SOL    HW127728   3.459   4.791   6.067
 8943SOL    HW227729   3.567   4.909   6.101
 8944SOL     OW27730   5.399   4.548   4.975
 8944SOL    HW127731   5.491   4.533   5.011
 8944SOL    HW227732   5.399   4.528   4.877
 8945SOL     OW27733   0.539   0.701   2.910
 8945SOL    HW127734   0.607   0.756   2.959
 8945SOL    HW227735   0.521   0.742   2.820
 8946SOL     OW27736   3.231   1.151   5.335
 8946SOL    HW127737   3.287   1.069   5.327
 8946SOL    HW227738   3.205   1.165   5.430
 8947SOL     OW27739   1.944   3.643   5.307
 8947SOL    HW127740   1.845   3.652   5.306
 8947SOL    HW227741   1.983   3.686   5.226
 8948SOL     OW27742   6.664   6.738   4.332
 8948SOL    HW127743   6.744   6.678   4.336
 8948SOL    HW227744   6.583   6.687   4.360
 8949SOL     OW27745   2.486   0.009   1.272
 8949SOL    HW127746   2.534   0.087   1.231
 8949SOL    HW227747   2.481   6.956   1.205
 8950SOL     OW27748   4.450   4.341   6.403
 8950SOL    HW127749   4.507   4.419   6.427
 8950SOL    HW227750   4.477   4.306   6.313
 8951SOL     OW27751   1.002   1.975   5.296
 8951SOL    HW127752   0.904   1.970   5.277
 8951SOL    HW227753   1.047   2.034   5.229
 8952SOL     OW27754   1.223   6.914   2.297
 8952SOL    HW127755   1.314   6.886   2.328
 8952SOL    HW227756   1.155   6.891   2.367
 8953SOL     OW27757   1.366   4.359   0.014
 8953SOL    HW127758   1.375   4.456   0.038
 8953SOL    HW227759   1.452   4.327   6.995
 8954SOL     OW27760   0.835   0.351   5.878
 8954SOL    HW127761   0.823   0.357   5.779
 8954SOL    HW227762   0.931   0.334   5.899
 8955SOL     OW27763   0.274   5.347   2.267
 8955SOL    HW127764   0.235   5.303   2.186
 8955SOL    HW227765   0.236   5.304   2.350
 8956SOL     OW27766   1.020   1.671   6.635
 8956SOL    HW127767   1.095   1.714   6.686
 8956SOL    HW227768   0.933   1.713   6.661
 8957SOL     OW27769   2.910   4.311   1.677
 8957SOL    HW127770   2.966   4.250   1.733
 8957SOL    HW227771   2.890   4.395   1.728
 8958SOL     OW27772   6.978   0.591   4.664
 8958SOL    HW127773   6.924   0.506   4.659
 8958SOL    HW227774   7.012   0.613   4.573
 8959SOL     OW27775   1.475   4.812   1.844
 8959SOL    HW127776   1.483   4.715   1.869
 8959SOL    HW227777   1.440   4.820   1.751
 8960SOL     OW27778   4.565   4.765   2.969
 8960SOL    HW127779   4.584   4.851   2.921
 8960SOL    HW227780   4.627   4.756   3.047
 8961SOL     OW27781   2.750   1.471   4.513
 8961SOL    HW127782   2.721   1.565   4.497
 8961SOL    HW227783   2.763   1.424   4.426
 8962SOL     OW27784   6.880   6.090   2.172
 8962SOL    HW127785   6.908   6.179   2.208
 8962SOL    HW227786   6.928   6.073   2.085
 8963SOL     OW27787   5.126   6.387   4.048
 8963SOL    HW127788   5.120   6.303   3.995
 8963SOL    HW227789   5.118   6.366   4.145
 8964SOL     OW27790   4.905   3.373   3.296
 8964SOL    HW127791   4.921   3.299   3.362
 8964SOL    HW227792   4.960   3.357   3.214
 8965SOL     OW27793   2.286   4.662   0.940
 8965SOL    HW127794   2.298   4.564   0.921
 8965SOL    HW227795   2.372   4.710   0.923
 8966SOL     OW27796   6.756   4.175   6.232
 8966SOL    HW127797   6.823   4.107   6.202
 8966SOL    HW227798   6.738   4.238   6.156
 8967SOL     OW27799   3.571   0.043   2.216
 8967SOL    HW127800   3.494   0.104   2.197
 8967SOL    HW227801   3.581   0.031   2.315
 8968SOL     OW27802   5.154   5.113   3.202
 8968SOL    HW127803   5.202   5.052   3.266
 8968SOL    HW227804   5.065   5.073   3.180
 8969SOL     OW27805   6.667   1.353   4.674
 8969SOL    HW127806   6.737   1.290   4.642
 8969SOL    HW227807   6.616   1.310   4.749
 8970SOL     OW27808   2.787   3.500   0.412
 8970SOL    HW127809   2.760   3.530   0.504
 8970SOL    HW227810   2.776   3.401   0.404
 8971SOL     OW27811   4.882   5.619   1.919
 8971SOL    HW127812   4.827   5.538   1.903
 8971SOL    HW227813   4.975   5.593   1.944
 8972SOL     OW27814   5.156   4.594   6.703
 8972SOL    HW127815   5.098   4.576   6.624
 8972SOL    HW227816   5.105   4.648   6.770
 8973SOL     OW27817   1.284   3.287   2.202
 8973SOL    HW127818   1.279   3.348   2.122
 8973SOL    HW227819   1.294   3.341   2.285
 8974SOL     OW27820   1.984   4.502   5.812
 8974SOL    HW127821   1.989   4.577   5.747
 8974SOL    HW227822   1.889   4.475   5.826
 8975SOL     OW27823   2.076   6.821   6.267
 8975SOL    HW127824   2.103   6.778   6.354
 8975SOL    HW227825   2.157   6.848   6.216
 8976SOL     OW27826   0.344   4.925   4.945
 8976SOL    HW127827   0.426   4.874   4.973
 8976SOL    HW227828   0.287   4.944   5.025
 8977SOL     OW27829   6.071   2.321   0.101
 8977SOL    HW127830   6.015   2.294   0.023
 8977SOL    HW227831   6.024   2.392   0.153
 8978SOL     OW27832   5.652   0.232   5.549
 8978SOL    HW127833   5.731   0.198   5.497
 8978SOL    HW227834   5.570   0.227   5.492
 8979SOL     OW27835   1.139   3.287   4.685
 8979SOL    HW127836   1.142   3.191   4.660
 8979SOL    HW227837   1.046   3.323   4.671
 8980SOL     OW27838   2.355   2.827   5.769
 8980SOL    HW127839   2.393   2.764   5.700
 8980SOL    HW227840   2.265   2.859   5.738
 8981SOL     OW27841   4.181   2.054   5.177
 8981SOL    HW127842   4.164   2.041   5.275
 8981SOL    HW227843   4.117   1.999   5.124
 8982SOL     OW27844   1.257   2.492   1.347
 8982SOL    HW127845   1.355   2.502   1.332
 8982SOL    HW227846   1.210   2.480   1.260
 8983SOL     OW27847   1.667   6.750   6.849
 8983SOL    HW127848   1.715   6.689   6.911
 8983SOL    HW227849   1.578   6.710   6.825
 8984SOL     OW27850   0.122   0.472   4.230
 8984SOL    HW127851   0.179   0.422   4.165
 8984SOL    HW227852   0.148   0.447   4.323
 8985SOL     OW27853   2.266   3.551   0.588
 8985SOL    HW127854   2.356   3.509   0.589
 8985SOL    HW227855   2.197   3.482   0.609
 8986SOL     OW27856   4.989   5.193   2.342
 8986SOL    HW127857   5.017   5.149   2.427
 8986SOL    HW227858   4.896   5.229   2.351
 8987SOL     OW27859   4.449   6.598   1.710
 8987SOL    HW127860   4.504   6.558   1.783
 8987SOL    HW227861   4.359   6.622   1.745
 8988SOL     OW27862   1.634   3.723   5.349
 8988SOL    HW127863   1.549   3.714   5.401
 8988SOL    HW227864   1.645   3.818   5.318
 8989SOL     OW27865   5.027   4.044   0.965
 8989SOL    HW127866   5.034   4.120   1.030
 8989SOL    HW227867   4.933   4.038   0.931
 8990SOL     OW27868   1.737   6.206   3.724
 8990SOL    HW127869   1.696   6.127   3.769
 8990SOL    HW227870   1.808   6.244   3.782
 8991SOL     OW27871   1.819   2.290   6.186
 8991SOL    HW127872   1.870   2.306   6.102
 8991SOL    HW227873   1.882   2.286   6.264
 8992SOL     OW27874   5.357   1.702   6.975
 8992SOL    HW127875   5.413   1.703   6.892
 8992SOL    HW227876   5.264   1.734   6.954
 8993SOL     OW27877   5.252   2.543   2.012
 8993SOL    HW127878   5.296   2.545   1.923
 8993SOL    HW227879   5.240   2.636   2.046
 8994SOL     OW27880   1.315   4.215   4.464
 8994SOL    HW127881   1.219   4.216   4.491
 8994SOL    HW227882   1.373   4.219   4.545
 8995SOL     OW27883   1.374   3.035   6.956
 8995SOL    HW127884   1.282   3.066   6.931
 8995SOL    HW227885   1.397   3.068   0.026
 8996SOL     OW27886   5.971   5.109   0.351
 8996SOL    HW127887   6.010   5.035   0.405
 8996SOL    HW227888   5.926   5.072   0.270
 8997SOL     OW27889   4.865   1.631   6.287
 8997SOL    HW127890   4.846   1.701   6.218
 8997SOL    HW227891   4.952   1.650   6.330
 8998SOL     OW27892   6.190   3.921   3.991
 8998SOL    HW127893   6.189   3.855   3.916
 8998SOL    HW227894   6.213   3.874   4.076
 8999SOL     OW27895   4.659   6.163   6.639
 8999SOL    HW127896   4.757   6.149   6.626
 8999SOL    HW227897   4.638   6.159   6.736
 9000SOL     OW27898   1.509   4.010   1.013
 9000SOL    HW127899   1.500   3.957   1.097
 9000SOL    HW227900   1.447   4.088   1.015
 9001SOL     OW27901   1.395   5.725   2.429
 9001SOL    HW127902   1.348   5.778   2.358
 9001SOL    HW227903   1.493   5.745   2.426
 9002SOL     OW27904   0.587   4.853   5.248
 9002SOL    HW127905   0.593   4.756   5.222
 9002SOL    HW227906   0.524   4.863   5.325
 9003SOL     OW27907   5.606   3.063   1.711
 9003SOL    HW127908   5.518   3.032   1.675
 9003SOL    HW227909   5.666   3.086   1.635
 9004SOL     OW27910   3.896   6.382   1.339
 9004SOL    HW127911   3.885   6.461   1.399
 9004SOL    HW227912   3.988   6.344   1.351
 9005SOL     OW27913   5.613   2.903   4.261
 9005SOL    HW127914   5.581   2.966   4.332
 9005SOL    HW227915   5.564   2.816   4.269
 9006SOL     OW27916   2.687   5.474   1.423
 9006SOL    HW127917   2.734   5.490   1.336
 9006SOL    HW227918   2.592   5.502   1.415
 9007SOL     OW27919   3.373   0.979   3.817
 9007SOL    HW127920   3.393   0.936   3.730
 9007SOL    HW227921   3.294   1.039   3.808
 9008SOL     OW27922   1.450   5.692   3.639
 9008SOL    HW127923   1.411   5.733   3.556
 9008SOL    HW227924   1.454   5.593   3.629
 9009SOL     OW27925   2.766   6.835   1.064
 9009SOL    HW127926   2.783   6.821   0.966
 9009SOL    HW227927   2.836   6.894   1.102
 9010SOL     OW27928   1.595   6.696   4.052
 9010SOL    HW127929   1.538   6.638   3.994
 9010SOL    HW227930   1.685   6.706   4.010
 9011SOL     OW27931   5.126   1.827   2.337
 9011SOL    HW127932   5.116   1.734   2.370
 9011SOL    HW227933   5.181   1.828   2.254
 9012SOL     OW27934   2.358   3.732   0.391
 9012SOL    HW127935   2.295   3.810   0.390
 9012SOL    HW227936   2.340   3.676   0.472
 9013SOL     OW27937   0.369   6.728   5.467
 9013SOL    HW127938   0.394   6.802   5.530
 9013SOL    HW227939   0.452   6.688   5.429
 9014SOL     OW27940   6.389   1.913   6.998
 9014SOL    HW127941   6.352   2.002   0.002
 9014SOL    HW227942   6.471   1.925   6.942
 9015SOL     OW27943   4.622   1.335   1.842
 9015SOL    HW127944   4.559   1.338   1.920
 9015SOL    HW227945   4.594   1.403   1.774
 9016SOL     OW27946   0.305   6.471   6.635
 9016SOL    HW127947   0.232   6.428   6.688
 9016SOL    HW227948   0.270   6.554   6.591
 9017SOL     OW27949   4.593   1.971   3.563
 9017SOL    HW127950   4.542   1.973   3.477
 9017SOL    HW227951   4.614   2.064   3.591
 9018SOL     OW27952   3.897   2.633   6.785
 9018SOL    HW127953   3.854   2.649   6.875
 9018SOL    HW227954   3.941   2.544   6.785
 9019SOL     OW27955   1.457   5.437   1.874
 9019SOL    HW127956   1.543   5.438   1.823
 9019SOL    HW227957   1.391   5.378   1.828
 9020SOL     OW27958   0.033   3.568   0.633
 9020SOL    HW127959   6.954   3.565   0.629
 9020SOL    HW227960   0.062   3.579   0.728
 9021SOL     OW27961   6.344   6.702   3.492
 9021SOL    HW127962   6.377   6.734   3.403
 9021SOL    HW227963   6.341   6.779   3.556
 9022SOL     OW27964   3.317   1.752   6.914
 9022SOL    HW127965   3.402   1.736   6.965
 9022SOL    HW227966   3.338   1.756   6.816
 9023SOL     OW27967   3.637   2.969   2.029
 9023SOL    HW127968   3.625   2.885   1.976
 9023SOL    HW227969   3.616   2.951   2.125
 9024SOL     OW27970   0.700   4.328   4.795
 9024SOL    HW127971   0.747   4.275   4.723
 9024SOL    HW227972   0.604   4.339   4.771
 9025SOL     OW27973   0.731   5.313   0.671
 9025SOL    HW127974   0.747   5.276   0.762
 9025SOL    HW227975   0.751   5.243   0.602
 9026SOL     OW27976   3.999   3.075   0.497
 9026SOL    HW127977   3.960   3.149   0.552
 9026SOL    HW227978   4.087   3.048   0.536
 9027SOL     OW27979   1.720   2.477   3.204
 9027SOL    HW127980   1.806   2.429   3.221
 9027SOL    HW227981   1.666   2.478   3.288
 9028SOL     OW27982   3.019   3.713   5.480
 9028SOL    HW127983   2.985   3.758   5.397
 9028SOL    HW227984   3.058   3.782   5.541
 9029SOL     OW27985   4.189   6.497   5.063
 9029SOL    HW127986   4.174   6.434   5.138
 9029SOL    HW227987   4.118   6.485   4.994
 9030SOL     OW27988   2.811   1.820   3.532
 9030SOL    HW127989   2.872   1.899   3.527
 9030SOL    HW227990   2.724   1.841   3.489
 9031SOL     OW27991   4.028   6.121   4.522
 9031SOL    HW127992   4.118   6.103   4.482
 9031SOL    HW227993   3.965   6.048   4.497
 9032SOL     OW27994   3.857   3.981   0.560
 9032SOL    HW127995   3.786   3.912   0.542
 9032SOL    HW227996   3.947   3.942   0.538
 9033SOL     OW27997   0.366   3.855   2.785
 9033SOL    HW127998   0.358   3.919   2.861
 9033SOL    HW227999   0.325   3.895   2.703
 9034SOL     OW28000   3.343   6.997   5.385
 9034SOL    HW128001   3.320   6.966   5.478
 9034SOL    HW228002   3.335   6.920   5.322
 9035SOL     OW28003   1.990   5.328   6.585
 9035SOL    HW128004   1.979   5.273   6.503
 9035SOL    HW228005   2.077   5.377   6.581
 9036SOL     OW28006   1.771   1.778   5.210
 9036SOL    HW128007   1.830   1.724   5.149
 9036SOL    HW228008   1.735   1.718   5.282
 9037SOL     OW28009   1.055   3.824   4.833
 9037SOL    HW128010   0.960   3.795   4.834
 9037SOL    HW228011   1.086   3.839   4.927
 9038SOL     OW28012   4.115   0.934   5.928
 9038SOL    HW128013   4.209   0.936   5.893
 9038SOL    HW228014   4.116   0.928   6.028
 9039SOL     OW28015   2.028   5.518   5.333
 9039SOL    HW128016   2.066   5.443   5.388
 9039SOL    HW228017   1.942   5.487   5.291
 9040SOL     OW28018   3.590   2.116   2.597
 9040SOL    HW128019   3.686   2.107   2.622
 9040SOL    HW228020   3.550   2.194   2.646
 9041SOL     OW28021   1.175   2.357   1.574
 9041SOL    HW128022   1.199   2.421   1.502
 9041SOL    HW228023   1.134   2.275   1.534
 9042SOL     OW28024   3.682   0.409   5.044
 9042SOL    HW128025   3.753   0.341   5.027
 9042SOL    HW228026   3.593   0.363   5.046
 9043SOL     OW28027   1.279   0.721   6.778
 9043SOL    HW128028   1.285   0.819   6.757
 9043SOL    HW228029   1.192   0.702   6.823
 9044SOL     OW28030   6.290   0.341   0.263
 9044SOL    HW128031   6.197   0.368   0.239
 9044SOL    HW228032   6.354   0.374   0.193
 9045SOL     OW28033   2.690   1.827   2.674
 9045SOL    HW128034   2.598   1.863   2.662
 9045SOL    HW228035   2.716   1.833   2.771
 9046SOL     OW28036   3.342   3.512   2.958
 9046SOL    HW128037   3.283   3.458   3.018
 9046SOL    HW228038   3.432   3.469   2.952
 9047SOL     OW28039   1.961   4.090   5.303
 9047SOL    HW128040   2.054   4.124   5.314
 9047SOL    HW228041   1.918   4.137   5.225
 9048SOL     OW28042   5.347   3.507   6.161
 9048SOL    HW128043   5.334   3.431   6.097
 9048SOL    HW228044   5.442   3.540   6.154
 9049SOL     OW28045   3.938   0.014   5.777
 9049SOL    HW128046   3.928   6.939   5.753
 9049SOL    HW228047   3.872   0.038   5.849
 9050SOL     OW28048   0.278   2.952   0.872
 9050SOL    HW128049   0.276   2.887   0.795
 9050SOL    HW228050   0.264   2.902   0.957
 9051SOL     OW28051   4.209   0.192   1.410
 9051SOL    HW128052   4.206   0.276   1.356
 9051SOL    HW228053   4.214   0.114   1.348
 9052SOL     OW28054   2.784   2.270   4.401
 9052SOL    HW128055   2.705   2.300   4.347
 9052SOL    HW228056   2.861   2.251   4.341
 9053SOL     OW28057   2.091   0.515   2.766
 9053SOL    HW128058   2.046   0.578   2.830
 9053SOL    HW228059   2.066   0.421   2.788
 9054SOL     OW28060   3.261   6.046   3.546
 9054SOL    HW128061   3.164   6.041   3.523
 9054SOL    HW228062   3.316   6.009   3.471
 9055SOL     OW28063   6.323   2.784   4.391
 9055SOL    HW128064   6.250   2.835   4.436
 9055SOL    HW228065   6.372   2.844   4.327
 9056SOL     OW28066   0.426   2.177   1.900
 9056SOL    HW128067   0.507   2.180   1.841
 9056SOL    HW228068   0.455   2.192   1.995
 9057SOL     OW28069   4.702   3.952   6.268
 9057SOL    HW128070   4.630   3.990   6.211
 9057SOL    HW228071   4.763   3.895   6.211
 9058SOL     OW28072   2.347   1.289   1.493
 9058SOL    HW128073   2.275   1.310   1.559
 9058SOL    HW228074   2.436   1.296   1.537
 9059SOL     OW28075   1.480   2.064   3.676
 9059SOL    HW128076   1.481   2.031   3.770
 9059SOL    HW228077   1.413   2.138   3.667
 9060SOL     OW28078   6.137   2.839   3.839
 9060SOL    HW128079   6.139   2.751   3.886
 9060SOL    HW228080   6.048   2.881   3.853
 9061SOL     OW28081   1.988   5.121   1.677
 9061SOL    HW128082   1.914   5.123   1.744
 9061SOL    HW228083   2.020   5.027   1.667
 9062SOL     OW28084   1.897   6.311   2.080
 9062SOL    HW128085   1.986   6.266   2.069
 9062SOL    HW228086   1.905   6.382   2.150
 9063SOL     OW28087   3.543   0.180   3.617
 9063SOL    HW128088   3.572   0.178   3.713
 9063SOL    HW228089   3.533   0.087   3.582
 9064SOL     OW28090   6.234   2.190   5.289
 9064SOL    HW128091   6.187   2.278   5.294
 9064SOL    HW228092   6.174   2.118   5.322
 9065SOL     OW28093   3.804   0.336   5.939
 9065SOL    HW128094   3.904   0.330   5.944
 9065SOL    HW228095   3.778   0.421   5.894
 9066SOL     OW28096   4.630   6.726   0.820
 9066SOL    HW128097   4.531   6.735   0.820
 9066SOL    HW228098   4.666   6.751   0.910
 9067SOL     OW28099   0.909   0.399   4.662
 9067SOL    HW128100   0.816   0.378   4.694
 9067SOL    HW228101   0.904   0.440   4.571
 9068SOL     OW28102   2.439   6.998   4.588
 9068SOL    HW128103   2.405   6.969   4.677
 9068SOL    HW228104   2.508   0.049   4.600
 9069SOL     OW28105   1.305   3.247   1.576
 9069SOL    HW128106   1.322   3.148   1.582
 9069SOL    HW228107   1.220   3.263   1.528
 9070SOL     OW28108   1.162   3.005   4.819
 9070SOL    HW128109   1.219   3.082   4.848
 9070SOL    HW228110   1.221   2.929   4.790
 9071SOL     OW28111   6.023   6.405   1.907
 9071SOL    HW128112   5.978   6.323   1.871
 9071SOL    HW228113   6.122   6.393   1.902
 9072SOL     OW28114   0.201   1.785   1.210
 9072SOL    HW128115   0.200   1.694   1.169
 9072SOL    HW228116   0.175   1.779   1.306
 9073SOL     OW28117   3.007   7.009   2.843
 9073SOL    HW128118   3.076   0.057   2.823
 9073SOL    HW228119   2.993   7.004   2.942
 9074SOL     OW28120   1.463   1.770   2.181
 9074SOL    HW128121   1.447   1.857   2.228
 9074SOL    HW228122   1.505   1.706   2.245
 9075SOL     OW28123   0.166   1.535   1.695
 9075SOL    HW128124   0.167   1.483   1.780
 9075SOL    HW228125   0.256   1.527   1.650
 9076SOL     OW28126   0.061   2.659   5.806
 9076SOL    HW128127   0.086   2.622   5.717
 9076SOL    HW228128   0.023   2.751   5.795
 9077SOL     OW28129   4.525   0.556   0.286
 9077SOL    HW128130   4.584   0.603   0.351
 9077SOL    HW228131   4.562   0.465   0.267
 9078SOL     OW28132   4.020   3.428   5.745
 9078SOL    HW128133   3.997   3.480   5.828
 9078SOL    HW228134   4.117   3.439   5.725
 9079SOL     OW28135   3.008   6.991   4.088
 9079SOL    HW128136   3.072   6.965   4.160
 9079SOL    HW228137   3.051   0.036   4.027
 9080SOL     OW28138   4.542   2.505   6.129
 9080SOL    HW128139   4.448   2.531   6.107
 9080SOL    HW228140   4.542   2.424   6.187
 9081SOL     OW28141   4.036   0.062   2.294
 9081SOL    HW128142   3.972   0.127   2.254
 9081SOL    HW228143   4.033   0.070   2.394
 9082SOL     OW28144   2.252   0.326   5.196
 9082SOL    HW128145   2.289   0.300   5.286
 9082SOL    HW228146   2.152   0.326   5.200
 9083SOL     OW28147   3.572   5.288   6.284
 9083SOL    HW128148   3.539   5.237   6.363
 9083SOL    HW228149   3.627   5.227   6.226
 9084SOL     OW28150   3.558   3.946   3.331
 9084SOL    HW128151   3.652   3.960   3.301
 9084SOL    HW228152   3.511   4.035   3.336
 9085SOL     OW28153   2.423   0.867   1.580
 9085SOL    HW128154   2.453   0.782   1.536
 9085SOL    HW228155   2.356   0.845   1.651
 9086SOL     OW28156   0.892   4.435   0.103
 9086SOL    HW128157   0.881   4.509   0.037
 9086SOL    HW228158   0.985   4.438   0.140
 9087SOL     OW28159   4.670   2.290   1.719
 9087SOL    HW128160   4.637   2.276   1.626
 9087SOL    HW228161   4.745   2.226   1.738
 9088SOL     OW28162   6.767   6.697   1.577
 9088SOL    HW128163   6.827   6.625   1.611
 9088SOL    HW228164   6.704   6.726   1.649
 9089SOL     OW28165   5.566   5.545   5.305
 9089SOL    HW128166   5.527   5.511   5.219
 9089SOL    HW228167   5.573   5.470   5.371
 9090SOL     OW28168   6.632   1.617   4.896
 9090SOL    HW128169   6.705   1.559   4.932
 9090SOL    HW228170   6.608   1.687   4.962
 9091SOL     OW28171   2.742   4.283   0.383
 9091SOL    HW128172   2.659   4.287   0.438
 9091SOL    HW228173   2.718   4.266   0.288
 9092SOL     OW28174   6.582   0.669   6.756
 9092SOL    HW128175   6.553   0.651   6.661
 9092SOL    HW228176   6.506   0.650   6.818
 9093SOL     OW28177   1.296   5.799   5.493
 9093SOL    HW128178   1.299   5.832   5.588
 9093SOL    HW228179   1.307   5.699   5.493
 9094SOL     OW28180   6.806   5.171   2.981
 9094SOL    HW128181   6.730   5.206   2.926
 9094SOL    HW228182   6.770   5.125   3.062
 9095SOL     OW28183   5.111   4.774   5.989
 9095SOL    HW128184   5.095   4.843   6.060
 9095SOL    HW228185   5.041   4.703   5.995
 9096SOL     OW28186   6.328   4.890   2.566
 9096SOL    HW128187   6.259   4.952   2.530
 9096SOL    HW228188   6.417   4.937   2.568
 9097SOL     OW28189   1.883   1.856   0.283
 9097SOL    HW128190   1.826   1.887   0.206
 9097SOL    HW228191   1.826   1.850   0.365
 9098SOL     OW28192   3.092   1.956   4.679
 9098SOL    HW128193   3.104   2.051   4.708
 9098SOL    HW228194   3.180   1.910   4.677
 9099SOL     OW28195   2.791   3.121   5.617
 9099SOL    HW128196   2.734   3.052   5.661
 9099SOL    HW228197   2.749   3.148   5.531
 9100SOL     OW28198   0.463   3.638   3.580
 9100SOL    HW128199   0.404   3.592   3.645
 9100SOL    HW228200   0.457   3.592   3.491
 9101SOL     OW28201   2.554   2.413   1.898
 9101SOL    HW128202   2.623   2.450   1.836
 9101SOL    HW228203   2.598   2.351   1.964
 9102SOL     OW28204   3.238   6.899   2.170
 9102SOL    HW128205   3.239   6.915   2.268
 9102SOL    HW228206   3.170   6.958   2.127
 9103SOL     OW28207   5.630   1.634   6.819
 9103SOL    HW128208   5.674   1.713   6.775
 9103SOL    HW228209   5.648   1.636   6.917
 9104SOL     OW28210   6.845   6.337   1.357
 9104SOL    HW128211   6.850   6.407   1.286
 9104SOL    HW228212   6.752   6.301   1.362
 9105SOL     OW28213   0.339   0.376   5.849
 9105SOL    HW128214   0.409   0.437   5.886
 9105SOL    HW228215   0.376   0.327   5.770
 9106SOL     OW28216   5.964   3.000   1.068
 9106SOL    HW128217   6.059   2.987   1.038
 9106SOL    HW228218   5.931   2.917   1.113
 9107SOL     OW28219   1.900   0.339   6.499
 9107SOL    HW128220   1.896   0.410   6.569
 9107SOL    HW228221   1.808   0.323   6.463
 9108SOL     OW28222   4.990   4.498   4.962
 9108SOL    HW128223   5.051   4.419   4.949
 9108SOL    HW228224   5.041   4.582   4.946
 9109SOL     OW28225   5.314   3.275   2.742
 9109SOL    HW128226   5.281   3.191   2.785
 9109SOL    HW228227   5.353   3.335   2.813
 9110SOL     OW28228   1.584   5.279   4.367
 9110SOL    HW128229   1.619   5.215   4.437
 9110SOL    HW228230   1.503   5.325   4.402
 9111SOL     OW28231   4.538   2.618   6.792
 9111SOL    HW128232   4.617   2.656   6.841
 9111SOL    HW228233   4.467   2.689   6.784
 9112SOL     OW28234   1.318   5.028   2.709
 9112SOL    HW128235   1.315   5.065   2.802
 9112SOL    HW228236   1.225   5.004   2.680
 9113SOL     OW28237   5.243   2.238   2.655
 9113SOL    HW128238   5.199   2.179   2.588
 9113SOL    HW228239   5.193   2.323   2.664
 9114SOL     OW28240   0.507   5.488   3.513
 9114SOL    HW128241   0.585   5.473   3.574
 9114SOL    HW228242   0.517   5.576   3.467
 9115SOL     OW28243   5.878   5.356   5.242
 9115SOL    HW128244   5.823   5.430   5.203
 9115SOL    HW228245   5.948   5.396   5.302
 9116SOL     OW28246   0.181   0.057   2.790
 9116SOL    HW128247   0.200   6.984   2.763
 9116SOL    HW228248   0.147   0.059   2.884
 9117SOL     OW28249   3.783   2.570   6.331
 9117SOL    HW128250   3.691   2.546   6.301
 9117SOL    HW228251   3.783   2.582   6.431
 9118SOL     OW28252   6.632   3.310   0.226
 9118SOL    HW128253   6.693   3.240   0.188
 9118SOL    HW228254   6.561   3.331   0.159
 9119SOL     OW28255   3.949   1.346   1.550
 9119SOL    HW128256   3.947   1.413   1.476
 9119SOL    HW228257   3.942   1.254   1.512
 9120SOL     OW28258   6.443   2.689   5.242
 9120SOL    HW128259   6.449   2.646   5.151
 9120SOL    HW228260   6.473   2.784   5.236
 9121SOL     OW28261   3.488   6.339   5.626
 9121SOL    HW128262   3.421   6.409   5.600
 9121SOL    HW228263   3.577   6.364   5.589
 9122SOL     OW28264   2.239   4.269   2.106
 9122SOL    HW128265   2.296   4.344   2.140
 9122SOL    HW228266   2.220   4.206   2.181
 9123SOL     OW28267   1.832   0.334   4.253
 9123SOL    HW128268   1.776   0.401   4.203
 9123SOL    HW228269   1.909   0.306   4.196
 9124SOL     OW28270   3.465   5.304   1.889
 9124SOL    HW128271   3.550   5.313   1.941
 9124SOL    HW228272   3.469   5.363   1.808
 9125SOL     OW28273   4.355   4.521   1.284
 9125SOL    HW128274   4.430   4.455   1.279
 9125SOL    HW228275   4.373   4.596   1.222
 9126SOL     OW28276   4.643   3.925   1.104
 9126SOL    HW128277   4.697   3.969   1.176
 9126SOL    HW228278   4.703   3.865   1.050
 9127SOL     OW28279   6.856   2.442   5.502
 9127SOL    HW128280   6.823   2.370   5.441
 9127SOL    HW228281   6.806   2.438   5.588
 9128SOL     OW28282   5.931   2.611   4.916
 9128SOL    HW128283   5.907   2.518   4.942
 9128SOL    HW228284   6.012   2.641   4.966
 9129SOL     OW28285   0.074   1.920   0.466
 9129SOL    HW128286   0.146   1.964   0.519
 9129SOL    HW228287   0.056   1.829   0.503
 9130SOL     OW28288   0.725   4.175   5.874
 9130SOL    HW128289   0.802   4.186   5.938
 9130SOL    HW228290   0.754   4.202   5.782
 9131SOL     OW28291   5.224   3.266   6.934
 9131SOL    HW128292   5.248   3.357   6.968
 9131SOL    HW228293   5.191   3.274   6.840
 9132SOL     OW28294   0.765   4.190   4.182
 9132SOL    HW128295   0.860   4.220   4.177
 9132SOL    HW228296   0.715   4.247   4.247
 9133SOL     OW28297   3.259   0.644   0.850
 9133SOL    HW128298   3.166   0.622   0.877
 9133SOL    HW228299   3.298   0.712   0.913
 9134SOL     OW28300   4.543   6.019   1.498
 9134SOL    HW128301   4.507   5.940   1.449
 9134SOL    HW228302   4.476   6.052   1.564
 9135SOL     OW28303   1.559   6.109   1.580
 9135SOL    HW128304   1.576   6.129   1.676
 9135SOL    HW228305   1.597   6.020   1.557
 9136SOL     OW28306   4.172   5.998   5.507
 9136SOL    HW128307   4.250   5.989   5.445
 9136SOL    HW228308   4.169   5.920   5.569
 9137SOL     OW28309   4.214   0.319   6.039
 9137SOL    HW128310   4.253   0.308   5.947
 9137SOL    HW228311   4.133   0.262   6.047
 9138SOL     OW28312   1.479   3.145   0.196
 9138SOL    HW128313   1.486   3.175   0.291
 9138SOL    HW228314   1.506   3.220   0.135
 9139SOL     OW28315   0.987   1.212   1.654
 9139SOL    HW128316   1.014   1.301   1.692
 9139SOL    HW228317   1.017   1.206   1.559
 9140SOL     OW28318   0.474   5.002   2.333
 9140SOL    HW128319   0.533   5.037   2.406
 9140SOL    HW228320   0.476   4.902   2.334
 9141SOL     OW28321   6.696   5.857   6.894
 9141SOL    HW128322   6.693   5.762   6.865
 9141SOL    HW228323   6.691   5.917   6.814
 9142SOL     OW28324   0.551   3.023   2.544
 9142SOL    HW128325   0.488   3.085   2.592
 9142SOL    HW228326   0.503   2.975   2.472
 9143SOL     OW28327   0.604   3.843   1.137
 9143SOL    HW128328   0.641   3.922   1.089
 9143SOL    HW228329   0.589   3.866   1.233
 9144SOL     OW28330   2.772   4.778   4.847
 9144SOL    HW128331   2.805   4.727   4.926
 9144SOL    HW228332   2.793   4.875   4.858
 9145SOL     OW28333   1.413   6.659   6.821
 9145SOL    HW128334   1.314   6.666   6.820
 9145SOL    HW228335   1.447   6.648   6.728
 9146SOL     OW28336   5.102   2.874   3.032
 9146SOL    HW128337   5.025   2.931   3.060
 9146SOL    HW228338   5.147   2.916   2.953
 9147SOL     OW28339   6.558   1.180   4.862
 9147SOL    HW128340   6.460   1.161   4.870
 9147SOL    HW228341   6.600   1.179   4.952
 9148SOL     OW28342   5.469   6.939   2.273
 9148SOL    HW128343   5.419   6.872   2.217
 9148SOL    HW228344   5.413   0.001   2.283
 9149SOL     OW28345   5.561   3.240   2.169
 9149SOL    HW128346   5.535   3.202   2.258
 9149SOL    HW228347   5.594   3.334   2.182
 9150SOL     OW28348   3.461   4.468   0.577
 9150SOL    HW128349   3.386   4.406   0.554
 9150SOL    HW228350   3.426   4.545   0.630
 9151SOL     OW28351   2.234   3.950   3.947
 9151SOL    HW128352   2.239   4.012   3.869
 9151SOL    HW228353   2.210   3.858   3.915
 9152SOL     OW28354   1.808   4.361   4.444
 9152SOL    HW128355   1.749   4.424   4.393
 9152SOL    HW228356   1.851   4.297   4.380
 9153SOL     OW28357   0.610   3.604   6.518
 9153SOL    HW128358   0.628   3.599   6.420
 9153SOL    HW228359   0.607   3.511   6.556
 9154SOL     OW28360   4.945   5.242   3.334
 9154SOL    HW128361   4.898   5.187   3.402
 9154SOL    HW228362   4.946   5.193   3.247
 9155SOL     OW28363   1.854   4.370   3.007
 9155SOL    HW128364   1.928   4.384   3.073
 9155SOL    HW228365   1.855   4.275   2.975
 9156SOL     OW28366   6.460   2.701   1.000
 9156SOL    HW128367   6.392   2.633   1.025
 9156SOL    HW228368   6.415   2.787   0.976
 9157SOL     OW28369   3.310   4.161   6.455
 9157SOL    HW128370   3.329   4.222   6.378
 9157SOL    HW228371   3.370   4.183   6.531
 9158SOL     OW28372   6.577   4.732   4.387
 9158SOL    HW128373   6.589   4.830   4.373
 9158SOL    HW228374   6.609   4.707   4.479
 9159SOL     OW28375   2.144   6.909   3.465
 9159SOL    HW128376   2.071   6.959   3.419
 9159SOL    HW228377   2.113   6.885   3.558
 9160SOL     OW28378   0.575   4.856   6.166
 9160SOL    HW128379   0.602   4.858   6.262
 9160SOL    HW228380   0.633   4.918   6.113
 9161SOL     OW28381   6.063   5.280   3.185
 9161SOL    HW128382   6.108   5.342   3.249
 9161SOL    HW228383   5.965   5.282   3.200
 9162SOL     OW28384   3.754   0.763   2.982
 9162SOL    HW128385   3.733   0.794   2.890
 9162SOL    HW228386   3.727   0.667   2.992
 9163SOL     OW28387   6.762   2.844   2.033
 9163SOL    HW128388   6.779   2.877   2.126
 9163SOL    HW228389   6.813   2.899   1.968
 9164SOL     OW28390   1.710   0.546   6.622
 9164SOL    HW128391   1.658   0.464   6.599
 9164SOL    HW228392   1.647   0.622   6.638
 9165SOL     OW28393   5.055   2.108   5.809
 9165SOL    HW128394   5.071   2.028   5.752
 9165SOL    HW228395   4.969   2.152   5.783
 9166SOL     OW28396   3.800   5.525   1.179
 9166SOL    HW128397   3.740   5.549   1.255
 9166SOL    HW228398   3.886   5.488   1.215
 9167SOL     OW28399   1.192   2.429   6.438
 9167SOL    HW128400   1.123   2.361   6.465
 9167SOL    HW228401   1.174   2.515   6.487
 9168SOL     OW28402   6.424   5.628   6.254
 9168SOL    HW128403   6.497   5.596   6.195
 9168SOL    HW228404   6.462   5.661   6.340
 9169SOL     OW28405   6.682   6.109   6.326
 9169SOL    HW128406   6.611   6.113   6.396
 9169SOL    HW228407   6.719   6.016   6.322
 9170SOL     OW28408   1.734   1.246   6.134
 9170SOL    HW128409   1.721   1.317   6.065
 9170SOL    HW228410   1.829   1.245   6.163
 9171SOL     OW28411   2.504   5.300   1.092
 9171SOL    HW128412   2.514   5.241   1.172
 9171SOL    HW228413   2.425   5.270   1.038
 9172SOL     OW28414   4.566   1.617   4.883
 9172SOL    HW128415   4.662   1.641   4.896
 9172SOL    HW228416   4.550   1.591   4.788
 9173SOL     OW28417   6.937   3.221   4.535
 9173SOL    HW128418   6.882   3.224   4.618
 9173SOL    HW228419   0.012   3.204   4.559
 9174SOL     OW28420   0.686   6.125   6.913
 9174SOL    HW128421   0.610   6.133   6.848
 9174SOL    HW228422   0.678   6.039   6.963
 9175SOL     OW28423   1.638   5.890   0.607
 9175SOL    HW128424   1.607   5.964   0.667
 9175SOL    HW228425   1.594   5.898   0.518
 9176SOL     OW28426   2.471   0.051   2.190
 9176SOL    HW128427   2.461   6.978   2.223
 9176SOL    HW228428   2.430   0.114   2.256
 9177SOL     OW28429   1.647   2.682   3.880
 9177SOL    HW128430   1.556   2.652   3.851
 9177SOL    HW228431   1.697   2.604   3.919
 9178SOL     OW28432   2.221   5.462   6.506
 9178SOL    HW128433   2.234   5.534   6.438
 9178SOL    HW228434   2.308   5.442   6.551
 9179SOL     OW28435   2.637   5.858   4.631
 9179SOL    HW128436   2.721   5.804   4.625
 9179SOL    HW228437   2.594   5.863   4.541
 9180SOL     OW28438   6.807   2.167   4.220
 9180SOL    HW128439   6.838   2.215   4.301
 9180SOL    HW228440   6.801   2.231   4.143
 9181SOL     OW28441   4.983   2.565   3.432
 9181SOL    HW128442   4.934   2.631   3.375
 9181SOL    HW228443   4.917   2.512   3.486
 9182SOL     OW28444   2.791   0.906   2.810
 9182SOL    HW128445   2.809   1.003   2.793
 9182SOL    HW228446   2.841   0.851   2.743
 9183SOL     OW28447   4.616   4.029   6.542
 9183SOL    HW128448   4.658   3.981   6.465
 9183SOL    HW228449   4.519   4.044   6.523
 9184SOL     OW28450   3.264   1.951   1.136
 9184SOL    HW128451   3.295   2.045   1.152
 9184SOL    HW228452   3.168   1.943   1.163
 9185SOL     OW28453   0.596   6.878   6.392
 9185SOL    HW128454   0.686   6.916   6.370
 9185SOL    HW228455   0.557   6.836   6.310
 9186SOL     OW28456   4.945   0.593   5.639
 9186SOL    HW128457   4.986   0.669   5.689
 9186SOL    HW228458   4.850   0.582   5.667
 9187SOL     OW28459   4.078   2.145   6.923
 9187SOL    HW128460   4.104   2.085   6.998
 9187SOL    HW228461   3.981   2.170   6.931
 9188SOL     OW28462   1.735   1.022   1.259
 9188SOL    HW128463   1.671   0.992   1.188
 9188SOL    HW228464   1.732   1.121   1.267
 9189SOL     OW28465   3.416   0.828   3.590
 9189SOL    HW128466   3.501   0.796   3.550
 9189SOL    HW228467   3.339   0.776   3.552
 9190SOL     OW28468   6.371   3.932   5.254
 9190SOL    HW128469   6.448   3.871   5.268
 9190SOL    HW228470   6.290   3.896   5.301
 9191SOL     OW28471   4.991   0.064   7.021
 9191SOL    HW128472   4.987   0.151   0.048
 9191SOL    HW228473   4.898   0.030   7.006
 9192SOL     OW28474   6.061   3.843   6.029
 9192SOL    HW128475   6.043   3.929   6.077
 9192SOL    HW228476   6.015   3.768   6.076
 9193SOL     OW28477   3.297   3.777   3.715
 9193SOL    HW128478   3.354   3.791   3.796
 9193SOL    HW228479   3.355   3.749   3.638
 9194SOL     OW28480   3.547   6.059   2.072
 9194SOL    HW128481   3.495   6.123   2.127
 9194SOL    HW228482   3.630   6.031   2.122
 9195SOL     OW28483   1.843   2.812   3.747
 9195SOL    HW128484   1.930   2.767   3.765
 9195SOL    HW228485   1.774   2.780   3.813
 9196SOL     OW28486   4.669   0.412   4.122
 9196SOL    HW128487   4.610   0.481   4.080
 9196SOL    HW228488   4.760   0.416   4.080
 9197SOL     OW28489   2.747   3.540   0.663
 9197SOL    HW128490   2.826   3.598   0.684
 9197SOL    HW228491   2.749   3.460   0.723
 9198SOL     OW28492   5.732   4.092   6.096
 9198SOL    HW128493   5.754   4.131   6.006
 9198SOL    HW228494   5.670   4.153   6.145
 9199SOL     OW28495   0.960   3.282   6.378
 9199SOL    HW128496   0.956   3.250   6.472
 9199SOL    HW228497   1.020   3.223   6.325
 9200SOL     OW28498   1.178   6.200   0.140
 9200SOL    HW128499   1.101   6.197   0.076
 9200SOL    HW228500   1.164   6.274   0.206
 9201SOL     OW28501   0.904   4.162   1.263
 9201SOL    HW128502   0.949   4.100   1.327
 9201SOL    HW228503   0.884   4.114   1.178
 9202SOL     OW28504   2.347   5.496   4.785
 9202SOL    HW128505   2.341   5.588   4.823
 9202SOL    HW228506   2.443   5.469   4.777
 9203SOL     OW28507   4.925   2.023   6.455
 9203SOL    HW128508   4.856   1.951   6.452
 9203SOL    HW228509   4.955   2.045   6.362
 9204SOL     OW28510   5.716   3.906   3.503
 9204SOL    HW128511   5.779   3.876   3.574
 9204SOL    HW228512   5.622   3.885   3.530
 9205SOL     OW28513   5.032   3.281   2.611
 9205SOL    HW128514   5.016   3.198   2.558
 9205SOL    HW228515   5.124   3.280   2.650
 9206SOL     OW28516   3.323   0.693   4.966
 9206SOL    HW128517   3.262   0.771   4.959
 9206SOL    HW228518   3.337   0.653   4.875
 9207SOL     OW28519   3.463   6.239   6.107
 9207SOL    HW128520   3.413   6.318   6.071
 9207SOL    HW228521   3.475   6.171   6.035
 9208SOL     OW28522   4.890   3.318   2.215
 9208SOL    HW128523   4.826   3.375   2.164
 9208SOL    HW228524   4.917   3.364   2.299
 9209SOL     OW28525   4.166   1.072   2.007
 9209SOL    HW128526   4.159   1.167   2.035
 9209SOL    HW228527   4.179   1.014   2.088
 9210SOL     OW28528   1.962   0.374   1.692
 9210SOL    HW128529   1.885   0.420   1.736
 9210SOL    HW228530   2.009   0.315   1.758
 9211SOL     OW28531   5.320   1.590   6.414
 9211SOL    HW128532   5.352   1.571   6.507
 9211SOL    HW228533   5.382   1.653   6.369
 9212SOL     OW28534   4.724   4.282   4.752
 9212SOL    HW128535   4.753   4.377   4.760
 9212SOL    HW228536   4.662   4.259   4.828
 9213SOL     OW28537   5.880   6.706   4.580
 9213SOL    HW128538   5.907   6.677   4.672
 9213SOL    HW228539   5.782   6.691   4.568
 9214SOL     OW28540   1.177   2.431   5.040
 9214SOL    HW128541   1.152   2.513   5.092
 9214SOL    HW228542   1.147   2.441   4.946
 9215SOL     OW28543   6.974   4.304   2.451
 9215SOL    HW128544   0.043   4.271   2.421
 9215SOL    HW228545   6.929   4.235   2.506
 9216SOL     OW28546   2.591   6.436   4.723
 9216SOL    HW128547   2.518   6.372   4.742
 9216SOL    HW228548   2.597   6.453   4.625
 9217SOL     OW28549   5.435   1.171   6.467
 9217SOL    HW128550   5.361   1.134   6.523
 9217SOL    HW228551   5.515   1.187   6.524
 9218SOL     OW28552   4.194   0.034   6.452
 9218SOL    HW128553   4.271   0.049   6.513
 9218SOL    HW228554   4.138   6.979   6.487
 9219SOL     OW28555   4.197   2.977   5.362
 9219SOL    HW128556   4.215   3.031   5.444
 9219SOL    HW228557   4.192   3.037   5.282
 9220SOL     OW28558   2.075   5.750   2.932
 9220SOL    HW128559   2.143   5.816   2.963
 9220SOL    HW228560   2.034   5.705   3.012
 9221SOL     OW28561   2.223   0.754   5.845
 9221SOL    HW128562   2.242   0.850   5.823
 9221SOL    HW228563   2.288   0.695   5.796
 9222SOL     OW28564   2.577   4.618   4.176
 9222SOL    HW128565   2.613   4.622   4.270
 9222SOL    HW228566   2.491   4.568   4.176
 9223SOL     OW28567   1.014   3.066   3.969
 9223SOL    HW128568   0.987   3.082   3.874
 9223SOL    HW228569   0.941   3.095   4.030
 9224SOL     OW28570   1.275   3.211   3.926
 9224SOL    HW128571   1.276   3.299   3.878
 9224SOL    HW228572   1.188   3.200   3.973
 9225SOL     OW28573   3.464   6.647   6.088
 9225SOL    HW128574   3.476   6.578   6.017
 9225SOL    HW228575   3.378   6.632   6.136
 9226SOL     OW28576   1.124   0.305   1.832
 9226SOL    HW128577   1.087   0.276   1.920
 9226SOL    HW228578   1.105   0.402   1.818
 9227SOL     OW28579   1.441   5.167   1.085
 9227SOL    HW128580   1.444   5.073   1.119
 9227SOL    HW228581   1.534   5.199   1.071
 9228SOL     OW28582   2.323   2.514   6.062
 9228SOL    HW128583   2.250   2.579   6.040
 9228SOL    HW228584   2.396   2.523   5.994
 9229SOL     OW28585   1.233   5.132   6.708
 9229SOL    HW128586   1.214   5.057   6.645
 9229SOL    HW228587   1.150   5.186   6.723
 9230SOL     OW28588   4.587   2.668   3.793
 9230SOL    HW128589   4.674   2.622   3.774
 9230SOL    HW228590   4.514   2.600   3.801
 9231SOL     OW28591   0.659   5.236   5.772
 9231SOL    HW128592   0.568   5.277   5.777
 9231SOL    HW228593   0.719   5.282   5.837
 9232SOL     OW28594   1.661   4.879   1.045
 9232SOL    HW128595   1.739   4.927   1.003
 9232SOL    HW228596   1.682   4.782   1.051
 9233SOL     OW28597   1.114   6.487   1.164
 9233SOL    HW128598   1.039   6.538   1.123
 9233SOL    HW228599   1.087   6.454   1.254
 9234SOL     OW28600   2.334   5.085   1.066
 9234SOL    HW128601   2.382   5.094   1.153
 9234SOL    HW228602   2.271   5.007   1.069
 9235SOL     OW28603   2.511   2.101   3.531
 9235SOL    HW128604   2.570   2.067   3.604
 9235SOL    HW228605   2.440   2.159   3.570
 9236SOL     OW28606   2.253   3.281   6.848
 9236SOL    HW128607   2.222   3.371   6.815
 9236SOL    HW228608   2.352   3.284   6.862
 9237SOL     OW28609   6.921   6.011   2.960
 9237SOL    HW128610   6.928   6.078   3.033
 9237SOL    HW228611   6.942   5.920   2.996
 9238SOL     OW28612   2.474   2.773   6.018
 9238SOL    HW128613   2.456   2.813   5.928
 9238SOL    HW228614   2.520   2.685   6.007
 9239SOL     OW28615   6.870   4.653   6.604
 9239SOL    HW128616   6.872   4.750   6.628
 9239SOL    HW228617   6.781   4.614   6.627
 9240SOL     OW28618   5.527   3.320   2.953
 9240SOL    HW128619   5.559   3.234   2.991
 9240SOL    HW228620   5.601   3.387   2.955
 9241SOL     OW28621   0.154   5.672   0.351
 9241SOL    HW128622   0.124   5.665   0.255
 9241SOL    HW228623   0.226   5.605   0.368
 9242SOL     OW28624   1.844   2.332   1.983
 9242SOL    HW128625   1.848   2.430   2.002
 9242SOL    HW228626   1.935   2.293   1.994
 9243SOL     OW28627   1.500   0.368   1.977
 9243SOL    HW128628   1.575   0.364   2.043
 9243SOL    HW228629   1.521   0.307   1.900
 9244SOL     OW28630   2.852   6.570   6.101
 9244SOL    HW128631   2.765   6.527   6.076
 9244SOL    HW228632   2.849   6.601   6.196
 9245SOL     OW28633   1.137   4.113   3.485
 9245SOL    HW128634   1.188   4.164   3.415
 9245SOL    HW228635   1.065   4.060   3.440
 9246SOL     OW28636   6.048   0.554   4.300
 9246SOL    HW128637   6.021   0.579   4.207
 9246SOL    HW228638   6.136   0.598   4.322
 9247SOL     OW28639   3.838   5.333   3.026
 9247SOL    HW128640   3.797   5.421   3.052
 9247SOL    HW228641   3.905   5.348   2.953
 9248SOL     OW28642   2.756   1.405   5.240
 9248SOL    HW128643   2.736   1.503   5.235
 9248SOL    HW228644   2.847   1.392   5.277
 9249SOL     OW28645   3.796   5.006   1.787
 9249SOL    HW128646   3.796   5.033   1.883
 9249SOL    HW228647   3.801   4.906   1.780
 9250SOL     OW28648   6.863   3.780   4.167
 9250SOL    HW128649   6.952   3.742   4.194
 9250SOL    HW228650   6.851   3.770   4.069
 9251SOL     OW28651   3.928   2.751   1.428
 9251SOL    HW128652   4.006   2.778   1.372
 9251SOL    HW228653   3.873   2.831   1.450
 9252SOL     OW28654   5.141   0.735   5.246
 9252SOL    HW128655   5.104   0.827   5.260
 9252SOL    HW228656   5.136   0.712   5.150
 9253SOL     OW28657   5.555   4.637   5.484
 9253SOL    HW128658   5.544   4.538   5.500
 9253SOL    HW228659   5.469   4.683   5.505
 9254SOL     OW28660   5.356   4.295   2.027
 9254SOL    HW128661   5.435   4.329   2.078
 9254SOL    HW228662   5.370   4.199   2.005
 9255SOL     OW28663   5.802   3.628   6.492
 9255SOL    HW128664   5.894   3.659   6.518
 9255SOL    HW228665   5.808   3.534   6.458
 9256SOL     OW28666   2.037   0.163   1.844
 9256SOL    HW128667   1.961   0.134   1.901
 9256SOL    HW228668   2.118   0.107   1.865
 9257SOL     OW28669   6.122   5.885   3.373
 9257SOL    HW128670   6.094   5.981   3.368
 9257SOL    HW228671   6.174   5.862   3.291
 9258SOL     OW28672   3.462   3.498   0.661
 9258SOL    HW128673   3.500   3.446   0.737
 9258SOL    HW228674   3.479   3.596   0.675
 9259SOL     OW28675   1.902   1.354   7.019
 9259SOL    HW128676   1.974   1.420   6.997
 9259SOL    HW228677   1.828   1.401   0.047
 9260SOL     OW28678   6.944   2.751   6.199
 9260SOL    HW128679   7.006   2.816   6.154
 9260SOL    HW228680   6.985   2.660   6.199
 9261SOL     OW28681   4.709   1.217   0.113
 9261SOL    HW128682   4.772   1.173   0.177
 9261SOL    HW228683   4.750   1.303   0.080
 9262SOL     OW28684   0.931   0.012   4.960
 9262SOL    HW128685   1.020   6.988   4.957
 9262SOL    HW228686   0.913   0.044   5.053
 9263SOL     OW28687   3.297   5.751   3.165
 9263SOL    HW128688   3.199   5.766   3.157
 9263SOL    HW228689   3.325   5.679   3.101
 9264SOL     OW28690   4.846   3.659   6.323
 9264SOL    HW128691   4.847   3.724   6.246
 9264SOL    HW228692   4.908   3.692   6.394
 9265SOL     OW28693   3.994   2.220   6.481
 9265SOL    HW128694   4.047   2.139   6.457
 9265SOL    HW228695   3.994   2.284   6.404
 9266SOL     OW28696   0.522   5.675   0.915
 9266SOL    HW128697   0.490   5.765   0.883
 9266SOL    HW228698   0.605   5.650   0.866
 9267SOL     OW28699   0.906   1.661   4.076
 9267SOL    HW128700   0.810   1.658   4.105
 9267SOL    HW228701   0.965   1.655   4.156
 9268SOL     OW28702   0.990   6.167   2.602
 9268SOL    HW128703   0.907   6.216   2.576
 9268SOL    HW228704   1.024   6.114   2.524
 9269SOL     OW28705   4.425   0.329   6.351
 9269SOL    HW128706   4.446   0.243   6.398
 9269SOL    HW228707   4.327   0.347   6.356
 9270SOL     OW28708   3.350   0.757   5.520
 9270SOL    HW128709   3.377   0.798   5.433
 9270SOL    HW228710   3.260   0.714   5.509
 9271SOL     OW28711   0.579   0.053   0.598
 9271SOL    HW128712   0.493   0.068   0.549
 9271SOL    HW228713   0.570   0.083   0.693
 9272SOL     OW28714   0.696   6.417   6.861
 9272SOL    HW128715   0.616   6.468   6.891
 9272SOL    HW228716   0.703   6.332   6.913
 9273SOL     OW28717   5.078   6.383   3.473
 9273SOL    HW128718   5.002   6.396   3.536
 9273SOL    HW228719   5.060   6.303   3.416
 9274SOL     OW28720   0.108   2.250   0.304
 9274SOL    HW128721   0.111   2.165   0.251
 9274SOL    HW228722   0.164   2.319   0.258
 9275SOL     OW28723   0.096   6.611   0.211
 9275SOL    HW128724   0.110   6.523   0.256
 9275SOL    HW228725   0.171   6.673   0.234
 9276SOL     OW28726   2.756   4.329   0.077
 9276SOL    HW128727   2.793   4.407   0.127
 9276SOL    HW228728   2.767   4.344   7.000
 9277SOL     OW28729   4.010   4.790   3.238
 9277SOL    HW128730   3.936   4.762   3.177
 9277SOL    HW228731   3.975   4.800   3.331
 9278SOL     OW28732   0.187   0.503   5.531
 9278SOL    HW128733   0.190   0.410   5.568
 9278SOL    HW228734   0.193   0.500   5.432
 9279SOL     OW28735   3.302   6.205   1.661
 9279SOL    HW128736   3.299   6.192   1.562
 9279SOL    HW228737   3.348   6.292   1.682
 9280SOL     OW28738   2.248   2.471   2.118
 9280SOL    HW128739   2.199   2.515   2.193
 9280SOL    HW228740   2.347   2.485   2.131
 9281SOL     OW28741   3.431   3.841   5.995
 9281SOL    HW128742   3.482   3.826   5.910
 9281SOL    HW228743   3.344   3.794   5.990
 9282SOL     OW28744   4.836   1.278   4.428
 9282SOL    HW128745   4.885   1.192   4.414
 9282SOL    HW228746   4.789   1.276   4.516
 9283SOL     OW28747   5.325   0.274   6.082
 9283SOL    HW128748   5.337   0.312   6.174
 9283SOL    HW228749   5.317   0.349   6.016
 9284SOL     OW28750   2.863   3.877   5.075
 9284SOL    HW128751   2.819   3.877   5.165
 9284SOL    HW228752   2.865   3.784   5.039
 9285SOL     OW28753   5.442   3.352   1.117
 9285SOL    HW128754   5.424   3.333   1.020
 9285SOL    HW228755   5.356   3.375   1.162
 9286SOL     OW28756   4.921   5.686   0.175
 9286SOL    HW128757   4.912   5.675   0.274
 9286SOL    HW228758   4.891   5.602   0.129
 9287SOL     OW28759   2.683   4.189   5.694
 9287SOL    HW128760   2.769   4.214   5.651
 9287SOL    HW228761   2.651   4.102   5.657
 9288SOL     OW28762   4.617   2.347   3.087
 9288SOL    HW128763   4.579   2.263   3.126
 9288SOL    HW228764   4.594   2.424   3.146
 9289SOL     OW28765   4.581   0.601   6.506
 9289SOL    HW128766   4.511   0.545   6.460
 9289SOL    HW228767   4.670   0.582   6.466
 9290SOL     OW28768   6.271   0.701   4.137
 9290SOL    HW128769   6.289   0.603   4.131
 9290SOL    HW228770   6.173   0.718   4.121
 9291SOL     OW28771   1.213   6.307   5.976
 9291SOL    HW128772   1.151   6.296   6.053
 9291SOL    HW228773   1.257   6.219   5.956
 9292SOL     OW28774   1.604   0.953   6.722
 9292SOL    HW128775   1.508   0.931   6.741
 9292SOL    HW228776   1.621   0.944   6.624
 9293SOL     OW28777   5.227   2.802   6.689
 9293SOL    HW128778   5.141   2.825   6.643
 9293SOL    HW228779   5.225   2.838   6.782
 9294SOL     OW28780   4.898   1.137   0.299
 9294SOL    HW128781   4.998   1.130   0.298
 9294SOL    HW228782   4.864   1.115   0.390
 9295SOL     OW28783   0.084   0.820   5.423
 9295SOL    HW128784   0.148   0.892   5.394
 9295SOL    HW228785   0.051   0.771   5.343
 9296SOL     OW28786   2.156   3.828   0.966
 9296SOL    HW128787   2.124   3.872   1.049
 9296SOL    HW228788   2.160   3.729   0.980
 9297SOL     OW28789   0.774   6.075   2.937
 9297SOL    HW128790   0.843   6.032   2.879
 9297SOL    HW228791   0.694   6.098   2.882
 9298SOL     OW28792   1.169   6.842   6.058
 9298SOL    HW128793   1.201   6.782   6.131
 9298SOL    HW228794   1.166   6.791   5.972
 9299SOL     OW28795   1.739   1.115   3.699
 9299SOL    HW128796   1.762   1.206   3.663
 9299SOL    HW228797   1.746   1.047   3.626
 9300SOL     OW28798   0.239   5.583   5.393
 9300SOL    HW128799   0.292   5.525   5.332
 9300SOL    HW228800   0.270   5.569   5.487
 9301SOL     OW28801   0.076   4.442   4.715
 9301SOL    HW128802   0.069   4.539   4.693
 9301SOL    HW228803   0.014   4.421   4.791
 9302SOL     OW28804   2.274   2.938   4.512
 9302SOL    HW128805   2.264   3.010   4.581
 9302SOL    HW228806   2.323   2.860   4.552
 9303SOL     OW28807   3.209   4.875   0.546
 9303SOL    HW128808   3.247   4.818   0.473
 9303SOL    HW228809   3.129   4.925   0.511
 9304SOL     OW28810   4.732   5.343   0.767
 9304SOL    HW128811   4.816   5.360   0.818
 9304SOL    HW228812   4.754   5.298   0.681
 9305SOL     OW28813   3.760   1.509   0.553
 9305SOL    HW128814   3.716   1.420   0.565
 9305SOL    HW228815   3.710   1.578   0.605
 9306SOL     OW28816   6.834   3.524   4.808
 9306SOL    HW128817   6.757   3.574   4.846
 9306SOL    HW228818   6.898   3.588   4.766
 9307SOL     OW28819   1.561   3.681   0.634
 9307SOL    HW128820   1.571   3.764   0.689
 9307SOL    HW228821   1.606   3.694   0.546
 9308SOL     OW28822   1.203   4.890   1.353
 9308SOL    HW128823   1.213   4.944   1.437
 9308SOL    HW228824   1.291   4.854   1.326
 9309SOL     OW28825   4.168   6.404   6.334
 9309SOL    HW128826   4.099   6.461   6.379
 9309SOL    HW228827   4.137   6.309   6.334
 9310SOL     OW28828   5.122   5.764   5.569
 9310SOL    HW128829   5.161   5.855   5.583
 9310SOL    HW228830   5.194   5.695   5.577
 9311SOL     OW28831   4.524   4.297   1.340
 9311SOL    HW128832   4.586   4.285   1.262
 9311SOL    HW228833   4.471   4.214   1.353
 9312SOL     OW28834   1.801   2.276   1.450
 9312SOL    HW128835   1.827   2.368   1.421
 9312SOL    HW228836   1.702   2.265   1.439
 9313SOL     OW28837   0.891   0.745   1.537
 9313SOL    HW128838   0.876   0.648   1.559
 9313SOL    HW228839   0.961   0.752   1.466
 9314SOL     OW28840   5.729   3.470   0.597
 9314SOL    HW128841   5.670   3.487   0.676
 9314SOL    HW228842   5.698   3.389   0.548
 9315SOL     OW28843   6.351   0.795   6.396
 9315SOL    HW128844   6.321   0.890   6.390
 9315SOL    HW228845   6.347   0.753   6.305
 9316SOL     OW28846   6.080   0.253   4.888
 9316SOL    HW128847   6.041   0.333   4.931
 9316SOL    HW228848   6.106   0.186   4.958
 9317SOL     OW28849   3.537   5.232   3.559
 9317SOL    HW128850   3.535   5.132   3.562
 9317SOL    HW228851   3.590   5.262   3.480
 9318SOL     OW28852   4.274   5.782   0.220
 9318SOL    HW128853   4.286   5.865   0.165
 9318SOL    HW228854   4.337   5.785   0.298
 9319SOL     OW28855   2.389   3.045   0.789
 9319SOL    HW128856   2.365   3.018   0.696
 9319SOL    HW228857   2.369   2.969   0.852
 9320SOL     OW28858   4.634   0.024   5.605
 9320SOL    HW128859   4.599   6.975   5.666
 9320SOL    HW228860   4.657   0.106   5.658
 9321SOL     OW28861   0.810   2.103   4.973
 9321SOL    HW128862   0.785   2.199   4.987
 9321SOL    HW228863   0.759   2.047   5.039
 9322SOL     OW28864   6.354   4.845   5.775
 9322SOL    HW128865   6.412   4.778   5.822
 9322SOL    HW228866   6.304   4.799   5.701
 9323SOL     OW28867   2.195   2.509   4.533
 9323SOL    HW128868   2.262   2.567   4.580
 9323SOL    HW228869   2.160   2.557   4.453
 9324SOL     OW28870   1.838   3.768   1.063
 9324SOL    HW128871   1.860   3.806   0.973
 9324SOL    HW228872   1.792   3.679   1.051
 9325SOL     OW28873   1.598   6.261   1.868
 9325SOL    HW128874   1.695   6.249   1.846
 9325SOL    HW228875   1.562   6.340   1.818
 9326SOL     OW28876   3.594   5.545   0.124
 9326SOL    HW128877   3.641   5.633   0.122
 9326SOL    HW228878   3.572   5.520   0.218
 9327SOL     OW28879   4.526   0.040   2.893
 9327SOL    HW128880   4.494   7.010   2.972
 9327SOL    HW228881   4.567   0.126   2.923
 9328SOL     OW28882   2.550   0.157   4.898
 9328SOL    HW128883   2.506   0.165   4.987
 9328SOL    HW228884   2.621   0.087   4.901
 9329SOL     OW28885   6.987   5.500   6.904
 9329SOL    HW128886   0.029   5.475   6.830
 9329SOL    HW228887   6.934   5.419   6.930
 9330SOL     OW28888   0.768   6.995   6.666
 9330SOL    HW128889   0.749   0.070   6.646
 9330SOL    HW228890   0.687   6.953   6.706
 9331SOL     OW28891   1.827   2.622   5.386
 9331SOL    HW128892   1.734   2.656   5.399
 9331SOL    HW228893   1.861   2.653   5.297
 9332SOL     OW28894   4.353   5.541   0.442
 9332SOL    HW128895   4.303   5.481   0.379
 9332SOL    HW228896   4.412   5.486   0.501
 9333SOL     OW28897   3.744   5.961   0.519
 9333SOL    HW128898   3.825   6.018   0.501
 9333SOL    HW228899   3.683   6.011   0.581
 9334SOL     OW28900   5.454   0.387   4.190
 9334SOL    HW128901   5.538   0.376   4.244
 9334SOL    HW228902   5.463   0.337   4.104
 9335SOL     OW28903   1.737   2.324   0.747
 9335SOL    HW128904   1.753   2.417   0.713
 9335SOL    HW228905   1.647   2.320   0.791
 9336SOL     OW28906   5.579   6.995   4.522
 9336SOL    HW128907   5.536   6.955   4.441
 9336SOL    HW228908   5.670   0.007   4.498
 9337SOL     OW28909   4.741   0.576   0.079
 9337SOL    HW128910   4.644   0.581   0.104
 9337SOL    HW228911   4.750   0.552   7.004
 9338SOL     OW28912   6.927   5.741   0.499
 9338SOL    HW128913   6.875   5.744   0.413
 9338SOL    HW228914   7.009   5.686   0.486
 9339SOL     OW28915   5.953   5.417   0.661
 9339SOL    HW128916   5.985   5.506   0.630
 9339SOL    HW228917   5.854   5.421   0.678
 9340SOL     OW28918   3.834   4.840   2.797
 9340SOL    HW128919   3.793   4.930   2.779
 9340SOL    HW228920   3.831   4.822   2.896
 9341SOL     OW28921   6.646   4.486   6.627
 9341SOL    HW128922   6.705   4.405   6.633
 9341SOL    HW228923   6.550   4.457   6.630
 9342SOL     OW28924   2.915   0.652   4.894
 9342SOL    HW128925   2.970   0.570   4.882
 9342SOL    HW228926   2.821   0.626   4.917
 9343SOL     OW28927   4.841   3.491   1.999
 9343SOL    HW128928   4.811   3.573   1.949
 9343SOL    HW228929   4.847   3.414   1.936
 9344SOL     OW28930   5.225   5.526   6.321
 9344SOL    HW128931   5.304   5.543   6.262
 9344SOL    HW228932   5.192   5.433   6.307
 9345SOL     OW28933   6.329   5.308   6.798
 9345SOL    HW128934   6.274   5.339   6.875
 9345SOL    HW228935   6.337   5.383   6.731
 9346SOL     OW28936   4.845   5.796   2.432
 9346SOL    HW128937   4.944   5.783   2.439
 9346SOL    HW228938   4.816   5.786   2.337
 9347SOL     OW28939   3.791   5.714   0.399
 9347SOL    HW128940   3.843   5.631   0.420
 9347SOL    HW228941   3.810   5.784   0.467
 9348SOL     OW28942   2.725   5.351   3.233
 9348SOL    HW128943   2.729   5.443   3.272
 9348SOL    HW228944   2.750   5.284   3.303
 9349SOL     OW28945   6.303   5.765   2.198
 9349SOL    HW128946   6.388   5.816   2.215
 9349SOL    HW228947   6.245   5.817   2.136
 9350SOL     OW28948   6.893   1.296   4.177
 9350SOL    HW128949   6.821   1.363   4.157
 9350SOL    HW228950   6.940   1.321   4.261
 9351SOL     OW28951   2.342   0.978   6.158
 9351SOL    HW128952   2.262   0.932   6.197
 9351SOL    HW228953   2.412   0.910   6.136
 9352SOL     OW28954   1.648   2.995   5.586
 9352SOL    HW128955   1.657   2.905   5.629
 9352SOL    HW228956   1.569   3.043   5.625
 9353SOL     OW28957   1.502   4.310   1.952
 9353SOL    HW128958   1.519   4.402   1.988
 9353SOL    HW228959   1.545   4.242   2.012
 9354SOL     OW28960   5.998   1.699   1.004
 9354SOL    HW128961   6.027   1.709   0.909
 9354SOL    HW228962   5.905   1.663   1.007
 9355SOL     OW28963   6.136   1.193   3.929
 9355SOL    HW128964   6.086   1.125   3.983
 9355SOL    HW228965   6.081   1.276   3.921
 9356SOL     OW28966   4.746   5.308   2.354
 9356SOL    HW128967   4.719   5.402   2.370
 9356SOL    HW228968   4.697   5.248   2.418
 9357SOL     OW28969   2.439   4.516   6.884
 9357SOL    HW128970   2.474   4.586   6.945
 9357SOL    HW228971   2.348   4.487   6.915
 9358SOL     OW28972   5.435   3.351   1.572
 9358SOL    HW128973   5.407   3.258   1.596
 9358SOL    HW228974   5.471   3.351   1.478
 9359SOL     OW28975   0.317   3.577   5.399
 9359SOL    HW128976   0.300   3.645   5.328
 9359SOL    HW228977   0.231   3.540   5.433
 9360SOL     OW28978   1.091   0.187   5.873
 9360SOL    HW128979   1.124   0.189   5.967
 9360SOL    HW228980   1.169   0.194   5.810
 9361SOL     OW28981   2.436   6.813   3.411
 9361SOL    HW128982   2.367   6.741   3.423
 9361SOL    HW228983   2.394   6.902   3.427
 9362SOL     OW28984   1.602   1.217   1.876
 9362SOL    HW128985   1.629   1.280   1.950
 9362SOL    HW228986   1.520   1.252   1.832
 9363SOL     OW28987   3.991   5.274   2.174
 9363SOL    HW128988   3.975   5.364   2.212
 9363SOL    HW228989   4.070   5.277   2.112
 9364SOL     OW28990   3.979   3.537   6.231
 9364SOL    HW128991   3.888   3.498   6.251
 9364SOL    HW228992   3.991   3.621   6.282
 9365SOL     OW28993   2.727   1.499   4.797
 9365SOL    HW128994   2.723   1.479   4.699
 9365SOL    HW228995   2.752   1.416   4.847
 9366SOL     OW28996   3.122   1.584   6.929
 9366SOL    HW128997   3.198   1.648   6.936
 9366SOL    HW228998   3.053   1.620   6.866
 9367SOL     OW28999   0.302   6.190   3.916
 9367SOL    HW129000   0.374   6.165   3.981
 9367SOL    HW229001   0.243   6.260   3.957
 9368SOL     OW29002   3.237   1.874   3.516
 9368SOL    HW129003   3.295   1.804   3.557
 9368SOL    HW229004   3.169   1.830   3.457
 9369SOL     OW29005   0.574   0.526   5.918
 9369SOL    HW129006   0.650   0.468   5.887
 9369SOL    HW229007   0.582   0.540   6.017
 9370SOL     OW29008   5.338   0.435   2.615
 9370SOL    HW129009   5.299   0.359   2.666
 9370SOL    HW229010   5.292   0.520   2.640
 9371SOL     OW29011   2.338   4.852   0.223
 9371SOL    HW129012   2.339   4.922   0.294
 9371SOL    HW229013   2.293   4.770   0.257
 9372SOL     OW29014   5.569   5.955   3.026
 9372SOL    HW129015   5.571   6.005   3.113
 9372SOL    HW229016   5.656   5.968   2.978
 9373SOL     OW29017   4.579   2.219   2.628
 9373SOL    HW129018   4.620   2.279   2.697
 9373SOL    HW229019   4.539   2.274   2.555
 9374SOL     OW29020   6.316   3.025   6.758
 9374SOL    HW129021   6.258   2.959   6.806
 9374SOL    HW229022   6.297   3.021   6.660
 9375SOL     OW29023   6.703   1.966   3.306
 9375SOL    HW129024   6.654   1.886   3.271
 9375SOL    HW229025   6.796   1.967   3.269
 9376SOL     OW29026   2.821   3.702   1.233
 9376SOL    HW129027   2.765   3.621   1.250
 9376SOL    HW229028   2.775   3.761   1.165
 9377SOL     OW29029   1.604   5.994   3.841
 9377SOL    HW129030   1.519   6.014   3.791
 9377SOL    HW229031   1.600   5.901   3.878
 9378SOL     OW29032   0.798   0.376   5.608
 9378SOL    HW129033   0.715   0.330   5.639
 9378SOL    HW229034   0.845   0.319   5.541
 9379SOL     OW29035   4.551   4.996   5.228
 9379SOL    HW129036   4.558   4.957   5.136
 9379SOL    HW229037   4.519   5.091   5.221
 9380SOL     OW29038   6.093   4.759   4.867
 9380SOL    HW129039   6.159   4.760   4.943
 9380SOL    HW229040   6.018   4.821   4.888
 9381SOL     OW29041   2.020   3.363   5.729
 9381SOL    HW129042   2.042   3.417   5.648
 9381SOL    HW229043   1.959   3.288   5.703
 9382SOL     OW29044   3.496   1.670   3.259
 9382SOL    HW129045   3.559   1.689   3.183
 9382SOL    HW229046   3.421   1.737   3.258
 9383SOL     OW29047   2.784   6.242   4.654
 9383SOL    HW129048   2.757   6.169   4.717
 9383SOL    HW229049   2.738   6.327   4.680
 9384SOL     OW29050   3.745   6.200   1.619
 9384SOL    HW129051   3.744   6.181   1.521
 9384SOL    HW229052   3.680   6.273   1.639
 9385SOL     OW29053   4.250   1.129   2.567
 9385SOL    HW129054   4.249   1.210   2.625
 9385SOL    HW229055   4.333   1.128   2.512
 9386SOL     OW29056   2.107   6.467   5.018
 9386SOL    HW129057   2.016   6.426   5.007
 9386SOL    HW229058   2.142   6.445   5.109
 9387SOL     OW29059   3.467   0.788   6.845
 9387SOL    HW129060   3.475   0.871   6.899
 9387SOL    HW229061   3.433   0.810   6.753
 9388SOL     OW29062   2.026   5.461   2.659
 9388SOL    HW129063   1.983   5.396   2.596
 9388SOL    HW229064   1.987   5.449   2.750
 9389SOL     OW29065   2.165   0.029   5.205
 9389SOL    HW129066   2.206   0.071   5.124
 9389SOL    HW229067   2.112   0.098   5.255
 9390SOL     OW29068   3.809   5.706   4.922
 9390SOL    HW129069   3.856   5.738   5.004
 9390SOL    HW229070   3.868   5.720   4.842
 9391SOL     OW29071   2.296   0.589   5.060
 9391SOL    HW129072   2.363   0.635   5.118
 9391SOL    HW229073   2.290   0.493   5.086
 9392SOL     OW29074   7.002   0.691   5.196
 9392SOL    HW129075   6.967   0.769   5.144
 9392SOL    HW229076   6.928   0.626   5.214
 9393SOL     OW29077   3.078   0.625   5.442
 9393SOL    HW129078   3.042   0.718   5.442
 9393SOL    HW229079   3.110   0.601   5.350
 9394SOL     OW29080   6.586   1.511   2.178
 9394SOL    HW129081   6.624   1.444   2.115
 9394SOL    HW229082   6.525   1.466   2.243
 9395SOL     OW29083   2.470   2.650   0.665
 9395SOL    HW129084   2.403   2.610   0.727
 9395SOL    HW229085   2.517   2.725   0.711
 9396SOL     OW29086   0.781   5.197   3.232
 9396SOL    HW129087   0.865   5.244   3.205
 9396SOL    HW229088   0.761   5.215   3.328
 9397SOL     OW29089   2.858   0.193   0.679
 9397SOL    HW129090   2.788   0.237   0.624
 9397SOL    HW229091   2.846   0.094   0.675
 9398SOL     OW29092   1.667   0.229   5.658
 9398SOL    HW129093   1.677   0.289   5.578
 9398SOL    HW229094   1.733   0.154   5.652
 9399SOL     OW29095   0.430   1.732   6.975
 9399SOL    HW129096   0.497   1.673   6.929
 9399SOL    HW229097   0.476   1.815   7.008
 9400SOL     OW29098   5.059   2.706   1.461
 9400SOL    HW129099   5.098   2.666   1.378
 9400SOL    HW229100   5.088   2.801   1.469
 9401SOL     OW29101   4.286   6.807   3.240
 9401SOL    HW129102   4.259   6.790   3.335
 9401SOL    HW229103   4.293   6.720   3.191
 9402SOL     OW29104   1.061   4.830   4.424
 9402SOL    HW129105   0.980   4.801   4.475
 9402SOL    HW229106   1.130   4.757   4.426
 9403SOL     OW29107   5.630   1.389   3.078
 9403SOL    HW129108   5.593   1.311   3.129
 9403SOL    HW229109   5.708   1.427   3.128
 9404SOL     OW29110   0.784   3.158   6.201
 9404SOL    HW129111   0.696   3.176   6.244
 9404SOL    HW229112   0.857   3.188   6.262
 9405SOL     OW29113   0.394   6.170   2.443
 9405SOL    HW129114   0.339   6.252   2.458
 9405SOL    HW229115   0.343   6.105   2.387
 9406SOL     OW29116   6.937   3.240   6.262
 9406SOL    HW129117   6.870   3.192   6.317
 9406SOL    HW229118   0.008   3.222   6.296
 9407SOL     OW29119   2.276   5.155   3.803
 9407SOL    HW129120   2.290   5.159   3.704
 9407SOL    HW229121   2.364   5.159   3.850
 9408SOL     OW29122   3.697   1.639   6.118
 9408SOL    HW129123   3.787   1.620   6.079
 9408SOL    HW229124   3.667   1.730   6.087
 9409SOL     OW29125   5.887   4.555   6.175
 9409SOL    HW129126   5.788   4.541   6.176
 9409SOL    HW229127   5.924   4.529   6.086
 9410SOL     OW29128   3.113   6.221   1.928
 9410SOL    HW129129   3.184   6.291   1.936
 9410SOL    HW229130   3.077   6.223   1.834
 9411SOL     OW29131   4.004   3.880   1.468
 9411SOL    HW129132   4.060   3.842   1.394
 9411SOL    HW229133   4.063   3.909   1.543
 9412SOL     OW29134   0.335   3.186   1.738
 9412SOL    HW129135   0.334   3.228   1.829
 9412SOL    HW229136   0.323   3.087   1.747
 9413SOL     OW29137   3.925   5.929   4.376
 9413SOL    HW129138   3.876   5.856   4.329
 9413SOL    HW229139   4.014   5.943   4.333
 9414SOL     OW29140   3.241   0.704   3.801
 9414SOL    HW129141   3.186   0.771   3.852
 9414SOL    HW229142   3.211   0.704   3.705
 9415SOL     OW29143   2.495   0.144   2.519
 9415SOL    HW129144   2.506   0.168   2.616
 9415SOL    HW229145   2.444   0.216   2.473
 9416SOL     OW29146   0.842   1.433   1.149
 9416SOL    HW129147   0.842   1.514   1.208
 9416SOL    HW229148   0.748   1.410   1.125
 9417SOL     OW29149   3.845   6.513   5.854
 9417SOL    HW129150   3.842   6.444   5.781
 9417SOL    HW229151   3.928   6.499   5.909
 9418SOL     OW29152   2.868   6.705   1.262
 9418SOL    HW129153   2.966   6.703   1.243
 9418SOL    HW229154   2.818   6.730   1.178
 9419SOL     OW29155   2.837   5.142   5.721
 9419SOL    HW129156   2.756   5.194   5.746
 9419SOL    HW229157   2.880   5.104   5.803
 9420SOL     OW29158   0.150   2.406   4.184
 9420SOL    HW129159   0.103   2.412   4.096
 9420SOL    HW229160   0.236   2.356   4.172
 9421SOL     OW29161   2.397   6.250   4.718
 9421SOL    HW129162   2.324   6.191   4.683
 9421SOL    HW229163   2.358   6.325   4.771
 9422SOL     OW29164   4.831   6.114   2.493
 9422SOL    HW129165   4.898   6.040   2.494
 9422SOL    HW229166   4.746   6.083   2.535
 9423SOL     OW29167   4.490   0.699   3.083
 9423SOL    HW129168   4.555   0.625   3.072
 9423SOL    HW229169   4.420   0.693   3.012
 9424SOL     OW29170   5.067   0.992   5.533
 9424SOL    HW129171   5.021   0.956   5.452
 9424SOL    HW229172   5.026   1.080   5.558
 9425SOL     OW29173   0.626   3.799   6.202
 9425SOL    HW129174   0.606   3.817   6.106
 9425SOL    HW229175   0.632   3.700   6.217
 9426SOL     OW29176   2.658   1.862   0.288
 9426SOL    HW129177   2.633   1.952   0.253
 9426SOL    HW229178   2.747   1.867   0.334
 9427SOL     OW29179   2.880   5.252   4.728
 9427SOL    HW129180   2.851   5.269   4.822
 9427SOL    HW229181   2.979   5.257   4.721
 9428SOL     OW29182   5.179   0.891   0.875
 9428SOL    HW129183   5.180   0.802   0.922
 9428SOL    HW229184   5.110   0.890   0.803
 9429SOL     OW29185   1.848   4.238   2.195
 9429SOL    HW129186   1.900   4.280   2.121
 9429SOL    HW229187   1.902   4.165   2.236
 9430SOL     OW29188   0.045   4.327   1.892
 9430SOL    HW129189   7.008   4.261   1.846
 9430SOL    HW229190   0.012   4.342   1.985
 9431SOL     OW29191   5.462   3.927   1.035
 9431SOL    HW129192   5.437   3.831   1.022
 9431SOL    HW229193   5.432   3.957   1.125
 9432SOL     OW29194   5.526   0.890   2.714
 9432SOL    HW129195   5.469   0.808   2.720
 9432SOL    HW229196   5.514   0.932   2.624
 9433SOL     OW29197   3.576   4.902   3.805
 9433SOL    HW129198   3.593   4.968   3.878
 9433SOL    HW229199   3.478   4.899   3.786
 9434SOL     OW29200   5.338   5.178   3.021
 9434SOL    HW129201   5.274   5.161   3.097
 9434SOL    HW229202   5.411   5.110   3.025
 9435SOL     OW29203   0.516   2.090   4.487
 9435SOL    HW129204   0.430   2.046   4.515
 9435SOL    HW229205   0.585   2.020   4.471
 9436SOL     OW29206   1.248   3.850   2.119
 9436SOL    HW129207   1.190   3.929   2.139
 9436SOL    HW229208   1.197   3.766   2.136
 9437SOL     OW29209   1.762   6.549   3.589
 9437SOL    HW129210   1.768   6.477   3.519
 9437SOL    HW229211   1.684   6.530   3.649
 9438SOL     OW29212   0.472   6.972   2.108
 9438SOL    HW129213   0.502   6.950   2.201
 9438SOL    HW229214   0.402   6.906   2.079
 9439SOL     OW29215   0.283   2.376   2.051
 9439SOL    HW129216   0.291   2.318   1.971
 9439SOL    HW229217   0.371   2.420   2.069
 9440SOL     OW29218   4.542   5.715   4.235
 9440SOL    HW129219   4.487   5.745   4.314
 9440SOL    HW229220   4.491   5.732   4.151
 9441SOL     OW29221   1.571   3.482   4.730
 9441SOL    HW129222   1.588   3.466   4.828
 9441SOL    HW229223   1.473   3.478   4.712
 9442SOL     OW29224   4.751   3.254   6.975
 9442SOL    HW129225   4.678   3.225   0.015
 9442SOL    HW229226   4.715   3.320   6.909
 9443SOL     OW29227   2.220   5.701   1.362
 9443SOL    HW129228   2.163   5.782   1.351
 9443SOL    HW229229   2.197   5.634   1.291
 9444SOL     OW29230   1.615   3.906   6.428
 9444SOL    HW129231   1.696   3.926   6.483
 9444SOL    HW229232   1.644   3.874   6.338
 9445SOL     OW29233   5.723   3.730   2.521
 9445SOL    HW129234   5.721   3.727   2.621
 9445SOL    HW229235   5.758   3.643   2.486
 9446SOL     OW29236   6.698   6.789   3.949
 9446SOL    HW129237   6.674   6.692   3.960
 9446SOL    HW229238   6.677   6.839   4.033
 9447SOL     OW29239   6.398   3.500   3.284
 9447SOL    HW129240   6.312   3.520   3.238
 9447SOL    HW229241   6.379   3.462   3.374
 9448SOL     OW29242   6.942   6.877   6.112
 9448SOL    HW129243   6.843   6.867   6.109
 9448SOL    HW229244   6.983   6.823   6.039
 9449SOL     OW29245   6.493   5.743   6.512
 9449SOL    HW129246   6.586   5.747   6.547
 9449SOL    HW229247   6.437   5.812   6.558
 9450SOL     OW29248   3.489   4.937   4.708
 9450SOL    HW129249   3.531   5.025   4.733
 9450SOL    HW229250   3.525   4.907   4.620
 9451SOL     OW29251   3.597   6.349   6.312
 9451SOL    HW129252   3.626   6.273   6.370
 9451SOL    HW229253   3.568   6.315   6.223
 9452SOL     OW29254   1.188   3.463   0.779
 9452SOL    HW129255   1.140   3.545   0.811
 9452SOL    HW229256   1.215   3.476   0.683
 9453SOL     OW29257   2.011   5.156   3.895
 9453SOL    HW129258   2.022   5.161   3.994
 9453SOL    HW229259   2.101   5.146   3.852
 9454SOL     OW29260   2.156   3.387   6.225
 9454SOL    HW129261   2.139   3.359   6.320
 9454SOL    HW229262   2.145   3.308   6.165
 9455SOL     OW29263   3.898   1.638   2.735
 9455SOL    HW129264   3.987   1.681   2.749
 9455SOL    HW229265   3.832   1.707   2.706
 9456SOL     OW29266   1.038   3.894   0.429
 9456SOL    HW129267   0.972   3.954   0.474
 9456SOL    HW229268   1.028   3.901   0.330
 9457SOL     OW29269   2.474   4.112   5.425
 9457SOL    HW129270   2.457   4.050   5.349
 9457SOL    HW229271   2.466   4.062   5.511
 9458SOL     OW29272   1.469   2.982   6.595
 9458SOL    HW129273   1.429   3.073   6.593
 9458SOL    HW229274   1.451   2.935   6.508
 9459SOL     OW29275   5.538   4.720   2.945
 9459SOL    HW129276   5.578   4.632   2.922
 9459SOL    HW229277   5.552   4.784   2.869
 9460SOL     OW29278   6.727   2.150   4.739
 9460SOL    HW129279   6.697   2.117   4.828
 9460SOL    HW229280   6.655   2.134   4.671
 9461SOL     OW29281   6.771   1.943   2.639
 9461SOL    HW129282   6.860   1.899   2.650
 9461SOL    HW229283   6.699   1.873   2.643
 9462SOL     OW29284   2.143   3.606   3.554
 9462SOL    HW129285   2.189   3.518   3.542
 9462SOL    HW229286   2.057   3.606   3.504
 9463SOL     OW29287   0.301   0.930   1.310
 9463SOL    HW129288   0.337   0.946   1.218
 9463SOL    HW229289   0.375   0.933   1.376
 9464SOL     OW29290   6.133   6.595   0.733
 9464SOL    HW129291   6.047   6.643   0.749
 9464SOL    HW229292   6.188   6.647   0.668
 9465SOL     OW29293   0.925   6.287   3.071
 9465SOL    HW129294   0.888   6.204   3.030
 9465SOL    HW229295   0.926   6.360   3.003
 9466SOL     OW29296   3.881   4.206   5.219
 9466SOL    HW129297   3.851   4.253   5.136
 9466SOL    HW229298   3.826   4.123   5.232
 9467SOL     OW29299   1.369   2.447   1.744
 9467SOL    HW129300   1.298   2.396   1.695
 9467SOL    HW229301   1.453   2.394   1.745
 9468SOL     OW29302   5.614   2.247   6.035
 9468SOL    HW129303   5.604   2.341   6.002
 9468SOL    HW229304   5.543   2.227   6.102
 9469SOL     OW29305   5.608   5.828   1.119
 9469SOL    HW129306   5.619   5.867   1.210
 9469SOL    HW229307   5.670   5.750   1.108
 9470SOL     OW29308   4.610   4.203   5.700
 9470SOL    HW129309   4.547   4.151   5.758
 9470SOL    HW229310   4.631   4.150   5.618
 9471SOL     OW29311   5.904   1.323   4.147
 9471SOL    HW129312   5.995   1.363   4.133
 9471SOL    HW229313   5.912   1.240   4.203
 9472SOL     OW29314   6.092   2.938   4.444
 9472SOL    HW129315   6.004   2.893   4.452
 9472SOL    HW229316   6.095   2.995   4.362
 9473SOL     OW29317   2.549   4.946   5.638
 9473SOL    HW129318   2.514   4.993   5.719
 9473SOL    HW229319   2.579   5.013   5.570
 9474SOL     OW29320   6.499   3.023   6.955
 9474SOL    HW129321   6.561   3.100   6.940
 9474SOL    HW229322   6.429   3.021   6.884
 9475SOL     OW29323   3.247   3.869   0.435
 9475SOL    HW129324   3.199   3.863   0.348
 9475SOL    HW229325   3.195   3.821   0.505
 9476SOL     OW29326   3.085   3.333   5.023
 9476SOL    HW129327   3.092   3.390   4.941
 9476SOL    HW229328   2.994   3.293   5.029
 9477SOL     OW29329   0.664   3.410   2.627
 9477SOL    HW129330   0.672   3.345   2.552
 9477SOL    HW229331   0.568   3.437   2.638
 9478SOL     OW29332   4.793   3.168   5.805
 9478SOL    HW129333   4.786   3.253   5.753
 9478SOL    HW229334   4.749   3.094   5.754
 9479SOL     OW29335   5.539   6.489   0.009
 9479SOL    HW129336   5.593   6.465   0.090
 9479SOL    HW229337   5.596   6.484   6.948
 9480SOL     OW29338   5.180   4.079   0.588
 9480SOL    HW129339   5.185   4.056   0.685
 9480SOL    HW229340   5.087   4.108   0.565
 9481SOL     OW29341   5.832   3.474   1.686
 9481SOL    HW129342   5.757   3.433   1.738
 9481SOL    HW229343   5.894   3.402   1.655
 9482SOL     OW29344   6.771   0.651   2.979
 9482SOL    HW129345   6.841   0.687   2.918
 9482SOL    HW229346   6.681   0.666   2.938
 9483SOL     OW29347   1.683   1.586   1.053
 9483SOL    HW129348   1.765   1.628   1.091
 9483SOL    HW229349   1.701   1.557   0.959
 9484SOL     OW29350   3.827   1.236   2.869
 9484SOL    HW129351   3.780   1.167   2.924
 9484SOL    HW229352   3.904   1.273   2.921
 9485SOL     OW29353   0.898   0.225   2.616
 9485SOL    HW129354   0.962   0.302   2.625
 9485SOL    HW229355   0.876   0.190   2.707
 9486SOL     OW29356   2.451   5.102   1.813
 9486SOL    HW129357   2.461   5.199   1.791
 9486SOL    HW229358   2.540   5.065   1.839
 9487SOL     OW29359   2.985   3.156   3.472
 9487SOL    HW129360   3.009   3.158   3.569
 9487SOL    HW229361   2.895   3.197   3.459
 9488SOL     OW29362   2.123   6.469   1.397
 9488SOL    HW129363   2.173   6.422   1.324
 9488SOL    HW229364   2.132   6.417   1.482
 9489SOL     OW29365   4.054   4.313   1.459
 9489SOL    HW129366   3.989   4.254   1.411
 9489SOL    HW229367   4.112   4.257   1.518
 9490SOL     OW29368   6.166   5.878   0.948
 9490SOL    HW129369   6.209   5.863   0.859
 9490SOL    HW229370   6.130   5.971   0.953
 9491SOL     OW29371   6.699   4.802   3.866
 9491SOL    HW129372   6.753   4.719   3.862
 9491SOL    HW229373   6.749   4.872   3.916
 9492SOL     OW29374   3.363   2.978   3.009
 9492SOL    HW129375   3.360   2.883   2.979
 9492SOL    HW229376   3.271   3.006   3.038
 9493SOL     OW29377   4.359   5.345   4.091
 9493SOL    HW129378   4.413   5.349   4.175
 9493SOL    HW229379   4.339   5.250   4.069
 9494SOL     OW29380   4.602   4.772   1.613
 9494SOL    HW129381   4.512   4.758   1.653
 9494SOL    HW229382   4.602   4.739   1.518
 9495SOL     OW29383   5.777   1.900   4.808
 9495SOL    HW129384   5.837   1.849   4.747
 9495SOL    HW229385   5.731   1.837   4.870
 9496SOL     OW29386   5.673   4.580   1.065
 9496SOL    HW129387   5.595   4.642   1.076
 9496SOL    HW229388   5.645   4.500   1.012
 9497SOL     OW29389   5.868   4.745   0.049
 9497SOL    HW129390   5.770   4.725   0.043
 9497SOL    HW229391   5.920   4.667   0.013
 9498SOL     OW29392   5.459   7.007   5.364
 9498SOL    HW129393   5.519   6.952   5.422
 9498SOL    HW229394   5.417   0.058   5.419
 9499SOL     OW29395   2.464   4.638   6.305
 9499SOL    HW129396   2.371   4.650   6.272
 9499SOL    HW229397   2.471   4.553   6.357
 9500SOL     OW29398   4.658   0.449   1.539
 9500SOL    HW129399   4.699   0.536   1.511
 9500SOL    HW229400   4.559   0.453   1.528
 9501SOL     OW29401   3.496   1.550   4.540
 9501SOL    HW129402   3.567   1.530   4.472
 9501SOL    HW229403   3.452   1.637   4.518
 9502SOL     OW29404   0.296   2.012   4.646
 9502SOL    HW129405   0.264   2.055   4.731
 9502SOL    HW229406   0.223   2.018   4.577
 9503SOL     OW29407   0.593   1.415   1.060
 9503SOL    HW129408   0.535   1.387   0.985
 9503SOL    HW229409   0.540   1.419   1.145
 9504SOL     OW29410   0.696   2.070   0.678
 9504SOL    HW129411   0.736   1.992   0.726
 9504SOL    HW229412   0.630   2.037   0.610
 9505SOL     OW29413   5.395   4.122   3.960
 9505SOL    HW129414   5.493   4.142   3.964
 9505SOL    HW229415   5.382   4.025   3.937
 9506SOL     OW29416   0.498   3.252   6.797
 9506SOL    HW129417   0.492   3.308   6.879
 9506SOL    HW229418   0.473   3.158   6.818
 9507SOL     OW29419   1.312   1.259   3.537
 9507SOL    HW129420   1.299   1.284   3.633
 9507SOL    HW229421   1.309   1.342   3.480
 9508SOL     OW29422   5.575   3.538   0.827
 9508SOL    HW129423   5.505   3.467   0.830
 9508SOL    HW229424   5.595   3.568   0.921
 9509SOL     OW29425   0.906   0.662   5.593
 9509SOL    HW129426   0.888   0.563   5.591
 9509SOL    HW229427   1.004   0.678   5.595
 9510SOL     OW29428   1.040   4.363   2.039
 9510SOL    HW129429   0.952   4.361   1.991
 9510SOL    HW229430   1.115   4.361   1.973
 9511SOL     OW29431   0.601   1.594   6.827
 9511SOL    HW129432   0.669   1.556   6.889
 9511SOL    HW229433   0.648   1.642   6.752
 9512SOL     OW29434   5.802   1.023   1.788
 9512SOL    HW129435   5.778   1.037   1.884
 9512SOL    HW229436   5.804   0.925   1.768
 9513SOL     OW29437   1.714   3.426   5.305
 9513SOL    HW129438   1.810   3.398   5.309
 9513SOL    HW229439   1.699   3.480   5.222
 9514SOL     OW29440   2.532   4.704   0.022
 9514SOL    HW129441   2.455   4.724   0.084
 9514SOL    HW229442   2.615   4.692   0.076
 9515SOL     OW29443   1.496   5.865   0.359
 9515SOL    HW129444   1.477   5.794   0.426
 9515SOL    HW229445   1.551   5.827   0.284
 9516SOL     OW29446   5.575   3.859   5.252
 9516SOL    HW129447   5.588   3.861   5.351
 9516SOL    HW229448   5.658   3.892   5.207
 9517SOL     OW29449   1.549   4.767   0.320
 9517SOL    HW129450   1.647   4.749   0.318
 9517SOL    HW229451   1.530   4.856   0.279
 9518SOL     OW29452   1.304   2.123   0.105
 9518SOL    HW129453   1.224   2.137   0.047
 9518SOL    HW229454   1.387   2.142   0.052
 9519SOL     OW29455   3.621   3.559   4.063
 9519SOL    HW129456   3.688   3.603   4.005
 9519SOL    HW229457   3.531   3.601   4.049
 9520SOL     OW29458   0.199   1.298   2.794
 9520SOL    HW129459   0.196   1.211   2.745
 9520SOL    HW229460   0.282   1.347   2.771
 9521SOL     OW29461   3.734   4.486   1.085
 9521SOL    HW129462   3.799   4.538   1.140
 9521SOL    HW229463   3.645   4.532   1.085
 9522SOL     OW29464   4.494   5.735   2.497
 9522SOL    HW129465   4.469   5.776   2.409
 9522SOL    HW229466   4.546   5.802   2.551
 9523SOL     OW29467   2.466   4.814   5.072
 9523SOL    HW129468   2.536   4.764   5.123
 9523SOL    HW229469   2.377   4.797   5.113
 9524SOL     OW29470   2.028   2.541   0.327
 9524SOL    HW129471   2.006   2.632   0.362
 9524SOL    HW229472   2.121   2.541   0.291
 9525SOL     OW29473   1.984   2.176   5.520
 9525SOL    HW129474   1.922   2.236   5.470
 9525SOL    HW229475   2.079   2.195   5.492
 9526SOL     OW29476   6.228   4.087   1.634
 9526SOL    HW129477   6.282   4.083   1.718
 9526SOL    HW229478   6.257   4.166   1.580
 9527SOL     OW29479   1.792   0.587   5.138
 9527SOL    HW129480   1.882   0.601   5.178
 9527SOL    HW229481   1.771   0.490   5.134
 9528SOL     OW29482   0.023   1.543   0.153
 9528SOL    HW129483   7.009   1.467   0.098
 9528SOL    HW229484   0.123   1.545   0.149
 9529SOL     OW29485   5.922   3.648   6.153
 9529SOL    HW129486   5.829   3.683   6.159
 9529SOL    HW229487   5.970   3.665   6.240
 9530SOL     OW29488   1.463   3.072   3.810
 9530SOL    HW129489   1.385   3.119   3.852
 9530SOL    HW229490   1.433   2.985   3.771
 9531SOL     OW29491   5.029   4.132   2.354
 9531SOL    HW129492   5.077   4.216   2.382
 9531SOL    HW229493   5.094   4.057   2.347
 9532SOL     OW29494   7.020   5.531   1.121
 9532SOL    HW129495   7.015   5.631   1.125
 9532SOL    HW229496   6.935   5.495   1.083
 9533SOL     OW29497   0.642   5.693   4.927
 9533SOL    HW129498   0.709   5.768   4.934
 9533SOL    HW229499   0.615   5.681   4.832
 9534SOL     OW29500   6.059   3.717   5.163
 9534SOL    HW129501   6.103   3.760   5.085
 9534SOL    HW229502   6.103   3.629   5.182
 9535SOL     OW29503   1.946   0.344   5.800
 9535SOL    HW129504   1.850   0.316   5.792
 9535SOL    HW229505   1.987   0.349   5.709
 9536SOL     OW29506   3.095   3.870   5.234
 9536SOL    HW129507   3.125   3.943   5.295
 9536SOL    HW229508   3.006   3.894   5.194
 9537SOL     OW29509   2.444   0.339   4.017
 9537SOL    HW129510   2.465   0.286   4.100
 9537SOL    HW229511   2.352   0.317   3.986
 9538SOL     OW29512   5.535   1.282   4.385
 9538SOL    HW129513   5.447   1.318   4.356
 9538SOL    HW229514   5.606   1.352   4.371
 9539SOL     OW29515   3.375   4.200   4.486
 9539SOL    HW129516   3.333   4.268   4.427
 9539SOL    HW229517   3.372   4.110   4.443
 9540SOL     OW29518   5.776   4.745   3.965
 9540SOL    HW129519   5.858   4.749   3.908
 9540SOL    HW229520   5.722   4.665   3.942
 9541SOL     OW29521   2.832   0.394   6.123
 9541SOL    HW129522   2.811   0.392   6.221
 9541SOL    HW229523   2.755   0.357   6.072
 9542SOL     OW29524   5.176   4.689   4.823
 9542SOL    HW129525   5.205   4.618   4.759
 9542SOL    HW229526   5.256   4.728   4.868
 9543SOL     OW29527   3.251   0.520   5.753
 9543SOL    HW129528   3.166   0.573   5.749
 9543SOL    HW229529   3.307   0.552   5.829
 9544SOL     OW29530   5.848   2.865   3.872
 9544SOL    HW129531   5.862   2.930   3.798
 9544SOL    HW229532   5.754   2.832   3.871
 9545SOL     OW29533   5.738   5.889   3.522
 9545SOL    HW129534   5.762   5.915   3.616
 9545SOL    HW229535   5.640   5.900   3.509
 9546SOL     OW29536   3.627   2.164   5.675
 9546SOL    HW129537   3.625   2.263   5.666
 9546SOL    HW229538   3.719   2.134   5.702
 9547SOL     OW29539   2.312   4.901   3.972
 9547SOL    HW129540   2.353   4.861   3.890
 9547SOL    HW229541   2.269   4.989   3.948
 9548SOL     OW29542   6.896   4.789   5.346
 9548SOL    HW129543   6.984   4.744   5.354
 9548SOL    HW229544   6.827   4.723   5.315
 9549SOL     OW29545   3.053   2.104   1.712
 9549SOL    HW129546   2.961   2.115   1.749
 9549SOL    HW229547   3.092   2.194   1.692
 9550SOL     OW29548   6.918   0.499   0.142
 9550SOL    HW129549   6.937   0.529   0.236
 9550SOL    HW229550   6.946   0.572   0.079
 9551SOL     OW29551   5.481   2.510   6.200
 9551SOL    HW129552   5.399   2.486   6.252
 9551SOL    HW229553   5.559   2.459   6.237
 9552SOL     OW29554   2.090   6.371   4.450
 9552SOL    HW129555   2.062   6.308   4.523
 9552SOL    HW229556   2.016   6.435   4.432
 9553SOL     OW29557   5.976   2.338   6.551
 9553SOL    HW129558   5.995   2.431   6.520
 9553SOL    HW229559   6.036   2.275   6.503
 9554SOL     OW29560   2.706   0.174   2.804
 9554SOL    HW129561   2.626   0.233   2.813
 9554SOL    HW229562   2.706   0.107   2.878
 9555SOL     OW29563   0.826   1.247   2.154
 9555SOL    HW129564   0.866   1.299   2.229
 9555SOL    HW229565   0.787   1.311   2.087
 9556SOL     OW29566   1.712   3.802   1.795
 9556SOL    HW129567   1.800   3.794   1.842
 9556SOL    HW229568   1.728   3.827   1.699
 9557SOL     OW29569   6.675   6.307   1.633
 9557SOL    HW129570   6.760   6.357   1.614
 9557SOL    HW229571   6.615   6.364   1.689
 9558SOL     OW29572   5.678   5.929   5.735
 9558SOL    HW129573   5.620   5.913   5.655
 9558SOL    HW229574   5.766   5.885   5.721
 9559SOL     OW29575   0.601   4.534   0.908
 9559SOL    HW129576   0.565   4.527   0.815
 9559SOL    HW229577   0.580   4.624   0.945
 9560SOL     OW29578   2.303   1.059   3.586
 9560SOL    HW129579   2.244   0.998   3.640
 9560SOL    HW229580   2.366   1.106   3.647
 9561SOL     OW29581   2.092   0.731   0.815
 9561SOL    HW129582   2.156   0.740   0.891
 9561SOL    HW229583   1.999   0.724   0.850
 9562SOL     OW29584   2.436   0.302   5.780
 9562SOL    HW129585   2.496   0.222   5.777
 9562SOL    HW229586   2.354   0.280   5.833
 9563SOL     OW29587   0.413   6.152   0.440
 9563SOL    HW129588   0.410   6.106   0.351
 9563SOL    HW229589   0.351   6.105   0.503
 9564SOL     OW29590   2.903   1.250   0.685
 9564SOL    HW129591   2.841   1.247   0.764
 9564SOL    HW229592   2.996   1.268   0.717
 9565SOL     OW29593   4.079   1.073   4.500
 9565SOL    HW129594   4.056   0.980   4.530
 9565SOL    HW229595   4.175   1.092   4.520
 9566SOL     OW29596   2.929   4.944   6.629
 9566SOL    HW129597   2.874   5.011   6.678
 9566SOL    HW229598   2.870   4.870   6.597
 9567SOL     OW29599   5.056   4.742   0.651
 9567SOL    HW129600   4.963   4.705   0.649
 9567SOL    HW229601   5.076   4.776   0.743
 9568SOL     OW29602   4.205   2.506   6.201
 9568SOL    HW129603   4.256   2.587   6.231
 9568SOL    HW229604   4.166   2.524   6.111
 9569SOL     OW29605   6.333   1.192   2.497
 9569SOL    HW129606   6.373   1.180   2.406
 9569SOL    HW229607   6.349   1.110   2.552
 9570SOL     OW29608   0.540   3.638   1.799
 9570SOL    HW129609   0.527   3.706   1.871
 9570SOL    HW229610   0.459   3.635   1.741
 9571SOL     OW29611   3.439   3.895   6.285
 9571SOL    HW129612   3.435   3.820   6.219
 9571SOL    HW229613   3.355   3.897   6.338
 9572SOL     OW29614   2.379   4.859   2.380
 9572SOL    HW129615   2.418   4.902   2.298
 9572SOL    HW229616   2.302   4.800   2.353
 9573SOL     OW29617   0.872   2.696   6.682
 9573SOL    HW129618   0.959   2.651   6.704
 9573SOL    HW229619   0.869   2.785   6.728
 9574SOL     OW29620   4.030   3.647   2.951
 9574SOL    HW129621   4.018   3.599   2.864
 9574SOL    HW229622   4.039   3.581   3.025
 9575SOL     OW29623   0.495   1.417   1.335
 9575SOL    HW129624   0.550   1.369   1.403
 9575SOL    HW229625   0.403   1.380   1.334
 9576SOL     OW29626   1.704   1.349   1.507
 9576SOL    HW129627   1.659   1.349   1.417
 9576SOL    HW229628   1.795   1.310   1.499
 9577SOL     OW29629   0.993   0.836   5.910
 9577SOL    HW129630   1.058   0.908   5.937
 9577SOL    HW229631   0.982   0.772   5.986
 9578SOL     OW29632   0.757   3.877   3.351
 9578SOL    HW129633   0.839   3.820   3.354
 9578SOL    HW229634   0.717   3.881   3.443
 9579SOL     OW29635   1.330   5.137   2.964
 9579SOL    HW129636   1.379   5.224   2.961
 9579SOL    HW229637   1.238   5.153   3.000
 9580SOL     OW29638   4.869   3.721   0.813
 9580SOL    HW129639   4.930   3.738   0.891
 9580SOL    HW229640   4.904   3.771   0.733
 9581SOL     OW29641   0.630   5.992   5.719
 9581SOL    HW129642   0.628   6.050   5.801
 9581SOL    HW229643   0.593   6.043   5.642
 9582SOL     OW29644   4.995   5.206   6.350
 9582SOL    HW129645   5.068   5.236   6.289
 9582SOL    HW229646   4.908   5.202   6.299
 9583SOL     OW29647   3.692   4.192   1.476
 9583SOL    HW129648   3.728   4.216   1.566
 9583SOL    HW229649   3.644   4.104   1.482
 9584SOL     OW29650   0.114   5.349   6.490
 9584SOL    HW129651   0.059   5.296   6.426
 9584SOL    HW229652   0.204   5.368   6.450
 9585SOL     OW29653   6.588   6.888   4.731
 9585SOL    HW129654   6.663   6.953   4.719
 9585SOL    HW229655   6.613   6.800   4.689
 9586SOL     OW29656   5.527   4.579   2.229
 9586SOL    HW129657   5.556   4.674   2.239
 9586SOL    HW229658   5.534   4.552   2.133
 9587SOL     OW29659   0.758   0.501   1.616
 9587SOL    HW129660   0.698   0.523   1.539
 9587SOL    HW229661   0.729   0.414   1.657
 9588SOL     OW29662   6.932   1.022   1.153
 9588SOL    HW129663   6.917   1.022   1.054
 9588SOL    HW229664   6.860   0.968   1.197
 9589SOL     OW29665   2.551   4.895   6.766
 9589SOL    HW129666   2.593   4.834   6.833
 9589SOL    HW229667   2.616   4.967   6.741
 9590SOL     OW29668   6.447   2.700   2.118
 9590SOL    HW129669   6.535   2.659   2.096
 9590SOL    HW229670   6.397   2.719   2.034
 9591SOL     OW29671   2.872   6.012   5.763
 9591SOL    HW129672   2.826   5.933   5.721
 9591SOL    HW229673   2.968   5.990   5.777
 9592SOL     OW29674   3.697   4.738   0.763
 9592SOL    HW129675   3.616   4.784   0.727
 9592SOL    HW229676   3.699   4.747   0.862
 9593SOL     OW29677   0.341   0.845   5.979
 9593SOL    HW129678   0.322   0.800   5.891
 9593SOL    HW229679   0.293   0.797   6.052
 9594SOL     OW29680   1.054   5.041   2.604
 9594SOL    HW129681   1.004   5.128   2.607
 9594SOL    HW229682   1.024   4.990   2.523
 9595SOL     OW29683   0.535   3.156   5.031
 9595SOL    HW129684   0.474   3.216   4.979
 9595SOL    HW229685   0.625   3.155   4.989
 9596SOL     OW29686   0.403   5.166   6.371
 9596SOL    HW129687   0.370   5.155   6.277
 9596SOL    HW229688   0.412   5.263   6.392
 9597SOL     OW29689   0.742   4.343   1.386
 9597SOL    HW129690   0.738   4.416   1.317
 9597SOL    HW229691   0.768   4.257   1.341
 9598SOL     OW29692   1.712   4.235   4.163
 9598SOL    HW129693   1.689   4.145   4.199
 9598SOL    HW229694   1.672   4.306   4.221
 9599SOL     OW29695   3.487   0.379   4.580
 9599SOL    HW129696   3.421   0.304   4.588
 9599SOL    HW229697   3.561   0.365   4.645
 9600SOL     OW29698   2.539   6.479   6.746
 9600SOL    HW129699   2.452   6.489   6.696
 9600SOL    HW229700   2.574   6.386   6.732
 9601SOL     OW29701   4.781   4.018   0.857
 9601SOL    HW129702   4.699   3.979   0.814
 9601SOL    HW229703   4.791   4.114   0.829
 9602SOL     OW29704   6.520   5.041   5.853
 9602SOL    HW129705   6.461   4.964   5.829
 9602SOL    HW229706   6.565   5.021   5.940
 9603SOL     OW29707   3.603   1.416   3.774
 9603SOL    HW129708   3.686   1.453   3.733
 9603SOL    HW229709   3.620   1.323   3.807
 9604SOL     OW29710   4.364   0.339   6.698
 9604SOL    HW129711   4.429   0.414   6.708
 9604SOL    HW229712   4.330   0.312   6.788
 9605SOL     OW29713   0.772   5.229   3.507
 9605SOL    HW129714   0.826   5.300   3.553
 9605SOL    HW229715   0.819   5.141   3.515
 9606SOL     OW29716   1.488   6.657   6.558
 9606SOL    HW129717   1.535   6.744   6.540
 9606SOL    HW229718   1.547   6.581   6.531
 9607SOL     OW29719   1.727   1.874   0.494
 9607SOL    HW129720   1.632   1.889   0.521
 9607SOL    HW229721   1.777   1.833   0.570
 9608SOL     OW29722   6.706   5.201   2.415
 9608SOL    HW129723   6.736   5.231   2.324
 9608SOL    HW229724   6.783   5.207   2.478
 9609SOL     OW29725   2.631   4.321   6.807
 9609SOL    HW129726   2.578   4.405   6.817
 9609SOL    HW229727   2.577   4.253   6.758
 9610SOL     OW29728   1.513   5.112   4.158
 9610SOL    HW129729   1.528   5.183   4.228
 9610SOL    HW229730   1.581   5.040   4.169
 9611SOL     OW29731   0.655   6.007   6.596
 9611SOL    HW129732   0.667   6.063   6.678
 9611SOL    HW229733   0.574   6.037   6.547
 9612SOL     OW29734   0.612   4.183   1.822
 9612SOL    HW129735   0.641   4.089   1.838
 9612SOL    HW229736   0.586   4.225   1.909
 9613SOL     OW29737   4.968   6.476   3.124
 9613SOL    HW129738   5.067   6.479   3.138
 9613SOL    HW229739   4.938   6.382   3.113
 9614SOL     OW29740   2.842   2.190   0.619
 9614SOL    HW129741   2.824   2.287   0.634
 9614SOL    HW229742   2.915   2.180   0.552
 9615SOL     OW29743   1.472   0.158   0.299
 9615SOL    HW129744   1.383   0.120   0.325
 9615SOL    HW229745   1.462   0.257   0.283
 9616SOL     OW29746   4.375   4.077   1.279
 9616SOL    HW129747   4.290   4.023   1.282
 9616SOL    HW229748   4.389   4.110   1.186
 9617SOL     OW29749   2.201   2.801   3.386
 9617SOL    HW129750   2.211   2.881   3.446
 9617SOL    HW229751   2.106   2.769   3.390
 9618SOL     OW29752   3.985   6.696   5.458
 9618SOL    HW129753   4.065   6.752   5.437
 9618SOL    HW229754   3.970   6.696   5.557
 9619SOL     OW29755   1.099   7.004   0.565
 9619SOL    HW129756   1.069   0.078   0.567
 9619SOL    HW229757   1.038   6.950   0.507
 9620SOL     OW29758   4.348   2.214   6.903
 9620SOL    HW129759   4.376   2.272   6.826
 9620SOL    HW229760   4.256   2.180   6.887
 9621SOL     OW29761   0.965   0.895   1.994
 9621SOL    HW129762   0.926   0.938   1.913
 9621SOL    HW229763   1.004   0.965   2.054
 9622SOL     OW29764   6.597   0.958   6.704
 9622SOL    HW129765   6.689   0.997   6.703
 9622SOL    HW229766   6.596   0.874   6.649
 9623SOL     OW29767   3.338   4.722   5.982
 9623SOL    HW129768   3.280   4.802   5.968
 9623SOL    HW229769   3.353   4.675   5.895
 9624SOL     OW29770   6.675   4.482   2.060
 9624SOL    HW129771   6.717   4.566   2.027
 9624SOL    HW229772   6.589   4.504   2.107
 9625SOL     OW29773   5.379   5.648   0.040
 9625SOL    HW129774   5.346   5.593   6.984
 9625SOL    HW229775   5.325   5.731   0.048
 9626SOL     OW29776   2.959   6.360   0.328
 9626SOL    HW129777   2.895   6.330   0.399
 9626SOL    HW229778   3.044   6.308   0.335
 9627SOL     OW29779   7.000   5.757   3.130
 9627SOL    HW129780   6.990   5.732   3.227
 9627SOL    HW229781   0.062   5.812   3.118
 9628SOL     OW29782   5.551   5.127   0.215
 9628SOL    HW129783   5.496   5.075   0.281
 9628SOL    HW229784   5.567   5.071   0.134
 9629SOL     OW29785   0.602   6.507   2.657
 9629SOL    HW129786   0.505   6.518   2.634
 9629SOL    HW229787   0.646   6.597   2.658
 9630SOL     OW29788   6.494   6.229   5.885
 9630SOL    HW129789   6.434   6.278   5.950
 9630SOL    HW229790   6.584   6.216   5.927
 9631SOL     OW29791   6.170   6.953   6.906
 9631SOL    HW129792   6.141   6.859   6.884
 9631SOL    HW229793   6.115   6.987   6.982
 9632SOL     OW29794   2.226   5.262   2.755
 9632SOL    HW129795   2.264   5.194   2.692
 9632SOL    HW229796   2.178   5.332   2.703
 9633SOL     OW29797   5.258   5.193   0.066
 9633SOL    HW129798   5.284   5.151   0.153
 9633SOL    HW229799   5.227   5.287   0.082
 9634SOL     OW29800   0.856   6.994   4.041
 9634SOL    HW129801   0.775   6.976   4.097
 9634SOL    HW229802   0.846   6.950   3.952
 9635SOL     OW29803   1.266   4.686   5.570
 9635SOL    HW129804   1.305   4.758   5.513
 9635SOL    HW229805   1.241   4.723   5.659
 9636SOL     OW29806   3.897   1.931   6.188
 9636SOL    HW129807   3.798   1.937   6.199
 9636SOL    HW229808   3.936   2.022   6.188
 9637SOL     OW29809   2.973   1.773   6.779
 9637SOL    HW129810   2.899   1.712   6.751
 9637SOL    HW229811   2.971   1.856   6.723
 9638SOL     OW29812   6.927   3.407   6.871
 9638SOL    HW129813   6.864   3.485   6.877
 9638SOL    HW229814   6.882   3.325   6.907
 9639SOL     OW29815   3.797   1.605   2.086
 9639SOL    HW129816   3.825   1.514   2.117
 9639SOL    HW229817   3.867   1.672   2.111
 9640SOL     OW29818   3.214   1.835   2.836
 9640SOL    HW129819   3.174   1.882   2.915
 9640SOL    HW229820   3.146   1.830   2.763
 9641SOL     OW29821   5.397   6.032   0.901
 9641SOL    HW129822   5.495   6.030   0.920
 9641SOL    HW229823   5.352   6.090   0.969
 9642SOL     OW29824   3.076   6.222   5.104
 9642SOL    HW129825   3.077   6.147   5.170
 9642SOL    HW229826   3.149   6.287   5.126
 9643SOL     OW29827   5.963   4.542   4.402
 9643SOL    HW129828   5.909   4.558   4.320
 9643SOL    HW229829   6.043   4.602   4.401
 9644SOL     OW29830   1.001   5.073   5.209
 9644SOL    HW129831   1.042   5.149   5.160
 9644SOL    HW229832   0.905   5.065   5.183
 9645SOL     OW29833   3.933   4.950   4.039
 9645SOL    HW129834   3.852   4.984   4.086
 9645SOL    HW229835   4.008   4.938   4.105
 9646SOL     OW29836   2.784   4.730   2.249
 9646SOL    HW129837   2.770   4.684   2.161
 9646SOL    HW229838   2.737   4.680   2.321
 9647SOL     OW29839   6.656   5.376   1.443
 9647SOL    HW129840   6.573   5.400   1.493
 9647SOL    HW229841   6.706   5.460   1.420
 9648SOL     OW29842   3.648   1.985   0.049
 9648SOL    HW129843   3.607   2.047   7.003
 9648SOL    HW229844   3.645   1.891   0.013
 9649SOL     OW29845   2.804   5.650   0.177
 9649SOL    HW129846   2.767   5.695   0.259
 9649SOL    HW229847   2.811   5.717   0.104
 9650SOL     OW29848   4.992   4.762   3.250
 9650SOL    HW129849   5.031   4.713   3.172
 9650SOL    HW229850   5.064   4.782   3.316
 9651SOL     OW29851   6.855   0.671   6.760
 9651SOL    HW129852   6.756   0.688   6.762
 9651SOL    HW229853   6.872   0.573   6.746
 9652SOL     OW29854   2.068   4.473   0.411
 9652SOL    HW129855   2.089   4.521   0.496
 9652SOL    HW229856   2.137   4.496   0.342
 9653SOL     OW29857   4.233   5.358   5.190
 9653SOL    HW129858   4.248   5.457   5.191
 9653SOL    HW229859   4.145   5.338   5.147
 9654SOL     OW29860   3.945   3.502   1.639
 9654SOL    HW129861   3.908   3.536   1.726
 9654SOL    HW229862   4.043   3.523   1.636
 9655SOL     OW29863   0.053   1.791   0.033
 9655SOL    HW129864   0.010   1.715   0.081
 9655SOL    HW229865   0.105   1.756   6.976
 9656SOL     OW29866   3.567   2.392   1.024
 9656SOL    HW129867   3.628   2.313   1.027
 9656SOL    HW229868   3.529   2.409   1.115
 9657SOL     OW29869   6.269   2.148   3.479
 9657SOL    HW129870   6.327   2.081   3.435
 9657SOL    HW229871   6.194   2.173   3.417
 9658SOL     OW29872   6.171   1.477   2.533
 9658SOL    HW129873   6.133   1.410   2.469
 9658SOL    HW229874   6.113   1.558   2.534
 9659SOL     OW29875   0.207   3.958   0.376
 9659SOL    HW129876   0.160   4.010   0.305
 9659SOL    HW229877   0.254   3.879   0.335
 9660SOL     OW29878   0.736   5.905   1.274
 9660SOL    HW129879   0.764   5.868   1.363
 9660SOL    HW229880   0.817   5.933   1.222
 9661SOL     OW29881   3.731   6.545   1.787
 9661SOL    HW129882   3.805   6.530   1.722
 9661SOL    HW229883   3.768   6.585   1.871
 9662SOL     OW29884   4.911   2.956   5.193
 9662SOL    HW129885   4.910   2.856   5.185
 9662SOL    HW229886   4.912   2.996   5.101
 9663SOL     OW29887   0.669   6.454   4.443
 9663SOL    HW129888   0.724   6.531   4.411
 9663SOL    HW229889   0.639   6.470   4.537
 9664SOL     OW29890   5.996   6.658   3.981
 9664SOL    HW129891   5.939   6.739   3.969
 9664SOL    HW229892   6.043   6.638   3.895
 9665SOL     OW29893   5.500   5.803   6.732
 9665SOL    HW129894   5.472   5.708   6.714
 9665SOL    HW229895   5.480   5.826   6.827
 9666SOL     OW29896   5.710   4.082   1.379
 9666SOL    HW129897   5.716   4.176   1.346
 9666SOL    HW229898   5.781   4.026   1.337
 9667SOL     OW29899   3.453   3.671   4.802
 9667SOL    HW129900   3.540   3.636   4.838
 9667SOL    HW229901   3.427   3.752   4.855
 9668SOL     OW29902   6.529   1.532   6.749
 9668SOL    HW129903   6.618   1.562   6.781
 9668SOL    HW229904   6.515   1.436   6.773
 9669SOL     OW29905   1.527   0.100   2.216
 9669SOL    HW129906   1.585   0.146   2.148
 9669SOL    HW229907   1.462   0.165   2.254
 9670SOL     OW29908   5.492   4.888   6.281
 9670SOL    HW129909   5.579   4.912   6.237
 9670SOL    HW229910   5.458   4.967   6.332
 9671SOL     OW29911   5.986   5.561   6.857
 9671SOL    HW129912   5.899   5.572   6.904
 9671SOL    HW229913   6.047   5.505   6.912
 9672SOL     OW29914   1.086   5.827   4.494
 9672SOL    HW129915   1.018   5.849   4.564
 9672SOL    HW229916   1.166   5.786   4.538
 9673SOL     OW29917   5.945   3.892   0.374
 9673SOL    HW129918   6.032   3.843   0.369
 9673SOL    HW229919   5.880   3.838   0.428
 9674SOL     OW29920   2.520   5.754   3.237
 9674SOL    HW129921   2.526   5.669   3.184
 9674SOL    HW229922   2.442   5.749   3.299
 9675SOL     OW29923   6.029   2.148   0.498
 9675SOL    HW129924   6.086   2.086   0.553
 9675SOL    HW229925   5.967   2.198   0.559
 9676SOL     OW29926   1.083   3.661   5.265
 9676SOL    HW129927   1.091   3.674   5.364
 9676SOL    HW229928   1.041   3.572   5.246
 9677SOL     OW29929   1.713   5.742   5.267
 9677SOL    HW129930   1.665   5.823   5.233
 9677SOL    HW229931   1.795   5.770   5.316
 9678SOL     OW29932   3.230   3.335   3.175
 9678SOL    HW129933   3.131   3.330   3.160
 9678SOL    HW229934   3.265   3.244   3.196
 9679SOL     OW29935   2.349   1.090   2.561
 9679SOL    HW129936   2.301   1.082   2.648
 9679SOL    HW229937   2.349   1.185   2.531
 9680SOL     OW29938   5.828   0.705   3.044
 9680SOL    HW129939   5.889   0.716   3.123
 9680SOL    HW229940   5.781   0.791   3.026
 9681SOL     OW29941   3.600   1.427   0.021
 9681SOL    HW129942   3.562   1.490   0.088
 9681SOL    HW229943   3.670   1.473   6.988
 9682SOL     OW29944   5.019   5.020   4.042
 9682SOL    HW129945   4.921   5.004   4.038
 9682SOL    HW229946   5.045   5.090   3.975
 9683SOL     OW29947   2.882   5.354   1.065
 9683SOL    HW129948   2.803   5.398   1.022
 9683SOL    HW229949   2.941   5.314   0.995
 9684SOL     OW29950   0.539   2.587   5.017
 9684SOL    HW129951   0.610   2.643   4.974
 9684SOL    HW229952   0.501   2.636   5.096
 9685SOL     OW29953   1.806   3.902   1.323
 9685SOL    HW129954   1.760   3.991   1.326
 9685SOL    HW229955   1.798   3.863   1.231
 9686SOL     OW29956   7.019   1.242   0.380
 9686SOL    HW129957   0.041   1.262   0.468
 9686SOL    HW229958   0.063   1.260   0.306
 9687SOL     OW29959   2.190   0.586   4.337
 9687SOL    HW129960   2.285   0.614   4.354
 9687SOL    HW229961   2.183   0.487   4.343
 9688SOL     OW29962   6.657   2.154   2.766
 9688SOL    HW129963   6.706   2.081   2.717
 9688SOL    HW229964   6.646   2.128   2.862
 9689SOL     OW29965   2.034   6.198   0.481
 9689SOL    HW129966   2.065   6.104   0.477
 9689SOL    HW229967   2.098   6.252   0.535
 9690SOL     OW29968   5.830   6.032   6.399
 9690SOL    HW129969   5.897   5.963   6.368
 9690SOL    HW229970   5.779   5.995   6.476
 9691SOL     OW29971   3.114   4.821   2.077
 9691SOL    HW129972   3.214   4.826   2.070
 9691SOL    HW229973   3.086   4.826   2.173
 9692SOL     OW29974   3.450   5.254   3.070
 9692SOL    HW129975   3.482   5.241   2.976
 9692SOL    HW229976   3.421   5.167   3.108
 9693SOL     OW29977   6.298   5.798   1.527
 9693SOL    HW129978   6.391   5.789   1.563
 9693SOL    HW229979   6.244   5.855   1.589
 9694SOL     OW29980   2.407   1.197   0.030
 9694SOL    HW129981   2.503   1.186   0.005
 9694SOL    HW229982   2.353   1.123   7.011
 9695SOL     OW29983   7.010   3.305   1.753
 9695SOL    HW129984   0.024   3.236   1.690
 9695SOL    HW229985   6.926   3.271   1.795
 9696SOL     OW29986   4.830   3.429   0.996
 9696SOL    HW129987   4.762   3.502   1.011
 9696SOL    HW229988   4.909   3.468   0.948
 9697SOL     OW29989   6.886   6.266   6.428
 9697SOL    HW129990   6.871   6.364   6.431
 9697SOL    HW229991   6.825   6.224   6.361
 9698SOL     OW29992   4.849   1.812   6.106
 9698SOL    HW129993   4.923   1.879   6.099
 9698SOL    HW229994   4.796   1.813   6.021
 9699SOL     OW29995   0.218   5.042   6.554
 9699SOL    HW129996   0.123   5.064   6.529
 9699SOL    HW229997   0.280   5.077   6.483
 9700SOL     OW29998   4.338   5.128   4.963
 9700SOL    HW129999   4.342   5.227   4.948
 9700SOL    HW230000   4.418   5.085   4.920
 9701SOL     OW30001   3.633   5.174   4.869
 9701SOL    HW130002   3.662   5.086   4.907
 9701SOL    HW230003   3.670   5.248   4.926
 9702SOL     OW30004   5.257   0.837   0.068
 9702SOL    HW130005   5.339   0.882   0.032
 9702SOL    HW230006   5.267   0.823   0.166
 9703SOL     OW30007   4.221   5.134   4.306
 9703SOL    HW130008   4.299   5.073   4.321
 9703SOL    HW230009   4.244   5.226   4.338
 9704SOL     OW30010   2.475   0.893   3.451
 9704SOL    HW130011   2.422   0.964   3.498
 9704SOL    HW230012   2.413   0.823   3.417
 9705SOL     OW30013   4.991   5.375   6.599
 9705SOL    HW130014   4.982   5.353   6.502
 9705SOL    HW230015   5.000   5.474   6.610
 9706SOL     OW30016   0.891   2.752   0.975
 9706SOL    HW130017   0.799   2.772   1.007
 9706SOL    HW230018   0.919   2.662   1.007
 9707SOL     OW30019   6.297   4.339   1.540
 9707SOL    HW130020   6.285   4.396   1.622
 9707SOL    HW230021   6.356   4.387   1.475
 9708SOL     OW30022   1.515   2.054   2.554
 9708SOL    HW130023   1.444   2.004   2.504
 9708SOL    HW230024   1.477   2.141   2.586
 9709SOL     OW30025   5.802   6.038   2.931
 9709SOL    HW130026   5.881   5.978   2.943
 9709SOL    HW230027   5.786   6.054   2.834
 9710SOL     OW30028   0.629   1.783   1.728
 9710SOL    HW130029   0.578   1.817   1.649
 9710SOL    HW230030   0.702   1.723   1.697
 9711SOL     OW30031   2.499   4.410   6.432
 9711SOL    HW130032   2.590   4.368   6.428
 9711SOL    HW230033   2.431   4.338   6.444
 9712SOL     OW30034   6.065   4.769   5.942
 9712SOL    HW130035   6.012   4.686   5.924
 9712SOL    HW230036   6.090   4.813   5.855
 9713SOL     OW30037   1.371   5.016   3.702
 9713SOL    HW130038   1.372   4.988   3.605
 9713SOL    HW230039   1.277   5.009   3.737
 9714SOL     OW30040   3.121   1.079   1.188
 9714SOL    HW130041   3.065   1.034   1.118
 9714SOL    HW230042   3.082   1.063   1.278
 9715SOL     OW30043   5.323   4.063   6.166
 9715SOL    HW130044   5.274   3.977   6.180
 9715SOL    HW230045   5.355   4.098   6.254
 9716SOL     OW30046   4.179   2.836   6.541
 9716SOL    HW130047   4.269   2.833   6.585
 9716SOL    HW230048   4.178   2.774   6.462
 9717SOL     OW30049   5.521   5.608   5.761
 9717SOL    HW130050   5.526   5.632   5.664
 9717SOL    HW230051   5.534   5.690   5.816
 9718SOL     OW30052   5.085   2.568   1.200
 9718SOL    HW130053   5.016   2.511   1.246
 9718SOL    HW230054   5.042   2.618   1.125
 9719SOL     OW30055   0.110   2.178   6.632
 9719SOL    HW130056   0.027   2.205   6.681
 9719SOL    HW230057   0.185   2.168   6.697
 9720SOL     OW30058   6.772   5.377   2.167
 9720SOL    HW130059   6.843   5.422   2.113
 9720SOL    HW230060   6.683   5.419   2.146
 9721SOL     OW30061   0.251   3.376   1.292
 9721SOL    HW130062   0.301   3.337   1.215
 9721SOL    HW230063   0.282   3.333   1.377
 9722SOL     OW30064   6.864   0.410   4.130
 9722SOL    HW130065   6.956   0.427   4.167
 9722SOL    HW230066   6.870   0.389   4.032
 9723SOL     OW30067   2.449   6.368   3.431
 9723SOL    HW130068   2.521   6.313   3.390
 9723SOL    HW230069   2.417   6.325   3.516
 9724SOL     OW30070   2.032   3.271   0.358
 9724SOL    HW130071   2.080   3.276   0.445
 9724SOL    HW230072   2.035   3.178   0.322
 9725SOL     OW30073   3.429   4.523   6.534
 9725SOL    HW130074   3.336   4.487   6.529
 9725SOL    HW230075   3.450   4.574   6.450
 9726SOL     OW30076   5.215   0.797   4.009
 9726SOL    HW130077   5.124   0.773   3.976
 9726SOL    HW230078   5.265   0.845   3.937
 9727SOL     OW30079   0.773   3.513   5.557
 9727SOL    HW130080   0.691   3.558   5.591
 9727SOL    HW230081   0.821   3.469   5.633
 9728SOL     OW30082   0.265   0.460   6.278
 9728SOL    HW130083   0.222   0.436   6.365
 9728SOL    HW230084   0.265   0.380   6.218
 9729SOL     OW30085   1.101   4.076   3.083
 9729SOL    HW130086   1.176   4.143   3.086
 9729SOL    HW230087   1.133   3.991   3.042
 9730SOL     OW30088   0.606   3.598   2.957
 9730SOL    HW130089   0.565   3.530   3.018
 9730SOL    HW230090   0.590   3.689   2.993
 9731SOL     OW30091   4.421   4.107   1.013
 9731SOL    HW130092   4.349   4.150   0.959
 9731SOL    HW230093   4.503   4.163   1.010
 9732SOL     OW30094   5.478   5.674   3.041
 9732SOL    HW130095   5.509   5.766   3.020
 9732SOL    HW230096   5.487   5.657   3.139
 9733SOL     OW30097   5.683   4.903   0.784
 9733SOL    HW130098   5.758   4.948   0.831
 9733SOL    HW230099   5.697   4.804   0.785
 9734SOL     OW30100   6.261   1.309   2.756
 9734SOL    HW130101   6.314   1.239   2.708
 9734SOL    HW230102   6.214   1.367   2.690
 9735SOL     OW30103   2.079   4.482   3.226
 9735SOL    HW130104   2.118   4.492   3.317
 9735SOL    HW230105   2.113   4.398   3.183
 9736SOL     OW30106   5.936   1.589   5.964
 9736SOL    HW130107   5.936   1.631   6.055
 9736SOL    HW230108   5.975   1.652   5.898
 9737SOL     OW30109   6.500   3.134   4.373
 9737SOL    HW130110   6.535   3.080   4.450
 9737SOL    HW230111   6.431   3.199   4.407
 9738SOL     OW30112   1.788   0.098   1.943
 9738SOL    HW130113   1.724   0.128   1.873
 9738SOL    HW230114   1.776   0.001   1.961
 9739SOL     OW30115   5.933   5.238   2.494
 9739SOL    HW130116   5.853   5.229   2.554
 9739SOL    HW230117   6.011   5.189   2.535
 9740SOL     OW30118   6.253   2.064   3.738
 9740SOL    HW130119   6.267   2.121   3.657
 9740SOL    HW230120   6.164   2.018   3.733
 9741SOL     OW30121   5.000   1.914   2.733
 9741SOL    HW130122   4.940   1.956   2.666
 9741SOL    HW230123   5.071   1.979   2.760
 9742SOL     OW30124   3.774   0.539   1.679
 9742SOL    HW130125   3.697   0.547   1.615
 9742SOL    HW230126   3.804   0.444   1.681
 9743SOL     OW30127   0.977   2.037   4.379
 9743SOL    HW130128   1.035   1.965   4.341
 9743SOL    HW230129   0.995   2.045   4.477
 9744SOL     OW30130   0.384   0.226   2.550
 9744SOL    HW130131   0.347   0.233   2.457
 9744SOL    HW230132   0.361   0.309   2.601
 9745SOL     OW30133   6.292   3.277   6.236
 9745SOL    HW130134   6.353   3.349   6.204
 9745SOL    HW230135   6.198   3.298   6.210
 9746SOL     OW30136   6.547   0.750   5.992
 9746SOL    HW130137   6.513   0.807   5.918
 9746SOL    HW230138   6.472   0.726   6.054
 9747SOL     OW30139   1.548   0.186   1.768
 9747SOL    HW130140   1.529   0.207   1.672
 9747SOL    HW230141   1.479   0.122   1.802
 9748SOL     OW30142   0.960   1.495   3.846
 9748SOL    HW130143   0.931   1.548   3.925
 9748SOL    HW230144   0.987   1.557   3.772
 9749SOL     OW30145   2.171   2.020   5.236
 9749SOL    HW130146   2.138   1.928   5.214
 9749SOL    HW230147   2.202   2.065   5.153
 9750SOL     OW30148   5.454   4.755   3.658
 9750SOL    HW130149   5.474   4.846   3.620
 9750SOL    HW230150   5.498   4.746   3.747
 9751SOL     OW30151   1.776   1.031   0.203
 9751SOL    HW130152   1.872   1.049   0.222
 9751SOL    HW230153   1.761   0.932   0.196
 9752SOL     OW30154   5.417   2.209   6.837
 9752SOL    HW130155   5.382   2.286   6.785
 9752SOL    HW230156   5.501   2.174   6.794
 9753SOL     OW30157   6.237   5.660   5.674
 9753SOL    HW130158   6.278   5.722   5.607
 9753SOL    HW230159   6.186   5.713   5.742
 9754SOL     OW30160   1.080   1.707   6.357
 9754SOL    HW130161   1.076   1.617   6.315
 9754SOL    HW230162   1.046   1.701   6.451
 9755SOL     OW30163   4.085   3.868   5.370
 9755SOL    HW130164   4.019   3.833   5.303
 9755SOL    HW230165   4.066   3.964   5.388
 9756SOL     OW30166   5.958   3.408   0.180
 9756SOL    HW130167   5.913   3.361   0.256
 9756SOL    HW230168   5.995   3.342   0.116
 9757SOL     OW30169   5.681   3.609   3.362
 9757SOL    HW130170   5.707   3.703   3.339
 9757SOL    HW230171   5.713   3.547   3.291
 9758SOL     OW30172   2.534   0.112   6.877
 9758SOL    HW130173   2.468   0.040   6.900
 9758SOL    HW230174   2.521   0.190   6.939
 9759SOL     OW30175   2.366   6.646   0.017
 9759SOL    HW130176   2.320   6.557   0.016
 9759SOL    HW230177   2.301   6.718   7.012
 9760SOL     OW30178   4.607   3.351   5.348
 9760SOL    HW130179   4.634   3.419   5.280
 9760SOL    HW230180   4.677   3.280   5.354
 9761SOL     OW30181   5.805   0.388   1.916
 9761SOL    HW130182   5.850   0.306   1.879
 9761SOL    HW230183   5.861   0.468   1.894
 9762SOL     OW30184   2.736   1.912   4.236
 9762SOL    HW130185   2.685   1.986   4.280
 9762SOL    HW230186   2.821   1.948   4.198
 9763SOL     OW30187   4.687   1.916   1.756
 9763SOL    HW130188   4.627   1.949   1.829
 9763SOL    HW230189   4.758   1.984   1.738
 9764SOL     OW30190   1.004   2.766   3.285
 9764SOL    HW130191   0.999   2.669   3.261
 9764SOL    HW230192   0.912   2.805   3.285
 9765SOL     OW30193   6.595   1.514   2.748
 9765SOL    HW130194   6.551   1.453   2.814
 9765SOL    HW230195   6.619   1.600   2.793
 9766SOL     OW30196   2.847   0.245   3.327
 9766SOL    HW130197   2.844   0.305   3.246
 9766SOL    HW230198   2.820   0.153   3.301
 9767SOL     OW30199   5.056   1.898   5.566
 9767SOL    HW130200   4.967   1.853   5.560
 9767SOL    HW230201   5.058   1.976   5.502
 9768SOL     OW30202   4.781   1.555   2.367
 9768SOL    HW130203   4.794   1.644   2.411
 9768SOL    HW230204   4.777   1.568   2.268
 9769SOL     OW30205   2.257   0.890   2.351
 9769SOL    HW130206   2.301   0.827   2.287
 9769SOL    HW230207   2.327   0.941   2.401
 9770SOL     OW30208   5.249   0.514   6.819
 9770SOL    HW130209   5.345   0.539   6.828
 9770SOL    HW230210   5.202   0.530   6.906
 9771SOL     OW30211   3.357   4.994   1.283
 9771SOL    HW130212   3.408   4.991   1.368
 9771SOL    HW230213   3.345   5.089   1.254
 9772SOL     OW30214   1.586   6.096   3.084
 9772SOL    HW130215   1.605   6.177   3.029
 9772SOL    HW230216   1.583   6.016   3.024
 9773SOL     OW30217   5.236   6.710   4.630
 9773SOL    HW130218   5.313   6.712   4.694
 9773SOL    HW230219   5.213   6.804   4.603
 9774SOL     OW30220   6.151   4.826   1.472
 9774SOL    HW130221   6.083   4.889   1.433
 9774SOL    HW230222   6.140   4.823   1.571
 9775SOL     OW30223   2.556   1.147   3.705
 9775SOL    HW130224   2.595   1.139   3.613
 9775SOL    HW230225   2.622   1.192   3.765
 9776SOL     OW30226   0.214   5.671   4.407
 9776SOL    HW130227   0.221   5.640   4.502
 9776SOL    HW230228   0.304   5.672   4.365
 9777SOL     OW30229   5.425   4.745   5.939
 9777SOL    HW130230   5.328   4.738   5.958
 9777SOL    HW230231   5.471   4.794   6.014
 9778SOL     OW30232   0.720   0.799   3.089
 9778SOL    HW130233   0.766   0.887   3.079
 9778SOL    HW230234   0.724   0.770   3.185
 9779SOL     OW30235   2.094   1.274   5.088
 9779SOL    HW130236   2.027   1.244   5.155
 9779SOL    HW230237   2.113   1.200   5.023
 9780SOL     OW30238   2.493   1.893   1.097
 9780SOL    HW130239   2.566   1.834   1.131
 9780SOL    HW230240   2.448   1.939   1.174
 9781SOL     OW30241   1.197   3.746   4.351
 9781SOL    HW130242   1.293   3.757   4.322
 9781SOL    HW230243   1.188   3.777   4.446
 9782SOL     OW30244   6.813   0.613   1.378
 9782SOL    HW130245   6.870   0.690   1.351
 9782SOL    HW230246   6.857   0.527   1.350
 9783SOL     OW30247   5.324   2.337   2.974
 9783SOL    HW130248   5.385   2.267   2.938
 9783SOL    HW230249   5.331   2.420   2.918
 9784SOL     OW30250   3.367   1.552   3.737
 9784SOL    HW130251   3.430   1.476   3.754
 9784SOL    HW230252   3.361   1.569   3.639
 9785SOL     OW30253   6.974   4.010   5.421
 9785SOL    HW130254   6.915   4.085   5.450
 9785SOL    HW230255   6.928   3.923   5.435
 9786SOL     OW30256   1.993   5.156   6.360
 9786SOL    HW130257   2.020   5.081   6.422
 9786SOL    HW230258   1.933   5.120   6.289
 9787SOL     OW30259   4.628   3.502   1.720
 9787SOL    HW130260   4.709   3.510   1.662
 9787SOL    HW230261   4.581   3.416   1.702
 9788SOL     OW30262   0.160   0.612   3.553
 9788SOL    HW130263   0.086   0.671   3.520
 9788SOL    HW230264   0.123   0.548   3.621
 9789SOL     OW30265   1.259   5.969   6.689
 9789SOL    HW130266   1.352   5.965   6.726
 9789SOL    HW230267   1.258   5.930   6.597
 9790SOL     OW30268   5.407   4.239   5.936
 9790SOL    HW130269   5.501   4.206   5.927
 9790SOL    HW230270   5.357   4.181   6.000
 9791SOL     OW30271   0.287   1.769   2.926
 9791SOL    HW130272   0.347   1.694   2.954
 9791SOL    HW230273   0.253   1.752   2.834
 9792SOL     OW30274   5.453   5.545   1.976
 9792SOL    HW130275   5.511   5.470   2.006
 9792SOL    HW230276   5.412   5.590   2.056
 9793SOL     OW30277   5.558   5.185   3.363
 9793SOL    HW130278   5.603   5.250   3.425
 9793SOL    HW230279   5.534   5.102   3.414
 9794SOL     OW30280   6.394   4.454   6.460
 9794SOL    HW130281   6.441   4.453   6.372
 9794SOL    HW230282   6.365   4.547   6.482
 9795SOL     OW30283   1.440   1.971   3.935
 9795SOL    HW130284   1.374   2.024   3.988
 9795SOL    HW230285   1.512   1.937   3.996
 9796SOL     OW30286   4.210   2.964   1.206
 9796SOL    HW130287   4.232   2.894   1.273
 9796SOL    HW230288   4.292   2.986   1.153
 9797SOL     OW30289   3.583   4.742   6.346
 9797SOL    HW130290   3.678   4.729   6.372
 9797SOL    HW230291   3.576   4.757   6.247
 9798SOL     OW30292   2.285   0.812   1.010
 9798SOL    HW130293   2.318   0.900   0.977
 9798SOL    HW230294   2.360   0.746   1.007
 9799SOL     OW30295   3.509   3.479   3.358
 9799SOL    HW130296   3.508   3.380   3.372
 9799SOL    HW230297   3.533   3.499   3.263
 9800SOL     OW30298   2.924   6.447   5.458
 9800SOL    HW130299   3.012   6.483   5.490
 9800SOL    HW230300   2.916   6.351   5.483
 9801SOL     OW30301   4.579   4.555   0.365
 9801SOL    HW130302   4.482   4.575   0.350
 9801SOL    HW230303   4.613   4.610   0.442
 9802SOL     OW30304   0.607   2.564   2.521
 9802SOL    HW130305   0.663   2.499   2.470
 9802SOL    HW230306   0.666   2.632   2.563
 9803SOL     OW30307   6.094   1.539   6.910
 9803SOL    HW130308   6.075   1.637   6.905
 9803SOL    HW230309   6.066   1.495   6.824
 9804SOL     OW30310   0.827   5.698   3.300
 9804SOL    HW130311   0.822   5.798   3.299
 9804SOL    HW230312   0.743   5.660   3.261
 9805SOL     OW30313   1.257   6.154   5.681
 9805SOL    HW130314   1.231   6.226   5.617
 9805SOL    HW230315   1.354   6.131   5.668
 9806SOL     OW30316   1.082   1.813   0.274
 9806SOL    HW130317   1.170   1.840   0.235
 9806SOL    HW230318   1.092   1.803   0.373
 9807SOL     OW30319   1.983   2.755   0.053
 9807SOL    HW130320   1.977   2.828   7.006
 9807SOL    HW230321   2.065   2.769   0.110
 9808SOL     OW30322   5.809   1.049   5.714
 9808SOL    HW130323   5.834   1.145   5.724
 9808SOL    HW230324   5.810   1.004   5.803
 9809SOL     OW30325   1.145   2.027   6.260
 9809SOL    HW130326   1.155   2.121   6.228
 9809SOL    HW230327   1.211   2.009   6.332
 9810SOL     OW30328   2.854   2.329   3.968
 9810SOL    HW130329   2.791   2.373   3.904
 9810SOL    HW230330   2.807   2.312   4.055
 9811SOL     OW30331   5.983   5.621   4.330
 9811SOL    HW130332   5.996   5.711   4.372
 9811SOL    HW230333   5.906   5.575   4.375
 9812SOL     OW30334   3.206   2.560   6.288
 9812SOL    HW130335   3.200   2.581   6.190
 9812SOL    HW230336   3.166   2.635   6.340
 9813SOL     OW30337   5.732   6.742   6.860
 9813SOL    HW130338   5.693   6.758   6.951
 9813SOL    HW230339   5.768   6.649   6.855
 9814SOL     OW30340   0.817   1.224   6.731
 9814SOL    HW130341   0.814   1.280   6.814
 9814SOL    HW230342   0.842   1.281   6.653
 9815SOL     OW30343   6.643   3.134   2.230
 9815SOL    HW130344   6.569   3.200   2.221
 9815SOL    HW230345   6.616   3.062   2.294
 9816SOL     OW30346   6.699   1.244   6.015
 9816SOL    HW130347   6.720   1.173   6.082
 9816SOL    HW230348   6.691   1.332   6.061
 9817SOL     OW30349   3.308   5.558   2.238
 9817SOL    HW130350   3.232   5.615   2.269
 9817SOL    HW230351   3.275   5.492   2.172
 9818SOL     OW30352   1.857   1.276   3.932
 9818SOL    HW130353   1.763   1.244   3.928
 9818SOL    HW230354   1.909   1.237   3.856
 9819SOL     OW30355   5.144   3.086   5.299
 9819SOL    HW130356   5.046   3.068   5.298
 9819SOL    HW230357   5.165   3.150   5.373
 9820SOL     OW30358   3.411   3.140   6.414
 9820SOL    HW130359   3.433   3.043   6.426
 9820SOL    HW230360   3.381   3.177   6.502
 9821SOL     OW30361   4.141   1.323   0.877
 9821SOL    HW130362   4.122   1.229   0.849
 9821SOL    HW230363   4.239   1.333   0.895
 9822SOL     OW30364   3.575   5.822   4.003
 9822SOL    HW130365   3.528   5.735   3.989
 9822SOL    HW230366   3.507   5.895   4.009
 9823SOL     OW30367   1.871   0.230   2.283
 9823SOL    HW130368   1.870   0.224   2.383
 9823SOL    HW230369   1.956   0.189   2.248
 9824SOL     OW30370   2.104   6.156   5.074
 9824SOL    HW130371   2.024   6.215   5.084
 9824SOL    HW230372   2.075   6.061   5.065
 9825SOL     OW30373   5.769   6.159   4.987
 9825SOL    HW130374   5.762   6.202   4.897
 9825SOL    HW230375   5.850   6.100   4.990
 9826SOL     OW30376   3.720   6.413   5.488
 9826SOL    HW130377   3.802   6.370   5.524
 9826SOL    HW230378   3.739   6.451   5.397
 9827SOL     OW30379   1.921   3.846   3.298
 9827SOL    HW130380   1.911   3.904   3.379
 9827SOL    HW230381   1.866   3.882   3.224
 9828SOL     OW30382   3.146   2.209   4.773
 9828SOL    HW130383   3.151   2.224   4.871
 9828SOL    HW230384   3.069   2.262   4.735
 9829SOL     OW30385   4.673   5.575   6.212
 9829SOL    HW130386   4.727   5.649   6.252
 9829SOL    HW230387   4.661   5.503   6.279
 9830SOL     OW30388   5.196   1.804   1.468
 9830SOL    HW130389   5.286   1.760   1.461
 9830SOL    HW230390   5.126   1.744   1.430
 9831SOL     OW30391   0.799   4.594   1.989
 9831SOL    HW130392   0.764   4.675   1.941
 9831SOL    HW230393   0.789   4.514   1.930
 9832SOL     OW30394   4.421   5.699   3.203
 9832SOL    HW130395   4.506   5.745   3.231
 9832SOL    HW230396   4.405   5.715   3.106
 9833SOL     OW30397   3.436   2.846   3.268
 9833SOL    HW130398   3.345   2.866   3.306
 9833SOL    HW230399   3.459   2.914   3.199
 9834SOL     OW30400   1.939   4.740   5.664
 9834SOL    HW130401   2.016   4.781   5.615
 9834SOL    HW230402   1.853   4.774   5.624
 9835SOL     OW30403   3.888   3.304   4.624
 9835SOL    HW130404   3.797   3.266   4.607
 9835SOL    HW230405   3.879   3.397   4.661
 9836SOL     OW30406   0.426   4.603   4.686
 9836SOL    HW130407   0.413   4.512   4.726
 9836SOL    HW230408   0.466   4.593   4.595
 9837SOL     OW30409   5.739   0.953   2.429
 9837SOL    HW130410   5.766   1.003   2.347
 9837SOL    HW230411   5.696   0.866   2.403
 9838SOL     OW30412   1.426   6.937   0.870
 9838SOL    HW130413   1.480   6.873   0.925
 9838SOL    HW230414   1.470   0.006   0.872
 9839SOL     OW30415   4.445   7.020   3.174
 9839SOL    HW130416   4.365   0.057   3.160
 9839SOL    HW230417   4.415   6.925   3.188
 9840SOL     OW30418   4.701   1.789   0.380
 9840SOL    HW130419   4.789   1.745   0.362
 9840SOL    HW230420   4.639   1.724   0.424
 9841SOL     OW30421   0.915   4.756   3.234
 9841SOL    HW130422   0.848   4.822   3.198
 9841SOL    HW230423   0.884   4.724   3.323
 9842SOL     OW30424   3.750   3.223   0.268
 9842SOL    HW130425   3.751   3.136   0.317
 9842SOL    HW230426   3.661   3.234   0.223
 9843SOL     OW30427   0.052   0.173   1.894
 9843SOL    HW130428   0.083   0.079   1.903
 9843SOL    HW230429   0.063   0.221   1.982
 9844SOL     OW30430   6.019   0.966   4.058
 9844SOL    HW130431   6.015   0.965   4.158
 9844SOL    HW230432   6.027   0.872   4.024
 9845SOL     OW30433   1.224   2.691   2.703
 9845SOL    HW130434   1.306   2.634   2.696
 9845SOL    HW230435   1.155   2.658   2.639
 9846SOL     OW30436   4.908   1.464   0.517
 9846SOL    HW130437   4.881   1.526   0.443
 9846SOL    HW230438   4.920   1.372   0.479
 9847SOL     OW30439   3.986   3.097   2.355
 9847SOL    HW130440   3.935   3.057   2.432
 9847SOL    HW230441   4.044   3.171   2.388
 9848SOL     OW30442   3.761   4.826   5.278
 9848SOL    HW130443   3.737   4.739   5.321
 9848SOL    HW230444   3.680   4.884   5.274
 9849SOL     OW30445   0.828   6.665   6.987
 9849SOL    HW130446   0.809   6.574   6.951
 9849SOL    HW230447   0.748   6.700   0.014
 9850SOL     OW30448   6.906   0.426   3.282
 9850SOL    HW130449   6.907   0.525   3.264
 9850SOL    HW230450   6.817   0.400   3.318
 9851SOL     OW30451   3.176   6.464   4.391
 9851SOL    HW130452   3.089   6.456   4.439
 9851SOL    HW230453   3.174   6.406   4.309
 9852SOL     OW30454   1.530   1.225   5.069
 9852SOL    HW130455   1.565   1.285   4.997
 9852SOL    HW230456   1.553   1.130   5.047
 9853SOL     OW30457   6.893   3.316   5.403
 9853SOL    HW130458   6.916   3.228   5.446
 9853SOL    HW230459   6.810   3.352   5.445
 9854SOL     OW30460   0.830   5.482   4.889
 9854SOL    HW130461   0.773   5.561   4.910
 9854SOL    HW230462   0.885   5.502   4.808
 9855SOL     OW30463   1.087   3.160   1.063
 9855SOL    HW130464   1.042   3.224   1.126
 9855SOL    HW230465   1.185   3.158   1.084
 9856SOL     OW30466   5.408   4.725   4.009
 9856SOL    HW130467   5.345   4.784   4.060
 9856SOL    HW230468   5.503   4.747   4.035
 9857SOL     OW30469   5.645   3.273   2.668
 9857SOL    HW130470   5.582   3.336   2.712
 9857SOL    HW230471   5.679   3.207   2.736
 9858SOL     OW30472   0.864   6.414   1.704
 9858SOL    HW130473   0.846   6.485   1.773
 9858SOL    HW230474   0.830   6.445   1.615
 9859SOL     OW30475   6.726   4.681   4.629
 9859SOL    HW130476   6.656   4.694   4.700
 9859SOL    HW230477   6.725   4.585   4.599
 9860SOL     OW30478   1.471   2.322   5.117
 9860SOL    HW130479   1.566   2.293   5.105
 9860SOL    HW230480   1.429   2.337   5.027
 9861SOL     OW30481   3.209   0.704   3.472
 9861SOL    HW130482   3.232   0.619   3.425
 9861SOL    HW230483   3.116   0.731   3.446
 9862SOL     OW30484   2.644   3.909   0.778
 9862SOL    HW130485   2.556   3.868   0.753
 9862SOL    HW230486   2.715   3.877   0.716
 9863SOL     OW30487   3.121   5.791   1.083
 9863SOL    HW130488   3.191   5.787   1.155
 9863SOL    HW230489   3.044   5.733   1.109
 9864SOL     OW30490   2.855   0.580   5.569
 9864SOL    HW130491   2.943   0.564   5.524
 9864SOL    HW230492   2.817   0.493   5.600
 9865SOL     OW30493   0.741   6.244   4.773
 9865SOL    HW130494   0.747   6.150   4.739
 9865SOL    HW230495   0.788   6.250   4.861
 9866SOL     OW30496   6.298   4.072   5.024
 9866SOL    HW130497   6.366   4.090   4.953
 9866SOL    HW230498   6.342   4.022   5.099
 9867SOL     OW30499   6.476   2.344   2.711
 9867SOL    HW130500   6.543   2.271   2.720
 9867SOL    HW230501   6.461   2.387   2.800
 9868SOL     OW30502   0.647   3.517   4.261
 9868SOL    HW130503   0.569   3.577   4.277
 9868SOL    HW230504   0.729   3.558   4.302
 9869SOL     OW30505   0.757   2.919   1.258
 9869SOL    HW130506   0.851   2.900   1.229
 9869SOL    HW230507   0.756   2.951   1.352
 9870SOL     OW30508   4.080   0.387   2.878
 9870SOL    HW130509   4.043   0.368   2.969
 9870SOL    HW230510   4.177   0.410   2.886
 9871SOL     OW30511   0.019   3.440   6.070
 9871SOL    HW130512   7.011   3.356   6.116
 9871SOL    HW230513   0.024   3.514   6.136
 9872SOL     OW30514   2.104   5.650   5.099
 9872SOL    HW130515   2.201   5.671   5.096
 9872SOL    HW230516   2.086   5.581   5.170
 9873SOL     OW30517   2.062   2.056   5.957
 9873SOL    HW130518   2.077   2.155   5.962
 9873SOL    HW230519   1.972   2.038   5.917
 9874SOL     OW30520   0.096   3.319   4.729
 9874SOL    HW130521   0.136   3.402   4.766
 9874SOL    HW230522   0.051   3.268   4.802
 9875SOL     OW30523   6.887   5.566   2.352
 9875SOL    HW130524   6.887   5.656   2.308
 9875SOL    HW230525   6.821   5.507   2.306
 9876SOL     OW30526   5.083   0.502   4.354
 9876SOL    HW130527   5.053   0.408   4.368
 9876SOL    HW230528   5.008   0.557   4.318
 9877SOL     OW30529   6.957   4.454   4.426
 9877SOL    HW130530   6.872   4.507   4.429
 9877SOL    HW230531   7.016   4.490   4.354
 9878SOL     OW30532   2.203   3.874   6.557
 9878SOL    HW130533   2.147   3.806   6.510
 9878SOL    HW230534   2.248   3.932   6.489
 9879SOL     OW30535   0.568   4.666   5.560
 9879SOL    HW130536   0.538   4.575   5.588
 9879SOL    HW230537   0.651   4.691   5.610
 9880SOL     OW30538   2.549   0.789   0.293
 9880SOL    HW130539   2.640   0.806   0.254
 9880SOL    HW230540   2.495   0.874   0.288
 9881SOL     OW30541   5.956   0.969   4.778
 9881SOL    HW130542   6.009   0.890   4.807
 9881SOL    HW230543   5.864   0.940   4.752
 9882SOL     OW30544   3.685   3.597   4.969
 9882SOL    HW130545   3.681   3.500   4.993
 9882SOL    HW230546   3.730   3.648   5.043
 9883SOL     OW30547   2.086   6.075   1.639
 9883SOL    HW130548   2.015   6.053   1.705
 9883SOL    HW230549   2.168   6.020   1.656
 9884SOL     OW30550   3.012   2.429   0.198
 9884SOL    HW130551   2.919   2.393   0.187
 9884SOL    HW230552   3.076   2.369   0.151
 9885SOL     OW30553   1.095   3.338   4.086
 9885SOL    HW130554   1.163   3.400   4.125
 9885SOL    HW230555   1.035   3.390   4.025
 9886SOL     OW30556   6.259   7.018   2.100
 9886SOL    HW130557   6.170   0.039   2.087
 9886SOL    HW230558   6.250   6.936   2.157
 9887SOL     OW30559   3.380   0.096   0.300
 9887SOL    HW130560   3.387   0.108   0.399
 9887SOL    HW230561   3.352   0.182   0.258
 9888SOL     OW30562   5.671   6.100   3.259
 9888SOL    HW130563   5.601   6.166   3.289
 9888SOL    HW230564   5.712   6.057   3.339
 9889SOL     OW30565   0.555   5.199   2.495
 9889SOL    HW130566   0.466   5.228   2.461
 9889SOL    HW230567   0.555   5.200   2.595
 9890SOL     OW30568   6.324   3.066   0.165
 9890SOL    HW130569   6.379   3.088   0.245
 9890SOL    HW230570   6.372   3.095   0.082
 9891SOL     OW30571   5.115   4.899   1.493
 9891SOL    HW130572   5.031   4.875   1.542
 9891SOL    HW230573   5.098   4.895   1.395
 9892SOL     OW30574   2.206   5.426   3.859
 9892SOL    HW130575   2.179   5.448   3.953
 9892SOL    HW230576   2.198   5.327   3.844
 9893SOL     OW30577   6.534   5.799   2.318
 9893SOL    HW130578   6.619   5.771   2.272
 9893SOL    HW230579   6.551   5.806   2.417
 9894SOL     OW30580   2.837   1.349   6.598
 9894SOL    HW130581   2.885   1.428   6.561
 9894SOL    HW230582   2.839   1.352   6.698
 9895SOL     OW30583   5.852   2.204   5.523
 9895SOL    HW130584   5.796   2.238   5.598
 9895SOL    HW230585   5.949   2.210   5.548
 9896SOL     OW30586   4.364   2.460   1.065
 9896SOL    HW130587   4.445   2.493   1.113
 9896SOL    HW230588   4.291   2.444   1.131
 9897SOL     OW30589   5.221   1.182   2.371
 9897SOL    HW130590   5.262   1.162   2.282
 9897SOL    HW230591   5.198   1.279   2.376
 9898SOL     OW30592   0.845   5.326   5.520
 9898SOL    HW130593   0.749   5.320   5.492
 9898SOL    HW230594   0.896   5.378   5.452
 9899SOL     OW30595   6.233   4.355   2.228
 9899SOL    HW130596   6.215   4.338   2.131
 9899SOL    HW230597   6.151   4.396   2.270
 9900SOL     OW30598   1.983   1.959   2.375
 9900SOL    HW130599   2.081   1.938   2.378
 9900SOL    HW230600   1.955   2.000   2.462
 9901SOL     OW30601   1.173   2.188   0.360
 9901SOL    HW130602   1.083   2.182   0.404
 9901SOL    HW230603   1.166   2.153   0.267
 9902SOL     OW30604   3.384   3.330   1.290
 9902SOL    HW130605   3.423   3.422   1.301
 9902SOL    HW230606   3.307   3.318   1.352
 9903SOL     OW30607   4.544   0.305   2.375
 9903SOL    HW130608   4.451   0.295   2.338
 9903SOL    HW230609   4.558   0.238   2.448
 9904SOL     OW30610   0.315   3.382   6.632
 9904SOL    HW130611   0.330   3.474   6.669
 9904SOL    HW230612   0.369   3.316   6.684
 9905SOL     OW30613   1.741   6.865   0.583
 9905SOL    HW130614   1.695   6.795   0.529
 9905SOL    HW230615   1.722   6.956   0.545
 9906SOL     OW30616   1.645   3.158   6.815
 9906SOL    HW130617   1.635   3.233   6.880
 9906SOL    HW230618   1.555   3.124   6.788
 9907SOL     OW30619   2.688   6.789   3.330
 9907SOL    HW130620   2.589   6.798   3.341
 9907SOL    HW230621   2.718   6.701   3.367
 9908SOL     OW30622   0.948   3.525   6.207
 9908SOL    HW130623   0.947   3.448   6.270
 9908SOL    HW230624   0.981   3.494   6.118
 9909SOL     OW30625   3.490   0.719   3.205
 9909SOL    HW130626   3.458   0.806   3.168
 9909SOL    HW230627   3.544   0.736   3.288
 9910SOL     OW30628   0.040   4.556   1.715
 9910SOL    HW130629   0.054   4.642   1.763
 9910SOL    HW230630   0.017   4.484   1.781
 9911SOL     OW30631   4.713   5.084   3.407
 9911SOL    HW130632   4.636   5.023   3.425
 9911SOL    HW230633   4.692   5.176   3.440
 9912SOL     OW30634   3.938   0.534   2.485
 9912SOL    HW130635   3.963   0.630   2.475
 9912SOL    HW230636   3.947   0.489   2.396
 9913SOL     OW30637   5.998   2.949   2.011
 9913SOL    HW130638   6.088   2.968   1.972
 9913SOL    HW230639   5.931   2.936   1.937
 9914SOL     OW30640   0.826   0.925   5.564
 9914SOL    HW130641   0.814   0.827   5.576
 9914SOL    HW230642   0.842   0.968   5.652
 9915SOL     OW30643   5.698   4.057   3.873
 9915SOL    HW130644   5.753   4.126   3.921
 9915SOL    HW230645   5.711   3.968   3.917
 9916SOL     OW30646   2.739   1.830   3.809
 9916SOL    HW130647   2.772   1.818   3.715
 9916SOL    HW230648   2.692   1.917   3.817
 9917SOL     OW30649   2.994   3.159   4.306
 9917SOL    HW130650   3.033   3.137   4.217
 9917SOL    HW230651   3.012   3.084   4.370
 9918SOL     OW30652   1.382   1.376   0.324
 9918SOL    HW130653   1.446   1.329   0.263
 9918SOL    HW230654   1.429   1.452   0.369
 9919SOL     OW30655   1.949   4.967   2.411
 9919SOL    HW130656   1.853   4.950   2.433
 9919SOL    HW230657   1.972   5.063   2.432
 9920SOL     OW30658   3.310   0.871   2.796
 9920SOL    HW130659   3.386   0.894   2.736
 9920SOL    HW230660   3.304   0.938   2.870
 9921SOL     OW30661   6.043   6.240   3.880
 9921SOL    HW130662   6.068   6.156   3.929
 9921SOL    HW230663   5.943   6.249   3.880
 9922SOL     OW30664   4.433   4.378   0.827
 9922SOL    HW130665   4.359   4.326   0.870
 9922SOL    HW230666   4.486   4.318   0.768
 9923SOL     OW30667   6.714   2.918   0.288
 9923SOL    HW130668   6.751   2.837   0.334
 9923SOL    HW230669   6.786   2.962   0.235
 9924SOL     OW30670   5.672   1.705   1.405
 9924SOL    HW130671   5.741   1.745   1.465
 9924SOL    HW230672   5.702   1.614   1.376
 9925SOL     OW30673   2.079   4.400   5.343
 9925SOL    HW130674   2.137   4.323   5.314
 9925SOL    HW230675   2.044   4.447   5.263
 9926SOL     OW30676   3.459   2.422   1.265
 9926SOL    HW130677   3.505   2.372   1.339
 9926SOL    HW230678   3.366   2.446   1.295
 9927SOL     OW30679   0.822   2.607   1.534
 9927SOL    HW130680   0.767   2.629   1.616
 9927SOL    HW230681   0.915   2.641   1.546
 9928SOL     OW30682   6.004   4.465   2.331
 9928SOL    HW130683   5.941   4.388   2.325
 9928SOL    HW230684   6.020   4.487   2.428
 9929SOL     OW30685   2.797   4.090   5.428
 9929SOL    HW130686   2.753   4.005   5.398
 9929SOL    HW230687   2.734   4.167   5.414
 9930SOL     OW30688   6.924   0.272   5.710
 9930SOL    HW130689   6.870   0.272   5.626
 9930SOL    HW230690   0.000   0.264   5.688
 9931SOL     OW30691   0.102   5.745   5.232
 9931SOL    HW130692   0.037   5.686   5.184
 9931SOL    HW230693   0.159   5.689   5.293
 9932SOL     OW30694   1.470   2.002   0.498
 9932SOL    HW130695   1.470   1.946   0.581
 9932SOL    HW230696   1.445   2.096   0.522
 9933SOL     OW30697   2.814   0.808   3.718
 9933SOL    HW130698   2.838   0.865   3.796
 9933SOL    HW230699   2.753   0.734   3.749
 9934SOL     OW30700   6.120   1.936   0.352
 9934SOL    HW130701   6.144   1.886   0.435
 9934SOL    HW230702   6.118   2.034   0.371
 9935SOL     OW30703   2.617   2.340   0.856
 9935SOL    HW130704   2.653   2.284   0.931
 9935SOL    HW230705   2.580   2.280   0.785
 9936SOL     OW30706   5.578   4.579   6.207
 9936SOL    HW130707   5.546   4.640   6.279
 9936SOL    HW230708   5.546   4.486   6.226
 9937SOL     OW30709   1.125   1.017   3.059
 9937SOL    HW130710   1.112   0.929   3.106
 9937SOL    HW230711   1.044   1.074   3.073
 9938SOL     OW30712   5.232   0.607   3.736
 9938SOL    HW130713   5.300   0.535   3.722
 9938SOL    HW230714   5.273   0.695   3.714
 9939SOL     OW30715   1.342   3.172   1.209
 9939SOL    HW130716   1.348   3.139   1.303
 9939SOL    HW230717   1.414   3.239   1.192
 9940SOL     OW30718   0.052   0.325   3.522
 9940SOL    HW130719   0.060   0.378   3.606
 9940SOL    HW230720   7.011   0.372   3.459
 9941SOL     OW30721   3.632   5.780   5.306
 9941SOL    HW130722   3.587   5.841   5.371
 9941SOL    HW230723   3.673   5.834   5.232
 9942SOL     OW30724   4.706   4.204   2.746
 9942SOL    HW130725   4.706   4.139   2.670
 9942SOL    HW230726   4.795   4.249   2.751
 9943SOL     OW30727   0.979   4.612   6.294
 9943SOL    HW130728   0.959   4.705   6.265
 9943SOL    HW230729   0.999   4.610   6.392
 9944SOL     OW30730   6.789   5.695   6.529
 9944SOL    HW130731   6.889   5.689   6.522
 9944SOL    HW230732   6.763   5.703   6.625
 9945SOL     OW30733   5.642   3.923   6.671
 9945SOL    HW130734   5.648   3.824   6.689
 9945SOL    HW230735   5.548   3.947   6.649
 9946SOL     OW30736   6.172   0.237   3.591
 9946SOL    HW130737   6.131   0.306   3.532
 9946SOL    HW230738   6.272   0.239   3.580
 9947SOL     OW30739   1.523   1.302   3.276
 9947SOL    HW130740   1.463   1.257   3.209
 9947SOL    HW230741   1.614   1.261   3.272
 9948SOL     OW30742   6.674   5.639   5.178
 9948SOL    HW130743   6.583   5.678   5.176
 9948SOL    HW230744   6.698   5.605   5.087
 9949SOL     OW30745   0.661   5.523   4.064
 9949SOL    HW130746   0.591   5.487   4.003
 9949SOL    HW230747   0.708   5.446   4.109
 9950SOL     OW30748   6.627   5.010   6.083
 9950SOL    HW130749   6.565   5.031   6.158
 9950SOL    HW230750   6.654   4.914   6.087
 9951SOL     OW30751   1.667   2.638   2.762
 9951SOL    HW130752   1.668   2.636   2.862
 9951SOL    HW230753   1.722   2.715   2.729
 9952SOL     OW30754   1.091   4.065   2.089
 9952SOL    HW130755   1.023   4.012   2.039
 9952SOL    HW230756   1.115   4.147   2.036
 9953SOL     OW30757   6.117   2.388   3.501
 9953SOL    HW130758   6.069   2.321   3.444
 9953SOL    HW230759   6.210   2.401   3.466
 9954SOL     OW30760   2.141   1.538   5.030
 9954SOL    HW130761   2.123   1.443   5.054
 9954SOL    HW230762   2.202   1.541   4.950
 9955SOL     OW30763   4.744   3.182   6.575
 9955SOL    HW130764   4.821   3.236   6.540
 9955SOL    HW230765   4.711   3.223   6.660
 9956SOL     OW30766   0.407   4.004   2.372
 9956SOL    HW130767   0.499   3.989   2.407
 9956SOL    HW230768   0.409   4.001   2.272
 9957SOL     OW30769   5.576   0.196   1.098
 9957SOL    HW130770   5.582   0.216   1.195
 9957SOL    HW230771   5.667   0.177   1.062
 9958SOL     OW30772   3.440   5.762   6.256
 9958SOL    HW130773   3.380   5.736   6.332
 9958SOL    HW230774   3.530   5.786   6.292
 9959SOL     OW30775   4.397   3.468   1.430
 9959SOL    HW130776   4.394   3.534   1.505
 9959SOL    HW230777   4.345   3.386   1.456
 9960SOL     OW30778   0.085   6.404   1.467
 9960SOL    HW130779   0.121   6.486   1.423
 9960SOL    HW230780   7.016   6.383   1.430
 9961SOL     OW30781   2.041   4.570   2.547
 9961SOL    HW130782   2.025   4.510   2.625
 9961SOL    HW230783   1.961   4.628   2.532
 9962SOL     OW30784   3.909   0.755   1.863
 9962SOL    HW130785   3.954   0.841   1.838
 9962SOL    HW230786   3.887   0.704   1.779
 9963SOL     OW30787   2.702   2.471   0.289
 9963SOL    HW130788   2.618   2.475   0.342
 9963SOL    HW230789   2.703   2.544   0.221
 9964SOL     OW30790   3.774   5.159   5.937
 9964SOL    HW130791   3.679   5.129   5.925
 9964SOL    HW230792   3.829   5.126   5.860
 9965SOL     OW30793   3.518   5.490   4.518
 9965SOL    HW130794   3.474   5.483   4.607
 9965SOL    HW230795   3.505   5.405   4.467
 9966SOL     OW30796   2.879   5.140   2.250
 9966SOL    HW130797   2.970   5.142   2.208
 9966SOL    HW230798   2.866   5.223   2.305
 9967SOL     OW30799   6.130   5.524   3.331
 9967SOL    HW130800   6.068   5.544   3.406
 9967SOL    HW230801   6.097   5.566   3.247
 9968SOL     OW30802   4.489   5.667   6.767
 9968SOL    HW130803   4.400   5.704   6.791
 9968SOL    HW230804   4.481   5.569   6.748
 9969SOL     OW30805   1.894   3.015   4.482
 9969SOL    HW130806   1.928   3.001   4.575
 9969SOL    HW230807   1.794   3.023   4.485
 9970SOL     OW30808   6.207   5.131   1.759
 9970SOL    HW130809   6.199   5.032   1.760
 9970SOL    HW230810   6.214   5.163   1.664
 9971SOL     OW30811   1.618   2.960   1.452
 9971SOL    HW130812   1.702   3.014   1.450
 9971SOL    HW230813   1.623   2.894   1.527
 9972SOL     OW30814   2.558   4.099   1.210
 9972SOL    HW130815   2.525   4.005   1.198
 9972SOL    HW230816   2.641   4.098   1.266
 9973SOL     OW30817   4.981   2.915   4.589
 9973SOL    HW130818   4.902   2.856   4.603
 9973SOL    HW230819   4.951   3.010   4.579
 9974SOL     OW30820   6.949   2.033   3.114
 9974SOL    HW130821   0.025   2.056   3.100
 9974SOL    HW230822   6.917   1.975   3.040
 9975SOL     OW30823   0.666   5.598   6.410
 9975SOL    HW130824   0.692   5.685   6.369
 9975SOL    HW230825   0.649   5.610   6.508
 9976SOL     OW30826   1.010   4.957   5.498
 9976SOL    HW130827   0.987   4.998   5.410
 9976SOL    HW230828   1.095   4.998   5.532
 9977SOL     OW30829   5.089   4.754   5.699
 9977SOL    HW130830   5.113   4.759   5.796
 9977SOL    HW230831   5.054   4.663   5.677
 9978SOL     OW30832   6.982   1.941   5.578
 9978SOL    HW130833   6.924   1.862   5.560
 9978SOL    HW230834   7.000   1.989   5.492
 9979SOL     OW30835   6.248   4.209   6.148
 9979SOL    HW130836   6.248   4.300   6.108
 9979SOL    HW230837   6.157   4.168   6.140
 9980SOL     OW30838   2.083   0.413   1.132
 9980SOL    HW130839   2.032   0.390   1.049
 9980SOL    HW230840   2.082   0.512   1.145
 9981SOL     OW30841   1.658   2.069   0.888
 9981SOL    HW130842   1.635   2.164   0.870
 9981SOL    HW230843   1.752   2.052   0.861
 9982SOL     OW30844   1.199   0.965   4.290
 9982SOL    HW130845   1.185   0.889   4.353
 9982SOL    HW230846   1.148   0.949   4.206
 9983SOL     OW30847   6.717   1.665   2.395
 9983SOL    HW130848   6.693   1.644   2.300
 9983SOL    HW230849   6.660   1.740   2.428
 9984SOL     OW30850   0.789   5.979   0.232
 9984SOL    HW130851   0.836   5.915   0.292
 9984SOL    HW230852   0.806   6.072   0.263
 9985SOL     OW30853   2.908   5.157   1.273
 9985SOL    HW130854   2.905   5.221   1.196
 9985SOL    HW230855   2.822   5.161   1.323
 9986SOL     OW30856   6.070   4.994   0.759
 9986SOL    HW130857   5.999   4.984   0.828
 9986SOL    HW230858   6.045   4.942   0.677
 9987SOL     OW30859   5.971   2.668   2.234
 9987SOL    HW130860   5.981   2.600   2.161
 9987SOL    HW230861   6.058   2.715   2.248
 9988SOL     OW30862   6.702   5.246   4.259
 9988SOL    HW130863   6.681   5.313   4.188
 9988SOL    HW230864   6.795   5.260   4.292
 9989SOL     OW30865   6.179   3.955   2.427
 9989SOL    HW130866   6.152   4.036   2.480
 9989SOL    HW230867   6.141   3.961   2.335
 9990SOL     OW30868   2.282   6.621   3.429
 9990SOL    HW130869   2.331   6.542   3.392
 9990SOL    HW230870   2.253   6.601   3.522
 9991SOL     OW30871   2.160   3.701   3.837
 9991SOL    HW130872   2.121   3.636   3.902
 9991SOL    HW230873   2.162   3.661   3.746
 9992SOL     OW30874   3.635   3.762   1.006
 9992SOL    HW130875   3.599   3.767   1.099
 9992SOL    HW230876   3.695   3.682   0.997
 9993SOL     OW30877   4.040   6.534   3.814
 9993SOL    HW130878   3.974   6.510   3.885
 9993SOL    HW230879   4.049   6.634   3.810
 9994SOL     OW30880   0.268   4.014   2.591
 9994SOL    HW130881   0.335   4.030   2.519
 9994SOL    HW230882   0.251   4.099   2.641
 9995SOL     OW30883   3.677   1.203   3.548
 9995SOL    HW130884   3.704   1.193   3.452
 9995SOL    HW230885   3.645   1.297   3.564
 9996SOL     OW30886   2.798   3.865   1.490
 9996SOL    HW130887   2.712   3.832   1.529
 9996SOL    HW230888   2.823   3.809   1.411
 9997SOL     OW30889   5.793   0.482   2.721
 9997SOL    HW130890   5.709   0.533   2.705
 9997SOL    HW230891   5.805   0.414   2.648
 9998SOL     OW30892   5.258   3.488   1.715
 9998SOL    HW130893   5.271   3.467   1.812
 9998SOL    HW230894   5.261   3.403   1.662
 9999SOL     OW30895   6.982   6.132   5.066
 9999SOL    HW130896   0.028   6.184   5.013
 9999SOL    HW230897   6.951   6.187   5.143
10000SOL     OW30898   5.598   2.161   0.540
10000SOL    HW130899   5.524   2.171   0.473
10000SOL    HW230900   5.646   2.075   0.524
10001SOL     OW30901   3.267   0.373   1.424
10001SOL    HW130902   3.341   0.397   1.361
10001SOL    HW230903   3.196   0.443   1.421
10002SOL     OW30904   1.765   1.055   1.711
10002SOL    HW130905   1.697   1.119   1.745
10002SOL    HW230906   1.841   1.105   1.669
10003SOL     OW30907   2.985   2.185   2.301
10003SOL    HW130908   2.970   2.251   2.228
10003SOL    HW230909   3.078   2.149   2.296
10004SOL     OW30910   5.423   3.029   5.289
10004SOL    HW130911   5.325   3.010   5.296
10004SOL    HW230912   5.465   2.963   5.227
10005SOL     OW30913   3.448   5.533   3.013
10005SOL    HW130914   3.464   5.435   3.001
10005SOL    HW230915   3.394   5.568   2.937
10006SOL     OW30916   5.898   7.006   5.593
10006SOL    HW130917   5.974   6.942   5.585
10006SOL    HW230918   5.885   0.032   5.506
10007SOL     OW30919   0.860   3.143   4.377
10007SOL    HW130920   0.870   3.081   4.454
10007SOL    HW230921   0.947   3.187   4.357
10008SOL     OW30922   5.063   0.921   3.554
10008SOL    HW130923   5.065   0.913   3.454
10008SOL    HW230924   4.980   0.971   3.581
10009SOL     OW30925   1.815   4.136   1.833
10009SOL    HW130926   1.729   4.128   1.883
10009SOL    HW230927   1.797   4.130   1.735
10010SOL     OW30928   2.486   5.977   0.870
10010SOL    HW130929   2.440   5.934   0.947
10010SOL    HW230930   2.447   5.942   0.784
10011SOL     OW30931   0.315   4.431   6.705
10011SOL    HW130932   0.225   4.460   6.735
10011SOL    HW230933   0.320   4.331   6.707
10012SOL     OW30934   5.324   0.389   2.088
10012SOL    HW130935   5.393   0.361   2.021
10012SOL    HW230936   5.266   0.460   2.048
10013SOL     OW30937   2.003   2.705   4.388
10013SOL    HW130938   1.998   2.803   4.368
10013SOL    HW230939   1.984   2.690   4.485
10014SOL     OW30940   1.164   0.763   1.756
10014SOL    HW130941   1.079   0.713   1.775
10014SOL    HW230942   1.227   0.704   1.705
10015SOL     OW30943   4.420   5.135   0.361
10015SOL    HW130944   4.386   5.048   0.397
10015SOL    HW230945   4.355   5.207   0.384
10016SOL     OW30946   2.068   1.068   4.691
10016SOL    HW130947   2.023   1.157   4.683
10016SOL    HW230948   2.045   1.011   4.612
10017SOL     OW30949   2.005   1.295   2.869
10017SOL    HW130950   2.065   1.218   2.890
10017SOL    HW230951   2.048   1.352   2.799
10018SOL     OW30952   6.863   4.947   5.556
10018SOL    HW130953   6.883   4.884   5.631
10018SOL    HW230954   6.901   4.911   5.471
10019SOL     OW30955   0.516   1.445   3.301
10019SOL    HW130956   0.604   1.488   3.323
10019SOL    HW230957   0.448   1.515   3.283
10020SOL     OW30958   0.249   1.194   1.732
10020SOL    HW130959   0.185   1.223   1.661
10020SOL    HW230960   0.229   1.243   1.817
10021SOL     OW30961   0.739   2.936   2.731
10021SOL    HW130962   0.671   2.991   2.684
10021SOL    HW230963   0.806   2.996   2.776
10022SOL     OW30964   3.320   6.872   0.879
10022SOL    HW130965   3.335   6.782   0.920
10022SOL    HW230966   3.408   6.918   0.867
10023SOL     OW30967   2.132   5.170   4.158
10023SOL    HW130968   2.071   5.136   4.229
10023SOL    HW230969   2.226   5.143   4.177
10024SOL     OW30970   1.667   5.749   2.394
10024SOL    HW130971   1.744   5.804   2.426
10024SOL    HW230972   1.683   5.652   2.414
10025SOL     OW30973   1.477   2.811   2.312
10025SOL    HW130974   1.484   2.867   2.229
10025SOL    HW230975   1.454   2.869   2.390
10026SOL     OW30976   5.347   0.405   3.376
10026SOL    HW130977   5.362   0.496   3.415
10026SOL    HW230978   5.313   0.344   3.447
10027SOL     OW30979   0.742   2.387   4.968
10027SOL    HW130980   0.659   2.434   4.996
10027SOL    HW230981   0.755   2.399   4.869
10028SOL     OW30982   1.907   1.487   1.922
10028SOL    HW130983   1.824   1.500   1.868
10028SOL    HW230984   1.981   1.541   1.881
10029SOL     OW30985   1.731   2.387   3.667
10029SOL    HW130986   1.637   2.417   3.650
10029SOL    HW230987   1.742   2.292   3.637
10030SOL     OW30988   3.450   0.470   5.307
10030SOL    HW130989   3.531   0.520   5.336
10030SOL    HW230990   3.460   0.373   5.332
10031SOL     OW30991   5.544   4.591   4.612
10031SOL    HW130992   5.636   4.563   4.638
10031SOL    HW230993   5.537   4.691   4.616
10032SOL     OW30994   4.758   0.564   5.395
10032SOL    HW130995   4.854   0.548   5.415
10032SOL    HW230996   4.743   0.559   5.296
10033SOL     OW30997   4.625   2.710   4.439
10033SOL    HW130998   4.693   2.638   4.434
10033SOL    HW230999   4.658   2.791   4.391
10034SOL     OW31000   3.118   0.175   3.920
10034SOL    HW131001   3.045   0.236   3.890
10034SOL    HW231002   3.175   0.150   3.841
10035SOL     OW31003   6.730   4.903   1.065
10035SOL    HW131004   6.667   4.934   1.137
10035SOL    HW231005   6.822   4.939   1.084
10036SOL     OW31006   6.521   0.688   0.751
10036SOL    HW131007   6.495   0.784   0.758
10036SOL    HW231008   6.445   0.636   0.711
10037SOL     OW31009   6.184   0.750   0.053
10037SOL    HW131010   6.136   0.834   0.028
10037SOL    HW231011   6.224   0.760   0.144
10038SOL     OW31012   3.965   6.804   6.522
10038SOL    HW131013   3.910   6.888   6.515
10038SOL    HW231014   3.907   6.724   6.506
10039SOL     OW31015   4.527   6.606   5.042
10039SOL    HW131016   4.495   6.518   5.005
10039SOL    HW231017   4.464   6.636   5.114
10040SOL     OW31018   4.229   5.754   6.401
10040SOL    HW131019   4.324   5.787   6.397
10040SOL    HW231020   4.197   5.732   6.309
10041SOL     OW31021   5.075   6.003   6.799
10041SOL    HW131022   5.025   6.008   6.713
10041SOL    HW231023   5.032   6.063   6.866
10042SOL     OW31024   1.360   1.872   5.121
10042SOL    HW131025   1.377   1.956   5.172
10042SOL    HW231026   1.264   1.870   5.090
10043SOL     OW31027   0.367   1.831   4.174
10043SOL    HW131028   0.428   1.905   4.203
10043SOL    HW231029   0.309   1.863   4.100
10044SOL     OW31030   2.212   1.695   3.768
10044SOL    HW131031   2.300   1.741   3.776
10044SOL    HW231032   2.175   1.709   3.676
10045SOL     OW31033   5.261   6.905   3.545
10045SOL    HW131034   5.202   6.899   3.464
10045SOL    HW231035   5.221   6.968   3.611
10046SOL     OW31036   1.093   3.581   1.617
10046SOL    HW131037   1.007   3.620   1.585
10046SOL    HW231038   1.136   3.529   1.543
10047SOL     OW31039   6.165   3.794   4.913
10047SOL    HW131040   6.082   3.849   4.920
10047SOL    HW231041   6.199   3.797   4.819
10048SOL     OW31042   4.789   2.088   2.493
10048SOL    HW131043   4.858   2.146   2.537
10048SOL    HW231044   4.699   2.112   2.530
10049SOL     OW31045   0.743   0.240   6.860
10049SOL    HW131046   0.687   0.309   6.814
10049SOL    HW231047   0.827   0.283   6.895
10050SOL     OW31048   6.711   2.735   5.074
10050SOL    HW131049   6.675   2.668   5.139
10050SOL    HW231050   6.658   2.731   4.989
10051SOL     OW31051   6.280   2.067   4.871
10051SOL    HW131052   6.189   2.047   4.835
10051SOL    HW231053   6.304   2.162   4.848
10052SOL     OW31054   3.063   2.116   2.957
10052SOL    HW131055   2.990   2.129   3.024
10052SOL    HW231056   3.025   2.111   2.865
10053SOL     OW31057   3.633   5.994   1.758
10053SOL    HW131058   3.536   6.016   1.764
10053SOL    HW231059   3.677   6.056   1.694
10054SOL     OW31060   4.888   5.190   6.033
10054SOL    HW131061   4.909   5.275   5.986
10054SOL    HW231062   4.835   5.131   5.972
10055SOL     OW31063   5.988   2.074   5.340
10055SOL    HW131064   5.926   2.122   5.403
10055SOL    HW231065   5.943   2.063   5.252
10056SOL     OW31066   5.932   4.290   1.573
10056SOL    HW131067   5.988   4.250   1.646
10056SOL    HW231068   5.964   4.255   1.484
10057SOL     OW31069   4.114   2.283   4.531
10057SOL    HW131070   4.069   2.207   4.485
10057SOL    HW231071   4.050   2.326   4.595
10058SOL     OW31072   0.403   3.900   4.481
10058SOL    HW131073   0.328   3.841   4.450
10058SOL    HW231074   0.403   3.984   4.427
10059SOL     OW31075   5.115   6.518   0.736
10059SOL    HW131076   5.182   6.449   0.710
10059SOL    HW231077   5.159   6.608   0.738
10060SOL     OW31078   1.788   1.618   1.455
10060SOL    HW131079   1.774   1.686   1.527
10060SOL    HW231080   1.742   1.533   1.479
10061SOL     OW31081   5.369   1.178   4.688
10061SOL    HW131082   5.321   1.183   4.776
10061SOL    HW231083   5.351   1.261   4.635
10062SOL     OW31084   6.489   0.331   4.366
10062SOL    HW131085   6.576   0.285   4.349
10062SOL    HW231086   6.500   0.430   4.353
10063SOL     OW31087   1.820   1.545   3.908
10063SOL    HW131088   1.859   1.585   3.991
10063SOL    HW231089   1.857   1.454   3.893
10064SOL     OW31090   5.018   6.862   0.369
10064SOL    HW131091   4.933   6.838   0.321
10064SOL    HW231092   5.052   6.950   0.335
10065SOL     OW31093   1.890   6.930   2.623
10065SOL    HW131094   1.936   6.984   2.553
10065SOL    HW231095   1.939   6.844   2.637
10066SOL     OW31096   0.966   1.675   3.234
10066SOL    HW131097   0.945   1.764   3.192
10066SOL    HW231098   1.015   1.618   3.168
10067SOL     OW31099   6.343   4.111   4.735
10067SOL    HW131100   6.443   4.109   4.733
10067SOL    HW231101   6.307   4.022   4.706
10068SOL     OW31102   6.672   3.145   2.509
10068SOL    HW131103   6.685   3.167   2.412
10068SOL    HW231104   6.760   3.154   2.556
10069SOL     OW31105   1.921   5.449   3.657
10069SOL    HW131106   1.830   5.407   3.660
10069SOL    HW231107   1.986   5.392   3.707
10070SOL     OW31108   6.527   0.109   5.092
10070SOL    HW131109   6.607   0.125   5.035
10070SOL    HW231110   6.555   0.099   5.188
10071SOL     OW31111   6.390   6.056   3.772
10071SOL    HW131112   6.424   5.979   3.827
10071SOL    HW231113   6.416   6.042   3.677
10072SOL     OW31114   6.974   6.537   3.889
10072SOL    HW131115   7.006   6.631   3.887
10072SOL    HW231116   6.893   6.527   3.831
10073SOL     OW31117   5.911   4.818   5.230
10073SOL    HW131118   5.898   4.852   5.137
10073SOL    HW231119   5.959   4.887   5.284
10074SOL     OW31120   1.457   0.969   5.461
10074SOL    HW131121   1.425   1.030   5.389
10074SOL    HW231122   1.403   0.984   5.544
10075SOL     OW31123   1.280   3.037   3.352
10075SOL    HW131124   1.271   2.981   3.269
10075SOL    HW231125   1.303   3.130   3.327
10076SOL     OW31126   0.040   0.170   3.300
10076SOL    HW131127   0.084   0.205   3.382
10076SOL    HW231128   7.015   0.246   3.252
10077SOL     OW31129   3.768   3.339   6.245
10077SOL    HW131130   3.673   3.358   6.272
10077SOL    HW231131   3.792   3.245   6.270
10078SOL     OW31132   0.448   5.393   3.916
10078SOL    HW131133   0.491   5.335   3.848
10078SOL    HW231134   0.385   5.457   3.870
10079SOL     OW31135   0.130   3.806   2.465
10079SOL    HW131136   0.040   3.800   2.507
10079SOL    HW231137   0.176   3.889   2.497
10080SOL     OW31138   3.796   1.046   5.091
10080SOL    HW131139   3.721   1.068   5.154
10080SOL    HW231140   3.761   0.991   5.015
10081SOL     OW31141   0.191   6.949   0.683
10081SOL    HW131142   0.106   6.934   0.733
10081SOL    HW231143   0.172   6.951   0.585
10082SOL     OW31144   6.582   5.005   1.961
10082SOL    HW131145   6.681   5.011   1.978
10082SOL    HW231146   6.534   4.989   2.047
10083SOL     OW31147   5.490   0.771   3.190
10083SOL    HW131148   5.468   0.860   3.149
10083SOL    HW231149   5.567   0.730   3.141
10084SOL     OW31150   2.290   1.253   5.466
10084SOL    HW131151   2.289   1.328   5.532
10084SOL    HW231152   2.334   1.283   5.381
10085SOL     OW31153   1.814   6.137   2.313
10085SOL    HW131154   1.889   6.136   2.379
10085SOL    HW231155   1.842   6.186   2.231
10086SOL     OW31156   5.079   5.437   2.484
10086SOL    HW131157   5.036   5.392   2.406
10086SOL    HW231158   5.015   5.441   2.560
10087SOL     OW31159   0.252   7.013   3.528
10087SOL    HW131160   0.239   7.008   3.627
10087SOL    HW231161   0.278   0.086   3.503
10088SOL     OW31162   6.647   0.319   1.277
10088SOL    HW131163   6.695   0.403   1.252
10088SOL    HW231164   6.714   0.251   1.308
10089SOL     OW31165   3.061   1.632   2.159
10089SOL    HW131166   3.006   1.571   2.102
10089SOL    HW231167   3.105   1.701   2.101
10090SOL     OW31168   1.116   4.661   1.139
10090SOL    HW131169   1.168   4.594   1.087
10090SOL    HW231170   1.165   4.684   1.223
10091SOL     OW31171   1.416   3.838   5.859
10091SOL    HW131172   1.355   3.902   5.813
10091SOL    HW231173   1.504   3.835   5.811
10092SOL     OW31174   1.918   2.994   5.062
10092SOL    HW131175   1.820   2.995   5.086
10092SOL    HW231176   1.970   3.040   5.134
10093SOL     OW31177   6.594   3.447   5.246
10093SOL    HW131178   6.518   3.512   5.246
10093SOL    HW231179   6.678   3.493   5.218
10094SOL     OW31180   2.522   5.532   2.152
10094SOL    HW131181   2.539   5.434   2.145
10094SOL    HW231182   2.425   5.551   2.138
10095SOL     OW31183   5.886   1.651   5.415
10095SOL    HW131184   5.825   1.581   5.378
10095SOL    HW231185   5.980   1.617   5.415
10096SOL     OW31186   4.693   4.840   2.602
10096SOL    HW131187   4.631   4.793   2.538
10096SOL    HW231188   4.772   4.781   2.620
10097SOL     OW31189   0.936   0.883   0.729
10097SOL    HW131190   1.033   0.858   0.731
10097SOL    HW231191   0.880   0.800   0.731
10098SOL     OW31192   2.904   0.586   5.184
10098SOL    HW131193   2.887   0.498   5.230
10098SOL    HW231194   2.985   0.578   5.127
10099SOL     OW31195   0.058   4.911   1.024
10099SOL    HW131196   7.005   4.975   1.003
10099SOL    HW231197   0.052   4.884   1.119
10100SOL     OW31198   5.083   0.114   4.934
10100SOL    HW131199   5.121   0.064   4.855
10100SOL    HW231200   5.124   0.079   5.018
10101SOL     OW31201   6.171   3.833   1.709
10101SOL    HW131202   6.219   3.817   1.796
10101SOL    HW231203   6.191   3.925   1.676
10102SOL     OW31204   1.335   1.019   2.086
10102SOL    HW131205   1.235   1.012   2.094
10102SOL    HW231206   1.358   1.084   2.014
10103SOL     OW31207   2.521   0.457   6.132
10103SOL    HW131208   2.575   0.436   6.213
10103SOL    HW231209   2.443   0.394   6.127
10104SOL     OW31210   1.810   2.035   3.877
10104SOL    HW131211   1.747   2.026   3.954
10104SOL    HW231212   1.828   1.945   3.837
10105SOL     OW31213   1.611   0.775   0.529
10105SOL    HW131214   1.665   0.699   0.565
10105SOL    HW231215   1.647   0.861   0.565
10106SOL     OW31216   3.978   6.580   1.012
10106SOL    HW131217   4.002   6.525   0.931
10106SOL    HW231218   3.912   6.530   1.068
10107SOL     OW31219   6.861   1.365   6.477
10107SOL    HW131220   6.828   1.336   6.566
10107SOL    HW231221   6.914   1.449   6.487
10108SOL     OW31222   6.438   6.598   0.562
10108SOL    HW131223   6.518   6.619   0.506
10108SOL    HW231224   6.454   6.630   0.655
10109SOL     OW31225   4.983   0.298   0.724
10109SOL    HW131226   5.042   0.361   0.675
10109SOL    HW231227   5.003   0.204   0.694
10110SOL     OW31228   4.028   5.685   4.656
10110SOL    HW131229   4.055   5.646   4.568
10110SOL    HW231230   3.952   5.749   4.642
10111SOL     OW31231   5.370   3.729   3.647
10111SOL    HW131232   5.272   3.743   3.634
10111SOL    HW231233   5.389   3.718   3.745
10112SOL     OW31234   5.749   3.819   4.054
10112SOL    HW131235   5.655   3.785   4.060
10112SOL    HW231236   5.807   3.750   4.012
10113SOL     OW31237   4.656   0.124   5.996
10113SOL    HW131238   4.616   0.154   5.909
10113SOL    HW231239   4.653   0.198   6.062
10114SOL     OW31240   5.624   1.191   0.795
10114SOL    HW131241   5.650   1.151   0.883
10114SOL    HW231242   5.640   1.290   0.797
10115SOL     OW31243   3.664   1.431   4.357
10115SOL    HW131244   3.752   1.438   4.403
10115SOL    HW231245   3.677   1.442   4.258
10116SOL     OW31246   0.533   6.362   0.797
10116SOL    HW131247   0.515   6.443   0.742
10116SOL    HW231248   0.457   6.298   0.789
10117SOL     OW31249   6.264   6.297   5.724
10117SOL    HW131250   6.191   6.294   5.792
10117SOL    HW231251   6.353   6.290   5.769
10118SOL     OW31252   1.803   4.848   2.789
10118SOL    HW131253   1.868   4.918   2.819
10118SOL    HW231254   1.720   4.892   2.755
10119SOL     OW31255   0.343   6.169   4.561
10119SOL    HW131256   0.334   6.160   4.661
10119SOL    HW231257   0.283   6.101   4.517
10120SOL     OW31258   1.575   3.637   5.073
10120SOL    HW131259   1.575   3.657   5.171
10120SOL    HW231260   1.660   3.671   5.033
10121SOL     OW31261   6.503   4.095   6.621
10121SOL    HW131262   6.493   4.163   6.694
10121SOL    HW231263   6.468   4.132   6.535
10122SOL     OW31264   6.017   3.306   1.568
10122SOL    HW131265   6.097   3.247   1.559
10122SOL    HW231266   5.988   3.339   1.478
10123SOL     OW31267   5.525   6.995   6.916
10123SOL    HW131268   5.556   6.924   6.978
10123SOL    HW231269   5.427   6.984   6.898
10124SOL     OW31270   1.547   4.333   0.369
10124SOL    HW131271   1.578   4.241   0.345
10124SOL    HW231272   1.616   4.400   0.340
10125SOL     OW31273   2.172   1.356   2.221
10125SOL    HW131274   2.084   1.327   2.183
10125SOL    HW231275   2.246   1.303   2.178
10126SOL     OW31276   0.144   6.594   6.231
10126SOL    HW131277   0.215   6.647   6.277
10126SOL    HW231278   0.081   6.656   6.184
10127SOL     OW31279   3.019   4.599   6.440
10127SOL    HW131280   3.020   4.550   6.353
10127SOL    HW231281   3.055   4.691   6.426
10128SOL     OW31282   2.763   1.260   1.334
10128SOL    HW131283   2.757   1.160   1.327
10128SOL    HW231284   2.853   1.290   1.305
10129SOL     OW31285   5.753   1.563   2.517
10129SOL    HW131286   5.727   1.652   2.479
10129SOL    HW231287   5.722   1.491   2.455
10130SOL     OW31288   1.541   3.670   1.960
10130SOL    HW131289   1.567   3.574   1.952
10130SOL    HW231290   1.575   3.720   1.881
10131SOL     OW31291   1.160   0.175   4.509
10131SOL    HW131292   1.100   0.176   4.589
10131SOL    HW231293   1.105   0.188   4.426
10132SOL     OW31294   3.516   0.054   4.793
10132SOL    HW131295   3.504   0.082   4.698
10132SOL    HW231296   3.480   6.983   4.805
10133SOL     OW31297   3.788   6.346   0.889
10133SOL    HW131298   3.884   6.318   0.889
10133SOL    HW231299   3.732   6.269   0.858
10134SOL     OW31300   0.544   5.919   3.403
10134SOL    HW131301   0.503   5.875   3.323
10134SOL    HW231302   0.607   5.990   3.372
10135SOL     OW31303   5.097   3.192   3.654
10135SOL    HW131304   5.146   3.276   3.630
10135SOL    HW231305   5.041   3.162   3.577
10136SOL     OW31306   5.179   0.631   2.704
10136SOL    HW131307   5.162   0.704   2.637
10136SOL    HW231308   5.175   0.668   2.796
10137SOL     OW31309   6.431   3.940   4.326
10137SOL    HW131310   6.493   4.012   4.355
10137SOL    HW231311   6.473   3.887   4.252
10138SOL     OW31312   4.974   3.837   0.588
10138SOL    HW131313   5.072   3.830   0.601
10138SOL    HW231314   4.955   3.891   0.505
10139SOL     OW31315   3.111   3.953   3.213
10139SOL    HW131316   3.055   3.916   3.288
10139SOL    HW231317   3.201   3.979   3.249
10140SOL     OW31318   5.753   6.056   6.865
10140SOL    HW131319   5.706   6.093   6.944
10140SOL    HW231320   5.851   6.047   6.885
10141SOL     OW31321   3.790   1.742   5.124
10141SOL    HW131322   3.704   1.791   5.138
10141SOL    HW231323   3.779   1.676   5.049
10142SOL     OW31324   6.024   6.608   5.102
10142SOL    HW131325   5.987   6.618   5.195
10142SOL    HW231326   6.065   6.694   5.073
10143SOL     OW31327   5.017   1.220   6.922
10143SOL    HW131328   5.073   1.219   7.005
10143SOL    HW231329   5.052   1.290   6.859
10144SOL     OW31330   3.094   0.464   6.042
10144SOL    HW131331   3.001   0.432   6.061
10144SOL    HW231332   3.154   0.435   6.117
10145SOL     OW31333   2.691   5.525   4.062
10145SOL    HW131334   2.639   5.528   3.976
10145SOL    HW231335   2.633   5.490   4.135
10146SOL     OW31336   4.414   4.715   4.761
10146SOL    HW131337   4.397   4.667   4.848
10146SOL    HW231338   4.413   4.813   4.777
10147SOL     OW31339   5.258   3.968   5.400
10147SOL    HW131340   5.273   4.013   5.312
10147SOL    HW231341   5.335   3.908   5.421
10148SOL     OW31342   5.014   4.823   6.877
10148SOL    HW131343   5.027   4.768   6.959
10148SOL    HW231344   5.066   4.908   6.884
10149SOL     OW31345   5.891   3.109   0.480
10149SOL    HW131346   5.979   3.153   0.463
10149SOL    HW231347   5.889   3.073   0.574
10150SOL     OW31348   3.411   4.085   0.385
10150SOL    HW131349   3.377   3.994   0.408
10150SOL    HW231350   3.472   4.118   0.457
10151SOL     OW31351   0.945   6.149   7.017
10151SOL    HW131352   0.877   6.142   6.944
10151SOL    HW231353   0.992   6.061   0.007
10152SOL     OW31354   7.011   6.112   4.559
10152SOL    HW131355   0.061   6.085   4.494
10152SOL    HW231356   6.969   6.031   4.599
10153SOL     OW31357   4.688   6.226   3.599
10153SOL    HW131358   4.761   6.293   3.606
10153SOL    HW231359   4.600   6.271   3.609
10154SOL     OW31360   4.477   6.531   5.424
10154SOL    HW131361   4.431   6.461   5.370
10154SOL    HW231362   4.408   6.591   5.465
10155SOL     OW31363   3.716   2.467   5.680
10155SOL    HW131364   3.807   2.509   5.678
10155SOL    HW231365   3.673   2.484   5.769
10156SOL     OW31366   5.586   0.261   2.361
10156SOL    HW131367   5.552   0.259   2.455
10156SOL    HW231368   5.528   0.203   2.303
10157SOL     OW31369   0.031   1.708   0.807
10157SOL    HW131370   0.116   1.665   0.836
10157SOL    HW231371   0.032   1.718   0.707
10158SOL     OW31372   5.853   5.355   0.413
10158SOL    HW131373   5.867   5.257   0.398
10158SOL    HW231374   5.900   5.382   0.497
10159SOL     OW31375   2.411   3.078   0.248
10159SOL    HW131376   2.450   3.162   0.285
10159SOL    HW231377   2.313   3.092   0.230
10160SOL     OW31378   1.787   2.847   2.621
10160SOL    HW131379   1.833   2.775   2.569
10160SOL    HW231380   1.853   2.896   2.678
10161SOL     OW31381   3.031   2.820   0.507
10161SOL    HW131382   3.082   2.887   0.561
10161SOL    HW231383   3.044   2.729   0.547
10162SOL     OW31384   3.661   4.801   1.066
10162SOL    HW131385   3.689   4.737   1.137
10162SOL    HW231386   3.732   4.871   1.055
10163SOL     OW31387   6.223   4.416   6.839
10163SOL    HW131388   6.145   4.358   6.814
10163SOL    HW231389   6.199   4.512   6.825
10164SOL     OW31390   6.262   3.597   4.234
10164SOL    HW131391   6.344   3.589   4.179
10164SOL    HW231392   6.197   3.525   4.208
10165SOL     OW31393   6.584   1.765   3.149
10165SOL    HW131394   6.485   1.772   3.158
10165SOL    HW231395   6.622   1.722   3.231
10166SOL     OW31396   3.369   1.917   1.828
10166SOL    HW131397   3.317   1.904   1.912
10166SOL    HW231398   3.419   2.004   1.833
10167SOL     OW31399   2.069   4.579   6.785
10167SOL    HW131400   2.015   4.502   6.819
10167SOL    HW231401   2.112   4.554   6.698
10168SOL     OW31402   5.942   3.092   6.098
10168SOL    HW131403   5.947   3.102   6.197
10168SOL    HW231404   5.985   3.171   6.054
10169SOL     OW31405   6.494   4.837   3.697
10169SOL    HW131406   6.577   4.835   3.752
10169SOL    HW231407   6.517   4.841   3.600
10170SOL     OW31408   6.929   5.794   5.427
10170SOL    HW131409   6.902   5.708   5.470
10170SOL    HW231410   6.975   5.775   5.340
10171SOL     OW31411   6.878   2.696   4.507
10171SOL    HW131412   6.836   2.787   4.506
10171SOL    HW231413   6.939   2.688   4.428
10172SOL     OW31414   0.214   6.030   5.279
10172SOL    HW131415   0.313   6.029   5.264
10172SOL    HW231416   0.172   5.953   5.231
10173SOL     OW31417   1.395   2.989   1.025
10173SOL    HW131418   1.389   3.057   1.098
10173SOL    HW231419   1.453   3.025   0.951
10174SOL     OW31420   4.970   4.359   3.417
10174SOL    HW131421   4.914   4.297   3.360
10174SOL    HW231422   5.063   4.361   3.382
10175SOL     OW31423   5.936   1.750   3.604
10175SOL    HW131424   5.903   1.663   3.567
10175SOL    HW231425   5.937   1.746   3.703
10176SOL     OW31426   0.744   3.507   4.734
10176SOL    HW131427   0.775   3.601   4.722
10176SOL    HW231428   0.742   3.484   4.831
10177SOL     OW31429   2.571   0.656   1.463
10177SOL    HW131430   2.620   0.578   1.503
10177SOL    HW231431   2.507   0.623   1.394
10178SOL     OW31432   0.649   1.182   6.098
10178SOL    HW131433   0.551   1.197   6.113
10178SOL    HW231434   0.663   1.093   6.055
10179SOL     OW31435   0.576   2.731   6.773
10179SOL    HW131436   0.675   2.739   6.764
10179SOL    HW231437   0.531   2.790   6.707
10180SOL     OW31438   4.191   0.594   6.108
10180SOL    HW131439   4.194   0.505   6.061
10180SOL    HW231440   4.254   0.657   6.063
10181SOL     OW31441   6.215   3.249   0.979
10181SOL    HW131442   6.126   3.292   0.991
10181SOL    HW231443   6.246   3.212   1.067
10182SOL     OW31444   4.749   0.915   1.810
10182SOL    HW131445   4.690   0.991   1.784
10182SOL    HW231446   4.728   0.888   1.904
10183SOL     OW31447   6.852   3.025   6.473
10183SOL    HW131448   6.807   3.082   6.542
10183SOL    HW231449   6.802   2.939   6.462
10184SOL     OW31450   3.977   1.539   6.079
10184SOL    HW131451   4.025   1.618   6.041
10184SOL    HW231452   4.041   1.487   6.137
10185SOL     OW31453   6.282   5.780   3.180
10185SOL    HW131454   6.221   5.800   3.103
10185SOL    HW231455   6.377   5.795   3.153
10186SOL     OW31456   5.865   3.650   3.863
10186SOL    HW131457   5.923   3.576   3.897
10186SOL    HW231458   5.819   3.620   3.780
10187SOL     OW31459   1.312   3.585   0.552
10187SOL    HW131460   1.392   3.620   0.602
10187SOL    HW231461   1.277   3.656   0.491
10188SOL     OW31462   4.278   5.255   0.679
10188SOL    HW131463   4.225   5.237   0.596
10188SOL    HW231464   4.325   5.172   0.708
10189SOL     OW31465   1.167   1.038   5.953
10189SOL    HW131466   1.244   0.979   5.977
10189SOL    HW231467   1.155   1.040   5.854
10190SOL     OW31468   4.887   3.302   1.828
10190SOL    HW131469   4.954   3.229   1.820
10190SOL    HW231470   4.804   3.277   1.778
10191SOL     OW31471   4.433   6.312   6.551
10191SOL    HW131472   4.508   6.252   6.578
10191SOL    HW231473   4.348   6.281   6.593
10192SOL     OW31474   4.181   1.566   4.885
10192SOL    HW131475   4.258   1.503   4.878
10192SOL    HW231476   4.214   1.658   4.904
10193SOL     OW31477   3.751   3.205   1.890
10193SOL    HW131478   3.675   3.270   1.898
10193SOL    HW231479   3.737   3.129   1.952
10194SOL     OW31480   5.588   5.992   5.439
10194SOL    HW131481   5.558   6.071   5.493
10194SOL    HW231482   5.598   6.019   5.343
10195SOL     OW31483   5.877   5.831   0.424
10195SOL    HW131484   5.888   5.863   0.330
10195SOL    HW231485   5.786   5.791   0.435
10196SOL     OW31486   4.506   1.784   3.748
10196SOL    HW131487   4.580   1.718   3.739
10196SOL    HW231488   4.524   1.863   3.690
10197SOL     OW31489   5.835   0.751   4.982
10197SOL    HW131490   5.744   0.745   4.943
10197SOL    HW231491   5.860   0.846   4.998
10198SOL     OW31492   2.868   6.441   2.757
10198SOL    HW131493   2.885   6.406   2.849
10198SOL    HW231494   2.954   6.468   2.715
10199SOL     OW31495   2.148   3.254   0.606
10199SOL    HW131496   2.248   3.248   0.606
10199SOL    HW231497   2.114   3.247   0.700
10200SOL     OW31498   4.998   2.629   6.301
10200SOL    HW131499   4.925   2.582   6.251
10200SOL    HW231500   4.962   2.714   6.341
10201SOL     OW31501   1.353   5.291   0.209
10201SOL    HW131502   1.389   5.246   0.127
10201SOL    HW231503   1.253   5.284   0.210
10202SOL     OW31504   3.409   4.901   1.013
10202SOL    HW131505   3.390   4.902   1.112
10202SOL    HW231506   3.489   4.844   0.995
10203SOL     OW31507   6.721   2.535   2.273
10203SOL    HW131508   6.804   2.491   2.238
10203SOL    HW231509   6.705   2.505   2.367
10204SOL     OW31510   4.867   5.866   6.973
10204SOL    HW131511   4.925   5.929   6.921
10204SOL    HW231512   4.925   5.801   0.002
10205SOL     OW31513   2.350   0.474   2.139
10205SOL    HW131514   2.343   0.571   2.116
10205SOL    HW231515   2.275   0.425   2.095
10206SOL     OW31516   6.827   0.174   6.403
10206SOL    HW131517   6.824   0.255   6.462
10206SOL    HW231518   6.790   0.197   6.313
10207SOL     OW31519   1.270   2.174   6.767
10207SOL    HW131520   1.246   2.266   6.798
10207SOL    HW231521   1.342   2.180   6.698
10208SOL     OW31522   6.443   4.849   4.004
10208SOL    HW131523   6.462   4.828   3.908
10208SOL    HW231524   6.433   4.948   4.015
10209SOL     OW31525   0.323   0.324   0.385
10209SOL    HW131526   0.229   0.292   0.376
10209SOL    HW231527   0.374   0.260   0.442
10210SOL     OW31528   4.313   6.963   2.006
10210SOL    HW131529   4.295   0.024   1.952
10210SOL    HW231530   4.235   6.946   2.067
10211SOL     OW31531   4.540   6.468   4.321
10211SOL    HW131532   4.497   6.485   4.232
10211SOL    HW231533   4.561   6.371   4.330
10212SOL     OW31534   0.154   0.245   5.592
10212SOL    HW131535   0.125   0.223   5.499
10212SOL    HW231536   0.182   0.161   5.638
10213SOL     OW31537   5.707   2.551   1.656
10213SOL    HW131538   5.646   2.478   1.627
10213SOL    HW231539   5.667   2.640   1.633
10214SOL     OW31540   0.699   1.995   1.368
10214SOL    HW131541   0.765   1.940   1.419
10214SOL    HW231542   0.740   2.024   1.281
10215SOL     OW31543   4.010   3.145   4.061
10215SOL    HW131544   3.920   3.168   4.096
10215SOL    HW231545   4.077   3.148   4.135
10216SOL     OW31546   6.971   0.926   1.504
10216SOL    HW131547   6.875   0.912   1.480
10216SOL    HW231548   7.013   0.989   1.438
10217SOL     OW31549   3.102   1.186   3.215
10217SOL    HW131550   3.152   1.122   3.272
10217SOL    HW231551   3.020   1.142   3.179
10218SOL     OW31552   1.392   1.412   1.809
10218SOL    HW131553   1.318   1.419   1.875
10218SOL    HW231554   1.393   1.493   1.751
10219SOL     OW31555   0.440   1.854   3.301
10219SOL    HW131556   0.427   1.866   3.400
10219SOL    HW231557   0.358   1.885   3.253
10220SOL     OW31558   4.936   1.847   0.685
10220SOL    HW131559   4.839   1.860   0.703
10220SOL    HW231560   4.954   1.750   0.670
10221SOL     OW31561   1.694   4.503   4.256
10221SOL    HW131562   1.636   4.583   4.240
10221SOL    HW231563   1.771   4.504   4.193
10222SOL     OW31564   3.136   4.314   5.251
10222SOL    HW131565   3.077   4.374   5.198
10222SOL    HW231566   3.082   4.238   5.288
10223SOL     OW31567   2.272   4.701   1.374
10223SOL    HW131568   2.265   4.606   1.343
10223SOL    HW231569   2.359   4.714   1.422
10224SOL     OW31570   5.953   2.789   5.727
10224SOL    HW131571   5.986   2.809   5.819
10224SOL    HW231572   5.931   2.692   5.719
10225SOL     OW31573   1.138   5.916   5.304
10225SOL    HW131574   1.199   5.870   5.369
10225SOL    HW231575   1.151   5.876   5.213
10226SOL     OW31576   2.193   0.161   6.194
10226SOL    HW131577   2.109   0.131   6.150
10226SOL    HW231578   2.257   0.085   6.200
10227SOL     OW31579   5.841   4.782   1.136
10227SOL    HW131580   5.775   4.711   1.110
10227SOL    HW231581   5.934   4.750   1.117
10228SOL     OW31582   0.819   6.083   2.090
10228SOL    HW131583   0.788   6.100   1.997
10228SOL    HW231584   0.858   6.167   2.129
10229SOL     OW31585   1.794   3.247   4.944
10229SOL    HW131586   1.877   3.194   4.963
10229SOL    HW231587   1.748   3.209   4.863
10230SOL     OW31588   6.189   6.429   3.009
10230SOL    HW131589   6.289   6.433   3.012
10230SOL    HW231590   6.160   6.369   2.934
10231SOL     OW31591   6.690   4.610   5.273
10231SOL    HW131592   6.639   4.542   5.222
10231SOL    HW231593   6.630   4.655   5.339
10232SOL     OW31594   3.645   1.129   3.838
10232SOL    HW131595   3.625   1.160   3.931
10232SOL    HW231596   3.574   1.066   3.808
10233SOL     OW31597   3.955   3.931   4.860
10233SOL    HW131598   4.037   3.989   4.864
10233SOL    HW231599   3.930   3.915   4.764
10234SOL     OW31600   6.000   0.653   0.498
10234SOL    HW131601   6.011   0.746   0.533
10234SOL    HW231602   5.906   0.623   0.510
10235SOL     OW31603   3.258   2.228   1.184
10235SOL    HW131604   3.277   2.310   1.130
10235SOL    HW231605   3.212   2.254   1.269
10236SOL     OW31606   2.513   1.051   0.600
10236SOL    HW131607   2.495   1.003   0.514
10236SOL    HW231608   2.558   1.138   0.580
10237SOL     OW31609   0.956   4.349   6.263
10237SOL    HW131610   0.956   4.296   6.348
10237SOL    HW231611   0.955   4.446   6.283
10238SOL     OW31612   3.895   4.294   1.710
10238SOL    HW131613   3.804   4.309   1.749
10238SOL    HW231614   3.909   4.196   1.697
10239SOL     OW31615   1.890   3.551   5.931
10239SOL    HW131616   1.933   3.505   5.853
10239SOL    HW231617   1.933   3.640   5.944
10240SOL     OW31618   1.766   4.700   2.488
10240SOL    HW131619   1.732   4.793   2.488
10240SOL    HW231620   1.788   4.673   2.394
10241SOL     OW31621   0.248   6.225   3.265
10241SOL    HW131622   0.274   6.278   3.345
10241SOL    HW231623   0.237   6.129   3.290
10242SOL     OW31624   0.325   0.986   1.014
10242SOL    HW131625   0.415   1.020   0.986
10242SOL    HW231626   0.279   0.947   0.934
10243SOL     OW31627   2.323   4.216   2.525
10243SOL    HW131628   2.325   4.122   2.560
10243SOL    HW231629   2.289   4.216   2.431
10244SOL     OW31630   1.490   4.348   0.618
10244SOL    HW131631   1.457   4.442   0.620
10244SOL    HW231632   1.517   4.324   0.524
10245SOL     OW31633   3.512   3.818   1.793
10245SOL    HW131634   3.429   3.773   1.826
10245SOL    HW231635   3.567   3.847   1.871
10246SOL     OW31636   3.449   3.375   4.237
10246SOL    HW131637   3.461   3.285   4.280
10246SOL    HW231638   3.534   3.403   4.195
10247SOL     OW31639   6.611   4.253   6.001
10247SOL    HW131640   6.580   4.264   5.906
10247SOL    HW231641   6.595   4.159   6.031
10248SOL     OW31642   1.691   6.431   2.645
10248SOL    HW131643   1.731   6.511   2.600
10248SOL    HW231644   1.658   6.367   2.575
10249SOL     OW31645   3.355   5.887   6.511
10249SOL    HW131646   3.382   5.943   6.432
10249SOL    HW231647   3.380   5.935   6.595
10250SOL     OW31648   6.778   2.700   1.722
10250SOL    HW131649   6.695   2.708   1.667
10250SOL    HW231650   6.760   2.735   1.814
10251SOL     OW31651   2.078   1.760   5.232
10251SOL    HW131652   2.128   1.689   5.182
10251SOL    HW231653   2.032   1.720   5.310
10252SOL     OW31654   3.827   4.542   6.251
10252SOL    HW131655   3.835   4.626   6.305
10252SOL    HW231656   3.817   4.566   6.154
10253SOL     OW31657   2.818   6.319   0.905
10253SOL    HW131658   2.765   6.235   0.908
10253SOL    HW231659   2.764   6.395   0.943
10254SOL     OW31660   5.283   1.530   5.879
10254SOL    HW131661   5.285   1.541   5.978
10254SOL    HW231662   5.276   1.620   5.835
10255SOL     OW31663   2.538   6.229   1.647
10255SOL    HW131664   2.452   6.272   1.620
10255SOL    HW231665   2.524   6.178   1.733
10256SOL     OW31666   4.869   1.996   2.040
10256SOL    HW131667   4.855   1.957   2.131
10256SOL    HW231668   4.924   1.934   1.985
10257SOL     OW31669   1.671   4.774   4.736
10257SOL    HW131670   1.600   4.742   4.798
10257SOL    HW231671   1.695   4.868   4.759
10258SOL     OW31672   3.348   1.534   3.454
10258SOL    HW131673   3.342   1.437   3.428
10258SOL    HW231674   3.388   1.586   3.379
10259SOL     OW31675   1.206   4.781   2.901
10259SOL    HW131676   1.303   4.786   2.927
10259SOL    HW231677   1.149   4.792   2.982
10260SOL     OW31678   1.176   1.505   3.429
10260SOL    HW131679   1.146   1.542   3.516
10260SOL    HW231680   1.222   1.576   3.376
10261SOL     OW31681   6.748   4.010   1.880
10261SOL    HW131682   6.786   3.956   1.805
10261SOL    HW231683   6.760   3.961   1.966
10262SOL     OW31684   2.266   6.842   5.595
10262SOL    HW131685   2.299   6.766   5.538
10262SOL    HW231686   2.255   6.810   5.689
10263SOL     OW31687   5.389   0.199   0.099
10263SOL    HW131688   5.329   0.149   0.162
10263SOL    HW231689   5.373   0.166   0.006
10264SOL     OW31690   6.204   0.077   6.529
10264SOL    HW131691   6.177   0.140   6.602
10264SOL    HW231692   6.123   0.029   6.496
10265SOL     OW31693   2.733   2.472   1.279
10265SOL    HW131694   2.714   2.513   1.368
10265SOL    HW231695   2.830   2.449   1.272
10266SOL     OW31696   3.893   3.079   3.561
10266SOL    HW131697   3.843   3.006   3.515
10266SOL    HW231698   3.972   3.105   3.506
10267SOL     OW31699   5.665   2.512   0.009
10267SOL    HW131700   5.602   2.487   6.956
10267SOL    HW231701   5.637   2.466   0.093
10268SOL     OW31702   5.907   5.712   2.763
10268SOL    HW131703   5.974   5.760   2.819
10268SOL    HW231704   5.859   5.644   2.819
10269SOL     OW31705   1.106   3.668   6.832
10269SOL    HW131706   1.034   3.629   6.889
10269SOL    HW231707   1.109   3.619   6.745
10270SOL     OW31708   3.217   4.878   2.619
10270SOL    HW131709   3.147   4.852   2.551
10270SOL    HW231710   3.307   4.868   2.578
10271SOL     OW31711   3.667   2.701   6.587
10271SOL    HW131712   3.585   2.726   6.536
10271SOL    HW231713   3.739   2.768   6.569
10272SOL     OW31714   1.451   1.461   5.441
10272SOL    HW131715   1.385   1.523   5.399
10272SOL    HW231716   1.539   1.508   5.453
10273SOL     OW31717   2.707   5.212   2.644
10273SOL    HW131718   2.735   5.116   2.640
10273SOL    HW231719   2.684   5.245   2.552
10274SOL     OW31720   0.830   4.755   5.633
10274SOL    HW131721   0.865   4.677   5.685
10274SOL    HW231722   0.905   4.800   5.585
10275SOL     OW31723   0.778   6.317   2.506
10275SOL    HW131724   0.749   6.389   2.569
10275SOL    HW231725   0.783   6.355   2.414
10276SOL     OW31726   5.585   5.398   5.574
10276SOL    HW131727   5.630   5.447   5.649
10276SOL    HW231728   5.611   5.301   5.577
10277SOL     OW31729   1.382   6.147   4.525
10277SOL    HW131730   1.447   6.114   4.457
10277SOL    HW231731   1.290   6.116   4.501
10278SOL     OW31732   1.138   1.643   3.663
10278SOL    HW131733   1.098   1.711   3.602
10278SOL    HW231734   1.201   1.688   3.727
10279SOL     OW31735   1.728   4.841   4.316
10279SOL    HW131736   1.689   4.782   4.245
10279SOL    HW231737   1.808   4.796   4.356
10280SOL     OW31738   6.936   3.008   0.056
10280SOL    HW131739   6.924   2.920   0.009
10280SOL    HW231740   7.019   3.053   0.021
10281SOL     OW31741   5.625   1.204   2.745
10281SOL    HW131742   5.627   1.303   2.761
10281SOL    HW231743   5.710   1.163   2.779
10282SOL     OW31744   5.499   4.006   4.462
10282SOL    HW131745   5.583   3.972   4.421
10282SOL    HW231746   5.450   3.930   4.506
10283SOL     OW31747   2.051   3.131   0.853
10283SOL    HW131748   2.042   3.059   0.785
10283SOL    HW231749   2.103   3.097   0.931
10284SOL     OW31750   4.904   2.260   5.120
10284SOL    HW131751   4.894   2.315   5.037
10284SOL    HW231752   4.981   2.295   5.174
10285SOL     OW31753   5.568   6.764   2.545
10285SOL    HW131754   5.533   6.684   2.497
10285SOL    HW231755   5.566   6.844   2.484
10286SOL     OW31756   3.594   2.005   3.426
10286SOL    HW131757   3.511   2.048   3.461
10286SOL    HW231758   3.625   2.054   3.344
10287SOL     OW31759   2.470   6.089   1.885
10287SOL    HW131760   2.455   6.140   1.970
10287SOL    HW231761   2.511   6.001   1.905
10288SOL     OW31762   4.629   5.204   3.117
10288SOL    HW131763   4.688   5.126   3.094
10288SOL    HW231764   4.535   5.172   3.128
10289SOL     OW31765   2.569   6.225   0.235
10289SOL    HW131766   2.591   6.270   0.149
10289SOL    HW231767   2.472   6.241   0.257
10290SOL     OW31768   2.921   3.718   2.811
10290SOL    HW131769   2.940   3.804   2.858
10290SOL    HW231770   2.887   3.736   2.719
10291SOL     OW31771   3.744   1.484   2.560
10291SOL    HW131772   3.761   1.575   2.598
10291SOL    HW231773   3.830   1.445   2.528
10292SOL     OW31774   1.697   1.598   5.418
10292SOL    HW131775   1.687   1.669   5.488
10292SOL    HW231776   1.744   1.519   5.458
10293SOL     OW31777   2.179   3.852   2.456
10293SOL    HW131778   2.184   3.876   2.553
10293SOL    HW231779   2.166   3.754   2.446
10294SOL     OW31780   5.257   2.834   3.248
10294SOL    HW131781   5.276   2.917   3.300
10294SOL    HW231782   5.216   2.860   3.160
10295SOL     OW31783   0.486   3.587   5.631
10295SOL    HW131784   0.431   3.607   5.549
10295SOL    HW231785   0.446   3.633   5.710
10296SOL     OW31786   4.939   1.446   0.057
10296SOL    HW131787   4.999   1.377   0.096
10296SOL    HW231788   4.955   1.452   6.979
10297SOL     OW31789   1.856   0.010   6.398
10297SOL    HW131790   1.910   6.952   6.368
10297SOL    HW231791   1.873   0.027   6.495
10298SOL     OW31792   2.434   4.450   1.262
10298SOL    HW131793   2.476   4.540   1.274
10298SOL    HW231794   2.477   4.404   1.184
10299SOL     OW31795   4.451   4.530   2.925
10299SOL    HW131796   4.385   4.517   2.999
10299SOL    HW231797   4.485   4.624   2.927
10300SOL     OW31798   1.051   4.307   2.330
10300SOL    HW131799   1.043   4.341   2.237
10300SOL    HW231800   1.098   4.219   2.330
10301SOL     OW31801   5.108   2.569   4.065
10301SOL    HW131802   5.119   2.661   4.028
10301SOL    HW231803   5.035   2.569   4.133
10302SOL     OW31804   1.944   6.583   4.463
10302SOL    HW131805   1.986   6.638   4.535
10302SOL    HW231806   1.846   6.573   4.482
10303SOL     OW31807   1.687   6.061   3.348
10303SOL    HW131808   1.683   6.061   3.248
10303SOL    HW231809   1.759   5.999   3.379
10304SOL     OW31810   5.603   0.211   1.394
10304SOL    HW131811   5.529   0.249   1.449
10304SOL    HW231812   5.669   0.166   1.455
10305SOL     OW31813   1.332   4.228   6.646
10305SOL    HW131814   1.418   4.186   6.674
10305SOL    HW231815   1.345   4.275   6.559
10306SOL     OW31816   5.101   6.373   6.849
10306SOL    HW131817   5.156   6.437   6.795
10306SOL    HW231818   5.086   6.410   6.941
10307SOL     OW31819   2.909   2.142   5.043
10307SOL    HW131820   2.888   2.196   5.124
10307SOL    HW231821   2.998   2.170   5.007
10308SOL     OW31822   1.825   3.639   3.014
10308SOL    HW131823   1.799   3.585   3.094
10308SOL    HW231824   1.782   3.601   2.932
10309SOL     OW31825   6.991   1.573   6.564
10309SOL    HW131826   0.061   1.574   6.522
10309SOL    HW231827   6.980   1.655   6.620
10310SOL     OW31828   3.086   3.621   1.230
10310SOL    HW131829   3.124   3.664   1.148
10310SOL    HW231830   2.993   3.654   1.246
10311SOL     OW31831   0.225   6.049   0.585
10311SOL    HW131832   0.239   5.955   0.618
10311SOL    HW231833   0.128   6.063   0.565
10312SOL     OW31834   3.291   5.553   2.794
10312SOL    HW131835   3.325   5.597   2.711
10312SOL    HW231836   3.215   5.492   2.771
10313SOL     OW31837   4.602   6.268   2.172
10313SOL    HW131838   4.610   6.341   2.103
10313SOL    HW231839   4.506   6.243   2.183
10314SOL     OW31840   6.151   0.577   1.517
10314SOL    HW131841   6.129   0.575   1.419
10314SOL    HW231842   6.131   0.488   1.558
10315SOL     OW31843   4.963   5.594   5.431
10315SOL    HW131844   5.031   5.635   5.492
10315SOL    HW231845   4.940   5.659   5.359
10316SOL     OW31846   5.405   1.867   4.850
10316SOL    HW131847   5.338   1.836   4.782
10316SOL    HW231848   5.484   1.805   4.849
10317SOL     OW31849   4.790   5.517   4.972
10317SOL    HW131850   4.694   5.541   4.986
10317SOL    HW231851   4.848   5.579   5.025
10318SOL     OW31852   5.370   0.037   6.333
10318SOL    HW131853   5.350   0.024   6.431
10318SOL    HW231854   5.465   0.012   6.315
10319SOL     OW31855   1.192   2.865   5.432
10319SOL    HW131856   1.179   2.769   5.458
10319SOL    HW231857   1.277   2.873   5.379
10320SOL     OW31858   0.166   1.096   2.617
10320SOL    HW131859   0.127   1.162   2.553
10320SOL    HW231860   0.149   1.003   2.584
10321SOL     OW31861   4.029   2.088   1.482
10321SOL    HW131862   4.032   2.012   1.547
10321SOL    HW231863   4.022   2.053   1.389
10322SOL     OW31864   6.411   5.771   5.364
10322SOL    HW131865   6.466   5.709   5.308
10322SOL    HW231866   6.314   5.748   5.354
10323SOL     OW31867   5.720   3.262   5.550
10323SOL    HW131868   5.733   3.277   5.452
10323SOL    HW231869   5.630   3.220   5.566
10324SOL     OW31870   3.190   3.304   2.326
10324SOL    HW131871   3.104   3.297   2.377
10324SOL    HW231872   3.179   3.369   2.251
10325SOL     OW31873   0.047   3.398   2.030
10325SOL    HW131874   6.978   3.434   2.053
10325SOL    HW231875   0.039   3.328   1.959
10326SOL     OW31876   3.287   5.331   0.236
10326SOL    HW131877   3.310   5.273   0.158
10326SOL    HW231878   3.370   5.352   0.288
10327SOL     OW31879   2.362   1.320   0.995
10327SOL    HW131880   2.293   1.357   1.057
10327SOL    HW231881   2.402   1.393   0.941
10328SOL     OW31882   6.068   2.159   0.881
10328SOL    HW131883   5.996   2.091   0.892
10328SOL    HW231884   6.045   2.221   0.806
10329SOL     OW31885   3.978   0.443   3.651
10329SOL    HW131886   3.918   0.520   3.676
10329SOL    HW231887   3.946   0.404   3.565
10330SOL     OW31888   4.875   0.565   2.117
10330SOL    HW131889   4.867   0.594   2.021
10330SOL    HW231890   4.827   0.478   2.129
10331SOL     OW31891   6.518   0.835   5.667
10331SOL    HW131892   6.597   0.779   5.689
10331SOL    HW231893   6.544   0.905   5.600
10332SOL     OW31894   6.963   6.883   0.854
10332SOL    HW131895   6.992   6.790   0.834
10332SOL    HW231896   6.871   6.899   0.817
10333SOL     OW31897   6.879   4.878   4.491
10333SOL    HW131898   6.818   4.813   4.536
10333SOL    HW231899   6.830   4.963   4.473
10334SOL     OW31900   3.841   6.617   3.555
10334SOL    HW131901   3.840   6.537   3.496
10334SOL    HW231902   3.792   6.692   3.509
10335SOL     OW31903   3.412   4.368   0.172
10335SOL    HW131904   3.372   4.308   0.103
10335SOL    HW231905   3.341   4.398   0.236
10336SOL     OW31906   7.020   6.538   2.102
10336SOL    HW131907   6.988   6.608   2.166
10336SOL    HW231908   0.023   6.455   2.153
10337SOL     OW31909   0.165   6.737   5.945
10337SOL    HW131910   0.242   6.714   5.885
10337SOL    HW231911   0.085   6.760   5.889
10338SOL     OW31912   2.240   6.559   3.059
10338SOL    HW131913   2.152   6.600   3.081
10338SOL    HW231914   2.243   6.535   2.962
10339SOL     OW31915   3.637   4.742   0.324
10339SOL    HW131916   3.687   4.813   0.274
10339SOL    HW231917   3.641   4.657   0.273
10340SOL     OW31918   1.892   4.160   0.911
10340SOL    HW131919   1.825   4.221   0.870
10340SOL    HW231920   1.901   4.180   1.008
10341SOL     OW31921   1.999   3.393   1.846
10341SOL    HW131922   1.955   3.473   1.804
10341SOL    HW231923   2.076   3.423   1.902
10342SOL     OW31924   0.944   0.206   5.449
10342SOL    HW131925   1.043   0.213   5.437
10342SOL    HW231926   0.899   0.222   5.361
10343SOL     OW31927   3.398   6.085   6.318
10343SOL    HW131928   3.307   6.121   6.336
10343SOL    HW231929   3.436   6.128   6.236
10344SOL     OW31930   4.533   4.139   1.611
10344SOL    HW131931   4.631   4.137   1.627
10344SOL    HW231932   4.486   4.174   1.693
10345SOL     OW31933   1.883   0.985   6.758
10345SOL    HW131934   1.785   0.987   6.778
10345SOL    HW231935   1.924   1.073   6.781
10346SOL     OW31936   6.502   6.492   1.742
10346SOL    HW131937   6.435   6.437   1.791
10346SOL    HW231938   6.469   6.586   1.733
10347SOL     OW31939   4.882   2.140   2.961
10347SOL    HW131940   4.840   2.060   3.005
10347SOL    HW231941   4.917   2.203   3.030
10348SOL     OW31942   6.440   1.629   0.033
10348SOL    HW131943   6.537   1.651   0.026
10348SOL    HW231944   6.386   1.699   7.007
10349SOL     OW31945   0.068   0.601   0.980
10349SOL    HW131946   0.128   0.610   1.060
10349SOL    HW231947   7.010   0.662   0.990
10350SOL     OW31948   1.669   6.871   5.424
10350SOL    HW131949   1.648   6.908   5.514
10350SOL    HW231950   1.728   6.790   5.434
10351SOL     OW31951   4.424   5.150   6.094
10351SOL    HW131952   4.379   5.065   6.121
10351SOL    HW231953   4.390   5.225   6.150
10352SOL     OW31954   4.049   2.019   5.710
10352SOL    HW131955   4.001   1.975   5.786
10352SOL    HW231956   4.013   2.111   5.696
10353SOL     OW31957   6.667   2.314   5.721
10353SOL    HW131958   6.604   2.364   5.780
10353SOL    HW231959   6.708   2.238   5.772
10354SOL     OW31960   5.996   2.453   2.035
10354SOL    HW131961   6.025   2.358   2.024
10354SOL    HW231962   5.909   2.467   1.986
10355SOL     OW31963   1.769   6.901   2.186
10355SOL    HW131964   1.736   6.995   2.192
10355SOL    HW231965   1.703   6.846   2.134
10356SOL     OW31966   0.618   4.224   6.324
10356SOL    HW131967   0.620   4.312   6.371
10356SOL    HW231968   0.604   4.238   6.226
10357SOL     OW31969   2.430   3.270   5.968
10357SOL    HW131970   2.500   3.199   5.960
10357SOL    HW231971   2.446   3.323   6.052
10358SOL     OW31972   6.552   2.703   2.575
10358SOL    HW131973   6.616   2.766   2.619
10358SOL    HW231974   6.597   2.616   2.558
10359SOL     OW31975   0.150   1.831   1.465
10359SOL    HW131976   0.120   1.795   1.553
10359SOL    HW231977   0.108   1.920   1.449
10360SOL     OW31978   4.890   5.482   2.663
10360SOL    HW131979   4.873   5.393   2.706
10360SOL    HW231980   4.809   5.513   2.615
10361SOL     OW31981   3.096   0.306   3.116
10361SOL    HW131982   3.072   0.377   3.050
10361SOL    HW231983   3.126   0.348   3.201
10362SOL     OW31984   0.797   5.200   4.736
10362SOL    HW131985   0.736   5.130   4.772
10362SOL    HW231986   0.766   5.290   4.766
10363SOL     OW31987   4.915   1.606   0.911
10363SOL    HW131988   4.882   1.513   0.897
10363SOL    HW231989   4.907   1.630   1.008
10364SOL     OW31990   3.292   3.714   1.935
10364SOL    HW131991   3.300   3.618   1.909
10364SOL    HW231992   3.289   3.722   2.034
10365SOL     OW31993   4.730   4.621   5.860
10365SOL    HW131994   4.712   4.618   5.762
10365SOL    HW231995   4.666   4.561   5.907
10366SOL     OW31996   4.330   0.407   4.284
10366SOL    HW131997   4.350   0.370   4.375
10366SOL    HW231998   4.320   0.506   4.290
10367SOL     OW31999   6.540   1.886   2.476
10367SOL    HW132000   6.466   1.830   2.512
10367SOL    HW232001   6.508   1.935   2.395
10368SOL     OW32002   2.130   1.074   1.893
10368SOL    HW132003   2.130   0.974   1.888
10368SOL    HW232004   2.047   1.105   1.940
10369SOL     OW32005   4.013   1.329   4.967
10369SOL    HW132006   3.991   1.297   4.875
10369SOL    HW232007   4.071   1.409   4.961
10370SOL     OW32008   5.335   1.917   5.360
10370SOL    HW132009   5.274   1.996   5.355
10370SOL    HW232010   5.376   1.901   5.270
10371SOL     OW32011   2.457   5.890   4.406
10371SOL    HW132012   2.373   5.874   4.458
10371SOL    HW232013   2.435   5.900   4.309
10372SOL     OW32014   1.165   1.512   0.277
10372SOL    HW132015   1.166   1.571   0.196
10372SOL    HW232016   1.251   1.461   0.281
10373SOL     OW32017   2.221   6.066   4.678
10373SOL    HW132018   2.202   5.992   4.614
10373SOL    HW232019   2.152   6.137   4.669
10374SOL     OW32020   4.197   0.845   2.544
10374SOL    HW132021   4.238   0.931   2.574
10374SOL    HW232022   4.141   0.807   2.618
10375SOL     OW32023   2.768   1.549   6.054
10375SOL    HW132024   2.670   1.533   6.062
10375SOL    HW232025   2.813   1.465   6.022
10376SOL     OW32026   1.464   6.526   4.406
10376SOL    HW132027   1.376   6.573   4.406
10376SOL    HW232028   1.538   6.591   4.389
10377SOL     OW32029   6.862   0.860   4.191
10377SOL    HW132030   6.839   0.956   4.174
10377SOL    HW232031   6.806   0.801   4.133
10378SOL     OW32032   6.270   6.926   6.220
10378SOL    HW132033   6.240   6.902   6.312
10378SOL    HW232034   6.322   7.011   6.222
10379SOL     OW32035   3.089   6.404   4.742
10379SOL    HW132036   3.057   6.456   4.663
10379SOL    HW232037   3.086   6.306   4.722
10380SOL     OW32038   0.656   1.445   4.089
10380SOL    HW132039   0.627   1.466   4.182
10380SOL    HW232040   0.750   1.409   4.091
10381SOL     OW32041   4.143   5.532   0.235
10381SOL    HW132042   4.206   5.609   0.223
10381SOL    HW232043   4.145   5.474   0.153
10382SOL     OW32044   2.305   4.499   0.243
10382SOL    HW132045   2.313   4.417   0.187
10382SOL    HW232046   2.395   4.526   0.277
10383SOL     OW32047   0.335   3.706   0.301
10383SOL    HW132048   0.422   3.675   0.262
10383SOL    HW232049   0.326   3.672   0.394
10384SOL     OW32050   0.808   0.011   1.094
10384SOL    HW132051   0.852   0.046   1.011
10384SOL    HW232052   0.877   7.012   1.162
10385SOL     OW32053   3.184   6.519   5.676
10385SOL    HW132054   3.107   6.531   5.739
10385SOL    HW232055   3.257   6.583   5.700
10386SOL     OW32056   6.224   2.998   6.158
10386SOL    HW132057   6.258   2.979   6.250
10386SOL    HW232058   6.249   3.091   6.131
10387SOL     OW32059   4.283   2.355   2.922
10387SOL    HW132060   4.295   2.257   2.904
10387SOL    HW232061   4.345   2.407   2.864
10388SOL     OW32062   1.895   5.689   2.713
10388SOL    HW132063   1.933   5.610   2.665
10388SOL    HW232064   1.956   5.715   2.788
10389SOL     OW32065   0.474   6.566   1.952
10389SOL    HW132066   0.390   6.611   1.921
10389SOL    HW232067   0.553   6.610   1.909
10390SOL     OW32068   1.627   3.247   1.581
10390SOL    HW132069   1.537   3.253   1.538
10390SOL    HW232070   1.622   3.184   1.659
10391SOL     OW32071   1.269   5.693   4.675
10391SOL    HW132072   1.235   5.658   4.762
10391SOL    HW232073   1.369   5.694   4.676
10392SOL     OW32074   6.296   3.947   0.080
10392SOL    HW132075   6.387   3.912   0.059
10392SOL    HW232076   6.247   3.968   7.016
10393SOL     OW32077   2.216   2.114   2.686
10393SOL    HW132078   2.286   2.167   2.734
10393SOL    HW232079   2.200   2.155   2.596
10394SOL     OW32080   2.305   6.482   4.841
10394SOL    HW132081   2.224   6.459   4.894
10394SOL    HW232082   2.345   6.567   4.875
10395SOL     OW32083   6.428   0.476   3.222
10395SOL    HW132084   6.501   0.455   3.157
10395SOL    HW232085   6.346   0.505   3.172
10396SOL     OW32086   2.427   0.844   4.144
10396SOL    HW132087   2.387   0.764   4.099
10396SOL    HW232088   2.413   0.925   4.087
10397SOL     OW32089   3.019   2.157   3.803
10397SOL    HW132090   3.110   2.197   3.807
10397SOL    HW232091   2.954   2.217   3.850
10398SOL     OW32092   5.567   2.906   0.620
10398SOL    HW132093   5.551   2.941   0.528
10398SOL    HW232094   5.500   2.944   0.683
10399SOL     OW32095   4.258   1.892   4.518
10399SOL    HW132096   4.305   1.806   4.498
10399SOL    HW232097   4.175   1.898   4.462
10400SOL     OW32098   3.610   5.731   1.705
10400SOL    HW132099   3.619   5.827   1.731
10400SOL    HW232100   3.695   5.683   1.724
10401SOL     OW32101   6.595   0.428   3.022
10401SOL    HW132102   6.677   0.485   3.037
10401SOL    HW232103   6.533   0.475   2.959
10402SOL     OW32104   0.073   2.545   5.549
10402SOL    HW132105   7.000   2.515   5.530
10402SOL    HW232106   0.137   2.476   5.518
10403SOL     OW32107   5.142   1.413   2.599
10403SOL    HW132108   5.227   1.384   2.643
10403SOL    HW232109   5.065   1.392   2.659
10404SOL     OW32110   0.713   6.542   3.523
10404SOL    HW132111   0.711   6.641   3.508
10404SOL    HW232112   0.678   6.496   3.441
10405SOL     OW32113   1.460   5.431   4.886
10405SOL    HW132114   1.426   5.525   4.880
10405SOL    HW232115   1.383   5.368   4.889
10406SOL     OW32116   2.183   3.768   5.050
10406SOL    HW132117   2.245   3.695   5.080
10406SOL    HW232118   2.234   3.854   5.043
10407SOL     OW32119   1.630   0.313   6.534
10407SOL    HW132120   1.652   0.283   6.627
10407SOL    HW232121   1.561   0.252   6.496
10408SOL     OW32122   4.083   6.107   2.061
10408SOL    HW132123   4.141   6.041   2.110
10408SOL    HW232124   4.075   6.080   1.966
10409SOL     OW32125   0.101   4.018   1.091
10409SOL    HW132126   0.154   4.103   1.094
10409SOL    HW232127   0.090   3.989   0.996
10410SOL     OW32128   5.250   1.462   1.161
10410SOL    HW132129   5.318   1.400   1.201
10410SOL    HW232130   5.295   1.547   1.134
10411SOL     OW32131   3.721   5.484   4.294
10411SOL    HW132132   3.760   5.392   4.281
10411SOL    HW232133   3.668   5.486   4.379
10412SOL     OW32134   0.603   1.162   0.557
10412SOL    HW132135   0.687   1.174   0.611
10412SOL    HW232136   0.556   1.078   0.587
10413SOL     OW32137   7.002   2.058   0.877
10413SOL    HW132138   6.934   2.079   0.807
10413SOL    HW232139   6.997   2.127   0.950
10414SOL     OW32140   4.842   6.163   5.578
10414SOL    HW132141   4.892   6.202   5.656
10414SOL    HW232142   4.871   6.068   5.565
10415SOL     OW32143   2.405   4.749   3.754
10415SOL    HW132144   2.412   4.790   3.663
10415SOL    HW232145   2.319   4.699   3.762
10416SOL     OW32146   6.508   1.102   5.537
10416SOL    HW132147   6.566   1.181   5.558
10416SOL    HW232148   6.419   1.112   5.582
10417SOL     OW32149   4.742   4.114   4.040
10417SOL    HW132150   4.789   4.047   4.097
10417SOL    HW232151   4.706   4.188   4.097
10418SOL     OW32152   6.491   4.212   5.310
10418SOL    HW132153   6.464   4.116   5.306
10418SOL    HW232154   6.432   4.261   5.374
10419SOL     OW32155   2.878   0.348   5.350
10419SOL    HW132156   2.834   0.355   5.440
10419SOL    HW232157   2.947   0.275   5.353
10420SOL     OW32158   6.821   3.679   3.907
10420SOL    HW132159   6.811   3.712   3.813
10420SOL    HW232160   6.875   3.595   3.907
10421SOL     OW32161   1.269   2.956   4.216
10421SOL    HW132162   1.341   3.022   4.191
10421SOL    HW232163   1.238   2.909   4.133
10422SOL     OW32164   6.854   3.632   5.884
10422SOL    HW132165   6.812   3.572   5.816
10422SOL    HW232166   6.895   3.576   5.957
10423SOL     OW32167   4.012   5.064   4.929
10423SOL    HW132168   4.078   4.994   4.954
10423SOL    HW232169   4.036   5.150   4.974
10424SOL     OW32170   4.729   2.241   6.800
10424SOL    HW132171   4.800   2.307   6.821
10424SOL    HW232172   4.640   2.286   6.801
10425SOL     OW32173   0.466   6.429   2.194
10425SOL    HW132174   0.494   6.350   2.140
10425SOL    HW232175   0.466   6.511   2.137
10426SOL     OW32176   5.044   3.687   5.832
10426SOL    HW132177   5.006   3.598   5.860
10426SOL    HW232178   5.108   3.673   5.757
10427SOL     OW32179   5.203   6.169   6.072
10427SOL    HW132180   5.233   6.263   6.087
10427SOL    HW232181   5.120   6.151   6.125
10428SOL     OW32182   1.884   1.708   4.116
10428SOL    HW132183   1.976   1.726   4.081
10428SOL    HW232184   1.886   1.712   4.216
10429SOL     OW32185   1.190   3.644   2.919
10429SOL    HW132186   1.141   3.665   2.834
10429SOL    HW232187   1.148   3.693   2.995
10430SOL     OW32188   3.948   6.312   4.316
10430SOL    HW132189   3.874   6.378   4.328
10430SOL    HW232190   3.951   6.250   4.394
10431SOL     OW32191   2.859   0.654   3.976
10431SOL    HW132192   2.835   0.611   3.889
10431SOL    HW232193   2.948   0.698   3.968
10432SOL     OW32194   0.552   1.578   5.267
10432SOL    HW132195   0.520   1.524   5.345
10432SOL    HW232196   0.651   1.565   5.256
10433SOL     OW32197   0.162   6.417   1.731
10433SOL    HW132198   0.123   6.429   1.640
10433SOL    HW232199   0.168   6.319   1.752
10434SOL     OW32200   4.599   6.046   4.588
10434SOL    HW132201   4.560   5.954   4.584
10434SOL    HW232202   4.693   6.044   4.553
10435SOL     OW32203   1.476   1.896   5.891
10435SOL    HW132204   1.530   1.848   5.960
10435SOL    HW232205   1.496   1.994   5.895
10436SOL     OW32206   6.389   4.136   3.834
10436SOL    HW132207   6.478   4.108   3.869
10436SOL    HW232208   6.322   4.135   3.909
10437SOL     OW32209   5.384   4.902   5.244
10437SOL    HW132210   5.347   4.996   5.244
10437SOL    HW232211   5.481   4.904   5.266
10438SOL     OW32212   0.034   6.026   5.905
10438SOL    HW132213   7.012   6.086   5.838
10438SOL    HW232214   0.063   6.079   5.984
10439SOL     OW32215   5.586   0.969   5.142
10439SOL    HW132216   5.587   0.939   5.046
10439SOL    HW232217   5.565   1.066   5.146
10440SOL     OW32218   6.725   6.478   6.788
10440SOL    HW132219   6.729   6.539   6.867
10440SOL    HW232220   6.794   6.406   6.798
10441SOL     OW32221   3.059   1.583   0.937
10441SOL    HW132222   3.091   1.628   0.853
10441SOL    HW232223   3.127   1.515   0.966
10442SOL     OW32224   4.397   0.526   4.728
10442SOL    HW132225   4.435   0.455   4.787
10442SOL    HW232226   4.468   0.559   4.666
10443SOL     OW32227   6.441   2.491   2.938
10443SOL    HW132228   6.452   2.421   3.009
10443SOL    HW232229   6.357   2.543   2.955
10444SOL     OW32230   3.039   5.169   3.142
10444SOL    HW132231   3.036   5.173   3.242
10444SOL    HW232232   2.955   5.208   3.105
10445SOL     OW32233   0.724   3.728   2.583
10445SOL    HW132234   0.648   3.750   2.521
10445SOL    HW232235   0.725   3.629   2.600
10446SOL     OW32236   1.774   4.139   6.076
10446SOL    HW132237   1.728   4.063   6.030
10446SOL    HW232238   1.857   4.164   6.026
10447SOL     OW32239   6.535   0.258   1.911
10447SOL    HW132240   6.510   0.314   1.990
10447SOL    HW232241   6.631   0.272   1.889
10448SOL     OW32242   3.291   0.093   3.041
10448SOL    HW132243   3.215   0.130   3.095
10448SOL    HW232244   3.267   0.098   2.944
10449SOL     OW32245   3.168   5.705   6.633
10449SOL    HW132246   3.253   5.743   6.596
10449SOL    HW232247   3.111   5.672   6.557
10450SOL     OW32248   6.749   0.832   6.488
10450SOL    HW132249   6.803   0.903   6.532
10450SOL    HW232250   6.804   0.786   6.418
10451SOL     OW32251   3.477   0.273   2.965
10451SOL    HW132252   3.401   0.216   2.995
10451SOL    HW232253   3.539   0.290   3.042
10452SOL     OW32254   6.949   2.790   2.568
10452SOL    HW132255   6.852   2.813   2.569
10452SOL    HW232256   6.965   2.710   2.626
10453SOL     OW32257   4.286   6.023   2.494
10453SOL    HW132258   4.259   5.976   2.410
10453SOL    HW232259   4.386   6.022   2.503
10454SOL     OW32260   6.055   0.921   0.442
10454SOL    HW132261   5.982   0.981   0.474
10454SOL    HW232262   6.078   0.944   0.348
10455SOL     OW32263   0.178   5.998   4.384
10455SOL    HW132264   0.144   5.906   4.366
10455SOL    HW232265   0.232   6.029   4.307
10456SOL     OW32266   0.298   5.511   0.677
10456SOL    HW132267   0.367   5.459   0.726
10456SOL    HW232268   0.312   5.501   0.578
10457SOL     OW32269   4.019   3.305   6.864
10457SOL    HW132270   3.952   3.337   6.796
10457SOL    HW232271   4.048   3.213   6.841
10458SOL     OW32272   0.051   6.673   6.696
10458SOL    HW132273   6.985   6.712   6.727
10458SOL    HW232274   0.082   6.721   6.614
10459SOL     OW32275   5.859   5.028   0.946
10459SOL    HW132276   5.865   4.973   1.029
10459SOL    HW232277   5.836   5.122   0.971
10460SOL     OW32278   0.235   3.609   1.982
10460SOL    HW132279   0.323   3.637   2.021
10460SOL    HW232280   0.163   3.623   2.050
10461SOL     OW32281   6.225   4.805   5.333
10461SOL    HW132282   6.133   4.838   5.352
10461SOL    HW232283   6.269   4.864   5.266
10462SOL     OW32284   5.492   2.251   2.519
10462SOL    HW132285   5.396   2.238   2.542
10462SOL    HW232286   5.541   2.283   2.600
10463SOL     OW32287   4.541   1.440   5.953
10463SOL    HW132288   4.638   1.419   5.941
10463SOL    HW232289   4.494   1.361   5.991
10464SOL     OW32290   5.556   5.932   2.224
10464SOL    HW132291   5.511   5.957   2.309
10464SOL    HW232292   5.581   5.835   2.227
10465SOL     OW32293   4.675   5.565   2.382
10465SOL    HW132294   4.606   5.615   2.435
10465SOL    HW232295   4.721   5.627   2.320
10466SOL     OW32296   4.687   4.472   6.432
10466SOL    HW132297   4.671   4.570   6.423
10466SOL    HW232298   4.728   4.438   6.347
10467SOL     OW32299   1.569   2.774   0.734
10467SOL    HW132300   1.645   2.840   0.732
10467SOL    HW232301   1.578   2.710   0.658
10468SOL     OW32302   4.242   5.030   3.731
10468SOL    HW132303   4.213   4.936   3.752
10468SOL    HW232304   4.162   5.089   3.727
10469SOL     OW32305   4.208   4.141   5.758
10469SOL    HW132306   4.235   4.114   5.666
10469SOL    HW232307   4.111   4.120   5.771
10470SOL     OW32308   2.537   1.545   3.396
10470SOL    HW132309   2.573   1.490   3.320
10470SOL    HW232310   2.501   1.484   3.467
10471SOL     OW32311   3.250   0.321   0.266
10471SOL    HW132312   3.323   0.383   0.294
10471SOL    HW232313   3.182   0.314   0.339
10472SOL     OW32314   2.652   5.442   0.936
10472SOL    HW132315   2.603   5.379   0.996
10472SOL    HW232316   2.601   5.528   0.929
10473SOL     OW32317   5.933   6.285   5.677
10473SOL    HW132318   5.970   6.290   5.584
10473SOL    HW232319   5.995   6.332   5.739
10474SOL     OW32320   4.429   1.711   3.361
10474SOL    HW132321   4.384   1.735   3.447
10474SOL    HW232322   4.525   1.689   3.379
10475SOL     OW32323   2.948   6.962   1.843
10475SOL    HW132324   2.910   6.890   1.900
10475SOL    HW232325   2.893   6.972   1.761
10476SOL     OW32326   4.690   6.408   6.167
10476SOL    HW132327   4.726   6.479   6.107
10476SOL    HW232328   4.590   6.416   6.171
10477SOL     OW32329   6.818   0.777   4.784
10477SOL    HW132330   6.882   0.729   4.723
10477SOL    HW232331   6.729   0.732   4.780
10478SOL     OW32332   6.440   6.164   6.982
10478SOL    HW132333   6.384   6.094   0.005
10478SOL    HW232334   6.527   6.173   0.009
10479SOL     OW32335   6.423   1.127   2.233
10479SOL    HW132336   6.460   1.035   2.226
10479SOL    HW232337   6.457   1.183   2.157
10480SOL     OW32338   1.366   0.774   1.975
10480SOL    HW132339   1.282   0.741   1.931
10480SOL    HW232340   1.347   0.862   2.019
10481SOL     OW32341   1.983   6.084   2.981
10481SOL    HW132342   1.954   6.148   3.052
10481SOL    HW232343   1.919   6.007   2.977
10482SOL     OW32344   6.240   5.205   4.812
10482SOL    HW132345   6.270   5.292   4.775
10482SOL    HW232346   6.297   5.131   4.775
10483SOL     OW32347   5.626   5.744   0.398
10483SOL    HW132348   5.618   5.810   0.323
10483SOL    HW232349   5.554   5.674   0.388
10484SOL     OW32350   4.433   1.776   1.720
10484SOL    HW132351   4.514   1.830   1.744
10484SOL    HW232352   4.361   1.792   1.789
10485SOL     OW32353   3.270   4.780   0.130
10485SOL    HW132354   3.304   4.751   0.220
10485SOL    HW232355   3.210   4.710   0.093
10486SOL     OW32356   0.203   0.637   0.516
10486SOL    HW132357   0.240   0.717   0.469
10486SOL    HW232358   0.166   0.664   0.605
10487SOL     OW32359   4.939   6.810   2.099
10487SOL    HW132360   4.994   6.745   2.048
10487SOL    HW232361   4.966   6.808   2.196
10488SOL     OW32362   3.013   1.632   5.761
10488SOL    HW132363   2.968   1.712   5.721
10488SOL    HW232364   2.950   1.554   5.758
10489SOL     OW32365   0.447   6.628   5.106
10489SOL    HW132366   0.349   6.617   5.121
10489SOL    HW232367   0.493   6.646   5.193
10490SOL     OW32368   6.096   1.247   1.427
10490SOL    HW132369   6.140   1.312   1.488
10490SOL    HW232370   6.165   1.199   1.372
10491SOL     OW32371   1.872   3.782   0.112
10491SOL    HW132372   1.775   3.771   0.134
10491SOL    HW232373   1.927   3.727   0.174
10492SOL     OW32374   6.088   3.902   5.772
10492SOL    HW132375   6.095   3.888   5.871
10492SOL    HW232376   6.099   3.814   5.725
10493SOL     OW32377   3.642   1.013   1.518
10493SOL    HW132378   3.597   0.924   1.528
10493SOL    HW232379   3.606   1.076   1.586
10494SOL     OW32380   4.790   3.478   5.673
10494SOL    HW132381   4.732   3.523   5.741
10494SOL    HW232382   4.737   3.410   5.624
10495SOL     OW32383   2.042   6.821   0.418
10495SOL    HW132384   2.115   6.853   0.357
10495SOL    HW232385   2.049   6.868   0.506
10496SOL     OW32386   0.146   4.788   6.638
10496SOL    HW132387   0.168   4.881   6.609
10496SOL    HW232388   0.081   4.792   6.715
10497SOL     OW32389   2.283   6.978   2.491
10497SOL    HW132390   2.295   0.047   2.532
10497SOL    HW232391   2.187   6.965   2.465
10498SOL     OW32392   2.972   6.310   1.563
10498SOL    HW132393   2.981   6.219   1.604
10498SOL    HW232394   2.877   6.340   1.568
10499SOL     OW32395   3.165   7.011   2.418
10499SOL    HW132396   3.114   6.961   2.489
10499SOL    HW232397   3.229   0.052   2.462
10500SOL     OW32398   6.876   0.408   6.778
10500SOL    HW132399   6.819   0.358   6.844
10500SOL    HW232400   6.971   0.377   6.787
10501SOL     OW32401   2.488   5.186   3.283
10501SOL    HW132402   2.572   5.234   3.307
10501SOL    HW232403   2.504   5.131   3.201
10502SOL     OW32404   3.028   0.171   0.876
10502SOL    HW132405   2.967   0.174   0.797
10502SOL    HW232406   3.033   0.262   0.917
10503SOL     OW32407   3.981   3.350   0.180
10503SOL    HW132408   3.897   3.302   0.208
10503SOL    HW232409   3.993   3.338   0.081
10504SOL     OW32410   1.939   1.686   6.808
10504SOL    HW132411   2.009   1.628   6.851
10504SOL    HW232412   1.901   1.639   6.729
10505SOL     OW32413   5.272   6.071   0.382
10505SOL    HW132414   5.254   6.047   0.478
10505SOL    HW232415   5.210   6.145   0.354
10506SOL     OW32416   6.972   5.089   6.549
10506SOL    HW132417   6.934   5.021   6.486
10506SOL    HW232418   6.910   5.167   6.555
10507SOL     OW32419   2.171   0.145   6.914
10507SOL    HW132420   2.223   0.150   6.829
10507SOL    HW232421   2.098   0.077   6.905
10508SOL     OW32422   6.263   6.257   4.421
10508SOL    HW132423   6.249   6.170   4.469
10508SOL    HW232424   6.333   6.311   4.468
10509SOL     OW32425   0.538   6.410   4.715
10509SOL    HW132426   0.612   6.343   4.723
10509SOL    HW232427   0.470   6.392   4.786
10510SOL     OW32428   4.810   5.998   5.957
10510SOL    HW132429   4.787   6.094   5.968
10510SOL    HW232430   4.904   5.989   5.923
10511SOL     OW32431   4.292   1.614   1.155
10511SOL    HW132432   4.288   1.529   1.208
10511SOL    HW232433   4.385   1.651   1.157
10512SOL     OW32434   4.086   0.168   5.599
10512SOL    HW132435   4.022   0.244   5.588
10512SOL    HW232436   4.051   0.103   5.666
10513SOL     OW32437   6.673   2.532   4.625
10513SOL    HW132438   6.658   2.515   4.722
10513SOL    HW232439   6.759   2.582   4.613
10514SOL     OW32440   0.090   3.554   0.189
10514SOL    HW132441   0.011   3.614   0.178
10514SOL    HW232442   0.166   3.605   0.229
10515SOL     OW32443   0.147   2.949   2.991
10515SOL    HW132444   0.060   2.930   2.945
10515SOL    HW232445   0.131   2.959   3.089
10516SOL     OW32446   3.777   0.831   6.889
10516SOL    HW132447   3.696   0.790   6.931
10516SOL    HW232448   3.750   0.906   6.830
10517SOL     OW32449   0.073   2.110   2.886
10517SOL    HW132450   0.161   2.106   2.839
10517SOL    HW232451   0.066   2.196   2.937
10518SOL     OW32452   0.928   4.872   6.202
10518SOL    HW132453   1.002   4.879   6.135
10518SOL    HW232454   0.845   4.915   6.166
10519SOL     OW32455   2.679   2.812   6.647
10519SOL    HW132456   2.737   2.892   6.662
10519SOL    HW232457   2.734   2.729   6.657
10520SOL     OW32458   1.408   2.491   6.732
10520SOL    HW132459   1.454   2.408   6.762
10520SOL    HW232460   1.464   2.571   6.754
10521SOL     OW32461   5.548   5.617   1.735
10521SOL    HW132462   5.504   5.560   1.803
10521SOL    HW232463   5.478   5.666   1.682
10522SOL     OW32464   6.262   0.210   6.285
10522SOL    HW132465   6.353   0.243   6.308
10522SOL    HW232466   6.220   0.169   6.367
10523SOL     OW32467   0.771   5.235   4.415
10523SOL    HW132468   0.730   5.145   4.432
10523SOL    HW232469   0.825   5.262   4.496
10524SOL     OW32470   1.696   0.672   4.881
10524SOL    HW132471   1.757   0.720   4.818
10524SOL    HW232472   1.749   0.639   4.959
10525SOL     OW32473   3.057   0.022   6.006
10525SOL    HW132474   3.116   6.964   5.991
10525SOL    HW232475   3.083   0.096   5.946
10526SOL     OW32476   0.554   6.937   3.114
10526SOL    HW132477   0.515   6.845   3.110
10526SOL    HW232478   0.646   6.932   3.154
10527SOL     OW32479   6.039   2.684   4.634
10527SOL    HW132480   5.969   2.722   4.573
10527SOL    HW232481   5.995   2.648   4.716
10528SOL     OW32482   1.316   3.301   5.843
10528SOL    HW132483   1.319   3.397   5.817
10528SOL    HW232484   1.386   3.250   5.793
10529SOL     OW32485   2.449   6.088   3.942
10529SOL    HW132486   2.525   6.091   4.007
10529SOL    HW232487   2.416   5.994   3.934
10530SOL     OW32488   2.371   0.631   6.602
10530SOL    HW132489   2.337   0.538   6.589
10530SOL    HW232490   2.351   0.685   6.520
10531SOL     OW32491   0.872   2.775   4.142
10531SOL    HW132492   0.800   2.844   4.135
10531SOL    HW232493   0.930   2.795   4.221
10532SOL     OW32494   1.743   4.513   6.620
10532SOL    HW132495   1.804   4.442   6.656
10532SOL    HW232496   1.655   4.508   6.667
10533SOL     OW32497   3.005   1.129   4.599
10533SOL    HW132498   3.046   1.045   4.564
10533SOL    HW232499   3.070   1.204   4.590
10534SOL     OW32500   5.646   5.786   1.457
10534SOL    HW132501   5.655   5.883   1.433
10534SOL    HW232502   5.687   5.770   1.546
10535SOL     OW32503   1.005   1.867   0.982
10535SOL    HW132504   1.075   1.937   0.997
10535SOL    HW232505   1.043   1.777   1.003
10536SOL     OW32506   4.200   0.925   3.169
10536SOL    HW132507   4.258   0.850   3.202
10536SOL    HW232508   4.105   0.895   3.165
10537SOL     OW32509   3.487   5.174   4.438
10537SOL    HW132510   3.389   5.160   4.423
10537SOL    HW232511   3.530   5.088   4.463
10538SOL     OW32512   5.105   2.693   0.422
10538SOL    HW132513   5.152   2.777   0.451
10538SOL    HW232514   5.136   2.616   0.478
10539SOL     OW32515   0.381   3.667   6.660
10539SOL    HW132516   0.468   3.660   6.610
10539SOL    HW232517   0.399   3.656   6.758
10540SOL     OW32518   1.392   2.557   5.220
10540SOL    HW132519   1.409   2.469   5.176
10540SOL    HW232520   1.353   2.621   5.153
10541SOL     OW32521   3.591   3.658   2.173
10541SOL    HW132522   3.614   3.569   2.212
10541SOL    HW232523   3.611   3.730   2.239
10542SOL     OW32524   6.410   1.490   6.221
10542SOL    HW132525   6.497   1.535   6.199
10542SOL    HW232526   6.425   1.423   6.294
10543SOL     OW32527   6.929   1.067   5.283
10543SOL    HW132528   7.010   1.012   5.265
10543SOL    HW232529   6.951   1.164   5.275
10544SOL     OW32530   1.494   6.909   2.389
10544SOL    HW132531   1.494   6.982   2.320
10544SOL    HW232532   1.510   6.949   2.480
10545SOL     OW32533   6.332   1.015   3.157
10545SOL    HW132534   6.314   1.084   3.227
10545SOL    HW232535   6.250   1.003   3.101
10546SOL     OW32536   0.979   1.060   6.432
10546SOL    HW132537   0.963   1.062   6.334
10546SOL    HW232538   1.014   1.148   6.463
10547SOL     OW32539   5.053   1.842   1.914
10547SOL    HW132540   5.118   1.840   1.990
10547SOL    HW232541   5.023   1.748   1.894
10548SOL     OW32542   5.281   4.536   4.521
10548SOL    HW132543   5.379   4.558   4.524
10548SOL    HW232544   5.262   4.465   4.589
10549SOL     OW32545   6.410   0.182   2.253
10549SOL    HW132546   6.401   0.180   2.353
10549SOL    HW232547   6.364   0.102   2.214
10550SOL     OW32548   4.437   6.014   5.064
10550SOL    HW132549   4.407   6.104   5.031
10550SOL    HW232550   4.537   6.013   5.072
10551SOL     OW32551   1.973   2.541   6.305
10551SOL    HW132552   1.896   2.591   6.343
10551SOL    HW232553   2.016   2.487   6.377
10552SOL     OW32554   3.662   2.078   6.158
10552SOL    HW132555   3.670   2.164   6.109
10552SOL    HW232556   3.607   2.091   6.240
10553SOL     OW32557   0.762   5.214   0.914
10553SOL    HW132558   0.740   5.276   0.989
10553SOL    HW232559   0.812   5.135   0.949
10554SOL     OW32560   5.166   5.447   0.098
10554SOL    HW132561   5.219   5.527   0.124
10554SOL    HW232562   5.116   5.466   0.013
10555SOL     OW32563   2.083   2.866   0.616
10555SOL    HW132564   2.109   2.782   0.663
10555SOL    HW232565   2.165   2.918   0.593
10556SOL     OW32566   2.162   2.485   4.893
10556SOL    HW132567   2.079   2.464   4.944
10556SOL    HW232568   2.157   2.579   4.858
10557SOL     OW32569   2.289   2.391   2.816
10557SOL    HW132570   2.215   2.424   2.876
10557SOL    HW232571   2.264   2.409   2.720
10558SOL     OW32572   4.222   0.533   3.734
10558SOL    HW132573   4.244   0.628   3.752
10558SOL    HW232574   4.126   0.525   3.707
10559SOL     OW32575   4.858   0.280   1.484
10559SOL    HW132576   4.780   0.342   1.489
10559SOL    HW232577   4.833   0.198   1.434
10560SOL     OW32578   3.765   6.662   3.290
10560SOL    HW132579   3.684   6.717   3.273
10560SOL    HW232580   3.771   6.589   3.222
10561SOL     OW32581   2.981   4.597   0.965
10561SOL    HW132582   2.994   4.689   0.929
10561SOL    HW232583   2.883   4.580   0.977
10562SOL     OW32584   4.971   6.036   0.177
10562SOL    HW132585   5.019   6.120   0.201
10562SOL    HW232586   4.876   6.058   0.155
10563SOL     OW32587   0.683   0.837   3.831
10563SOL    HW132588   0.630   0.862   3.913
10563SOL    HW232589   0.633   0.865   3.749
10564SOL     OW32590   5.975   6.217   2.488
10564SOL    HW132591   5.941   6.276   2.415
10564SOL    HW232592   6.035   6.147   2.449
10565SOL     OW32593   6.794   0.746   6.088
10565SOL    HW132594   6.705   0.764   6.048
10565SOL    HW232595   6.860   0.726   6.015
10566SOL     OW32596   4.351   3.007   6.964
10566SOL    HW132597   4.446   3.003   6.932
10566SOL    HW232598   4.296   2.943   6.911
10567SOL     OW32599   2.069   1.617   4.553
10567SOL    HW132600   2.120   1.540   4.515
10567SOL    HW232601   2.074   1.694   4.490
10568SOL     OW32602   6.238   1.914   1.163
10568SOL    HW132603   6.218   1.841   1.097
10568SOL    HW232604   6.172   1.910   1.238
10569SOL     OW32605   6.188   2.354   1.373
10569SOL    HW132606   6.271   2.392   1.332
10569SOL    HW232607   6.183   2.382   1.469
10570SOL     OW32608   1.556   4.880   3.419
10570SOL    HW132609   1.569   4.810   3.488
10570SOL    HW232610   1.480   4.940   3.444
10571SOL     OW32611   6.847   5.182   4.539
10571SOL    HW132612   6.884   5.190   4.446
10571SOL    HW232613   6.913   5.218   4.605
10572SOL     OW32614   0.195   4.244   3.974
10572SOL    HW132615   0.200   4.205   3.882
10572SOL    HW232616   0.106   4.225   4.014
10573SOL     OW32617   4.803   0.514   4.538
10573SOL    HW132618   4.762   0.426   4.515
10573SOL    HW232619   4.880   0.499   4.600
10574SOL     OW32620   1.106   1.797   4.310
10574SOL    HW132621   1.060   1.714   4.341
10574SOL    HW232622   1.204   1.778   4.301
10575SOL     OW32623   6.919   1.240   2.762
10575SOL    HW132624   6.901   1.318   2.703
10575SOL    HW232625   7.017   1.222   2.765
10576SOL     OW32626   0.022   6.027   5.452
10576SOL    HW132627   7.008   5.933   5.452
10576SOL    HW232628   0.094   6.036   5.384
10577SOL     OW32629   1.921   2.554   6.917
10577SOL    HW132630   1.959   2.622   6.979
10577SOL    HW232631   1.870   2.601   6.844
10578SOL     OW32632   6.200   0.594   3.066
10578SOL    HW132633   6.174   0.679   3.112
10578SOL    HW232634   6.181   0.602   2.968
10579SOL     OW32635   4.163   1.694   0.385
10579SOL    HW132636   4.194   1.623   0.448
10579SOL    HW232637   4.242   1.733   0.338
10580SOL     OW32638   6.832   0.229   6.996
10580SOL    HW132639   6.845   0.211   0.073
10580SOL    HW232640   6.738   0.208   6.970
10581SOL     OW32641   7.006   6.771   3.464
10581SOL    HW132642   0.055   6.802   3.400
10581SOL    HW232643   6.925   6.740   3.412
10582SOL     OW32644   4.741   5.129   6.944
10582SOL    HW132645   4.670   5.094   7.004
10582SOL    HW232646   4.831   5.110   6.983
10583SOL     OW32647   3.918   0.802   5.228
10583SOL    HW132648   3.867   0.721   5.199
10583SOL    HW232649   3.867   0.884   5.205
10584SOL     OW32650   6.085   6.431   1.621
10584SOL    HW132651   6.006   6.379   1.590
10584SOL    HW232652   6.055   6.518   1.660
10585SOL     OW32653   2.179   2.698   5.270
10585SOL    HW132654   2.271   2.737   5.268
10585SOL    HW232655   2.138   2.712   5.360
10586SOL     OW32656   0.568   5.356   4.894
10586SOL    HW132657   0.583   5.355   4.993
10586SOL    HW232658   0.503   5.284   4.870
10587SOL     OW32659   6.232   3.842   0.336
10587SOL    HW132660   6.299   3.792   0.390
10587SOL    HW232661   6.273   3.871   0.250
10588SOL     OW32662   0.049   3.845   2.918
10588SOL    HW132663   7.012   3.859   2.837
10588SOL    HW232664   0.105   3.926   2.933
10589SOL     OW32665   6.279   1.126   4.842
10589SOL    HW132666   6.228   1.137   4.757
10589SOL    HW232667   6.243   1.048   4.893
10590SOL     OW32668   1.282   0.307   1.620
10590SOL    HW132669   1.220   0.283   1.695
10590SOL    HW232670   1.231   0.317   1.535
10591SOL     OW32671   1.233   1.616   6.007
10591SOL    HW132672   1.173   1.566   6.070
10591SOL    HW232673   1.186   1.698   5.974
10592SOL     OW32674   6.171   2.708   0.593
10592SOL    HW132675   6.086   2.753   0.566
10592SOL    HW232676   6.239   2.778   0.615
10593SOL     OW32677   2.234   5.135   0.414
10593SOL    HW132678   2.244   5.154   0.316
10593SOL    HW232679   2.307   5.073   0.443
10594SOL     OW32680   5.324   0.942   2.521
10594SOL    HW132681   5.232   0.904   2.530
10594SOL    HW232682   5.318   1.040   2.502
10595SOL     OW32683   3.797   6.953   5.490
10595SOL    HW132684   3.703   6.925   5.468
10595SOL    HW232685   3.861   6.886   5.454
10596SOL     OW32686   4.842   0.168   0.328
10596SOL    HW132687   4.928   0.220   0.330
10596SOL    HW232688   4.851   0.087   0.386
10597SOL     OW32689   3.624   1.407   4.747
10597SOL    HW132690   3.570   1.464   4.685
10597SOL    HW232691   3.603   1.432   4.842
10598SOL     OW32692   2.502   2.458   6.980
10598SOL    HW132693   2.435   2.421   0.025
10598SOL    HW232694   2.527   2.386   6.915
10599SOL     OW32695   5.196   2.452   6.777
10599SOL    HW132696   5.102   2.468   6.805
10599SOL    HW232697   5.206   2.473   6.680
10600SOL     OW32698   1.420   2.587   0.529
10600SOL    HW132699   1.487   2.644   0.481
10600SOL    HW232700   1.435   2.491   0.506
10601SOL     OW32701   1.766   4.603   6.339
10601SOL    HW132702   1.733   4.695   6.357
10601SOL    HW232703   1.770   4.551   6.425
10602SOL     OW32704   4.960   1.779   3.156
10602SOL    HW132705   5.050   1.821   3.149
10602SOL    HW232706   4.918   1.804   3.244
10603SOL     OW32707   2.084   5.444   4.132
10603SOL    HW132708   2.151   5.507   4.171
10603SOL    HW232709   2.110   5.350   4.152
10604SOL     OW32710   5.872   3.767   5.555
10604SOL    HW132711   5.902   3.700   5.622
10604SOL    HW232712   5.852   3.721   5.468
10605SOL     OW32713   1.450   4.633   0.585
10605SOL    HW132714   1.540   4.640   0.628
10605SOL    HW232715   1.448   4.690   0.503
10606SOL     OW32716   6.632   0.052   2.149
10606SOL    HW132717   6.641   6.999   2.215
10606SOL    HW232718   6.560   0.114   2.178
10607SOL     OW32719   3.892   4.330   5.959
10607SOL    HW132720   3.823   4.283   6.014
10607SOL    HW232721   3.869   4.428   5.953
10608SOL     OW32722   5.068   2.017   6.137
10608SOL    HW132723   5.120   1.947   6.186
10608SOL    HW232724   5.115   2.040   6.052
10609SOL     OW32725   3.222   6.508   1.969
10609SOL    HW132726   3.312   6.467   1.956
10609SOL    HW232727   3.208   6.580   1.902
10610SOL     OW32728   0.674   3.492   5.875
10610SOL    HW132729   0.730   3.574   5.889
10610SOL    HW232730   0.605   3.510   5.804
10611SOL     OW32731   4.149   3.838   5.649
10611SOL    HW132732   4.148   3.739   5.662
10611SOL    HW232733   4.088   3.862   5.573
10612SOL     OW32734   2.666   0.145   5.764
10612SOL    HW132735   2.667   0.068   5.701
10612SOL    HW232736   2.726   0.127   5.841
10613SOL     OW32737   6.679   0.399   5.393
10613SOL    HW132738   6.699   0.409   5.295
10613SOL    HW232739   6.720   0.314   5.427
10614SOL     OW32740   6.636   2.416   4.876
10614SOL    HW132741   6.669   2.324   4.901
10614SOL    HW232742   6.635   2.474   4.958
10615SOL     OW32743   3.094   6.083   6.052
10615SOL    HW132744   3.009   6.119   6.014
10615SOL    HW232745   3.100   6.108   6.149
10616SOL     OW32746   2.704   6.724   1.490
10616SOL    HW132747   2.696   6.644   1.548
10616SOL    HW232748   2.758   6.702   1.409
10617SOL     OW32749   1.949   2.780   0.375
10617SOL    HW132750   2.010   2.813   0.446
10617SOL    HW232751   1.908   2.858   0.328
10618SOL     OW32752   5.997   3.676   6.655
10618SOL    HW132753   6.001   3.620   6.738
10618SOL    HW232754   6.051   3.758   6.667
10619SOL     OW32755   0.053   3.643   2.237
10619SOL    HW132756   0.097   3.716   2.290
10619SOL    HW232757   7.019   3.586   2.298
10620SOL     OW32758   1.337   5.506   5.886
10620SOL    HW132759   1.397   5.430   5.914
10620SOL    HW232760   1.255   5.506   5.942
10621SOL     OW32761   0.937   6.293   1.282
10621SOL    HW132762   0.894   6.311   1.193
10621SOL    HW232763   0.998   6.213   1.274
10622SOL     OW32764   5.420   0.817   1.080
10622SOL    HW132765   5.411   0.908   1.040
10622SOL    HW232766   5.504   0.774   1.049
10623SOL     OW32767   7.001   4.829   4.258
10623SOL    HW132768   0.015   4.736   4.246
10623SOL    HW232769   6.983   4.845   4.355
10624SOL     OW32770   0.374   1.744   4.718
10624SOL    HW132771   0.368   1.843   4.707
10624SOL    HW232772   0.421   1.723   4.804
10625SOL     OW32773   0.517   4.971   6.922
10625SOL    HW132774   0.439   4.915   6.894
10625SOL    HW232775   0.485   5.039   6.988
10626SOL     OW32776   1.768   3.072   1.189
10626SOL    HW132777   1.825   3.086   1.270
10626SOL    HW232778   1.757   2.973   1.173
10627SOL     OW32779   5.660   6.024   0.919
10627SOL    HW132780   5.661   5.946   0.982
10627SOL    HW232781   5.720   6.004   0.841
10628SOL     OW32782   5.447   5.518   6.163
10628SOL    HW132783   5.400   5.480   6.083
10628SOL    HW232784   5.523   5.458   6.188
10629SOL     OW32785   2.561   4.585   4.856
10629SOL    HW132786   2.531   4.672   4.894
10629SOL    HW232787   2.652   4.596   4.816
10630SOL     OW32788   6.079   1.301   3.574
10630SOL    HW132789   6.126   1.269   3.656
10630SOL    HW232790   6.142   1.297   3.496
10631SOL     OW32791   1.683   4.811   5.432
10631SOL    HW132792   1.700   4.715   5.411
10631SOL    HW232793   1.587   4.833   5.414
10632SOL     OW32794   5.525   1.736   4.068
10632SOL    HW132795   5.491   1.720   4.161
10632SOL    HW232796   5.449   1.727   4.003
10633SOL     OW32797   2.397   3.517   1.416
10633SOL    HW132798   2.375   3.564   1.502
10633SOL    HW232799   2.312   3.491   1.370
10634SOL     OW32800   3.041   5.229   1.492
10634SOL    HW132801   2.994   5.310   1.526
10634SOL    HW232802   3.014   5.212   1.397
10635SOL     OW32803   3.364   1.835   0.911
10635SOL    HW132804   3.298   1.864   0.980
10635SOL    HW232805   3.389   1.739   0.927
10636SOL     OW32806   1.462   1.592   1.557
10636SOL    HW132807   1.435   1.688   1.566
10636SOL    HW232808   1.492   1.574   1.463
10637SOL     OW32809   3.251   4.893   5.578
10637SOL    HW132810   3.325   4.883   5.645
10637SOL    HW232811   3.165   4.864   5.619
10638SOL     OW32812   0.167   5.606   2.977
10638SOL    HW132813   0.127   5.656   3.053
10638SOL    HW232814   0.184   5.511   3.004
10639SOL     OW32815   0.402   2.980   2.904
10639SOL    HW132816   0.409   3.049   2.832
10639SOL    HW232817   0.305   2.965   2.926
10640SOL     OW32818   3.899   0.388   5.611
10640SOL    HW132819   3.973   0.442   5.571
10640SOL    HW232820   3.844   0.445   5.672
10641SOL     OW32821   3.736   2.417   0.271
10641SOL    HW132822   3.788   2.359   0.209
10641SOL    HW232823   3.681   2.482   0.219
10642SOL     OW32824   6.835   2.537   1.511
10642SOL    HW132825   6.910   2.565   1.451
10642SOL    HW232826   6.807   2.614   1.567
10643SOL     OW32827   2.223   4.523   5.567
10643SOL    HW132828   2.210   4.609   5.614
10643SOL    HW232829   2.165   4.520   5.485
10644SOL     OW32830   5.682   1.847   3.182
10644SOL    HW132831   5.585   1.855   3.202
10644SOL    HW232832   5.733   1.919   3.230
10645SOL     OW32833   0.234   1.096   4.579
10645SOL    HW132834   0.302   1.043   4.529
10645SOL    HW232835   0.177   1.034   4.633
10646SOL     OW32836   0.360   1.528   6.089
10646SOL    HW132837   0.282   1.479   6.051
10646SOL    HW232838   0.350   1.626   6.070
10647SOL     OW32839   3.933   5.505   0.468
10647SOL    HW132840   4.022   5.541   0.440
10647SOL    HW232841   3.889   5.461   0.391
10648SOL     OW32842   4.334   4.341   6.827
10648SOL    HW132843   4.402   4.383   6.767
10648SOL    HW232844   4.246   4.338   6.779
10649SOL     OW32845   0.735   4.343   3.108
10649SOL    HW132846   0.739   4.248   3.077
10649SOL    HW232847   0.827   4.383   3.106
10650SOL     OW32848   1.565   6.340   2.925
10650SOL    HW132849   1.544   6.434   2.952
10650SOL    HW232850   1.630   6.342   2.849
10651SOL     OW32851   4.796   6.736   5.737
10651SOL    HW132852   4.868   6.672   5.709
10651SOL    HW232853   4.827   6.788   5.816
10652SOL     OW32854   3.216   0.384   6.290
10652SOL    HW132855   3.276   0.415   6.363
10652SOL    HW232856   3.136   0.337   6.329
10653SOL     OW32857   5.362   4.251   4.355
10653SOL    HW132858   5.413   4.188   4.295
10653SOL    HW232859   5.309   4.198   4.421
10654SOL     OW32860   4.427   1.317   0.695
10654SOL    HW132861   4.403   1.253   0.622
10654SOL    HW232862   4.344   1.362   0.728
10655SOL     OW32863   2.706   5.197   1.422
10655SOL    HW132864   2.696   5.295   1.404
10655SOL    HW232865   2.742   5.184   1.514
10656SOL     OW32866   6.050   2.471   0.405
10656SOL    HW132867   6.131   2.528   0.392
10656SOL    HW232868   6.076   2.384   0.447
10657SOL     OW32869   6.713   6.605   0.053
10657SOL    HW132870   6.805   6.642   0.068
10657SOL    HW232871   6.654   6.676   0.014
10658SOL     OW32872   6.615   4.146   4.421
10658SOL    HW132873   6.592   4.139   4.519
10658SOL    HW232874   6.674   4.069   4.396
10659SOL     OW32875   6.607   6.211   1.076
10659SOL    HW132876   6.585   6.174   1.166
10659SOL    HW232877   6.707   6.214   1.065
10660SOL     OW32878   5.600   4.276   6.254
10660SOL    HW132879   5.661   4.315   6.323
10660SOL    HW232880   5.519   4.239   6.298
10661SOL     OW32881   0.358   6.567   2.587
10661SOL    HW132882   0.387   6.652   2.543
10661SOL    HW232883   0.262   6.550   2.565
10662SOL     OW32884   5.894   0.784   2.107
10662SOL    HW132885   5.804   0.755   2.075
10662SOL    HW232886   5.924   0.724   2.181
10663SOL     OW32887   0.058   0.292   1.661
10663SOL    HW132888   0.044   0.263   1.756
10663SOL    HW232889   6.992   0.293   1.613
10664SOL     OW32890   1.937   4.363   5.566
10664SOL    HW132891   1.978   4.383   5.477
10664SOL    HW232892   1.999   4.392   5.639
10665SOL     OW32893   0.454   0.450   0.858
10665SOL    HW132894   0.464   0.460   0.758
10665SOL    HW232895   0.545   0.443   0.899
10666SOL     OW32896   3.554   4.997   0.739
10666SOL    HW132897   3.499   4.987   0.822
10666SOL    HW232898   3.536   5.086   0.698
10667SOL     OW32899   3.695   2.723   5.432
10667SOL    HW132900   3.752   2.782   5.375
10667SOL    HW232901   3.695   2.630   5.394
10668SOL     OW32902   1.103   1.531   5.189
10668SOL    HW132903   1.008   1.506   5.172
10668SOL    HW232904   1.163   1.467   5.140
10669SOL     OW32905   6.063   6.453   1.019
10669SOL    HW132906   6.008   6.450   1.103
10669SOL    HW232907   6.022   6.517   0.955
10670SOL     OW32908   4.787   4.253   5.271
10670SOL    HW132909   4.878   4.255   5.312
10670SOL    HW232910   4.785   4.185   5.198
10671SOL     OW32911   2.546   2.359   2.552
10671SOL    HW132912   2.608   2.361   2.473
10671SOL    HW232913   2.473   2.425   2.540
10672SOL     OW32914   6.987   2.375   0.732
10672SOL    HW132915   6.931   2.307   0.685
10672SOL    HW232916   6.955   2.467   0.708
10673SOL     OW32917   1.683   2.430   6.601
10673SOL    HW132918   1.709   2.524   6.625
10673SOL    HW232919   1.765   2.378   6.577
10674SOL     OW32920   3.532   3.364   0.871
10674SOL    HW132921   3.582   3.279   0.856
10674SOL    HW232922   3.568   3.410   0.952
10675SOL     OW32923   1.735   0.522   6.268
10675SOL    HW132924   1.781   0.527   6.357
10675SOL    HW232925   1.779   0.454   6.211
10676SOL     OW32926   6.669   6.871   6.097
10676SOL    HW132927   6.602   6.798   6.083
10676SOL    HW232928   6.625   6.959   6.081
10677SOL     OW32929   0.344   0.203   2.269
10677SOL    HW132930   0.383   0.223   2.179
10677SOL    HW232931   0.266   0.141   2.258
10678SOL     OW32932   3.643   5.300   3.278
10678SOL    HW132933   3.586   5.329   3.202
10678SOL    HW232934   3.727   5.258   3.243
10679SOL     OW32935   4.986   4.514   5.970
10679SOL    HW132936   5.035   4.432   5.940
10679SOL    HW232937   4.915   4.537   5.904
10680SOL     OW32938   2.067   2.356   4.003
10680SOL    HW132939   2.037   2.416   3.929
10680SOL    HW232940   2.023   2.383   4.088
10681SOL     OW32941   0.120   3.872   6.338
10681SOL    HW132942   0.104   3.936   6.413
10681SOL    HW232943   0.187   3.803   6.366
10682SOL     OW32944   1.967   2.144   2.880
10682SOL    HW132945   1.934   2.237   2.893
10682SOL    HW232946   1.928   2.084   2.950
10683SOL     OW32947   3.228   1.694   3.912
10683SOL    HW132948   3.278   1.641   3.844
10683SOL    HW232949   3.174   1.765   3.866
10684SOL     OW32950   4.366   3.741   0.308
10684SOL    HW132951   4.307   3.686   0.249
10684SOL    HW232952   4.451   3.764   0.258
10685SOL     OW32953   6.779   3.842   2.113
10685SOL    HW132954   6.866   3.858   2.159
10685SOL    HW232955   6.782   3.755   2.064
10686SOL     OW32956   4.363   5.234   6.599
10686SOL    HW132957   4.267   5.262   6.591
10686SOL    HW232958   4.375   5.146   6.553
10687SOL     OW32959   0.139   4.795   1.863
10687SOL    HW132960   0.226   4.800   1.813
10687SOL    HW232961   0.089   4.880   1.851
10688SOL     OW32962   6.145   4.209   2.540
10688SOL    HW132963   6.224   4.214   2.479
10688SOL    HW232964   6.146   4.286   2.604
10689SOL     OW32965   0.450   0.193   3.142
10689SOL    HW132966   0.468   0.096   3.127
10689SOL    HW232967   0.404   0.231   3.061
10690SOL     OW32968   5.882   5.300   4.201
10690SOL    HW132969   5.932   5.386   4.211
10690SOL    HW232970   5.836   5.277   4.286
10691SOL     OW32971   0.014   1.795   2.412
10691SOL    HW132972   7.001   1.787   2.506
10691SOL    HW232973   6.964   1.834   2.354
10692SOL     OW32974   3.687   5.362   3.801
10692SOL    HW132975   3.705   5.314   3.715
10692SOL    HW232976   3.595   5.403   3.798
10693SOL     OW32977   1.797   0.829   1.858
10693SOL    HW132978   1.737   0.808   1.935
10693SOL    HW232979   1.766   0.913   1.814
10694SOL     OW32980   3.398   6.288   1.229
10694SOL    HW132981   3.377   6.349   1.153
10694SOL    HW232982   3.440   6.204   1.195
10695SOL     OW32983   6.058   2.190   3.312
10695SOL    HW132984   6.079   2.198   3.215
10695SOL    HW232985   5.960   2.175   3.324
10696SOL     OW32986   0.137   5.219   2.079
10696SOL    HW132987   0.194   5.172   2.012
10696SOL    HW232988   0.071   5.277   2.032
10697SOL     OW32989   0.054   6.115   4.113
10697SOL    HW132990   0.141   6.079   4.146
10697SOL    HW232991   0.063   6.213   4.093
10698SOL     OW32992   3.264   6.729   4.033
10698SOL    HW132993   3.343   6.758   4.086
10698SOL    HW232994   3.187   6.712   4.094
10699SOL     OW32995   4.576   1.642   2.780
10699SOL    HW132996   4.670   1.610   2.795
10699SOL    HW232997   4.576   1.742   2.776
10700SOL     OW32998   1.073   0.095   0.277
10700SOL    HW132999   1.038   0.076   0.185
10700SOL    HW233000   0.996   0.114   0.338
10701SOL     OW33001   4.395   5.955   7.009
10701SOL    HW133002   4.338   5.911   6.939
10701SOL    HW233003   4.490   5.927   6.996
10702SOL     OW33004   5.553   2.437   2.092
10702SOL    HW133005   5.580   2.408   2.184
10702SOL    HW233006   5.460   2.406   2.073
10703SOL     OW33007   3.849   3.036   3.879
10703SOL    HW133008   3.914   3.043   3.955
10703SOL    HW233009   3.897   3.054   3.793
10704SOL     OW33010   4.935   5.968   1.989
10704SOL    HW133011   4.852   5.973   2.044
10704SOL    HW233012   5.015   5.980   2.047
10705SOL     OW33013   1.014   3.646   0.548
10705SOL    HW133014   1.085   3.598   0.496
10705SOL    HW233015   1.016   3.743   0.525
10706SOL     OW33016   4.570   6.924   1.957
10706SOL    HW133017   4.569   6.963   1.865
10706SOL    HW233018   4.482   6.941   2.001
10707SOL     OW33019   0.326   6.849   4.698
10707SOL    HW133020   0.333   6.756   4.664
10707SOL    HW233021   0.396   6.864   4.769
10708SOL     OW33022   4.857   1.171   1.579
10708SOL    HW133023   4.812   1.162   1.667
10708SOL    HW233024   4.928   1.101   1.570
10709SOL     OW33025   6.157   0.985   5.265
10709SOL    HW133026   6.234   1.046   5.251
10709SOL    HW233027   6.126   0.990   5.360
10710SOL     OW33028   0.679   6.929   4.814
10710SOL    HW133029   0.767   6.943   4.861
10710SOL    HW233030   0.617   6.878   4.874
10711SOL     OW33031   1.784   7.005   3.753
10711SOL    HW133032   1.709   0.019   3.697
10711SOL    HW233033   1.785   0.032   3.841
10712SOL     OW33034   4.154   0.935   3.581
10712SOL    HW133035   4.201   0.964   3.498
10712SOL    HW233036   4.120   1.016   3.631
10713SOL     OW33037   1.796   4.897   1.481
10713SOL    HW133038   1.889   4.882   1.448
10713SOL    HW233039   1.745   4.811   1.474
10714SOL     OW33040   6.813   3.722   5.517
10714SOL    HW133041   6.814   3.654   5.442
10714SOL    HW233042   6.854   3.681   5.598
10715SOL     OW33043   5.071   0.385   2.964
10715SOL    HW133044   5.135   0.346   2.897
10715SOL    HW233045   4.989   0.417   2.917
10716SOL     OW33046   0.070   2.029   3.570
10716SOL    HW133047   0.073   1.939   3.526
10716SOL    HW233048   0.039   2.018   3.664
10717SOL     OW33049   0.400   1.321   0.873
10717SOL    HW133050   0.453   1.239   0.896
10717SOL    HW233051   0.395   1.331   0.774
10718SOL     OW33052   6.811   4.484   0.288
10718SOL    HW133053   6.773   4.445   0.204
10718SOL    HW233054   6.742   4.483   0.360
10719SOL     OW33055   5.072   6.599   2.006
10719SOL    HW133056   5.011   6.553   1.940
10719SOL    HW233057   5.165   6.564   1.995
10720SOL     OW33058   6.317   3.528   6.050
10720SOL    HW133059   6.217   3.535   6.051
10720SOL    HW233060   6.357   3.616   6.075
10721SOL     OW33061   6.557   2.028   4.271
10721SOL    HW133062   6.645   2.075   4.273
10721SOL    HW233063   6.492   2.080   4.215
10722SOL     OW33064   0.362   3.606   6.923
10722SOL    HW133065   0.270   3.566   6.927
10722SOL    HW233066   0.359   3.699   6.957
10723SOL     OW33067   5.358   3.986   6.673
10723SOL    HW133068   5.381   4.030   6.759
10723SOL    HW233069   5.290   3.914   6.689
10724SOL     OW33070   4.175   6.615   5.817
10724SOL    HW133071   4.233   6.672   5.875
10724SOL    HW233072   4.131   6.545   5.873
10725SOL     OW33073   0.463   5.714   4.241
10725SOL    HW133074   0.523   5.634   4.235
10725SOL    HW233075   0.408   5.721   4.158
10726SOL     OW33076   6.135   6.901   4.655
10726SOL    HW133077   6.086   6.823   4.616
10726SOL    HW233078   6.209   6.928   4.594
10727SOL     OW33079   1.685   5.270   5.452
10727SOL    HW133080   1.724   5.180   5.470
10727SOL    HW233081   1.658   5.312   5.539
10728SOL     OW33082   5.720   6.467   2.804
10728SOL    HW133083   5.647   6.428   2.748
10728SOL    HW233084   5.781   6.521   2.745
10729SOL     OW33085   6.390   1.654   2.620
10729SOL    HW133086   6.319   1.591   2.587
10729SOL    HW233087   6.451   1.605   2.683
10730SOL     OW33088   2.588   6.518   2.129
10730SOL    HW133089   2.627   6.472   2.208
10730SOL    HW233090   2.517   6.582   2.159
10731SOL     OW33091   2.373   5.632   0.547
10731SOL    HW133092   2.310   5.576   0.600
10731SOL    HW233093   2.412   5.577   0.473
10732SOL     OW33094   6.806   7.002   2.874
10732SOL    HW133095   6.757   0.068   2.863
10732SOL    HW233096   6.757   6.945   2.940
10733SOL     OW33097   6.032   2.199   6.845
10733SOL    HW133098   5.948   2.242   6.812
10733SOL    HW233099   6.110   2.239   6.798
10734SOL     OW33100   0.462   0.620   6.426
10734SOL    HW133101   0.406   0.683   6.480
10734SOL    HW233102   0.406   0.580   6.353
10735SOL     OW33103   0.748   5.142   2.293
10735SOL    HW133104   0.716   5.197   2.370
10735SOL    HW233105   0.839   5.106   2.315
10736SOL     OW33106   0.313   1.055   3.147
10736SOL    HW133107   0.327   0.956   3.148
10736SOL    HW233108   0.235   1.077   3.088
10737SOL     OW33109   0.846   1.873   0.790
10737SOL    HW133110   0.787   1.793   0.799
10737SOL    HW233111   0.918   1.869   0.860
10738SOL     OW33112   2.374   0.258   2.766
10738SOL    HW133113   2.289   0.260   2.714
10738SOL    HW233114   2.379   0.174   2.819
10739SOL     OW33115   6.642   2.045   2.229
10739SOL    HW133116   6.672   1.968   2.171
10739SOL    HW233117   6.711   2.061   2.300
10740SOL     OW33118   1.301   6.343   5.486
10740SOL    HW133119   1.286   6.391   5.399
10740SOL    HW233120   1.362   6.397   5.543
10741SOL     OW33121   1.954   1.697   3.253
10741SOL    HW133122   1.894   1.754   3.309
10741SOL    HW233123   2.026   1.753   3.212
10742SOL     OW33124   5.806   6.535   2.103
10742SOL    HW133125   5.816   6.544   2.202
10742SOL    HW233126   5.896   6.531   2.060
10743SOL     OW33127   3.295   1.335   4.534
10743SOL    HW133128   3.358   1.407   4.565
10743SOL    HW233129   3.255   1.362   4.446
10744SOL     OW33130   3.351   1.422   1.934
10744SOL    HW133131   3.286   1.348   1.917
10744SOL    HW233132   3.321   1.474   2.015
10745SOL     OW33133   2.129   4.741   0.544
10745SOL    HW133134   2.206   4.775   0.598
10745SOL    HW233135   2.094   4.815   0.486
10746SOL     OW33136   2.422   5.570   1.077
10746SOL    HW133137   2.482   5.503   1.121
10746SOL    HW233138   2.328   5.552   1.104
10747SOL     OW33139   5.200   1.469   3.394
10747SOL    HW133140   5.213   1.505   3.302
10747SOL    HW233141   5.175   1.372   3.390
10748SOL     OW33142   5.156   5.715   1.039
10748SOL    HW133143   5.076   5.663   1.070
10748SOL    HW233144   5.221   5.654   0.995
10749SOL     OW33145   6.858   4.670   2.712
10749SOL    HW133146   6.848   4.766   2.688
10749SOL    HW233147   6.806   4.613   2.648
10750SOL     OW33148   4.852   3.971   4.514
10750SOL    HW133149   4.943   3.930   4.521
10750SOL    HW233150   4.814   3.983   4.605
10751SOL     OW33151   1.552   3.176   5.125
10751SOL    HW133152   1.591   3.085   5.137
10751SOL    HW233153   1.623   3.239   5.096
10752SOL     OW33154   5.924   4.337   6.801
10752SOL    HW133155   5.882   4.248   6.782
10752SOL    HW233156   5.927   4.391   6.717
10753SOL     OW33157   5.178   0.287   3.869
10753SOL    HW133158   5.199   0.380   3.839
10753SOL    HW233159   5.079   0.276   3.876
10754SOL     OW33160   1.199   2.761   2.198
10754SOL    HW133161   1.209   2.772   2.099
10754SOL    HW233162   1.279   2.798   2.245
10755SOL     OW33163   6.794   2.208   0.685
10755SOL    HW133164   6.739   2.135   0.725
10755SOL    HW233165   6.734   2.280   0.650
10756SOL     OW33166   6.502   2.368   0.036
10756SOL    HW133167   6.475   2.409   6.970
10756SOL    HW233168   6.601   2.358   0.039
10757SOL     OW33169   0.040   3.888   0.837
10757SOL    HW133170   0.026   3.817   0.906
10757SOL    HW233171   0.122   3.867   0.784
10758SOL     OW33172   0.893   5.852   5.714
10758SOL    HW133173   0.885   5.777   5.648
10758SOL    HW233174   0.809   5.906   5.713
10759SOL     OW33175   1.709   3.512   6.144
10759SOL    HW133176   1.778   3.518   6.072
10759SOL    HW233177   1.633   3.574   6.123
10760SOL     OW33178   0.756   5.583   0.789
10760SOL    HW133179   0.786   5.491   0.764
10760SOL    HW233180   0.833   5.635   0.826
10761SOL     OW33181   1.157   2.669   6.221
10761SOL    HW133182   1.113   2.579   6.226
10761SOL    HW233183   1.192   2.683   6.129
10762SOL     OW33184   4.813   0.913   5.718
10762SOL    HW133185   4.716   0.902   5.742
10762SOL    HW233186   4.822   0.922   5.619
10763SOL     OW33187   4.837   0.325   1.774
10763SOL    HW133188   4.873   0.291   1.687
10763SOL    HW233189   4.777   0.257   1.814
10764SOL     OW33190   5.230   1.659   6.113
10764SOL    HW133191   5.299   1.662   6.185
10764SOL    HW233192   5.204   1.752   6.087
10765SOL     OW33193   5.541   1.186   1.928
10765SOL    HW133194   5.614   1.227   1.983
10765SOL    HW233195   5.511   1.252   1.859
10766SOL     OW33196   2.282   4.343   0.016
10766SOL    HW133197   2.366   4.290   0.002
10766SOL    HW233198   2.203   4.285   7.017
10767SOL     OW33199   1.624   6.139   0.750
10767SOL    HW133200   1.708   6.186   0.779
10767SOL    HW233201   1.551   6.156   0.816
10768SOL     OW33202   5.429   5.906   6.977
10768SOL    HW133203   5.385   5.976   6.921
10768SOL    HW233204   5.412   5.924   0.053
10769SOL     OW33205   2.844   4.445   5.411
10769SOL    HW133206   2.899   4.459   5.329
10769SOL    HW233207   2.774   4.376   5.394
10770SOL     OW33208   5.629   0.431   4.491
10770SOL    HW133209   5.681   0.509   4.457
10770SOL    HW233210   5.532   0.454   4.494
10771SOL     OW33211   4.286   0.108   5.399
10771SOL    HW133212   4.285   0.207   5.382
10771SOL    HW233213   4.224   0.087   5.474
10772SOL     OW33214   6.759   6.473   3.739
10772SOL    HW133215   6.721   6.473   3.831
10772SOL    HW233216   6.742   6.561   3.695
10773SOL     OW33217   0.054   4.522   6.748
10773SOL    HW133218   0.056   4.558   6.841
10773SOL    HW233219   0.001   4.583   6.690
10774SOL     OW33220   1.609   2.304   1.768
10774SOL    HW133221   1.632   2.213   1.734
10774SOL    HW233222   1.600   2.301   1.868
10775SOL     OW33223   1.927   4.291   1.191
10775SOL    HW133224   1.987   4.215   1.218
10775SOL    HW233225   1.978   4.377   1.198
10776SOL     OW33226   0.286   6.708   2.202
10776SOL    HW133227   0.268   6.634   2.136
10776SOL    HW233228   0.200   6.752   2.227
10777SOL     OW33229   4.192   0.449   3.408
10777SOL    HW133230   4.119   0.514   3.431
10777SOL    HW233231   4.177   0.363   3.457
10778SOL     OW33232   6.229   6.227   4.802
10778SOL    HW133233   6.263   6.313   4.763
10778SOL    HW233234   6.130   6.221   4.786
10779SOL     OW33235   6.387   4.234   2.424
10779SOL    HW133236   6.342   4.266   2.341
10779SOL    HW233237   6.417   4.313   2.478
10780SOL     OW33238   0.629   5.913   4.330
10780SOL    HW133239   0.571   5.836   4.304
10780SOL    HW233240   0.629   5.980   4.256
10781SOL     OW33241   5.200   1.006   4.426
10781SOL    HW133242   5.114   0.957   4.435
10781SOL    HW233243   5.267   0.966   4.489
10782SOL     OW33244   6.218   3.049   4.004
10782SOL    HW133245   6.237   2.986   3.929
10782SOL    HW233246   6.215   3.143   3.969
10783SOL     OW33247   2.140   2.972   2.459
10783SOL    HW133248   2.210   2.932   2.517
10783SOL    HW233249   2.154   3.071   2.454
10784SOL     OW33250   2.795   6.895   2.219
10784SOL    HW133251   2.738   6.971   2.250
10784SOL    HW233252   2.856   6.866   2.292
10785SOL     OW33253   1.464   5.211   1.412
10785SOL    HW133254   1.562   5.198   1.421
10785SOL    HW233255   1.442   5.309   1.422
10786SOL     OW33256   4.847   1.876   2.330
10786SOL    HW133257   4.943   1.867   2.304
10786SOL    HW233258   4.837   1.955   2.391
10787SOL     OW33259   3.444   0.918   4.339
10787SOL    HW133260   3.427   0.937   4.243
10787SOL    HW233261   3.463   1.003   4.388
10788SOL     OW33262   1.886   4.005   0.422
10788SOL    HW133263   1.793   3.994   0.454
10788SOL    HW233264   1.895   4.091   0.372
10789SOL     OW33265   6.439   0.444   0.082
10789SOL    HW133266   6.502   0.501   0.135
10789SOL    HW233267   6.434   0.478   7.009
10790SOL     OW33268   6.897   1.105   5.783
10790SOL    HW133269   6.988   1.066   5.797
10790SOL    HW233270   6.852   1.119   5.871
10791SOL     OW33271   2.048   1.653   1.544
10791SOL    HW133272   2.067   1.748   1.571
10791SOL    HW233273   1.953   1.646   1.513
10792SOL     OW33274   3.339   3.010   1.549
10792SOL    HW133275   3.400   3.024   1.472
10792SOL    HW233276   3.323   2.912   1.562
10793SOL     OW33277   5.384   2.511   4.064
10793SOL    HW133278   5.392   2.499   3.965
10793SOL    HW233279   5.290   2.537   4.087
10794SOL     OW33280   4.096   3.935   1.746
10794SOL    HW133281   4.085   3.908   1.842
10794SOL    HW233282   4.006   3.949   1.705
10795SOL     OW33283   6.421   3.543   2.813
10795SOL    HW133284   6.405   3.640   2.831
10795SOL    HW233285   6.412   3.525   2.716
10796SOL     OW33286   3.948   0.098   6.318
10796SOL    HW133287   3.958   0.191   6.283
10796SOL    HW233288   4.036   0.066   6.354
10797SOL     OW33289   4.083   2.732   0.456
10797SOL    HW133290   4.083   2.739   0.556
10797SOL    HW233291   4.161   2.781   0.419
10798SOL     OW33292   2.305   0.674   6.877
10798SOL    HW133293   2.360   0.634   6.804
10798SOL    HW233294   2.231   0.612   6.901
10799SOL     OW33295   3.428   1.915   2.466
10799SOL    HW133296   3.412   1.854   2.544
10799SOL    HW233297   3.464   2.002   2.499
10800SOL     OW33298   1.949   6.295   0.918
10800SOL    HW133299   1.876   6.312   0.984
10800SOL    HW233300   1.914   6.303   0.825
10801SOL     OW33301   2.059   6.719   4.713
10801SOL    HW133302   2.151   6.754   4.728
10801SOL    HW233303   2.012   6.709   4.801
10802SOL     OW33304   2.330   2.668   4.045
10802SOL    HW133305   2.366   2.606   4.114
10802SOL    HW233306   2.239   2.700   4.074
10803SOL     OW33307   5.270   4.444   5.184
10803SOL    HW133308   5.306   4.478   5.098
10803SOL    HW233309   5.217   4.516   5.229
10804SOL     OW33310   6.843   3.890   0.645
10804SOL    HW133311   6.892   3.902   0.731
10804SOL    HW233312   6.794   3.803   0.646
10805SOL     OW33313   3.385   0.112   6.554
10805SOL    HW133314   3.333   0.170   6.616
10805SOL    HW233315   3.348   0.019   6.557
10806SOL     OW33316   5.992   4.167   0.314
10806SOL    HW133317   5.975   4.090   0.376
10806SOL    HW233318   6.006   4.134   0.221
10807SOL     OW33319   3.370   6.721   3.650
10807SOL    HW133320   3.362   6.633   3.698
10807SOL    HW233321   3.307   6.787   3.691
10808SOL     OW33322   0.208   3.952   6.977
10808SOL    HW133323   0.293   3.960   0.008
10808SOL    HW233324   0.130   3.959   0.019
10809SOL     OW33325   2.917   0.519   4.234
10809SOL    HW133326   2.924   0.596   4.298
10809SOL    HW233327   2.911   0.554   4.140
10810SOL     OW33328   0.574   1.358   5.580
10810SOL    HW133329   0.662   1.341   5.624
10810SOL    HW233330   0.546   1.276   5.529
10811SOL     OW33331   3.944   4.904   5.474
10811SOL    HW133332   3.961   4.999   5.448
10811SOL    HW233333   3.877   4.864   5.411
10812SOL     OW33334   0.392   2.550   2.752
10812SOL    HW133335   0.458   2.571   2.680
10812SOL    HW233336   0.357   2.457   2.739
10813SOL     OW33337   2.704   5.995   1.557
10813SOL    HW133338   2.645   6.067   1.593
10813SOL    HW233339   2.695   5.991   1.457
10814SOL     OW33340   1.446   0.219   5.998
10814SOL    HW133341   1.501   0.264   6.069
10814SOL    HW233342   1.375   0.163   6.040
10815SOL     OW33343   4.651   4.712   3.548
10815SOL    HW133344   4.586   4.647   3.508
10815SOL    HW233345   4.744   4.682   3.528
10816SOL     OW33346   1.908   1.269   2.095
10816SOL    HW133347   1.825   1.279   2.150
10816SOL    HW233348   1.907   1.335   2.021
10817SOL     OW33349   5.387   6.358   2.919
10817SOL    HW133350   5.464   6.338   2.980
10817SOL    HW233351   5.349   6.448   2.943
10818SOL     OW33352   5.670   2.627   5.839
10818SOL    HW133353   5.741   2.581   5.784
10818SOL    HW233354   5.659   2.721   5.806
10819SOL     OW33355   1.128   3.540   6.572
10819SOL    HW133356   1.096   3.604   6.502
10819SOL    HW233357   1.201   3.482   6.534
10820SOL     OW33358   0.102   6.759   3.751
10820SOL    HW133359   0.071   6.805   3.834
10820SOL    HW233360   0.031   6.766   3.681
10821SOL     OW33361   6.268   5.903   2.836
10821SOL    HW133362   6.356   5.883   2.878
10821SOL    HW233363   6.277   5.983   2.777
10822SOL     OW33364   1.519   3.368   2.799
10822SOL    HW133365   1.502   3.457   2.841
10822SOL    HW233366   1.440   3.342   2.743
10823SOL     OW33367   1.691   5.889   1.515
10823SOL    HW133368   1.724   5.834   1.591
10823SOL    HW233369   1.673   5.831   1.436
10824SOL     OW33370   5.250   0.213   3.559
10824SOL    HW133371   5.225   0.199   3.655
10824SOL    HW233372   5.342   0.176   3.543
10825SOL     OW33373   2.370   1.556   0.760
10825SOL    HW133374   2.416   1.612   0.830
10825SOL    HW233375   2.429   1.549   0.680
10826SOL     OW33376   6.649   3.528   2.273
10826SOL    HW133377   6.729   3.486   2.316
10826SOL    HW233378   6.672   3.555   2.179
10827SOL     OW33379   6.349   3.665   3.855
10827SOL    HW133380   6.329   3.635   3.948
10827SOL    HW233381   6.427   3.728   3.855
10828SOL     OW33382   0.938   6.135   1.577
10828SOL    HW133383   0.949   6.167   1.483
10828SOL    HW233384   0.885   6.203   1.629
10829SOL     OW33385   2.526   3.115   1.330
10829SOL    HW133386   2.592   3.119   1.255
10829SOL    HW233387   2.435   3.138   1.295
10830SOL     OW33388   5.751   2.670   4.126
10830SOL    HW133389   5.707   2.719   4.051
10830SOL    HW233390   5.778   2.734   4.198
10831SOL     OW33391   4.971   0.302   2.021
10831SOL    HW133392   4.926   0.243   2.088
10831SOL    HW233393   4.903   0.339   1.958
10832SOL     OW33394   0.714   2.214   0.946
10832SOL    HW133395   0.744   2.192   0.853
10832SOL    HW233396   0.628   2.168   0.965
10833SOL     OW33397   2.031   0.410   3.495
10833SOL    HW133398   2.016   0.508   3.508
10833SOL    HW233399   2.102   0.397   3.425
10834SOL     OW33400   0.176   1.480   5.004
10834SOL    HW133401   0.189   1.423   4.922
10834SOL    HW233402   0.254   1.541   5.015
10835SOL     OW33403   6.293   1.756   1.516
10835SOL    HW133404   6.216   1.786   1.460
10835SOL    HW233405   6.372   1.815   1.498
10836SOL     OW33406   6.748   1.948   5.330
10836SOL    HW133407   6.657   1.932   5.293
10836SOL    HW233408   6.816   1.900   5.274
10837SOL     OW33409   0.114   4.603   7.020
10837SOL    HW133410   0.051   4.653   0.058
10837SOL    HW233411   0.117   4.507   0.027
10838SOL     OW33412   5.708   0.443   5.726
10838SOL    HW133413   5.671   0.508   5.660
10838SOL    HW233414   5.696   0.350   5.692
10839SOL     OW33415   2.744   2.710   0.175
10839SOL    HW133416   2.833   2.695   0.131
10839SOL    HW233417   2.733   2.808   0.194
10840SOL     OW33418   3.709   5.843   1.342
10840SOL    HW133419   3.636   5.874   1.280
10840SOL    HW233420   3.794   5.889   1.319
10841SOL     OW33421   3.500   5.992   5.446
10841SOL    HW133422   3.477   6.027   5.537
10841SOL    HW233423   3.585   6.035   5.415
10842SOL     OW33424   6.079   2.805   0.859
10842SOL    HW133425   6.111   2.737   0.793
10842SOL    HW233426   6.156   2.836   0.915
10843SOL     OW33427   0.937   1.869   1.461
10843SOL    HW133428   0.947   1.869   1.560
10843SOL    HW233429   1.026   1.885   1.418
10844SOL     OW33430   6.500   6.355   4.509
10844SOL    HW133431   6.531   6.324   4.599
10844SOL    HW233432   6.565   6.327   4.439
10845SOL     OW33433   1.628   0.883   1.519
10845SOL    HW133434   1.640   0.924   1.429
10845SOL    HW233435   1.678   0.936   1.587
10846SOL     OW33436   4.664   1.939   0.635
10846SOL    HW133437   4.594   2.010   0.639
10846SOL    HW233438   4.668   1.900   0.543
10847SOL     OW33439   2.331   2.044   6.084
10847SOL    HW133440   2.341   2.099   6.166
10847SOL    HW233441   2.239   2.055   6.047
10848SOL     OW33442   2.720   1.675   6.999
10848SOL    HW133443   2.787   1.731   0.027
10848SOL    HW233444   2.655   1.636   0.043
10849SOL     OW33445   3.929   4.816   3.791
10849SOL    HW133446   3.911   4.876   3.869
10849SOL    HW233447   3.857   4.747   3.784
10850SOL     OW33448   3.738   6.848   6.914
10850SOL    HW133449   3.739   6.809   7.006
10850SOL    HW233450   3.656   6.817   6.866
10851SOL     OW33451   2.687   2.857   6.178
10851SOL    HW133452   2.589   2.870   6.162
10851SOL    HW233453   2.700   2.811   6.266
10852SOL     OW33454   0.417   0.628   6.815
10852SOL    HW133455   0.354   0.565   6.861
10852SOL    HW233456   0.371   0.672   6.738
10853SOL     OW33457   3.699   2.015   4.245
10853SOL    HW133458   3.640   2.062   4.311
10853SOL    HW233459   3.679   2.049   4.153
10854SOL     OW33460   6.131   0.172   6.762
10854SOL    HW133461   6.055   0.221   6.805
10854SOL    HW233462   6.156   0.093   6.819
10855SOL     OW33463   2.673   6.036   2.677
10855SOL    HW133464   2.596   6.000   2.731
10855SOL    HW233465   2.671   5.995   2.586
10856SOL     OW33466   6.205   0.353   1.087
10856SOL    HW133467   6.166   0.353   0.995
10856SOL    HW233468   6.299   0.320   1.083
10857SOL     OW33469   6.248   2.913   3.199
10857SOL    HW133470   6.225   2.991   3.141
10857SOL    HW233471   6.328   2.935   3.255
10858SOL     OW33472   1.920   2.984   6.928
10858SOL    HW133473   1.831   2.996   6.884
10858SOL    HW233474   1.968   3.072   6.929
10859SOL     OW33475   1.601   3.465   3.486
10859SOL    HW133476   1.575   3.369   3.498
10859SOL    HW233477   1.590   3.491   3.391
10860SOL     OW33478   6.617   0.908   6.977
10860SOL    HW133479   6.694   0.971   6.993
10860SOL    HW233480   6.614   0.883   6.881
10861SOL     OW33481   3.734   2.581   1.682
10861SOL    HW133482   3.832   2.588   1.662
10861SOL    HW233483   3.716   2.495   1.729
10862SOL     OW33484   2.542   1.719   6.310
10862SOL    HW133485   2.598   1.768   6.244
10862SOL    HW233486   2.489   1.784   6.365
10863SOL     OW33487   2.748   0.424   3.141
10863SOL    HW133488   2.707   0.474   3.217
10863SOL    HW233489   2.821   0.479   3.101
10864SOL     OW33490   2.065   4.518   1.561
10864SOL    HW133491   2.142   4.459   1.536
10864SOL    HW233492   1.983   4.490   1.511
10865SOL     OW33493   5.860   3.110   3.721
10865SOL    HW133494   5.940   3.170   3.723
10865SOL    HW233495   5.843   3.080   3.628
10866SOL     OW33496   5.802   3.207   1.124
10866SOL    HW133497   5.703   3.194   1.113
10866SOL    HW233498   5.847   3.118   1.115
10867SOL     OW33499   2.763   2.822   0.613
10867SOL    HW133500   2.790   2.784   0.701
10867SOL    HW233501   2.844   2.837   0.557
10868SOL     OW33502   1.408   2.161   2.981
10868SOL    HW133503   1.499   2.200   2.971
10868SOL    HW233504   1.339   2.232   2.963
10869NA      NA33505   0.953   1.905   6.304
10870NA      NA33506   4.492   4.630   5.157
10871NA      NA33507   1.719   4.634   2.719
10872NA      NA33508   5.121   4.475   3.761
10873NA      NA33509   4.289   2.395   5.267
10874NA      NA33510   3.087   4.749   1.597
10875NA      NA33511   1.259   4.739   0.042
10876NA      NA33512   3.996   4.484   1.611
10877NA      NA33513   4.477   3.897   0.947
10878NA      NA33514   3.685   1.291   5.641
10879NA      NA33515   4.867   5.823   1.793
10880NA      NA33516   1.468   0.327   5.777
10881NA      NA33517   4.999   4.866   2.143
10882NA      NA33518   3.427   3.390   0.428
   7.02097   7.02097   7.02097
