Generated by trjconv : CNT in water t=  59.00000
33518
    1C        C    1   2.846   2.768   4.747
    1C        C    2   2.898   2.714   4.867
    1C        C    3   2.845   2.772   4.983
    1C        C    4   2.846   2.768   4.257
    1C        C    5   2.895   2.721   4.381
    1C        C    6   2.837   2.766   4.502
    1C        C    7   3.011   2.641   4.622
    1C        C    8   2.894   2.719   4.623
    1C        C    9   3.076   2.606   4.742
    1C        C   10   3.012   2.631   4.865
    1C        C   11   3.180   2.486   4.974
    1C        C   12   3.057   2.553   4.973
    1C        C   13   2.847   2.768   3.768
    1C        C   14   2.897   2.718   3.891
    1C        C   15   2.850   2.771   4.013
    1C        C   16   3.012   2.637   4.136
    1C        C   17   2.897   2.719   4.135
    1C        C   18   3.076   2.608   4.258
    1C        C   19   3.012   2.642   4.379
    1C        C   20   3.206   2.555   4.502
    1C        C   21   3.074   2.604   4.501
    1C        C   22   3.276   2.537   4.623
    1C        C   23   3.204   2.543   4.744
    1C        C   24   3.410   2.485   4.861
    1C        C   25   3.267   2.494   4.861
    1C        C   26   3.487   2.478   4.978
    1C        C   27   2.847   2.763   3.280
    1C        C   28   2.897   2.715   3.403
    1C        C   29   2.851   2.768   3.525
    1C        C   30   3.019   2.640   3.647
    1C        C   31   2.903   2.720   3.648
    1C        C   32   3.071   2.595   3.770
    1C        C   33   3.007   2.629   3.891
    1C        C   34   3.201   2.543   4.015
    1C        C   35   3.071   2.597   4.013
    1C        C   36   3.274   2.536   4.136
    1C        C   37   3.209   2.559   4.259
    1C        C   38   3.414   2.509   4.378
    1C        C   39   3.275   2.533   4.381
    1C        C   40   3.486   2.508   4.500
    1C        C   41   3.416   2.514   4.622
    1C        C   42   3.628   2.485   4.742
    1C        C   43   3.485   2.481   4.740
    1C        C   44   3.703   2.495   4.861
    1C        C   45   3.626   2.487   4.978
    1C        C   46   2.835   2.749   2.791
    1C        C   47   2.893   2.708   2.913
    1C        C   48   2.841   2.760   3.034
    1C        C   49   3.011   2.633   3.157
    1C        C   50   2.897   2.716   3.156
    1C        C   51   3.075   2.603   3.279
    1C        C   52   3.012   2.633   3.402
    1C        C   53   3.206   2.544   3.525
    1C        C   54   3.076   2.599   3.524
    1C        C   55   3.271   2.526   3.649
    1C        C   56   3.203   2.543   3.772
    1C        C   57   3.412   2.509   3.893
    1C        C   58   3.272   2.526   3.894
    1C        C   59   3.486   2.505   4.014
    1C        C   60   3.414   2.514   4.135
    1C        C   61   3.626   2.499   4.257
    1C        C   62   3.485   2.498   4.256
    1C        C   63   3.698   2.514   4.378
    1C        C   64   3.627   2.507   4.499
    1C        C   65   3.834   2.544   4.617
    1C        C   66   3.698   2.505   4.621
    1C        C   67   3.903   2.565   4.738
    1C        C   68   3.840   2.529   4.859
    1C        C   69   4.047   2.583   4.976
    1C        C   70   3.921   2.522   4.973
    1C        C   71   2.820   2.732   2.304
    1C        C   72   2.879   2.688   2.424
    1C        C   73   2.829   2.739   2.546
    1C        C   74   3.000   2.615   2.671
    1C        C   75   2.883   2.695   2.669
    1C        C   76   3.067   2.587   2.791
    1C        C   77   3.010   2.629   2.913
    1C        C   78   3.207   2.550   3.034
    1C        C   79   3.075   2.598   3.035
    1C        C   80   3.272   2.527   3.158
    1C        C   81   3.203   2.544   3.280
    1C        C   82   3.410   2.500   3.402
    1C        C   83   3.271   2.520   3.402
    1C        C   84   3.480   2.496   3.526
    1C        C   85   3.410   2.502   3.649
    1C        C   86   3.622   2.503   3.766
    1C        C   87   3.481   2.496   3.771
    1C        C   88   3.692   2.508   3.889
    1C        C   89   3.627   2.505   4.015
    1C        C   90   3.833   2.551   4.133
    1C        C   91   3.699   2.508   4.136
    1C        C   92   3.905   2.568   4.253
    1C        C   93   3.836   2.544   4.374
    1C        C   94   4.030   2.631   4.497
    1C        C   95   3.902   2.571   4.496
    1C        C   96   4.089   2.668   4.620
    1C        C   97   4.034   2.620   4.741
    1C        C   98   4.189   2.763   4.860
    1C        C   99   4.102   2.650   4.862
    1C        C  100   4.208   2.843   4.973
    1C        C  101   2.825   2.733   2.069
    1C        C  102   2.991   2.591   2.190
    1C        C  103   2.873   2.673   2.186
    1C        C  104   3.066   2.573   2.310
    1C        C  105   2.999   2.613   2.427
    1C        C  106   3.195   2.531   2.550
    1C        C  107   3.062   2.580   2.549
    1C        C  108   3.270   2.520   2.669
    1C        C  109   3.201   2.542   2.790
    1C        C  110   3.410   2.495   2.914
    1C        C  111   3.272   2.523   2.911
    1C        C  112   3.480   2.488   3.037
    1C        C  113   3.410   2.497   3.159
    1C        C  114   3.623   2.501   3.279
    1C        C  115   3.482   2.496   3.281
    1C        C  116   3.692   2.510   3.402
    1C        C  117   3.621   2.502   3.523
    1C        C  118   3.830   2.547   3.643
    1C        C  119   3.693   2.512   3.644
    1C        C  120   3.895   2.566   3.767
    1C        C  121   3.829   2.543   3.890
    1C        C  122   4.024   2.639   4.010
    1C        C  123   3.898   2.575   4.009
    1C        C  124   4.086   2.676   4.131
    1C        C  125   4.028   2.638   4.254
    1C        C  126   4.195   2.766   4.374
    1C        C  127   4.091   2.670   4.376
    1C        C  128   4.237   2.823   4.496
    1C        C  129   4.190   2.767   4.617
    1C        C  130   4.324   2.932   4.739
    1C        C  131   4.242   2.815   4.738
    1C        C  132   4.351   3.001   4.859
    1C        C  133   4.282   2.961   4.974
    1C        C  134   3.168   2.462   2.080
    1C        C  135   3.036   2.509   2.082
    1C        C  136   3.256   2.475   2.188
    1C        C  137   3.199   2.524   2.308
    1C        C  138   3.403   2.474   2.425
    1C        C  139   3.264   2.498   2.431
    1C        C  140   3.476   2.479   2.545
    1C        C  141   3.409   2.494   2.668
    1C        C  142   3.620   2.494   2.788
    1C        C  143   3.479   2.489   2.791
    1C        C  144   3.692   2.503   2.910
    1C        C  145   3.621   2.498   3.032
    1C        C  146   3.829   2.539   3.154
    1C        C  147   3.691   2.508   3.155
    1C        C  148   3.899   2.559   3.275
    1C        C  149   3.830   2.540   3.397
    1C        C  150   4.023   2.626   3.520
    1C        C  151   3.896   2.563   3.520
    1C        C  152   4.082   2.666   3.642
    1C        C  153   4.023   2.625   3.764
    1C        C  154   4.190   2.760   3.881
    1C        C  155   4.080   2.672   3.884
    1C        C  156   4.244   2.807   4.003
    1C        C  157   4.200   2.758   4.128
    1C        C  158   4.340   2.917   4.251
    1C        C  159   4.251   2.807   4.251
    1C        C  160   4.372   2.983   4.372
    1C        C  161   4.331   2.929   4.496
    1C        C  162   4.438   3.113   4.614
    1C        C  163   4.369   2.990   4.618
    1C        C  164   4.464   3.181   4.735
    1C        C  165   4.427   3.120   4.857
    1C        C  166   4.511   3.322   4.970
    1C        C  167   4.476   3.188   4.969
    1C        C  168   3.473   2.439   2.070
    1C        C  169   3.395   2.449   2.186
    1C        C  170   3.615   2.459   2.307
    1C        C  171   3.473   2.454   2.304
    1C        C  172   3.690   2.482   2.424
    1C        C  173   3.618   2.486   2.545
    1C        C  174   3.827   2.535   2.665
    1C        C  175   3.690   2.502   2.666
    1C        C  176   3.897   2.557   2.786
    1C        C  177   3.830   2.534   2.908
    1C        C  178   4.022   2.622   3.029
    1C        C  179   3.895   2.560   3.031
    1C        C  180   4.085   2.656   3.151
    1C        C  181   4.025   2.623   3.274
    1C        C  182   4.195   2.748   3.396
    1C        C  183   4.081   2.664   3.397
    1C        C  184   4.246   2.802   3.516
    1C        C  185   4.191   2.755   3.638
    1C        C  186   4.337   2.912   3.763
    1C        C  187   4.246   2.804   3.759
    1C        C  188   4.378   2.972   3.884
    1C        C  189   4.334   2.916   4.006
    1C        C  190   4.439   3.100   4.129
    1C        C  191   4.377   2.973   4.127
    1C        C  192   4.467   3.169   4.249
    1C        C  193   4.441   3.106   4.373
    1C        C  194   4.503   3.314   4.488
    1C        C  195   4.469   3.177   4.492
    1C        C  196   4.521   3.385   4.609
    1C        C  197   4.504   3.318   4.732
    1C        C  198   4.552   3.535   4.847
    1C        C  199   4.526   3.394   4.850
    1C        C  200   4.584   3.619   4.958
    1C        C  201   3.610   2.415   2.073
    1C        C  202   3.821   2.510   2.179
    1C        C  203   3.687   2.459   2.185
    1C        C  204   3.893   2.533   2.299
    1C        C  205   3.828   2.514   2.423
    1C        C  206   4.020   2.616   2.539
    1C        C  207   3.895   2.551   2.542
    1C        C  208   4.083   2.656   2.659
    1C        C  209   4.020   2.626   2.782
    1C        C  210   4.190   2.746   2.902
    1C        C  211   4.082   2.656   2.905
    1C        C  212   4.243   2.792   3.025
    1C        C  213   4.196   2.744   3.149
    1C        C  214   4.337   2.901   3.266
    1C        C  215   4.246   2.794   3.272
    1C        C  216   4.373   2.963   3.389
    1C        C  217   4.332   2.914   3.515
    1C        C  218   4.429   3.099   3.638
    1C        C  219   4.369   2.971   3.638
    1C        C  220   4.457   3.167   3.759
    1C        C  221   4.438   3.100   3.882
    1C        C  222   4.494   3.302   3.999
    1C        C  223   4.462   3.165   4.006
    1C        C  224   4.507   3.376   4.119
    1C        C  225   4.499   3.307   4.242
    1C        C  226   4.510   3.520   4.359
    1C        C  227   4.506   3.379   4.363
    1C        C  228   4.514   3.593   4.480
    1C        C  229   4.534   3.525   4.603
    1C        C  230   4.503   3.739   4.723
    1C        C  231   4.538   3.601   4.722
    1C        C  232   4.499   3.817   4.840
    1C        C  233   4.546   3.754   4.956
    1C        C  234   4.009   2.616   2.063
    1C        C  235   3.893   2.540   2.063
    1C        C  236   4.082   2.643   2.180
    1C        C  237   4.018   2.602   2.299
    1C        C  238   4.202   2.725   2.417
    1C        C  239   4.084   2.646   2.416
    1C        C  240   4.259   2.776   2.536
    1C        C  241   4.197   2.740   2.658
    1C        C  242   4.333   2.903   2.782
    1C        C  243   4.243   2.794   2.780
    1C        C  244   4.376   2.960   2.904
    1C        C  245   4.335   2.899   3.024
    1C        C  246   4.434   3.090   3.147
    1C        C  247   4.375   2.962   3.145
    1C        C  248   4.452   3.158   3.270
    1C        C  249   4.428   3.093   3.392
    1C        C  250   4.489   3.298   3.508
    1C        C  251   4.455   3.160   3.513
    1C        C  252   4.510   3.368   3.629
    1C        C  253   4.495   3.303   3.754
    1C        C  254   4.521   3.512   3.872
    1C        C  255   4.506   3.371   3.877
    1C        C  256   4.513   3.586   3.992
    1C        C  257   4.520   3.517   4.115
    1C        C  258   4.496   3.728   4.238
    1C        C  259   4.519   3.589   4.236
    1C        C  260   4.473   3.800   4.358
    1C        C  261   4.487   3.731   4.480
    1C        C  262   4.422   3.935   4.598
    1C        C  263   4.471   3.803   4.601
    1C        C  264   4.402   4.007   4.718
    1C        C  265   4.435   3.943   4.839
    1C        C  266   4.315   4.122   4.954
    1C        C  267   4.392   4.006   4.957
    1C        C  268   4.254   2.779   2.062
    1C        C  269   4.195   2.728   2.179
    1C        C  270   4.349   2.883   2.297
    1C        C  271   4.257   2.773   2.297
    1C        C  272   4.381   2.949   2.417
    1C        C  273   4.343   2.889   2.539
    1C        C  274   4.444   3.080   2.657
    1C        C  275   4.378   2.955   2.659
    1C        C  276   4.467   3.150   2.777
    1C        C  277   4.441   3.086   2.900
    1C        C  278   4.496   3.289   3.021
    1C        C  279   4.462   3.152   3.023
    1C        C  280   4.508   3.361   3.142
    1C        C  281   4.499   3.292   3.265
    1C        C  282   4.520   3.505   3.386
    1C        C  283   4.505   3.365   3.385
    1C        C  284   4.518   3.580   3.506
    1C        C  285   4.514   3.509   3.629
    1C        C  286   4.490   3.721   3.747
    1C        C  287   4.514   3.582   3.750
    1C        C  288   4.474   3.792   3.868
    1C        C  289   4.489   3.726   3.992
    1C        C  290   4.424   3.926   4.112
    1C        C  291   4.471   3.793   4.115
    1C        C  292   4.396   3.995   4.233
    1C        C  293   4.427   3.934   4.356
    1C        C  294   4.323   4.122   4.476
    1C        C  295   4.395   4.000   4.476
    1C        C  296   4.280   4.178   4.598
    1C        C  297   4.326   4.127   4.721
    1C        C  298   4.200   4.312   4.834
    1C        C  299   4.279   4.192   4.839
    1C        C  300   4.170   4.399   4.944
    1C        C  301   4.349   2.880   2.059
    1C        C  302   4.471   3.062   2.174
    1C        C  303   4.399   2.938   2.176
    1C        C  304   4.483   3.140   2.292
    1C        C  305   4.450   3.072   2.411
    1C        C  306   4.506   3.278   2.534
    1C        C  307   4.476   3.140   2.533
    1C        C  308   4.508   3.353   2.653
    1C        C  309   4.498   3.288   2.778
    1C        C  310   4.521   3.499   2.895
    1C        C  311   4.517   3.358   2.899
    1C        C  312   4.511   3.569   3.017
    1C        C  313   4.513   3.503   3.142
    1C        C  314   4.482   3.713   3.259
    1C        C  315   4.511   3.575   3.263
    1C        C  316   4.470   3.784   3.381
    1C        C  317   4.490   3.718   3.504
    1C        C  318   4.417   3.920   3.626
    1C        C  319   4.472   3.790   3.625
    1C        C  320   4.387   3.985   3.747
    1C        C  321   4.422   3.923   3.869
    1C        C  322   4.319   4.110   3.988
    1C        C  323   4.394   3.991   3.990
    1C        C  324   4.276   4.169   4.109
    1C        C  325   4.323   4.116   4.232
    1C        C  326   4.185   4.281   4.353
    1C        C  327   4.281   4.177   4.352
    1C        C  328   4.134   4.335   4.473
    1C        C  329   4.185   4.283   4.594
    1C        C  330   4.025   4.433   4.710
    1C        C  331   4.138   4.345   4.711
    1C        C  332   3.970   4.482   4.829
    1C        C  333   4.049   4.470   4.944
    1C        C  334   4.550   3.263   2.056
    1C        C  335   4.531   3.124   2.060
    1C        C  336   4.531   3.346   2.168
    1C        C  337   4.505   3.281   2.290
    1C        C  338   4.516   3.491   2.406
    1C        C  339   4.519   3.349   2.413
    1C        C  340   4.508   3.564   2.526
    1C        C  341   4.509   3.495   2.649
    1C        C  342   4.488   3.706   2.772
    1C        C  343   4.510   3.566   2.771
    1C        C  344   4.475   3.777   2.893
    1C        C  345   4.486   3.708   3.015
    1C        C  346   4.419   3.913   3.135
    1C        C  347   4.463   3.779   3.136
    1C        C  348   4.388   3.977   3.258
    1C        C  349   4.422   3.917   3.381
    1C        C  350   4.312   4.100   3.500
    1C        C  351   4.389   3.982   3.502
    1C        C  352   4.271   4.161   3.621
    1C        C  353   4.315   4.107   3.744
    1C        C  354   4.178   4.268   3.865
    1C        C  355   4.276   4.166   3.866
    1C        C  356   4.123   4.315   3.986
    1C        C  357   4.175   4.268   4.109
    1C        C  358   4.010   4.399   4.227
    1C        C  359   4.127   4.321   4.231
    1C        C  360   3.952   4.448   4.346
    1C        C  361   4.020   4.417   4.466
    1C        C  362   3.827   4.507   4.591
    1C        C  363   3.958   4.455   4.587
    1C        C  364   3.762   4.542   4.711
    1C        C  365   3.840   4.538   4.829
    1C        C  366   3.627   4.586   4.944
    1C        C  367   3.765   4.566   4.944
    1C        C  368   4.508   3.560   2.049
    1C        C  369   4.512   3.486   2.168
    1C        C  370   4.494   3.705   2.283
    1C        C  371   4.508   3.564   2.286
    1C        C  372   4.481   3.774   2.405
    1C        C  373   4.490   3.704   2.528
    1C        C  374   4.419   3.905   2.647
    1C        C  375   4.473   3.775   2.649
    1C        C  376   4.388   3.971   2.768
    1C        C  377   4.420   3.908   2.890
    1C        C  378   4.321   4.096   3.012
    1C        C  379   4.396   3.977   3.011
    1C        C  380   4.273   4.155   3.131
    1C        C  381   4.308   4.092   3.252
    1C        C  382   4.174   4.255   3.374
    1C        C  383   4.270   4.152   3.375
    1C        C  384   4.119   4.302   3.496
    1C        C  385   4.172   4.262   3.620
    1C        C  386   4.005   4.390   3.741
    1C        C  387   4.122   4.310   3.743
    1C        C  388   3.942   4.429   3.862
    1C        C  389   4.008   4.398   3.983
    1C        C  390   3.816   4.485   4.107
    1C        C  391   3.947   4.433   4.105
    1C        C  392   3.748   4.509   4.228
    1C        C  393   3.819   4.494   4.349
    1C        C  394   3.615   4.552   4.470
    1C        C  395   3.752   4.520   4.471
    1C        C  396   3.543   4.560   4.591
    1C        C  397   3.621   4.550   4.709
    1C        C  398   3.410   4.543   4.835
    1C        C  399   3.549   4.565   4.829
    1C        C  400   3.342   4.505   4.951
    1C        C  401   4.500   3.698   2.050
    1C        C  402   4.449   3.915   2.161
    1C        C  403   4.491   3.780   2.164
    1C        C  404   4.404   3.972   2.281
    1C        C  405   4.427   3.904   2.403
    1C        C  406   4.323   4.091   2.523
    1C        C  407   4.399   3.972   2.524
    1C        C  408   4.271   4.144   2.643
    1C        C  409   4.312   4.090   2.767
    1C        C  410   4.176   4.251   2.888
    1C        C  411   4.273   4.149   2.889
    1C        C  412   4.120   4.297   3.009
    1C        C  413   4.177   4.259   3.133
    1C        C  414   3.999   4.378   3.251
    1C        C  415   4.121   4.307   3.254
    1C        C  416   3.938   4.410   3.375
    1C        C  417   4.000   4.379   3.498
    1C        C  418   3.808   4.467   3.617
    1C        C  419   3.940   4.420   3.619
    1C        C  420   3.741   4.496   3.739
    1C        C  421   3.808   4.474   3.861
    1C        C  422   3.607   4.530   3.986
    1C        C  423   3.744   4.494   3.985
    1C        C  424   3.536   4.545   4.107
    1C        C  425   3.609   4.534   4.228
    1C        C  426   3.398   4.540   4.352
    1C        C  427   3.539   4.543   4.351
    1C        C  428   3.327   4.546   4.473
    1C        C  429   3.402   4.554   4.593
    1C        C  430   3.193   4.516   4.720
    1C        C  431   3.334   4.539   4.716
    1C        C  432   3.121   4.493   4.840
    1C        C  433   3.203   4.489   4.953
    1C        C  434   4.377   4.119   2.047
    1C        C  435   4.436   3.992   2.045
    1C        C  436   4.301   4.164   2.160
    1C        C  437   4.332   4.094   2.280
    1C        C  438   4.177   4.244   2.400
    1C        C  439   4.279   4.146   2.400
    1C        C  440   4.125   4.296   2.520
    1C        C  441   4.174   4.247   2.643
    1C        C  442   3.999   4.367   2.762
    1C        C  443   4.118   4.291   2.765
    1C        C  444   3.935   4.398   2.884
    1C        C  445   4.000   4.371   3.006
    1C        C  446   3.809   4.464   3.129
    1C        C  447   3.938   4.408   3.128
    1C        C  448   3.742   4.487   3.251
    1C        C  449   3.810   4.470   3.373
    1C        C  450   3.603   4.523   3.496
    1C        C  451   3.741   4.492   3.495
    1C        C  452   3.533   4.537   3.618
    1C        C  453   3.604   4.528   3.740
    1C        C  454   3.396   4.541   3.863
    1C        C  455   3.537   4.540   3.864
    1C        C  456   3.326   4.531   3.986
    1C        C  457   3.395   4.535   4.109
    1C        C  458   3.188   4.495   4.234
    1C        C  459   3.326   4.525   4.231
    1C        C  460   3.121   4.484   4.358
    1C        C  461   3.190   4.511   4.478
    1C        C  462   2.995   4.430   4.600
    1C        C  463   3.123   4.490   4.600
    1C        C  464   2.927   4.400   4.720
    1C        C  465   2.989   4.440   4.842
    1C        C  466   2.796   4.338   4.956
    1C        C  467   2.905   4.427   4.957
    1C        C  468   4.121   4.282   2.037
    1C        C  469   4.183   4.245   2.157
    1C        C  470   4.006   4.371   2.278
    1C        C  471   4.122   4.289   2.277
    1C        C  472   3.940   4.406   2.398
    1C        C  473   4.005   4.370   2.518
    1C        C  474   3.811   4.460   2.641
    1C        C  475   3.942   4.405   2.639
    1C        C  476   3.743   4.489   2.761
    1C        C  477   3.809   4.463   2.883
    1C        C  478   3.603   4.508   3.006
    1C        C  479   3.742   4.485   3.005
    1C        C  480   3.533   4.519   3.128
    1C        C  481   3.603   4.514   3.251
    1C        C  482   3.393   4.529   3.373
    1C        C  483   3.534   4.526   3.373
    1C        C  484   3.323   4.524   3.496
    1C        C  485   3.391   4.533   3.619
    1C        C  486   3.184   4.504   3.743
    1C        C  487   3.322   4.536   3.742
    1C        C  488   3.121   4.479   3.866
    1C        C  489   3.188   4.501   3.988
    1C        C  490   2.995   4.416   4.110
    1C        C  491   3.121   4.481   4.111
    1C        C  492   2.939   4.378   4.235
    1C        C  493   2.994   4.423   4.357
    1C        C  494   2.826   4.296   4.480
    1C        C  495   2.935   4.386   4.480
    1C        C  496   2.773   4.251   4.602
    1C        C  497   2.815   4.312   4.722
    1C        C  498   2.665   4.161   4.842
    1C        C  499   2.748   4.275   4.841
    1C        C  500   2.593   4.117   4.954
    1C        C  501   4.000   4.352   2.040
    1C        C  502   3.813   4.459   2.155
    1C        C  503   3.943   4.404   2.156
    1C        C  504   3.742   4.483   2.274
    1C        C  505   3.808   4.457   2.396
    1C        C  506   3.602   4.497   2.519
    1C        C  507   3.742   4.479   2.519
    1C        C  508   3.530   4.502   2.641
    1C        C  509   3.603   4.504   2.762
    1C        C  510   3.391   4.522   2.884
    1C        C  511   3.532   4.514   2.884
    1C        C  512   3.319   4.519   3.006
    1C        C  513   3.391   4.524   3.127
    1C        C  514   3.185   4.488   3.253
    1C        C  515   3.323   4.520   3.250
    1C        C  516   3.118   4.470   3.376
    1C        C  517   3.185   4.496   3.498
    1C        C  518   2.998   4.404   3.623
    1C        C  519   3.118   4.478   3.621
    1C        C  520   2.938   4.368   3.746
    1C        C  521   2.998   4.410   3.867
    1C        C  522   2.829   4.283   3.993
    1C        C  523   2.938   4.372   3.989
    1C        C  524   2.779   4.238   4.117
    1C        C  525   2.831   4.287   4.239
    1C        C  526   2.687   4.130   4.361
    1C        C  527   2.780   4.236   4.360
    1C        C  528   2.647   4.077   4.486
    1C        C  529   2.681   4.143   4.606
    1C        C  530   2.578   3.955   4.727
    1C        C  531   2.637   4.084   4.727
    1C        C  532   2.531   3.899   4.850
    1C        C  533   2.522   3.996   4.954
    1C        C  534   3.614   4.550   2.040
    1C        C  535   3.749   4.512   2.042
    1C        C  536   3.533   4.534   2.156
    1C        C  537   3.602   4.510   2.278
    1C        C  538   3.389   4.507   2.400
    1C        C  539   3.530   4.513   2.399
    1C        C  540   3.316   4.502   2.522
    1C        C  541   3.389   4.511   2.642
    1C        C  542   3.179   4.485   2.765
    1C        C  543   3.318   4.513   2.764
    1C        C  544   3.114   4.459   2.888
    1C        C  545   3.183   4.482   3.009
    1C        C  546   2.992   4.396   3.133
    1C        C  547   3.116   4.463   3.132
    1C        C  548   2.932   4.362   3.257
    1C        C  549   2.992   4.407   3.376
    1C        C  550   2.827   4.279   3.502
    1C        C  551   2.936   4.368   3.500
    1C        C  552   2.776   4.228   3.623
    1C        C  553   2.827   4.280   3.744
    1C        C  554   2.703   4.115   3.873
    1C        C  555   2.783   4.232   3.869
    1C        C  556   2.658   4.062   3.996
    1C        C  557   2.691   4.127   4.117
    1C        C  558   2.599   3.937   4.242
    1C        C  559   2.653   4.068   4.239
    1C        C  560   2.571   3.875   4.366
    1C        C  561   2.592   3.947   4.486
    1C        C  562   2.527   3.746   4.613
    1C        C  563   2.561   3.882   4.607
    1C        C  564   2.515   3.677   4.736
    1C        C  565   2.518   3.757   4.854
    1C        C  566   2.519   3.549   4.973
    1C        C  567   2.518   3.688   4.976
    1C        C  568   3.321   4.472   2.043
    1C        C  569   3.392   4.513   2.157
    1C        C  570   3.179   4.475   2.282
    1C        C  571   3.318   4.508   2.278
    1C        C  572   3.108   4.458   2.403
    1C        C  573   3.177   4.478   2.524
    1C        C  574   2.982   4.396   2.644
    1C        C  575   3.107   4.461   2.646
    1C        C  576   2.927   4.357   2.768
    1C        C  577   2.991   4.390   2.890
    1C        C  578   2.821   4.265   3.013
    1C        C  579   2.932   4.352   3.013
    1C        C  580   2.775   4.219   3.138
    1C        C  581   2.822   4.273   3.260
    1C        C  582   2.694   4.107   3.386
    1C        C  583   2.774   4.224   3.383
    1C        C  584   2.657   4.048   3.508
    1C        C  585   2.696   4.112   3.628
    1C        C  586   2.596   3.929   3.754
    1C        C  587   2.662   4.055   3.753
    1C        C  588   2.571   3.864   3.877
    1C        C  589   2.599   3.934   3.997
    1C        C  590   2.536   3.734   4.123
    1C        C  591   2.574   3.870   4.120
    1C        C  592   2.519   3.670   4.248
    1C        C  593   2.534   3.739   4.370
    1C        C  594   2.516   3.530   4.496
    1C        C  595   2.520   3.671   4.493
    1C        C  596   2.517   3.458   4.618
    1C        C  597   2.514   3.535   4.736
    1C        C  598   2.531   3.327   4.860
    1C        C  599   2.514   3.467   4.860
    1C        C  600   2.524   3.248   4.975
    1C        C  601   3.189   4.434   2.043
    1C        C  602   2.980   4.390   2.158
    1C        C  603   3.113   4.442   2.161
    1C        C  604   2.919   4.356   2.282
    1C        C  605   2.978   4.403   2.402
    1C        C  606   2.810   4.271   2.527
    1C        C  607   2.917   4.364   2.523
    1C        C  608   2.762   4.219   2.649
    1C        C  609   2.817   4.269   2.769
    1C        C  610   2.682   4.106   2.892
    1C        C  611   2.768   4.218   2.891
    1C        C  612   2.650   4.049   3.017
    1C        C  613   2.689   4.106   3.140
    1C        C  614   2.585   3.925   3.262
    1C        C  615   2.652   4.049   3.264
    1C        C  616   2.565   3.860   3.386
    1C        C  617   2.591   3.923   3.509
    1C        C  618   2.530   3.724   3.635
    1C        C  619   2.569   3.860   3.634
    1C        C  620   2.511   3.657   3.758
    1C        C  621   2.528   3.730   3.878
    1C        C  622   2.509   3.522   4.008
    1C        C  623   2.518   3.663   4.002
    1C        C  624   2.513   3.453   4.131
    1C        C  625   2.515   3.529   4.250
    1C        C  626   2.537   3.320   4.377
    1C        C  627   2.516   3.460   4.374
    1C        C  628   2.552   3.249   4.498
    1C        C  629   2.535   3.318   4.620
    1C        C  630   2.594   3.114   4.742
    1C        C  631   2.554   3.251   4.743
    1C        C  632   2.612   3.046   4.865
    1C        C  633   2.558   3.112   4.980
    1C        C  634   2.779   4.303   2.049
    1C        C  635   2.884   4.395   2.052
    1C        C  636   2.742   4.231   2.164
    1C        C  637   2.804   4.273   2.283
    1C        C  638   2.672   4.108   2.406
    1C        C  639   2.758   4.220   2.406
    1C        C  640   2.638   4.047   2.529
    1C        C  641   2.676   4.106   2.651
    1C        C  642   2.581   3.916   2.774
    1C        C  643   2.640   4.044   2.772
    1C        C  644   2.562   3.851   2.898
    1C        C  645   2.588   3.921   3.017
    1C        C  646   2.528   3.720   3.146
    1C        C  647   2.561   3.857   3.140
    1C        C  648   2.509   3.652   3.269
    1C        C  649   2.526   3.724   3.389
    1C        C  650   2.515   3.515   3.517
    1C        C  651   2.516   3.656   3.512
    1C        C  652   2.510   3.446   3.641
    1C        C  653   2.503   3.516   3.763
    1C        C  654   2.529   3.309   3.889
    1C        C  655   2.508   3.448   3.887
    1C        C  656   2.548   3.243   4.012
    1C        C  657   2.533   3.313   4.134
    1C        C  658   2.600   3.114   4.258
    1C        C  659   2.549   3.245   4.257
    1C        C  660   2.634   3.051   4.380
    1C        C  661   2.605   3.118   4.501
    1C        C  662   2.704   2.929   4.626
    1C        C  663   2.630   3.049   4.622
    1C        C  664   2.748   2.870   4.747
    1C        C  665   2.690   2.926   4.864
    1C        C  666   2.743   2.866   4.979
    1C        C  667   2.675   4.027   2.047
    1C        C  668   2.680   4.104   2.165
    1C        C  669   2.585   3.912   2.290
    1C        C  670   2.636   4.044   2.285
    1C        C  671   2.552   3.846   2.411
    1C        C  672   2.581   3.917   2.530
    1C        C  673   2.515   3.714   2.657
    1C        C  674   2.557   3.849   2.651
    1C        C  675   2.507   3.645   2.779
    1C        C  676   2.531   3.713   2.901
    1C        C  677   2.503   3.507   3.028
    1C        C  678   2.517   3.648   3.025
    1C        C  679   2.502   3.439   3.152
    1C        C  680   2.502   3.511   3.273
    1C        C  681   2.530   3.303   3.398
    1C        C  682   2.509   3.442   3.396
    1C        C  683   2.549   3.236   3.521
    1C        C  684   2.527   3.306   3.642
    1C        C  685   2.595   3.109   3.769
    1C        C  686   2.547   3.241   3.766
    1C        C  687   2.637   3.052   3.891
    1C        C  688   2.605   3.114   4.014
    1C        C  689   2.715   2.933   4.135
    1C        C  690   2.634   3.050   4.137
    1C        C  691   2.754   2.876   4.258
    1C        C  692   2.702   2.927   4.379
    1C        C  693   2.745   2.873   4.503
    1C        C  694   2.633   3.894   2.055
    1C        C  695   2.529   3.705   2.172
    1C        C  696   2.582   3.835   2.172
    1C        C  697   2.502   3.638   2.294
    1C        C  698   2.512   3.711   2.415
    1C        C  699   2.486   3.501   2.537
    1C        C  700   2.496   3.642   2.537
    1C        C  701   2.496   3.434   2.660
    1C        C  702   2.493   3.504   2.783
    1C        C  703   2.524   3.297   2.908
    1C        C  704   2.499   3.436   2.906
    1C        C  705   2.541   3.229   3.031
    1C        C  706   2.524   3.299   3.153
    1C        C  707   2.595   3.101   3.276
    1C        C  708   2.543   3.233   3.276
    1C        C  709   2.629   3.039   3.399
    1C        C  710   2.597   3.103   3.521
    1C        C  711   2.711   2.932   3.647
    1C        C  712   2.626   3.045   3.646
    1C        C  713   2.760   2.879   3.769
    1C        C  714   2.717   2.935   3.891
    1C        C  715   2.754   2.874   4.013
    1C        C  716   2.450   3.496   2.059
    1C        C  717   2.487   3.631   2.060
    1C        C  718   2.466   3.419   2.178
    1C        C  719   2.477   3.498   2.296
    1C        C  720   2.512   3.287   2.423
    1C        C  721   2.483   3.426   2.417
    1C        C  722   2.533   3.221   2.546
    1C        C  723   2.521   3.295   2.665
    1C        C  724   2.589   3.093   2.788
    1C        C  725   2.542   3.226   2.787
    1C        C  726   2.622   3.032   2.911
    1C        C  727   2.591   3.097   3.032
    1C        C  728   2.712   2.925   3.159
    1C        C  729   2.625   3.036   3.155
    1C        C  730   2.750   2.865   3.282
    1C        C  731   2.707   2.921   3.404
    1C        C  732   2.757   2.873   3.527
    1C        C  733   2.487   3.195   2.067
    1C        C  734   2.493   3.279   2.179
    1C        C  735   2.583   3.085   2.304
    1C        C  736   2.523   3.214   2.302
    1C        C  737   2.612   3.018   2.424
    1C        C  738   2.587   3.090   2.543
    1C        C  739   2.697   2.910   2.667
    1C        C  740   2.621   3.029   2.666
    1C        C  741   2.746   2.859   2.789
    1C        C  742   2.707   2.919   2.911
    1C        C  743   2.753   2.871   3.036
    1C        C  744   2.543   3.068   2.070
    1C        C  745   2.685   2.898   2.182
    1C        C  746   2.610   3.018   2.183
    1C        C  747   2.730   2.842   2.304
    1C        C  748   2.689   2.900   2.426
    1C        C  749   2.737   2.847   2.548
    1C        C  750   2.734   2.838   2.065
    1C        C  751   3.661   2.311   1.980
    1C        O  752   3.650   2.187   2.001
    1C        O  753   3.648   2.334   1.842
    1C        C  754   4.643   3.054   1.992
    1C        O  755   4.628   3.016   1.873
    1C        O  756   4.744   2.995   2.069
    1C        C  757   4.431   4.208   1.942
    1C        O  758   4.520   4.293   1.972
    1C        O  759   4.403   4.191   1.806
    1C        C  760   3.590   4.659   1.942
    1C        O  761   3.613   4.777   1.979
    1C        O  762   3.634   4.650   1.810
    1C        C  763   2.855   4.526   1.990
    1C        O  764   2.866   4.530   1.864
    1C        O  765   2.735   4.581   2.038
    1C        C  766   2.342   3.469   1.961
    1C        O  767   2.375   3.452   1.841
    1C        O  768   2.211   3.518   1.973
    1C        C  769   4.686   3.586   5.060
    1C        O  770   4.702   3.640   5.173
    1C        O  771   4.813   3.570   5.004
    1C        C  772   4.282   4.473   5.008
    1C        O  773   4.318   4.420   5.116
    1C        O  774   4.374   4.547   4.933
    1C        C  775   4.135   2.522   5.079
    1C        O  776   4.193   2.413   5.053
    1C        O  777   4.135   2.550   5.216
    1C        C  778   2.904   4.513   5.077
    1C        O  779   2.843   4.623   5.077
    1C        O  780   2.957   4.473   5.201
    1C        C  781   2.490   3.049   5.095
    1C        O  782   2.386   2.978   5.093
    1C        O  783   2.542   3.092   5.217
    1C        C  784   2.409   4.002   5.050
    1C        O  785   2.304   4.064   5.020
    1C        O  786   2.410   3.935   5.173
    1C        C  787   2.943   2.429   2.000
    1C        O  788   2.950   2.441   1.874
    1C        O  789   2.858   2.330   2.050
    1C        C  790   3.171   2.360   5.052
    1C        O  791   3.084   2.281   5.007
    1C        O  792   3.161   2.375   5.191
    1C        H  793   4.279   3.022   5.062
    1C        H  794   4.148   2.814   5.057
    1C        H  795   4.514   3.130   5.051
    1C        H  796   4.472   3.372   5.056
    1C        H  797   4.491   3.781   5.044
    1C        H  798   4.446   3.991   5.048
    1C        H  799   4.263   4.138   5.046
    1C        H  800   4.020   4.517   5.036
    1C        H  801   3.811   4.530   5.034
    1C        H  802   3.592   4.654   5.019
    1C        H  803   3.390   4.450   5.029
    1C        H  804   3.163   4.526   5.046
    1C        H  805   3.895   2.454   5.052
    1C        H  806   3.669   2.505   5.074
    1C        H  807   2.975   2.491   5.003
    1C        H  808   3.453   2.416   5.058
    1C        H  809   2.894   2.765   5.079
    1C        H  810   2.716   2.907   5.074
    1C        H  811   2.476   3.286   5.064
    1C        H  812   2.489   3.500   5.064
    1C        H  813   2.538   3.737   5.068
    1C        H  814   2.624   4.159   5.048
    1C        H  815   2.731   4.337   5.041
    1C        H  816   2.680   2.846   1.974
    1C        H  817   2.871   2.701   1.977
    1C        H  818   3.205   2.418   1.990
    1C        H  819   3.424   2.399   1.984
    1C        H  820   3.882   2.477   1.976
    1C        H  821   4.047   2.646   1.968
    1C        H  822   4.264   2.705   1.986
    1C        H  823   4.395   2.908   1.966
    1C        H  824   4.538   3.308   1.960
    1C        H  825   4.473   3.515   1.959
    1C        H  826   4.482   3.748   1.957
    1C        H  827   3.808   4.532   1.955
    1C        H  828   3.938   4.338   1.954
    1C        H  829   4.181   4.287   1.948
    1C        H  830   4.482   3.959   1.954
    1C        H  831   2.677   3.835   1.977
    1C        H  832   2.640   4.079   1.961
    1C        H  833   2.704   4.309   1.973
    1C        H  834   3.382   4.419   1.973
    1C        H  835   3.145   4.416   1.947
    1C        H  836   2.504   2.995   2.002
    1C        H  837   2.407   3.204   1.997
    1C        H  838   2.478   3.684   1.967
    2V3OU   H29  839   2.801   3.541   1.079
    2V3OU   C27  840   2.779   3.502   1.181
    2V3OU   H27  841   2.724   3.562   1.258
    2V3OU   H28  842   2.730   3.401   1.174
    2V3OU   O11  843   2.906   3.474   1.240
    2V3OU   C15  844   2.921   3.389   1.348
    2V3OU   C13  845   3.048   3.374   1.406
    2V3OU   C14  846   3.072   3.265   1.492
    2V3OU   C16  847   2.970   3.179   1.532
    2V3OU    H6  848   2.988   3.095   1.600
    2V3OU   C12  849   3.210   3.225   1.526
    2V3OU    O2  850   3.237   3.126   1.597
    2V3OU   C10  851   3.327   3.302   1.481
    2V3OU    C8  852   3.458   3.264   1.503
    2V3OU   O10  853   3.482   3.151   1.575
    2V3OU   H26  854   3.393   3.119   1.597
    2V3OU    C6  855   3.568   3.340   1.452
    2V3OU    C5  856   3.533   3.457   1.385
    2V3OU    C4  857   3.706   3.285   1.467
    2V3OU    H4  858   3.718   3.227   1.563
    2V3OU    H5  859   3.717   3.217   1.377
    2V3OU    C2  860   3.810   3.396   1.457
    2V3OU    O6  861   3.809   3.474   1.577
    2V3OU   H21  862   3.763   3.552   1.540
    2V3OU    C3  863   3.777   3.494   1.344
    2V3OU    H2  864   3.857   3.572   1.335
    2V3OU    H3  865   3.779   3.436   1.248
    2V3OU   C25  866   3.944   3.326   1.433
    2V3OU    O7  867   3.992   3.291   1.325
    2V3OU   C26  868   4.026   3.283   1.553
    2V3OU   H22  869   4.061   3.378   1.602
    2V3OU   H23  870   4.114   3.221   1.520
    2V3OU    O8  871   3.959   3.208   1.652
    2V3OU   H24  872   3.919   3.262   1.722
    2V3OU    C1  873   3.640   3.558   1.357
    2V3OU    H1  874   3.619   3.613   1.261
    2V3OU    O3  875   3.650   3.651   1.465
    2V3OU   C19  876   3.612   3.788   1.465
    2V3OU    H9  877   3.518   3.800   1.403
    2V3OU    O4  878   3.709   3.846   1.381
    2V3OU   C20  879   3.843   3.865   1.429
    2V3OU   H10  880   3.897   3.768   1.452
    2V3OU   C24  881   3.606   3.850   1.605
    2V3OU   H16  882   3.539   3.781   1.663
    2V3OU   H17  883   3.555   3.949   1.592
    2V3OU   C23  884   3.748   3.869   1.659
    2V3OU   H15  885   3.790   3.765   1.680
    2V3OU    N1  886   3.736   3.953   1.777
    2V3OU   H19  887   3.806   3.918   1.839
    2V3OU   H20  888   3.648   3.934   1.819
    2V3OU   C21  889   3.843   3.943   1.560
    2V3OU   H11  890   3.947   3.928   1.602
    2V3OU    O5  891   3.821   4.083   1.549
    2V3OU   H18  892   3.777   4.105   1.633
    2V3OU   C22  893   3.914   3.943   1.320
    2V3OU   H12  894   3.860   4.039   1.301
    2V3OU   H13  895   3.908   3.887   1.223
    2V3OU   H14  896   4.020   3.961   1.353
    2V3OU   C11  897   3.157   3.467   1.377
    2V3OU    O1  898   3.133   3.584   1.338
    2V3OU    C9  899   3.294   3.420   1.409
    2V3OU    C7  900   3.398   3.499   1.362
    2V3OU    O9  901   3.383   3.614   1.288
    2V3OU   H25  902   3.286   3.622   1.286
    2V3OU   C17  903   2.817   3.310   1.403
    2V3OU    H7  904   2.713   3.330   1.378
    2V3OU   C18  905   2.840   3.204   1.490
    2V3OU    H8  906   2.758   3.139   1.524
    3SOL     OW  907   0.749   3.310   0.791
    3SOL    HW1  908   0.684   3.261   0.848
    3SOL    HW2  909   0.711   3.323   0.700
    4SOL     OW  910   5.853   0.578   1.720
    4SOL    HW1  911   5.858   0.569   1.820
    4SOL    HW2  912   5.816   0.667   1.696
    5SOL     OW  913   3.532   3.276   0.859
    5SOL    HW1  914   3.626   3.283   0.893
    5SOL    HW2  915   3.497   3.368   0.841
    6SOL     OW  916   2.800   2.037   1.450
    6SOL    HW1  917   2.705   2.008   1.447
    6SOL    HW2  918   2.848   2.003   1.369
    7SOL     OW  919   6.196   0.813   1.570
    7SOL    HW1  920   6.172   0.741   1.504
    7SOL    HW2  921   6.131   0.812   1.646
    8SOL     OW  922   2.784   1.690   4.062
    8SOL    HW1  923   2.814   1.758   4.129
    8SOL    HW2  924   2.687   1.703   4.042
    9SOL     OW  925   0.905   3.744   5.712
    9SOL    HW1  926   0.989   3.696   5.685
    9SOL    HW2  927   0.908   3.838   5.679
   10SOL     OW  928   0.341   4.203   0.216
   10SOL    HW1  929   0.321   4.209   0.118
   10SOL    HW2  930   0.438   4.185   0.229
   11SOL     OW  931   3.956   6.574   6.737
   11SOL    HW1  932   3.982   6.513   6.662
   11SOL    HW2  933   4.038   6.606   6.784
   12SOL     OW  934   5.661   6.139   2.376
   12SOL    HW1  935   5.632   6.141   2.280
   12SOL    HW2  936   5.716   6.057   2.393
   13SOL     OW  937   2.169   0.124   3.210
   13SOL    HW1  938   2.154   0.200   3.273
   13SOL    HW2  939   2.179   0.039   3.261
   14SOL     OW  940   2.906   6.633   1.848
   14SOL    HW1  941   2.823   6.582   1.824
   14SOL    HW2  942   2.973   6.571   1.889
   15SOL     OW  943   1.610   6.591   6.086
   15SOL    HW1  944   1.626   6.510   6.142
   15SOL    HW2  945   1.606   6.672   6.144
   16SOL     OW  946   6.180   1.540   6.227
   16SOL    HW1  947   6.196   1.607   6.154
   16SOL    HW2  948   6.259   1.538   6.288
   17SOL     OW  949   5.107   5.994   3.719
   17SOL    HW1  950   5.075   6.001   3.814
   17SOL    HW2  951   5.032   6.019   3.658
   18SOL     OW  952   1.865   1.376   6.730
   18SOL    HW1  953   1.828   1.456   6.777
   18SOL    HW2  954   1.960   1.395   6.703
   19SOL     OW  955   0.491   7.009   1.521
   19SOL    HW1  956   0.412   0.045   1.554
   19SOL    HW2  957   0.533   0.040   1.444
   20SOL     OW  958   3.100   1.254   4.386
   20SOL    HW1  959   3.014   1.288   4.347
   20SOL    HW2  960   3.167   1.245   4.312
   21SOL     OW  961   3.152   2.520   1.004
   21SOL    HW1  962   3.060   2.500   1.036
   21SOL    HW2  963   3.154   2.612   0.963
   22SOL     OW  964   1.105   0.674   5.421
   22SOL    HW1  965   1.090   0.766   5.457
   22SOL    HW2  966   1.049   0.660   5.339
   23SOL     OW  967   4.110   6.246   4.364
   23SOL    HW1  968   4.033   6.210   4.312
   23SOL    HW2  969   4.135   6.336   4.328
   24SOL     OW  970   4.090   1.543   4.358
   24SOL    HW1  971   4.164   1.501   4.412
   24SOL    HW2  972   4.107   1.641   4.350
   25SOL     OW  973   2.946   4.918   1.080
   25SOL    HW1  974   2.995   4.983   1.137
   25SOL    HW2  975   2.973   4.825   1.105
   26SOL     OW  976   6.160   1.515   2.663
   26SOL    HW1  977   6.202   1.496   2.574
   26SOL    HW2  978   6.060   1.515   2.653
   27SOL     OW  979   6.234   6.006   2.046
   27SOL    HW1  980   6.298   5.964   2.110
   27SOL    HW2  981   6.253   5.972   1.954
   28SOL     OW  982   3.278   0.755   0.427
   28SOL    HW1  983   3.202   0.709   0.380
   28SOL    HW2  984   3.359   0.754   0.369
   29SOL     OW  985   4.361   2.354   1.776
   29SOL    HW1  986   4.392   2.427   1.837
   29SOL    HW2  987   4.406   2.364   1.687
   30SOL     OW  988   3.723   0.986   4.695
   30SOL    HW1  989   3.721   1.073   4.646
   30SOL    HW2  990   3.817   0.964   4.720
   31SOL     OW  991   0.538   0.807   5.249
   31SOL    HW1  992   0.637   0.815   5.262
   31SOL    HW2  993   0.519   0.740   5.177
   32SOL     OW  994   0.098   2.192   1.721
   32SOL    HW1  995   0.117   2.281   1.680
   32SOL    HW2  996   0.116   2.120   1.654
   33SOL     OW  997   1.214   1.824   5.171
   33SOL    HW1  998   1.276   1.850   5.097
   33SOL    HW2  999   1.191   1.727   5.162
   34SOL     OW 1000   1.118   0.511   4.705
   34SOL    HW1 1001   1.072   0.424   4.688
   34SOL    HW2 1002   1.082   0.580   4.643
   35SOL     OW 1003   4.254   1.615   6.431
   35SOL    HW1 1004   4.265   1.689   6.498
   35SOL    HW2 1005   4.324   1.546   6.447
   36SOL     OW 1006   1.705   1.282   5.699
   36SOL    HW1 1007   1.637   1.351   5.725
   36SOL    HW2 1008   1.736   1.300   5.606
   37SOL     OW 1009   2.334   6.635   1.204
   37SOL    HW1 1010   2.389   6.620   1.121
   37SOL    HW2 1011   2.314   6.547   1.247
   38SOL     OW 1012   0.231   6.037   2.660
   38SOL    HW1 1013   0.329   6.052   2.674
   38SOL    HW2 1014   0.208   5.942   2.682
   39SOL     OW 1015   6.784   3.233   5.997
   39SOL    HW1 1016   6.858   3.272   5.943
   39SOL    HW2 1017   6.696   3.253   5.953
   40SOL     OW 1018   6.696   0.765   1.673
   40SOL    HW1 1019   6.603   0.750   1.707
   40SOL    HW2 1020   6.691   0.814   1.586
   41SOL     OW 1021   1.449   0.157   5.341
   41SOL    HW1 1022   1.467   0.062   5.366
   41SOL    HW2 1023   1.353   0.178   5.354
   42SOL     OW 1024   3.642   0.892   0.495
   42SOL    HW1 1025   3.714   0.860   0.557
   42SOL    HW2 1026   3.637   0.991   0.498
   43SOL     OW 1027   5.295   5.405   5.441
   43SOL    HW1 1028   5.341   5.330   5.395
   43SOL    HW2 1029   5.314   5.491   5.394
   44SOL     OW 1030   0.737   3.515   6.512
   44SOL    HW1 1031   0.651   3.467   6.498
   44SOL    HW2 1032   0.798   3.498   6.434
   45SOL     OW 1033   3.318   0.427   1.901
   45SOL    HW1 1034   3.365   0.379   1.975
   45SOL    HW2 1035   3.220   0.431   1.920
   46SOL     OW 1036   1.315   4.555   3.815
   46SOL    HW1 1037   1.310   4.586   3.720
   46SOL    HW2 1038   1.382   4.609   3.865
   47SOL     OW 1039   6.438   4.435   3.240
   47SOL    HW1 1040   6.377   4.359   3.217
   47SOL    HW2 1041   6.409   4.517   3.191
   48SOL     OW 1042   0.737   2.061   5.389
   48SOL    HW1 1043   0.790   1.980   5.364
   48SOL    HW2 1044   0.780   2.142   5.350
   49SOL     OW 1045   5.207   2.292   0.680
   49SOL    HW1 1046   5.117   2.332   0.696
   49SOL    HW2 1047   5.254   2.343   0.607
   50SOL     OW 1048   6.519   3.907   4.554
   50SOL    HW1 1049   6.560   3.990   4.592
   50SOL    HW2 1050   6.591   3.840   4.536
   51SOL     OW 1051   3.133   5.611   2.764
   51SOL    HW1 1052   3.166   5.701   2.737
   51SOL    HW2 1053   3.033   5.613   2.772
   52SOL     OW 1054   1.200   2.489   1.530
   52SOL    HW1 1055   1.279   2.481   1.469
   52SOL    HW2 1056   1.207   2.420   1.602
   53SOL     OW 1057   5.161   6.840   3.768
   53SOL    HW1 1058   5.153   6.754   3.818
   53SOL    HW2 1059   5.218   6.827   3.687
   54SOL     OW 1060   4.228   5.547   6.080
   54SOL    HW1 1061   4.307   5.581   6.131
   54SOL    HW2 1062   4.232   5.580   5.986
   55SOL     OW 1063   3.792   2.275   0.332
   55SOL    HW1 1064   3.796   2.185   0.375
   55SOL    HW2 1065   3.740   2.338   0.391
   56SOL     OW 1066   0.612   6.994   1.779
   56SOL    HW1 1067   0.710   7.011   1.769
   56SOL    HW2 1068   0.570   6.983   1.689
   57SOL     OW 1069   5.690   0.504   0.660
   57SOL    HW1 1070   5.657   0.532   0.750
   57SOL    HW2 1071   5.775   0.453   0.670
   58SOL     OW 1072   6.902   6.558   6.949
   58SOL    HW1 1073   6.871   6.652   6.962
   58SOL    HW2 1074   6.998   6.559   6.919
   59SOL     OW 1075   1.352   0.014   4.807
   59SOL    HW1 1076   1.317   0.024   4.900
   59SOL    HW2 1077   1.446   6.997   4.810
   60SOL     OW 1078   4.799   6.649   4.938
   60SOL    HW1 1079   4.802   6.664   5.037
   60SOL    HW2 1080   4.884   6.679   4.897
   61SOL     OW 1081   4.046   0.061   4.836
   61SOL    HW1 1082   3.946   0.067   4.846
   61SOL    HW2 1083   4.068   7.012   4.765
   62SOL     OW 1084   2.714   1.480   4.699
   62SOL    HW1 1085   2.662   1.564   4.717
   62SOL    HW2 1086   2.783   1.499   4.629
   63SOL     OW 1087   6.492   3.550   3.344
   63SOL    HW1 1088   6.581   3.574   3.383
   63SOL    HW2 1089   6.503   3.473   3.281
   64SOL     OW 1090   6.865   2.745   5.895
   64SOL    HW1 1091   6.895   2.689   5.818
   64SOL    HW2 1092   6.776   2.711   5.928
   65SOL     OW 1093   0.071   4.660   6.196
   65SOL    HW1 1094   0.086   4.566   6.168
   65SOL    HW2 1095   0.040   4.663   6.291
   66SOL     OW 1096   2.760   1.142   0.596
   66SOL    HW1 1097   2.823   1.095   0.658
   66SOL    HW2 1098   2.809   1.170   0.514
   67SOL     OW 1099   5.303   5.866   4.224
   67SOL    HW1 1100   5.400   5.847   4.213
   67SOL    HW2 1101   5.290   5.962   4.248
   68SOL     OW 1102   5.432   2.598   6.138
   68SOL    HW1 1103   5.474   2.545   6.211
   68SOL    HW2 1104   5.503   2.639   6.081
   69SOL     OW 1105   2.477   3.391   6.044
   69SOL    HW1 1106   2.551   3.356   6.101
   69SOL    HW2 1107   2.433   3.315   5.997
   70SOL     OW 1108   0.021   5.118   1.901
   70SOL    HW1 1109   0.104   5.147   1.853
   70SOL    HW2 1110   6.969   5.093   1.834
   71SOL     OW 1111   1.615   2.545   3.039
   71SOL    HW1 1112   1.551   2.603   2.988
   71SOL    HW2 1113   1.600   2.556   3.137
   72SOL     OW 1114   3.091   5.695   4.240
   72SOL    HW1 1115   3.067   5.602   4.270
   72SOL    HW2 1116   3.038   5.718   4.158
   73SOL     OW 1117   4.483   2.674   6.831
   73SOL    HW1 1118   4.387   2.650   6.822
   73SOL    HW2 1119   4.539   2.591   6.829
   74SOL     OW 1120   5.067   5.753   5.833
   74SOL    HW1 1121   5.009   5.677   5.807
   74SOL    HW2 1122   5.071   5.761   5.933
   75SOL     OW 1123   4.020   4.956   5.705
   75SOL    HW1 1124   3.984   4.898   5.632
   75SOL    HW2 1125   4.000   4.913   5.793
   76SOL     OW 1126   2.378   3.010   1.455
   76SOL    HW1 1127   2.281   2.991   1.448
   76SOL    HW2 1128   2.394   3.107   1.438
   77SOL     OW 1129   5.677   4.922   6.548
   77SOL    HW1 1130   5.603   4.873   6.595
   77SOL    HW2 1131   5.764   4.875   6.564
   78SOL     OW 1132   6.191   6.636   6.155
   78SOL    HW1 1133   6.145   6.722   6.133
   78SOL    HW2 1134   6.126   6.573   6.197
   79SOL     OW 1135   3.277   0.324   6.909
   79SOL    HW1 1136   3.352   0.341   6.973
   79SOL    HW2 1137   3.253   0.227   6.911
   80SOL     OW 1138   0.384   1.579   4.406
   80SOL    HW1 1139   0.308   1.539   4.356
   80SOL    HW2 1140   0.417   1.514   4.475
   81SOL     OW 1141   1.247   0.339   3.784
   81SOL    HW1 1142   1.226   0.283   3.703
   81SOL    HW2 1143   1.163   0.375   3.822
   82SOL     OW 1144   0.150   4.485   5.327
   82SOL    HW1 1145   0.231   4.474   5.385
   82SOL    HW2 1146   0.101   4.568   5.355
   83SOL     OW 1147   0.003   6.965   0.001
   83SOL    HW1 1148   0.086   6.916   6.989
   83SOL    HW2 1149   6.940   6.914   6.988
   84SOL     OW 1150   5.974   3.798   1.692
   84SOL    HW1 1151   5.874   3.797   1.694
   84SOL    HW2 1152   6.008   3.711   1.656
   85SOL     OW 1153   0.197   2.743   5.894
   85SOL    HW1 1154   0.154   2.667   5.941
   85SOL    HW2 1155   0.179   2.736   5.796
   86SOL     OW 1156   1.133   1.004   5.377
   86SOL    HW1 1157   1.034   1.022   5.382
   86SOL    HW2 1158   1.176   1.036   5.461
   87SOL     OW 1159   4.264   0.739   1.815
   87SOL    HW1 1160   4.216   0.658   1.846
   87SOL    HW2 1161   4.218   0.777   1.734
   88SOL     OW 1162   5.034   0.415   0.654
   88SOL    HW1 1163   4.953   0.474   0.646
   88SOL    HW2 1164   5.034   0.371   0.744
   89SOL     OW 1165   2.038   2.163   5.785
   89SOL    HW1 1166   1.940   2.181   5.773
   89SOL    HW2 1167   2.084   2.248   5.809
   90SOL     OW 1168   6.425   6.221   3.434
   90SOL    HW1 1169   6.507   6.277   3.423
   90SOL    HW2 1170   6.441   6.150   3.503
   91SOL     OW 1171   4.849   4.798   4.713
   91SOL    HW1 1172   4.784   4.806   4.637
   91SOL    HW2 1173   4.839   4.709   4.756
   92SOL     OW 1174   3.133   6.219   0.858
   92SOL    HW1 1175   3.101   6.306   0.896
   92SOL    HW2 1176   3.209   6.185   0.913
   93SOL     OW 1177   3.588   5.616   5.928
   93SOL    HW1 1178   3.644   5.549   5.878
   93SOL    HW2 1179   3.494   5.612   5.896
   94SOL     OW 1180   2.231   6.068   0.647
   94SOL    HW1 1181   2.299   6.013   0.695
   94SOL    HW2 1182   2.257   6.077   0.550
   95SOL     OW 1183   6.555   0.390   4.792
   95SOL    HW1 1184   6.482   0.397   4.860
   95SOL    HW2 1185   6.525   0.434   4.707
   96SOL     OW 1186   1.546   0.239   5.095
   96SOL    HW1 1187   1.485   0.312   5.064
   96SOL    HW2 1188   1.514   0.202   5.182
   97SOL     OW 1189   5.908   3.391   5.491
   97SOL    HW1 1190   5.895   3.485   5.459
   97SOL    HW2 1191   5.959   3.392   5.577
   98SOL     OW 1192   5.725   2.615   6.216
   98SOL    HW1 1193   5.811   2.599   6.169
   98SOL    HW2 1194   5.706   2.713   6.219
   99SOL     OW 1195   4.391   2.247   1.040
   99SOL    HW1 1196   4.294   2.251   1.064
   99SOL    HW2 1197   4.444   2.223   1.120
  100SOL     OW 1198   6.416   5.199   6.210
  100SOL    HW1 1199   6.416   5.246   6.122
  100SOL    HW2 1200   6.458   5.258   6.279
  101SOL     OW 1201   0.742   6.489   3.591
  101SOL    HW1 1202   0.821   6.549   3.594
  101SOL    HW2 1203   0.771   6.394   3.601
  102SOL     OW 1204   4.905   0.139   3.584
  102SOL    HW1 1205   4.896   0.233   3.616
  102SOL    HW2 1206   4.848   0.127   3.502
  103SOL     OW 1207   3.656   1.841   1.502
  103SOL    HW1 1208   3.664   1.941   1.499
  103SOL    HW2 1209   3.742   1.802   1.536
  104SOL     OW 1210   6.982   5.673   1.860
  104SOL    HW1 1211   6.934   5.735   1.921
  104SOL    HW2 1212   0.056   5.654   1.896
  105SOL     OW 1213   5.056   1.318   5.198
  105SOL    HW1 1214   5.025   1.392   5.258
  105SOL    HW2 1215   5.091   1.242   5.254
  106SOL     OW 1216   3.179   6.175   6.998
  106SOL    HW1 1217   3.224   6.092   0.014
  106SOL    HW2 1218   3.099   6.195   0.037
  107SOL     OW 1219   2.369   3.560   1.377
  107SOL    HW1 1220   2.301   3.568   1.450
  107SOL    HW2 1221   2.430   3.639   1.380
  108SOL     OW 1222   5.144   4.368   5.719
  108SOL    HW1 1223   5.062   4.350   5.774
  108SOL    HW2 1224   5.196   4.283   5.709
  109SOL     OW 1225   6.423   1.130   1.161
  109SOL    HW1 1226   6.363   1.205   1.133
  109SOL    HW2 1227   6.420   1.119   1.260
  110SOL     OW 1228   3.992   5.509   5.336
  110SOL    HW1 1229   3.945   5.573   5.397
  110SOL    HW2 1230   4.088   5.535   5.329
  111SOL     OW 1231   3.831   1.028   3.016
  111SOL    HW1 1232   3.775   0.968   2.960
  111SOL    HW2 1233   3.843   0.988   3.107
  112SOL     OW 1234   0.556   0.556   6.174
  112SOL    HW1 1235   0.614   0.489   6.128
  112SOL    HW2 1236   0.556   0.641   6.121
  113SOL     OW 1237   0.274   5.296   3.998
  113SOL    HW1 1238   0.311   5.376   3.951
  113SOL    HW2 1239   0.208   5.250   3.940
  114SOL     OW 1240   0.584   6.819   6.970
  114SOL    HW1 1241   0.635   6.818   0.039
  114SOL    HW2 1242   0.635   6.872   6.902
  115SOL     OW 1243   5.097   1.258   4.922
  115SOL    HW1 1244   5.104   1.286   5.017
  115SOL    HW2 1245   5.187   1.264   4.878
  116SOL     OW 1246   6.411   4.324   2.344
  116SOL    HW1 1247   6.412   4.406   2.402
  116SOL    HW2 1248   6.341   4.335   2.273
  117SOL     OW 1249   1.234   0.080   6.501
  117SOL    HW1 1250   1.257   0.004   6.562
  117SOL    HW2 1251   1.230   0.165   6.553
  118SOL     OW 1252   1.285   0.703   2.273
  118SOL    HW1 1253   1.207   0.648   2.244
  118SOL    HW2 1254   1.332   0.657   2.349
  119SOL     OW 1255   6.813   3.052   6.375
  119SOL    HW1 1256   6.717   3.023   6.371
  119SOL    HW2 1257   6.857   3.012   6.456
  120SOL     OW 1258   5.853   6.390   1.293
  120SOL    HW1 1259   5.944   6.391   1.252
  120SOL    HW2 1260   5.809   6.479   1.278
  121SOL     OW 1261   2.648   3.391   5.696
  121SOL    HW1 1262   2.742   3.406   5.665
  121SOL    HW2 1263   2.634   3.438   5.783
  122SOL     OW 1264   0.474   3.150   4.609
  122SOL    HW1 1265   0.454   3.098   4.692
  122SOL    HW2 1266   0.443   3.244   4.621
  123SOL     OW 1267   1.126   1.986   1.676
  123SOL    HW1 1268   1.066   1.950   1.748
  123SOL    HW2 1269   1.124   1.925   1.597
  124SOL     OW 1270   5.133   2.756   1.181
  124SOL    HW1 1271   5.174   2.666   1.199
  124SOL    HW2 1272   5.171   2.823   1.244
  125SOL     OW 1273   2.092   3.374   1.768
  125SOL    HW1 1274   2.155   3.417   1.833
  125SOL    HW2 1275   2.136   3.293   1.727
  126SOL     OW 1276   3.230   4.798   1.841
  126SOL    HW1 1277   3.144   4.838   1.875
  126SOL    HW2 1278   3.260   4.848   1.760
  127SOL     OW 1279   0.603   6.010   5.930
  127SOL    HW1 1280   0.639   6.078   5.866
  127SOL    HW2 1281   0.503   6.009   5.925
  128SOL     OW 1282   4.697   2.508   1.693
  128SOL    HW1 1283   4.792   2.528   1.717
  128SOL    HW2 1284   4.638   2.524   1.773
  129SOL     OW 1285   2.677   3.825   6.631
  129SOL    HW1 1286   2.644   3.741   6.675
  129SOL    HW2 1287   2.756   3.860   6.682
  130SOL     OW 1288   1.428   2.018   4.744
  130SOL    HW1 1289   1.355   2.020   4.676
  130SOL    HW2 1290   1.444   2.111   4.777
  131SOL     OW 1291   5.152   1.531   2.541
  131SOL    HW1 1292   5.174   1.478   2.459
  131SOL    HW2 1293   5.236   1.546   2.594
  132SOL     OW 1294   0.471   2.434   0.684
  132SOL    HW1 1295   0.376   2.438   0.655
  132SOL    HW2 1296   0.484   2.495   0.762
  133SOL     OW 1297   6.569   4.992   2.248
  133SOL    HW1 1298   6.525   5.040   2.173
  133SOL    HW2 1299   6.668   4.993   2.235
  134SOL     OW 1300   0.320   3.476   2.915
  134SOL    HW1 1301   0.298   3.448   2.822
  134SOL    HW2 1302   0.281   3.411   2.980
  135SOL     OW 1303   4.920   1.595   4.281
  135SOL    HW1 1304   4.912   1.651   4.199
  135SOL    HW2 1305   4.887   1.502   4.262
  136SOL     OW 1306   5.683   4.732   5.426
  136SOL    HW1 1307   5.653   4.772   5.340
  136SOL    HW2 1308   5.674   4.632   5.421
  137SOL     OW 1309   3.959   0.272   5.733
  137SOL    HW1 1310   3.887   0.276   5.802
  137SOL    HW2 1311   3.967   0.361   5.688
  138SOL     OW 1312   6.707   5.057   4.960
  138SOL    HW1 1313   6.754   4.980   4.918
  138SOL    HW2 1314   6.737   5.066   5.055
  139SOL     OW 1315   3.793   5.318   5.250
  139SOL    HW1 1316   3.817   5.285   5.159
  139SOL    HW2 1317   3.871   5.366   5.290
  140SOL     OW 1318   6.067   4.083   4.841
  140SOL    HW1 1319   6.065   4.023   4.921
  140SOL    HW2 1320   6.012   4.165   4.859
  141SOL     OW 1321   1.249   1.840   3.611
  141SOL    HW1 1322   1.197   1.903   3.554
  141SOL    HW2 1323   1.244   1.747   3.574
  142SOL     OW 1324   1.475   5.534   1.619
  142SOL    HW1 1325   1.418   5.616   1.606
  142SOL    HW2 1326   1.509   5.502   1.530
  143SOL     OW 1327   5.638   4.032   1.815
  143SOL    HW1 1328   5.553   4.075   1.846
  143SOL    HW2 1329   5.649   3.944   1.862
  144SOL     OW 1330   2.820   6.882   0.472
  144SOL    HW1 1331   2.862   6.953   0.417
  144SOL    HW2 1332   2.725   6.868   0.443
  145SOL     OW 1333   6.846   5.797   0.762
  145SOL    HW1 1334   6.848   5.875   0.700
  145SOL    HW2 1335   6.831   5.829   0.855
  146SOL     OW 1336   5.934   4.861   0.668
  146SOL    HW1 1337   5.940   4.943   0.725
  146SOL    HW2 1338   5.978   4.784   0.714
  147SOL     OW 1339   6.300   2.080   0.903
  147SOL    HW1 1340   6.333   2.067   0.996
  147SOL    HW2 1341   6.245   2.163   0.897
  148SOL     OW 1342   1.319   5.329   5.699
  148SOL    HW1 1343   1.410   5.367   5.685
  148SOL    HW2 1344   1.327   5.236   5.734
  149SOL     OW 1345   3.234   1.030   5.762
  149SOL    HW1 1346   3.290   1.111   5.774
  149SOL    HW2 1347   3.138   1.053   5.778
  150SOL     OW 1348   0.138   5.476   6.481
  150SOL    HW1 1349   0.045   5.463   6.516
  150SOL    HW2 1350   0.176   5.561   6.518
  151SOL     OW 1351   4.188   1.519   1.765
  151SOL    HW1 1352   4.273   1.485   1.807
  151SOL    HW2 1353   4.209   1.601   1.711
  152SOL     OW 1354   3.494   1.143   4.345
  152SOL    HW1 1355   3.485   1.229   4.294
  152SOL    HW2 1356   3.443   1.071   4.297
  153SOL     OW 1357   1.997   0.871   3.241
  153SOL    HW1 1358   2.093   0.865   3.216
  153SOL    HW2 1359   1.983   0.944   3.308
  154SOL     OW 1360   6.923   2.085   2.581
  154SOL    HW1 1361   6.905   2.001   2.530
  154SOL    HW2 1362   6.899   2.070   2.677
  155SOL     OW 1363   0.456   0.820   3.378
  155SOL    HW1 1364   0.451   0.874   3.294
  155SOL    HW2 1365   0.414   0.730   3.363
  156SOL     OW 1366   6.628   2.165   1.042
  156SOL    HW1 1367   6.540   2.210   1.026
  156SOL    HW2 1368   6.650   2.108   0.963
  157SOL     OW 1369   5.581   3.681   2.577
  157SOL    HW1 1370   5.545   3.763   2.532
  157SOL    HW2 1371   5.541   3.600   2.535
  158SOL     OW 1372   1.659   1.338   3.364
  158SOL    HW1 1373   1.713   1.285   3.298
  158SOL    HW2 1374   1.627   1.422   3.321
  159SOL     OW 1375   5.106   3.884   1.920
  159SOL    HW1 1376   5.092   3.810   1.854
  159SOL    HW2 1377   5.018   3.925   1.944
  160SOL     OW 1378   6.700   4.280   5.872
  160SOL    HW1 1379   6.714   4.302   5.775
  160SOL    HW2 1380   6.654   4.356   5.917
  161SOL     OW 1381   2.955   4.846   4.903
  161SOL    HW1 1382   2.905   4.766   4.939
  161SOL    HW2 1383   2.966   4.913   4.976
  162SOL     OW 1384   4.180   5.960   1.616
  162SOL    HW1 1385   4.187   5.970   1.716
  162SOL    HW2 1386   4.140   6.043   1.577
  163SOL     OW 1387   4.937   0.772   2.225
  163SOL    HW1 1388   4.941   0.840   2.298
  163SOL    HW2 1389   4.882   0.808   2.149
  164SOL     OW 1390   5.801   3.166   1.486
  164SOL    HW1 1391   5.719   3.118   1.516
  164SOL    HW2 1392   5.777   3.232   1.415
  165SOL     OW 1393   5.229   4.192   6.818
  165SOL    HW1 1394   5.173   4.139   6.754
  165SOL    HW2 1395   5.170   4.232   6.889
  166SOL     OW 1396   1.240   0.761   1.712
  166SOL    HW1 1397   1.239   0.806   1.623
  166SOL    HW2 1398   1.235   0.662   1.700
  167SOL     OW 1399   6.611   3.082   0.499
  167SOL    HW1 1400   6.555   3.071   0.417
  167SOL    HW2 1401   6.560   3.130   0.569
  168SOL     OW 1402   2.012   5.580   0.955
  168SOL    HW1 1403   2.078   5.587   0.880
  168SOL    HW2 1404   2.018   5.661   1.013
  169SOL     OW 1405   1.351   6.913   1.521
  169SOL    HW1 1406   1.268   6.857   1.523
  169SOL    HW2 1407   1.417   6.879   1.588
  170SOL     OW 1408   0.304   1.704   3.500
  170SOL    HW1 1409   0.314   1.607   3.522
  170SOL    HW2 1410   0.257   1.714   3.412
  171SOL     OW 1411   3.452   3.472   6.860
  171SOL    HW1 1412   3.418   3.520   6.779
  171SOL    HW2 1413   3.491   3.384   6.832
  172SOL     OW 1414   0.266   2.821   6.824
  172SOL    HW1 1415   0.217   2.739   6.854
  172SOL    HW2 1416   0.316   2.801   6.740
  173SOL     OW 1417   0.378   6.208   5.634
  173SOL    HW1 1418   0.309   6.155   5.685
  173SOL    HW2 1419   0.419   6.149   5.564
  174SOL     OW 1420   2.837   5.388   3.479
  174SOL    HW1 1421   2.895   5.415   3.556
  174SOL    HW2 1422   2.867   5.299   3.444
  175SOL     OW 1423   1.026   5.661   2.920
  175SOL    HW1 1424   0.936   5.618   2.923
  175SOL    HW2 1425   1.075   5.644   3.005
  176SOL     OW 1426   2.576   5.249   1.130
  176SOL    HW1 1427   2.625   5.172   1.088
  176SOL    HW2 1428   2.513   5.288   1.063
  177SOL     OW 1429   4.917   1.806   2.294
  177SOL    HW1 1430   4.951   1.878   2.354
  177SOL    HW2 1431   4.907   1.721   2.347
  178SOL     OW 1432   5.925   4.829   6.402
  178SOL    HW1 1433   5.905   4.855   6.496
  178SOL    HW2 1434   5.990   4.753   6.402
  179SOL     OW 1435   2.806   0.183   0.793
  179SOL    HW1 1436   2.724   0.239   0.791
  179SOL    HW2 1437   2.789   0.097   0.745
  180SOL     OW 1438   1.018   2.053   6.980
  180SOL    HW1 1439   1.009   2.050   6.880
  180SOL    HW2 1440   0.948   2.112   0.001
  181SOL     OW 1441   3.469   2.763   5.238
  181SOL    HW1 1442   3.552   2.745   5.185
  181SOL    HW2 1443   3.472   2.857   5.272
  182SOL     OW 1444   4.511   2.555   4.728
  182SOL    HW1 1445   4.572   2.484   4.692
  182SOL    HW2 1446   4.417   2.522   4.725
  183SOL     OW 1447   5.303   1.344   2.001
  183SOL    HW1 1448   5.220   1.328   1.948
  183SOL    HW2 1449   5.381   1.302   1.954
  184SOL     OW 1450   0.465   4.771   3.023
  184SOL    HW1 1451   0.380   4.805   2.983
  184SOL    HW2 1452   0.480   4.677   2.995
  185SOL     OW 1453   2.267   4.083   6.446
  185SOL    HW1 1454   2.270   4.063   6.349
  185SOL    HW2 1455   2.233   4.176   6.460
  186SOL     OW 1456   5.869   6.783   3.024
  186SOL    HW1 1457   5.790   6.843   3.029
  186SOL    HW2 1458   5.920   6.788   3.110
  187SOL     OW 1459   5.488   1.094   3.843
  187SOL    HW1 1460   5.580   1.055   3.843
  187SOL    HW2 1461   5.491   1.188   3.877
  188SOL     OW 1462   6.343   2.391   3.751
  188SOL    HW1 1463   6.272   2.327   3.782
  188SOL    HW2 1464   6.430   2.366   3.793
  189SOL     OW 1465   2.257   4.280   3.018
  189SOL    HW1 1466   2.165   4.245   2.996
  189SOL    HW2 1467   2.294   4.327   2.939
  190SOL     OW 1468   3.361   1.210   6.020
  190SOL    HW1 1469   3.380   1.285   5.956
  190SOL    HW2 1470   3.308   1.244   6.097
  191SOL     OW 1471   4.625   5.923   6.345
  191SOL    HW1 1472   4.626   5.987   6.268
  191SOL    HW2 1473   4.719   5.909   6.377
  192SOL     OW 1474   6.766   0.387   1.387
  192SOL    HW1 1475   6.834   0.446   1.343
  192SOL    HW2 1476   6.787   0.380   1.485
  193SOL     OW 1477   5.775   4.459   6.684
  193SOL    HW1 1478   5.820   4.468   6.595
  193SOL    HW2 1479   5.845   4.452   6.756
  194SOL     OW 1480   3.805   0.482   4.064
  194SOL    HW1 1481   3.814   0.459   4.161
  194SOL    HW2 1482   3.849   0.569   4.046
  195SOL     OW 1483   0.211   5.586   3.623
  195SOL    HW1 1484   0.237   5.676   3.590
  195SOL    HW2 1485   0.151   5.541   3.556
  196SOL     OW 1486   0.794   1.475   0.810
  196SOL    HW1 1487   0.743   1.523   0.881
  196SOL    HW2 1488   0.882   1.444   0.846
  197SOL     OW 1489   1.853   1.051   0.952
  197SOL    HW1 1490   1.813   0.996   0.878
  197SOL    HW2 1491   1.831   1.008   1.040
  198SOL     OW 1492   2.992   1.646   3.880
  198SOL    HW1 1493   2.929   1.670   3.954
  198SOL    HW2 1494   3.086   1.650   3.914
  199SOL     OW 1495   0.931   2.325   4.180
  199SOL    HW1 1496   0.953   2.299   4.087
  199SOL    HW2 1497   0.854   2.270   4.213
  200SOL     OW 1498   6.809   2.666   0.161
  200SOL    HW1 1499   6.848   2.678   0.253
  200SOL    HW2 1500   6.724   2.717   0.153
  201SOL     OW 1501   0.685   0.830   6.415
  201SOL    HW1 1502   0.706   0.804   6.509
  201SOL    HW2 1503   0.674   0.929   6.410
  202SOL     OW 1504   4.234   6.722   0.659
  202SOL    HW1 1505   4.135   6.713   0.664
  202SOL    HW2 1506   4.276   6.683   0.741
  203SOL     OW 1507   6.033   3.070   6.373
  203SOL    HW1 1508   5.991   3.007   6.439
  203SOL    HW2 1509   5.989   3.060   6.284
  204SOL     OW 1510   6.458   1.105   5.498
  204SOL    HW1 1511   6.495   1.029   5.445
  204SOL    HW2 1512   6.366   1.082   5.528
  205SOL     OW 1513   1.603   3.167   2.818
  205SOL    HW1 1514   1.680   3.228   2.832
  205SOL    HW2 1515   1.518   3.218   2.829
  206SOL     OW 1516   0.566   3.705   0.145
  206SOL    HW1 1517   0.661   3.733   0.163
  206SOL    HW2 1518   0.534   3.647   0.220
  207SOL     OW 1519   5.757   2.631   4.518
  207SOL    HW1 1520   5.727   2.545   4.478
  207SOL    HW2 1521   5.765   2.700   4.446
  208SOL     OW 1522   1.296   3.788   4.712
  208SOL    HW1 1523   1.382   3.745   4.739
  208SOL    HW2 1524   1.289   3.879   4.754
  209SOL     OW 1525   6.574   4.251   2.823
  209SOL    HW1 1526   6.632   4.227   2.744
  209SOL    HW2 1527   6.549   4.167   2.872
  210SOL     OW 1528   4.779   2.736   0.553
  210SOL    HW1 1529   4.680   2.732   0.566
  210SOL    HW2 1530   4.802   2.702   0.462
  211SOL     OW 1531   0.335   1.396   3.314
  211SOL    HW1 1532   0.295   1.393   3.405
  211SOL    HW2 1533   0.312   1.312   3.264
  212SOL     OW 1534   2.197   3.881   2.309
  212SOL    HW1 1535   2.187   3.795   2.260
  212SOL    HW2 1536   2.215   3.955   2.244
  213SOL     OW 1537   1.069   5.058   1.409
  213SOL    HW1 1538   1.043   5.006   1.490
  213SOL    HW2 1539   1.156   5.024   1.374
  214SOL     OW 1540   5.034   5.976   1.460
  214SOL    HW1 1541   5.098   6.014   1.393
  214SOL    HW2 1542   5.050   5.878   1.470
  215SOL     OW 1543   2.686   5.487   3.269
  215SOL    HW1 1544   2.732   5.471   3.357
  215SOL    HW2 1545   2.755   5.495   3.197
  216SOL     OW 1546   1.005   6.773   2.419
  216SOL    HW1 1547   1.088   6.795   2.367
  216SOL    HW2 1548   0.927   6.771   2.357
  217SOL     OW 1549   1.299   4.681   6.071
  217SOL    HW1 1550   1.306   4.692   5.972
  217SOL    HW2 1551   1.257   4.592   6.091
  218SOL     OW 1552   1.678   1.463   4.886
  218SOL    HW1 1553   1.712   1.522   4.958
  218SOL    HW2 1554   1.722   1.487   4.799
  219SOL     OW 1555   4.162   1.958   1.038
  219SOL    HW1 1556   4.123   1.937   1.128
  219SOL    HW2 1557   4.089   1.964   0.971
  220SOL     OW 1558   2.874   6.572   0.744
  220SOL    HW1 1559   2.834   6.560   0.835
  220SOL    HW2 1560   2.877   6.670   0.722
  221SOL     OW 1561   5.443   4.997   2.068
  221SOL    HW1 1562   5.395   4.975   1.983
  221SOL    HW2 1563   5.531   4.949   2.069
  222SOL     OW 1564   2.229   5.063   6.576
  222SOL    HW1 1565   2.245   4.989   6.511
  222SOL    HW2 1566   2.297   5.059   6.649
  223SOL     OW 1567   5.926   2.951   5.335
  223SOL    HW1 1568   5.902   3.009   5.257
  223SOL    HW2 1569   5.892   2.993   5.419
  224SOL     OW 1570   2.527   1.229   6.518
  224SOL    HW1 1571   2.621   1.259   6.505
  224SOL    HW2 1572   2.515   1.138   6.481
  225SOL     OW 1573   4.199   6.270   6.045
  225SOL    HW1 1574   4.289   6.315   6.037
  225SOL    HW2 1575   4.180   6.251   6.141
  226SOL     OW 1576   1.203   2.530   6.890
  226SOL    HW1 1577   1.274   2.460   6.894
  226SOL    HW2 1578   1.188   2.567   6.982
  227SOL     OW 1579   1.785   3.973   1.411
  227SOL    HW1 1580   1.768   3.946   1.316
  227SOL    HW2 1581   1.881   4.000   1.421
  228SOL     OW 1582   1.481   0.184   2.260
  228SOL    HW1 1583   1.409   0.240   2.301
  228SOL    HW2 1584   1.526   0.130   2.331
  229SOL     OW 1585   4.202   6.492   5.825
  229SOL    HW1 1586   4.296   6.494   5.792
  229SOL    HW2 1587   4.177   6.397   5.846
  230SOL     OW 1588   5.324   5.619   5.249
  230SOL    HW1 1589   5.288   5.712   5.255
  230SOL    HW2 1590   5.278   5.570   5.175
  231SOL     OW 1591   4.955   1.630   6.734
  231SOL    HW1 1592   4.997   1.626   6.644
  231SOL    HW2 1593   5.023   1.659   6.801
  232SOL     OW 1594   1.253   1.781   5.644
  232SOL    HW1 1595   1.218   1.872   5.623
  232SOL    HW2 1596   1.338   1.788   5.697
  233SOL     OW 1597   3.276   1.562   3.056
  233SOL    HW1 1598   3.302   1.596   2.965
  233SOL    HW2 1599   3.193   1.507   3.049
  234SOL     OW 1600   4.223   1.029   0.053
  234SOL    HW1 1601   4.300   1.092   0.041
  234SOL    HW2 1602   4.253   0.947   0.100
  235SOL     OW 1603   4.845   3.096   3.382
  235SOL    HW1 1604   4.944   3.102   3.373
  235SOL    HW2 1605   4.809   3.034   3.312
  236SOL     OW 1606   4.248   5.015   6.029
  236SOL    HW1 1607   4.162   5.035   5.981
  236SOL    HW2 1608   4.298   5.100   6.045
  237SOL     OW 1609   6.223   3.487   2.968
  237SOL    HW1 1610   6.150   3.521   2.909
  237SOL    HW2 1611   6.307   3.538   2.949
  238SOL     OW 1612   6.686   1.696   0.655
  238SOL    HW1 1613   6.619   1.646   0.599
  238SOL    HW2 1614   6.772   1.646   0.654
  239SOL     OW 1615   1.175   3.531   0.735
  239SOL    HW1 1616   1.134   3.442   0.753
  239SOL    HW2 1617   1.275   3.522   0.732
  240SOL     OW 1618   5.501   3.291   3.396
  240SOL    HW1 1619   5.557   3.307   3.477
  240SOL    HW2 1620   5.449   3.373   3.374
  241SOL     OW 1621   2.824   2.018   4.127
  241SOL    HW1 1622   2.920   2.041   4.109
  241SOL    HW2 1623   2.805   2.030   4.225
  242SOL     OW 1624   3.632   3.768   2.741
  242SOL    HW1 1625   3.694   3.766   2.819
  242SOL    HW2 1626   3.558   3.702   2.755
  243SOL     OW 1627   4.329   2.711   5.882
  243SOL    HW1 1628   4.321   2.678   5.976
  243SOL    HW2 1629   4.312   2.635   5.819
  244SOL     OW 1630   4.803   3.518   5.371
  244SOL    HW1 1631   4.747   3.535   5.452
  244SOL    HW2 1632   4.757   3.554   5.290
  245SOL     OW 1633   3.804   1.527   3.186
  245SOL    HW1 1634   3.897   1.492   3.196
  245SOL    HW2 1635   3.798   1.584   3.104
  246SOL     OW 1636   6.279   1.540   2.144
  246SOL    HW1 1637   6.261   1.638   2.146
  246SOL    HW2 1638   6.363   1.522   2.092
  247SOL     OW 1639   1.577   1.122   1.480
  247SOL    HW1 1640   1.516   1.089   1.408
  247SOL    HW2 1641   1.621   1.207   1.450
  248SOL     OW 1642   1.869   2.330   2.141
  248SOL    HW1 1643   1.839   2.363   2.052
  248SOL    HW2 1644   1.965   2.302   2.136
  249SOL     OW 1645   4.821   5.810   5.060
  249SOL    HW1 1646   4.779   5.720   5.057
  249SOL    HW2 1647   4.762   5.876   5.014
  250SOL     OW 1648   4.102   2.520   0.980
  250SOL    HW1 1649   4.188   2.568   0.964
  250SOL    HW2 1650   4.053   2.562   1.056
  251SOL     OW 1651   4.046   4.096   5.307
  251SOL    HW1 1652   4.024   4.133   5.397
  251SOL    HW2 1653   4.004   4.152   5.237
  252SOL     OW 1654   6.445   6.600   5.266
  252SOL    HW1 1655   6.472   6.600   5.363
  252SOL    HW2 1656   6.416   6.508   5.240
  253SOL     OW 1657   3.702   6.293   6.331
  253SOL    HW1 1658   3.791   6.249   6.339
  253SOL    HW2 1659   3.700   6.350   6.249
  254SOL     OW 1660   5.545   2.403   5.065
  254SOL    HW1 1661   5.578   2.323   5.116
  254SOL    HW2 1662   5.530   2.479   5.129
  255SOL     OW 1663   1.457   4.334   6.242
  255SOL    HW1 1664   1.424   4.274   6.170
  255SOL    HW2 1665   1.397   4.327   6.322
  256SOL     OW 1666   5.028   2.273   5.224
  256SOL    HW1 1667   4.974   2.355   5.241
  256SOL    HW2 1668   5.036   2.220   5.308
  257SOL     OW 1669   4.855   6.918   2.808
  257SOL    HW1 1670   4.942   6.928   2.759
  257SOL    HW2 1671   4.784   6.888   2.744
  258SOL     OW 1672   1.670   2.827   5.482
  258SOL    HW1 1673   1.753   2.831   5.538
  258SOL    HW2 1674   1.672   2.900   5.414
  259SOL     OW 1675   3.609   0.123   4.044
  259SOL    HW1 1676   3.705   0.121   4.071
  259SOL    HW2 1677   3.595   0.065   3.964
  260SOL     OW 1678   3.582   5.417   3.894
  260SOL    HW1 1679   3.634   5.331   3.890
  260SOL    HW2 1680   3.575   5.455   3.802
  261SOL     OW 1681   4.081   4.742   0.316
  261SOL    HW1 1682   4.003   4.788   0.360
  261SOL    HW2 1683   4.148   4.811   0.288
  262SOL     OW 1684   1.751   4.254   6.282
  262SOL    HW1 1685   1.753   4.284   6.187
  262SOL    HW2 1686   1.656   4.240   6.310
  263SOL     OW 1687   0.912   6.189   3.873
  263SOL    HW1 1688   0.943   6.219   3.783
  263SOL    HW2 1689   0.931   6.261   3.940
  264SOL     OW 1690   6.625   3.842   6.489
  264SOL    HW1 1691   6.709   3.889   6.516
  264SOL    HW2 1692   6.548   3.878   6.542
  265SOL     OW 1693   6.529   0.108   4.118
  265SOL    HW1 1694   6.547   0.184   4.056
  265SOL    HW2 1695   6.455   0.052   4.081
  266SOL     OW 1696   3.644   0.832   5.734
  266SOL    HW1 1697   3.579   0.872   5.669
  266SOL    HW2 1698   3.606   0.838   5.827
  267SOL     OW 1699   1.704   0.849   4.219
  267SOL    HW1 1700   1.743   0.939   4.239
  267SOL    HW2 1701   1.617   0.839   4.267
  268SOL     OW 1702   3.390   2.092   1.313
  268SOL    HW1 1703   3.298   2.131   1.306
  268SOL    HW2 1704   3.411   2.071   1.408
  269SOL     OW 1705   4.477   1.598   0.276
  269SOL    HW1 1706   4.546   1.608   0.205
  269SOL    HW2 1707   4.386   1.613   0.237
  270SOL     OW 1708   5.337   0.050   0.296
  270SOL    HW1 1709   5.308   0.112   0.369
  270SOL    HW2 1710   5.306   0.086   0.208
  271SOL     OW 1711   1.185   3.415   6.525
  271SOL    HW1 1712   1.237   3.330   6.539
  271SOL    HW2 1713   1.232   3.472   6.457
  272SOL     OW 1714   3.133   6.492   4.086
  272SOL    HW1 1715   3.087   6.510   4.173
  272SOL    HW2 1716   3.105   6.560   4.018
  273SOL     OW 1717   1.653   4.733   6.325
  273SOL    HW1 1718   1.644   4.737   6.425
  273SOL    HW2 1719   1.634   4.824   6.287
  274SOL     OW 1720   4.767   1.856   3.876
  274SOL    HW1 1721   4.771   1.955   3.889
  274SOL    HW2 1722   4.672   1.825   3.885
  275SOL     OW 1723   6.578   6.448   2.023
  275SOL    HW1 1724   6.650   6.403   1.971
  275SOL    HW2 1725   6.501   6.385   2.036
  276SOL     OW 1726   0.904   1.181   4.609
  276SOL    HW1 1727   0.932   1.162   4.703
  276SOL    HW2 1728   0.980   1.224   4.560
  277SOL     OW 1729   2.015   4.092   1.122
  277SOL    HW1 1730   2.024   4.186   1.089
  277SOL    HW2 1731   1.920   4.074   1.147
  278SOL     OW 1732   0.235   2.792   2.008
  278SOL    HW1 1733   0.235   2.836   1.918
  278SOL    HW2 1734   0.141   2.772   2.035
  279SOL     OW 1735   6.097   1.955   3.775
  279SOL    HW1 1736   6.194   1.965   3.796
  279SOL    HW2 1737   6.069   1.860   3.794
  280SOL     OW 1738   1.722   4.504   1.890
  280SOL    HW1 1739   1.790   4.495   1.963
  280SOL    HW2 1740   1.663   4.582   1.909
  281SOL     OW 1741   2.346   4.609   1.348
  281SOL    HW1 1742   2.283   4.634   1.422
  281SOL    HW2 1743   2.439   4.604   1.383
  282SOL     OW 1744   2.885   2.210   6.273
  282SOL    HW1 1745   2.839   2.232   6.359
  282SOL    HW2 1746   2.889   2.292   6.216
  283SOL     OW 1747   4.357   2.436   6.073
  283SOL    HW1 1748   4.288   2.505   6.094
  283SOL    HW2 1749   4.322   2.373   6.004
  284SOL     OW 1750   1.145   3.778   3.981
  284SOL    HW1 1751   1.065   3.726   4.011
  284SOL    HW2 1752   1.133   3.874   4.003
  285SOL     OW 1753   5.550   4.568   4.619
  285SOL    HW1 1754   5.519   4.538   4.528
  285SOL    HW2 1755   5.649   4.582   4.617
  286SOL     OW 1756   3.014   3.615   6.755
  286SOL    HW1 1757   2.980   3.686   6.816
  286SOL    HW2 1758   3.038   3.656   6.667
  287SOL     OW 1759   1.460   3.734   0.181
  287SOL    HW1 1760   1.495   3.748   0.088
  287SOL    HW2 1761   1.477   3.639   0.209
  288SOL     OW 1762   4.654   3.391   0.364
  288SOL    HW1 1763   4.628   3.344   0.448
  288SOL    HW2 1764   4.696   3.479   0.386
  289SOL     OW 1765   3.109   4.843   6.553
  289SOL    HW1 1766   3.107   4.925   6.612
  289SOL    HW2 1767   3.060   4.862   6.468
  290SOL     OW 1768   0.612   1.407   4.932
  290SOL    HW1 1769   0.684   1.429   4.866
  290SOL    HW2 1770   0.610   1.477   5.003
  291SOL     OW 1771   0.253   2.207   2.559
  291SOL    HW1 1772   0.329   2.265   2.588
  291SOL    HW2 1773   0.174   2.264   2.537
  292SOL     OW 1774   2.294   6.458   4.096
  292SOL    HW1 1775   2.379   6.408   4.081
  292SOL    HW2 1776   2.284   6.479   4.193
  293SOL     OW 1777   3.681   4.854   3.502
  293SOL    HW1 1778   3.777   4.874   3.485
  293SOL    HW2 1779   3.639   4.819   3.418
  294SOL     OW 1780   4.810   0.192   6.802
  294SOL    HW1 1781   4.717   0.189   6.764
  294SOL    HW2 1782   4.834   0.287   6.825
  295SOL     OW 1783   5.090   0.092   3.831
  295SOL    HW1 1784   5.156   0.147   3.781
  295SOL    HW2 1785   5.117   7.013   3.827
  296SOL     OW 1786   2.565   1.941   3.249
  296SOL    HW1 1787   2.617   2.003   3.307
  296SOL    HW2 1788   2.473   1.977   3.234
  297SOL     OW 1789   1.814   4.499   3.447
  297SOL    HW1 1790   1.902   4.461   3.420
  297SOL    HW2 1791   1.820   4.537   3.539
  298SOL     OW 1792   5.963   5.338   0.408
  298SOL    HW1 1793   6.004   5.293   0.328
  298SOL    HW2 1794   6.018   5.319   0.489
  299SOL     OW 1795   6.460   2.573   4.434
  299SOL    HW1 1796   6.415   2.653   4.473
  299SOL    HW2 1797   6.559   2.581   4.447
  300SOL     OW 1798   6.462   0.113   2.320
  300SOL    HW1 1799   6.426   0.066   2.401
  300SOL    HW2 1800   6.392   0.174   2.283
  301SOL     OW 1801   4.996   3.337   6.186
  301SOL    HW1 1802   4.993   3.381   6.096
  301SOL    HW2 1803   5.021   3.404   6.255
  302SOL     OW 1804   1.243   6.972   3.495
  302SOL    HW1 1805   1.220   6.921   3.412
  302SOL    HW2 1806   1.304   6.917   3.552
  303SOL     OW 1807   6.068   6.466   2.957
  303SOL    HW1 1808   6.093   6.375   2.991
  303SOL    HW2 1809   5.980   6.493   2.996
  304SOL     OW 1810   3.204   6.688   3.610
  304SOL    HW1 1811   3.156   6.773   3.636
  304SOL    HW2 1812   3.261   6.658   3.687
  305SOL     OW 1813   1.218   3.924   2.039
  305SOL    HW1 1814   1.242   3.974   2.122
  305SOL    HW2 1815   1.189   3.988   1.968
  306SOL     OW 1816   2.625   0.395   3.251
  306SOL    HW1 1817   2.694   0.467   3.256
  306SOL    HW2 1818   2.534   0.436   3.240
  307SOL     OW 1819   3.564   0.278   1.429
  307SOL    HW1 1820   3.514   0.307   1.510
  307SOL    HW2 1821   3.643   0.339   1.414
  308SOL     OW 1822   0.965   5.044   4.628
  308SOL    HW1 1823   1.028   5.121   4.622
  308SOL    HW2 1824   1.016   4.962   4.655
  309SOL     OW 1825   3.866   4.917   5.347
  309SOL    HW1 1826   3.872   4.850   5.274
  309SOL    HW2 1827   3.877   4.872   5.436
  310SOL     OW 1828   0.908   6.420   5.859
  310SOL    HW1 1829   0.926   6.507   5.905
  310SOL    HW2 1830   0.912   6.346   5.926
  311SOL     OW 1831   0.610   0.373   1.484
  311SOL    HW1 1832   0.665   0.417   1.555
  311SOL    HW2 1833   0.531   0.431   1.462
  312SOL     OW 1834   3.920   1.821   4.167
  312SOL    HW1 1835   3.857   1.881   4.217
  312SOL    HW2 1836   4.014   1.840   4.198
  313SOL     OW 1837   0.071   4.793   1.213
  313SOL    HW1 1838   0.146   4.727   1.218
  313SOL    HW2 1839   0.007   4.764   1.142
  314SOL     OW 1840   3.358   6.124   1.021
  314SOL    HW1 1841   3.401   6.050   1.073
  314SOL    HW2 1842   3.409   6.140   0.937
  315SOL     OW 1843   1.086   3.147   2.794
  315SOL    HW1 1844   1.035   3.230   2.816
  315SOL    HW2 1845   1.030   3.087   2.737
  316SOL     OW 1846   2.169   3.284   4.120
  316SOL    HW1 1847   2.219   3.200   4.141
  316SOL    HW2 1848   2.081   3.260   4.078
  317SOL     OW 1849   6.453   1.453   0.008
  317SOL    HW1 1850   6.503   1.539   7.016
  317SOL    HW2 1851   6.516   1.377   7.014
  318SOL     OW 1852   1.964   4.990   1.021
  318SOL    HW1 1853   1.972   5.029   1.113
  318SOL    HW2 1854   2.055   4.980   0.981
  319SOL     OW 1855   1.348   0.266   0.099
  319SOL    HW1 1856   1.260   0.224   0.122
  319SOL    HW2 1857   1.347   0.363   0.125
  320SOL     OW 1858   4.975   3.440   0.589
  320SOL    HW1 1859   4.937   3.498   0.517
  320SOL    HW2 1860   5.073   3.457   0.597
  321SOL     OW 1861   1.964   1.438   1.590
  321SOL    HW1 1862   1.960   1.497   1.671
  321SOL    HW2 1863   1.907   1.476   1.518
  322SOL     OW 1864   3.200   2.962   5.329
  322SOL    HW1 1865   3.281   2.931   5.278
  322SOL    HW2 1866   3.227   2.983   5.423
  323SOL     OW 1867   0.281   3.938   2.024
  323SOL    HW1 1868   0.336   3.869   2.071
  323SOL    HW2 1869   0.252   4.008   2.090
  324SOL     OW 1870   0.375   3.097   4.363
  324SOL    HW1 1871   0.414   3.112   4.454
  324SOL    HW2 1872   0.312   3.171   4.341
  325SOL     OW 1873   2.139   2.736   2.948
  325SOL    HW1 1874   2.184   2.756   2.861
  325SOL    HW2 1875   2.189   2.782   3.022
  326SOL     OW 1876   2.540   4.391   5.656
  326SOL    HW1 1877   2.610   4.455   5.623
  326SOL    HW2 1878   2.450   4.435   5.652
  327SOL     OW 1879   6.409   5.348   5.971
  327SOL    HW1 1880   6.377   5.352   5.876
  327SOL    HW2 1881   6.490   5.407   5.981
  328SOL     OW 1882   3.163   5.646   1.836
  328SOL    HW1 1883   3.258   5.668   1.854
  328SOL    HW2 1884   3.104   5.700   1.896
  329SOL     OW 1885   3.130   3.509   2.505
  329SOL    HW1 1886   3.191   3.587   2.517
  329SOL    HW2 1887   3.183   3.424   2.517
  330SOL     OW 1888   3.364   1.408   1.859
  330SOL    HW1 1889   3.397   1.497   1.891
  330SOL    HW2 1890   3.412   1.335   1.908
  331SOL     OW 1891   5.761   4.947   5.691
  331SOL    HW1 1892   5.852   4.947   5.733
  331SOL    HW2 1893   5.700   4.887   5.744
  332SOL     OW 1894   4.586   1.819   3.462
  332SOL    HW1 1895   4.634   1.731   3.471
  332SOL    HW2 1896   4.555   1.831   3.368
  333SOL     OW 1897   3.745   6.500   0.004
  333SOL    HW1 1898   3.692   6.535   6.944
  333SOL    HW2 1899   3.774   6.406   7.001
  334SOL     OW 1900   4.494   6.850   3.048
  334SOL    HW1 1901   4.568   6.793   3.011
  334SOL    HW2 1902   4.406   6.811   3.021
  335SOL     OW 1903   3.778   6.757   2.984
  335SOL    HW1 1904   3.726   6.822   2.928
  335SOL    HW2 1905   3.774   6.785   3.080
  336SOL     OW 1906   3.119   0.689   5.039
  336SOL    HW1 1907   3.206   0.655   5.006
  336SOL    HW2 1908   3.111   0.787   5.019
  337SOL     OW 1909   0.260   4.120   1.246
  337SOL    HW1 1910   0.351   4.082   1.263
  337SOL    HW2 1911   0.264   4.184   1.170
  338SOL     OW 1912   2.706   2.446   1.740
  338SOL    HW1 1913   2.789   2.471   1.791
  338SOL    HW2 1914   2.733   2.402   1.654
  339SOL     OW 1915   4.068   0.752   2.939
  339SOL    HW1 1916   4.097   0.658   2.923
  339SOL    HW2 1917   4.136   0.815   2.902
  340SOL     OW 1918   4.896   3.766   4.632
  340SOL    HW1 1919   4.864   3.689   4.576
  340SOL    HW2 1920   4.909   3.847   4.573
  341SOL     OW 1921   5.311   4.905   5.164
  341SOL    HW1 1922   5.349   4.961   5.237
  341SOL    HW2 1923   5.381   4.842   5.131
  342SOL     OW 1924   5.239   3.391   0.453
  342SOL    HW1 1925   5.164   3.399   0.388
  342SOL    HW2 1926   5.311   3.455   0.429
  343SOL     OW 1927   2.460   0.726   2.693
  343SOL    HW1 1928   2.552   0.687   2.705
  343SOL    HW2 1929   2.468   0.822   2.665
  344SOL     OW 1930   3.329   5.181   6.822
  344SOL    HW1 1931   3.362   5.177   6.728
  344SOL    HW2 1932   3.371   5.258   6.869
  345SOL     OW 1933   1.318   6.987   5.836
  345SOL    HW1 1934   1.226   0.007   5.848
  345SOL    HW2 1935   1.376   0.038   5.792
  346SOL     OW 1936   3.197   0.630   4.157
  346SOL    HW1 1937   3.132   0.674   4.219
  346SOL    HW2 1938   3.178   0.532   4.154
  347SOL     OW 1939   5.074   6.195   6.055
  347SOL    HW1 1940   5.035   6.256   5.986
  347SOL    HW2 1941   5.164   6.165   6.025
  348SOL     OW 1942   3.017   6.197   2.913
  348SOL    HW1 1943   3.077   6.275   2.895
  348SOL    HW2 1944   2.931   6.230   2.951
  349SOL     OW 1945   2.093   4.985   1.709
  349SOL    HW1 1946   2.117   4.893   1.676
  349SOL    HW2 1947   2.004   5.011   1.672
  350SOL     OW 1948   4.443   2.849   0.988
  350SOL    HW1 1949   4.360   2.895   1.018
  350SOL    HW2 1950   4.520   2.876   1.046
  351SOL     OW 1951   3.075   1.923   0.769
  351SOL    HW1 1952   3.122   1.902   0.683
  351SOL    HW2 1953   3.142   1.935   0.842
  352SOL     OW 1954   3.968   1.616   6.353
  352SOL    HW1 1955   4.062   1.587   6.369
  352SOL    HW2 1956   3.951   1.621   6.254
  353SOL     OW 1957   2.196   0.321   1.276
  353SOL    HW1 1958   2.135   0.248   1.243
  353SOL    HW2 1959   2.150   0.372   1.349
  354SOL     OW 1960   5.016   1.285   2.109
  354SOL    HW1 1961   4.923   1.278   2.074
  354SOL    HW2 1962   5.056   1.194   2.116
  355SOL     OW 1963   1.612   1.839   1.725
  355SOL    HW1 1964   1.696   1.805   1.683
  355SOL    HW2 1965   1.589   1.782   1.804
  356SOL     OW 1966   3.948   6.086   2.912
  356SOL    HW1 1967   3.953   6.120   2.818
  356SOL    HW2 1968   4.033   6.109   2.960
  357SOL     OW 1969   1.787   4.410   6.063
  357SOL    HW1 1970   1.843   4.460   5.997
  357SOL    HW2 1971   1.706   4.464   6.086
  358SOL     OW 1972   5.455   1.321   2.227
  358SOL    HW1 1973   5.412   1.351   2.143
  358SOL    HW2 1974   5.547   1.359   2.234
  359SOL     OW 1975   1.376   2.063   1.253
  359SOL    HW1 1976   1.451   2.101   1.308
  359SOL    HW2 1977   1.294   2.120   1.265
  360SOL     OW 1978   4.322   6.532   0.984
  360SOL    HW1 1979   4.366   6.458   0.933
  360SOL    HW2 1980   4.377   6.615   0.976
  361SOL     OW 1981   3.612   0.617   3.201
  361SOL    HW1 1982   3.625   0.541   3.265
  361SOL    HW2 1983   3.567   0.693   3.247
  362SOL     OW 1984   2.918   3.697   0.856
  362SOL    HW1 1985   2.968   3.754   0.790
  362SOL    HW2 1986   2.906   3.605   0.818
  363SOL     OW 1987   4.201   4.685   3.859
  363SOL    HW1 1988   4.264   4.694   3.936
  363SOL    HW2 1989   4.116   4.734   3.879
  364SOL     OW 1990   1.536   6.122   5.855
  364SOL    HW1 1991   1.489   6.043   5.895
  364SOL    HW2 1992   1.609   6.091   5.794
  365SOL     OW 1993   4.690   6.703   2.921
  365SOL    HW1 1994   4.694   6.606   2.897
  365SOL    HW2 1995   4.761   6.753   2.870
  366SOL     OW 1996   4.804   0.218   0.689
  366SOL    HW1 1997   4.706   0.232   0.702
  366SOL    HW2 1998   4.836   0.150   0.754
  367SOL     OW 1999   4.621   2.036   1.376
  367SOL    HW1 2000   4.643   2.133   1.361
  367SOL    HW2 2001   4.533   2.029   1.423
  368SOL     OW 2002   1.969   5.094   5.581
  368SOL    HW1 2003   1.878   5.054   5.580
  368SOL    HW2 2004   1.980   5.150   5.662
  369SOL     OW 2005   0.297   3.363   1.533
  369SOL    HW1 2006   0.252   3.453   1.534
  369SOL    HW2 2007   0.373   3.363   1.598
  370SOL     OW 2008   3.381   1.454   6.752
  370SOL    HW1 2009   3.455   1.521   6.762
  370SOL    HW2 2010   3.418   1.367   6.720
  371SOL     OW 2011   4.115   3.066   6.114
  371SOL    HW1 2012   4.029   3.080   6.163
  371SOL    HW2 2013   4.096   3.028   6.024
  372SOL     OW 2014   1.298   5.369   6.941
  372SOL    HW1 2015   1.296   5.459   6.985
  372SOL    HW2 2016   1.232   5.309   6.986
  373SOL     OW 2017   6.935   6.532   0.332
  373SOL    HW1 2018   6.878   6.504   0.254
  373SOL    HW2 2019   0.003   6.572   0.297
  374SOL     OW 2020   4.121   1.146   1.249
  374SOL    HW1 2021   4.070   1.064   1.224
  374SOL    HW2 2022   4.203   1.153   1.194
  375SOL     OW 2023   6.687   4.339   1.481
  375SOL    HW1 2024   6.696   4.253   1.429
  375SOL    HW2 2025   6.643   4.320   1.569
  376SOL     OW 2026   2.124   3.635   4.511
  376SOL    HW1 2027   2.127   3.570   4.586
  376SOL    HW2 2028   2.115   3.728   4.547
  377SOL     OW 2029   4.508   2.012   4.629
  377SOL    HW1 2030   4.500   1.913   4.619
  377SOL    HW2 2031   4.604   2.038   4.635
  378SOL     OW 2032   4.877   2.715   4.065
  378SOL    HW1 2033   4.973   2.688   4.068
  378SOL    HW2 2034   4.830   2.682   4.147
  379SOL     OW 2035   6.889   2.749   1.528
  379SOL    HW1 2036   6.946   2.831   1.524
  379SOL    HW2 2037   6.891   2.702   1.440
  380SOL     OW 2038   1.274   1.872   0.244
  380SOL    HW1 2039   1.351   1.893   0.303
  380SOL    HW2 2040   1.293   1.904   0.151
  381SOL     OW 2041   3.408   4.477   0.241
  381SOL    HW1 2042   3.420   4.509   0.147
  381SOL    HW2 2043   3.489   4.427   0.270
  382SOL     OW 2044   2.052   4.851   0.676
  382SOL    HW1 2045   1.983   4.782   0.696
  382SOL    HW2 2046   2.137   4.827   0.723
  383SOL     OW 2047   6.438   2.059   0.180
  383SOL    HW1 2048   6.535   2.062   0.205
  383SOL    HW2 2049   6.389   2.132   0.227
  384SOL     OW 2050   2.100   5.390   4.884
  384SOL    HW1 2051   2.049   5.307   4.860
  384SOL    HW2 2052   2.037   5.457   4.923
  385SOL     OW 2053   4.848   5.540   1.503
  385SOL    HW1 2054   4.860   5.454   1.554
  385SOL    HW2 2055   4.806   5.520   1.414
  386SOL     OW 2056   3.016   6.356   4.672
  386SOL    HW1 2057   2.976   6.446   4.692
  386SOL    HW2 2058   2.987   6.291   4.742
  387SOL     OW 2059   6.544   0.142   6.114
  387SOL    HW1 2060   6.575   0.063   6.168
  387SOL    HW2 2061   6.504   0.110   6.028
  388SOL     OW 2062   0.414   2.126   4.772
  388SOL    HW1 2063   0.381   2.057   4.708
  388SOL    HW2 2064   0.435   2.210   4.722
  389SOL     OW 2065   5.453   4.642   1.875
  389SOL    HW1 2066   5.475   4.706   1.802
  389SOL    HW2 2067   5.377   4.678   1.930
  390SOL     OW 2068   4.024   2.383   6.782
  390SOL    HW1 2069   3.992   2.429   6.699
  390SOL    HW2 2070   4.093   2.439   6.828
  391SOL     OW 2071   4.028   3.882   3.826
  391SOL    HW1 2072   4.037   3.847   3.919
  391SOL    HW2 2073   4.083   3.825   3.764
  392SOL     OW 2074   1.705   3.898   1.844
  392SOL    HW1 2075   1.715   3.956   1.764
  392SOL    HW2 2076   1.719   3.953   1.927
  393SOL     OW 2077   1.429   5.783   1.483
  393SOL    HW1 2078   1.515   5.782   1.535
  393SOL    HW2 2079   1.449   5.766   1.387
  394SOL     OW 2080   6.040   0.885   6.479
  394SOL    HW1 2081   5.987   0.960   6.518
  394SOL    HW2 2082   6.135   0.894   6.507
  395SOL     OW 2083   5.677   4.477   0.262
  395SOL    HW1 2084   5.697   4.572   0.288
  395SOL    HW2 2085   5.678   4.470   0.162
  396SOL     OW 2086   1.348   0.685   1.372
  396SOL    HW1 2087   1.383   0.687   1.278
  396SOL    HW2 2088   1.347   0.778   1.409
  397SOL     OW 2089   4.395   2.280   4.661
  397SOL    HW1 2090   4.326   2.259   4.730
  397SOL    HW2 2091   4.441   2.195   4.634
  398SOL     OW 2092   0.310   0.586   3.367
  398SOL    HW1 2093   0.251   0.508   3.384
  398SOL    HW2 2094   0.364   0.570   3.285
  399SOL     OW 2095   5.918   5.977   3.935
  399SOL    HW1 2096   5.963   6.043   3.996
  399SOL    HW2 2097   5.986   5.933   3.877
  400SOL     OW 2098   6.758   7.010   3.657
  400SOL    HW1 2099   6.716   0.081   3.635
  400SOL    HW2 2100   6.759   6.953   3.575
  401SOL     OW 2101   1.034   5.344   4.886
  401SOL    HW1 2102   0.997   5.275   4.824
  401SOL    HW2 2103   1.133   5.332   4.895
  402SOL     OW 2104   5.910   1.671   4.118
  402SOL    HW1 2105   5.835   1.607   4.099
  402SOL    HW2 2106   5.908   1.696   4.215
  403SOL     OW 2107   2.939   1.970   5.196
  403SOL    HW1 2108   2.915   1.877   5.168
  403SOL    HW2 2109   2.855   2.024   5.206
  404SOL     OW 2110   3.288   5.870   3.617
  404SOL    HW1 2111   3.260   5.779   3.588
  404SOL    HW2 2112   3.238   5.897   3.699
  405SOL     OW 2113   2.501   4.912   4.301
  405SOL    HW1 2114   2.481   5.009   4.293
  405SOL    HW2 2115   2.600   4.898   4.300
  406SOL     OW 2116   7.011   0.428   6.447
  406SOL    HW1 2117   0.080   0.411   6.495
  406SOL    HW2 2118   6.995   0.355   6.380
  407SOL     OW 2119   1.832   3.231   3.828
  407SOL    HW1 2120   1.797   3.311   3.877
  407SOL    HW2 2121   1.891   3.178   3.889
  408SOL     OW 2122   2.191   2.393   2.796
  408SOL    HW1 2123   2.136   2.394   2.879
  408SOL    HW2 2124   2.277   2.442   2.813
  409SOL     OW 2125   0.656   2.729   2.993
  409SOL    HW1 2126   0.576   2.685   3.034
  409SOL    HW2 2127   0.735   2.718   3.054
  410SOL     OW 2128   1.897   2.876   1.345
  410SOL    HW1 2129   1.929   2.825   1.424
  410SOL    HW2 2130   1.807   2.840   1.317
  411SOL     OW 2131   6.689   2.078   0.284
  411SOL    HW1 2132   6.689   2.013   0.360
  411SOL    HW2 2133   6.710   2.169   0.318
  412SOL     OW 2134   1.727   5.150   2.864
  412SOL    HW1 2135   1.689   5.058   2.863
  412SOL    HW2 2136   1.749   5.176   2.958
  413SOL     OW 2137   6.306   4.625   1.978
  413SOL    HW1 2138   6.307   4.621   1.878
  413SOL    HW2 2139   6.392   4.666   2.011
  414SOL     OW 2140   2.183   6.976   3.560
  414SOL    HW1 2141   2.128   6.954   3.479
  414SOL    HW2 2142   2.231   6.894   3.591
  415SOL     OW 2143   5.408   1.666   6.411
  415SOL    HW1 2144   5.463   1.749   6.424
  415SOL    HW2 2145   5.461   1.599   6.360
  416SOL     OW 2146   5.736   2.956   6.023
  416SOL    HW1 2147   5.729   3.056   6.033
  416SOL    HW2 2148   5.681   2.927   5.946
  417SOL     OW 2149   2.468   2.503   6.173
  417SOL    HW1 2150   2.474   2.587   6.119
  417SOL    HW2 2151   2.558   2.462   6.181
  418SOL     OW 2152   3.416   6.868   5.323
  418SOL    HW1 2153   3.334   6.826   5.362
  418SOL    HW2 2154   3.397   6.964   5.303
  419SOL     OW 2155   5.648   0.325   0.433
  419SOL    HW1 2156   5.686   0.393   0.495
  419SOL    HW2 2157   5.606   0.251   0.486
  420SOL     OW 2158   3.614   6.635   0.838
  420SOL    HW1 2159   3.576   6.721   0.872
  420SOL    HW2 2160   3.682   6.600   0.902
  421SOL     OW 2161   4.797   4.028   2.273
  421SOL    HW1 2162   4.737   4.106   2.254
  421SOL    HW2 2163   4.771   3.987   2.360
  422SOL     OW 2164   4.648   2.113   1.697
  422SOL    HW1 2165   4.587   2.122   1.618
  422SOL    HW2 2166   4.593   2.111   1.781
  423SOL     OW 2167   3.228   0.851   6.349
  423SOL    HW1 2168   3.277   0.854   6.262
  423SOL    HW2 2169   3.199   0.944   6.374
  424SOL     OW 2170   2.006   3.907   4.270
  424SOL    HW1 2171   1.907   3.897   4.255
  424SOL    HW2 2172   2.022   3.971   4.345
  425SOL     OW 2173   3.519   1.212   6.693
  425SOL    HW1 2174   3.586   1.176   6.758
  425SOL    HW2 2175   3.564   1.232   6.606
  426SOL     OW 2176   2.605   2.045   4.385
  426SOL    HW1 2177   2.660   2.112   4.436
  426SOL    HW2 2178   2.586   1.967   4.445
  427SOL     OW 2179   4.956   1.781   3.678
  427SOL    HW1 2180   4.886   1.813   3.741
  427SOL    HW2 2181   4.926   1.795   3.583
  428SOL     OW 2182   2.368   2.165   6.309
  428SOL    HW1 2183   2.393   2.170   6.213
  428SOL    HW2 2184   2.401   2.246   6.357
  429SOL     OW 2185   0.343   5.945   3.892
  429SOL    HW1 2186   0.362   5.967   3.988
  429SOL    HW2 2187   0.375   5.853   3.872
  430SOL     OW 2188   1.773   0.128   4.267
  430SOL    HW1 2189   1.867   0.102   4.248
  430SOL    HW2 2190   1.771   0.193   4.343
  431SOL     OW 2191   2.797   1.293   0.999
  431SOL    HW1 2192   2.800   1.386   1.035
  431SOL    HW2 2193   2.878   1.277   0.943
  432SOL     OW 2194   4.866   1.386   1.419
  432SOL    HW1 2195   4.905   1.425   1.502
  432SOL    HW2 2196   4.786   1.439   1.392
  433SOL     OW 2197   1.777   4.497   0.916
  433SOL    HW1 2198   1.679   4.508   0.936
  433SOL    HW2 2199   1.823   4.585   0.929
  434SOL     OW 2200   4.324   5.275   2.934
  434SOL    HW1 2201   4.392   5.238   2.871
  434SOL    HW2 2202   4.364   5.281   3.026
  435SOL     OW 2203   3.781   2.912   5.984
  435SOL    HW1 2204   3.731   2.982   6.034
  435SOL    HW2 2205   3.769   2.927   5.886
  436SOL     OW 2206   5.427   5.913   1.652
  436SOL    HW1 2207   5.481   5.982   1.604
  436SOL    HW2 2208   5.435   5.928   1.751
  437SOL     OW 2209   6.960   1.233   5.075
  437SOL    HW1 2210   7.016   1.231   4.992
  437SOL    HW2 2211   6.965   1.144   5.120
  438SOL     OW 2212   0.817   4.359   2.543
  438SOL    HW1 2213   0.749   4.405   2.485
  438SOL    HW2 2214   0.781   4.348   2.635
  439SOL     OW 2215   0.398   0.213   5.777
  439SOL    HW1 2216   0.318   0.152   5.769
  439SOL    HW2 2217   0.467   0.170   5.835
  440SOL     OW 2218   4.758   1.874   0.830
  440SOL    HW1 2219   4.830   1.885   0.762
  440SOL    HW2 2220   4.719   1.964   0.852
  441SOL     OW 2221   0.039   4.524   2.317
  441SOL    HW1 2222   7.003   4.443   2.295
  441SOL    HW2 2223   7.002   4.585   2.375
  442SOL     OW 2224   4.059   3.355   5.135
  442SOL    HW1 2225   4.003   3.327   5.213
  442SOL    HW2 2226   4.152   3.377   5.166
  443SOL     OW 2227   4.782   2.826   3.279
  443SOL    HW1 2228   4.763   2.818   3.377
  443SOL    HW2 2229   4.722   2.764   3.229
  444SOL     OW 2230   3.975   2.172   1.200
  444SOL    HW1 2231   4.048   2.185   1.267
  444SOL    HW2 2232   3.912   2.102   1.232
  445SOL     OW 2233   2.573   5.331   2.711
  445SOL    HW1 2234   2.597   5.252   2.767
  445SOL    HW2 2235   2.630   5.332   2.629
  446SOL     OW 2236   6.309   0.014   1.937
  446SOL    HW1 2237   6.354   0.101   1.957
  446SOL    HW2 2238   6.376   6.965   1.906
  447SOL     OW 2239   5.899   3.815   0.417
  447SOL    HW1 2240   5.817   3.870   0.434
  447SOL    HW2 2241   5.981   3.871   0.432
  448SOL     OW 2242   3.600   6.500   3.878
  448SOL    HW1 2243   3.643   6.590   3.873
  448SOL    HW2 2244   3.635   6.443   3.803
  449SOL     OW 2245   1.149   4.239   4.554
  449SOL    HW1 2246   1.237   4.258   4.512
  449SOL    HW2 2247   1.163   4.188   4.639
  450SOL     OW 2248   6.801   4.150   3.150
  450SOL    HW1 2249   6.853   4.125   3.068
  450SOL    HW2 2250   6.798   4.072   3.213
  451SOL     OW 2251   1.195   2.009   0.620
  451SOL    HW1 2252   1.199   2.071   0.541
  451SOL    HW2 2253   1.274   2.024   0.679
  452SOL     OW 2254   4.061   5.442   1.846
  452SOL    HW1 2255   4.018   5.385   1.776
  452SOL    HW2 2256   4.115   5.514   1.802
  453SOL     OW 2257   3.741   1.348   6.926
  453SOL    HW1 2258   3.722   1.251   6.910
  453SOL    HW2 2259   3.671   1.385   6.987
  454SOL     OW 2260   0.014   3.183   4.507
  454SOL    HW1 2261   0.057   3.100   4.472
  454SOL    HW2 2262   0.054   3.262   4.461
  455SOL     OW 2263   5.234   4.863   5.971
  455SOL    HW1 2264   5.284   4.914   6.041
  455SOL    HW2 2265   5.278   4.774   5.958
  456SOL     OW 2266   2.274   0.745   2.916
  456SOL    HW1 2267   2.337   0.725   2.841
  456SOL    HW2 2268   2.272   0.667   2.979
  457SOL     OW 2269   2.279   6.321   0.098
  457SOL    HW1 2270   2.367   6.344   0.056
  457SOL    HW2 2271   2.226   6.264   0.036
  458SOL     OW 2272   4.022   1.426   3.313
  458SOL    HW1 2273   4.042   1.506   3.369
  458SOL    HW2 2274   4.107   1.391   3.274
  459SOL     OW 2275   3.101   0.840   3.102
  459SOL    HW1 2276   3.166   0.787   3.158
  459SOL    HW2 2277   3.063   0.914   3.157
  460SOL     OW 2278   0.940   1.698   6.114
  460SOL    HW1 2279   0.894   1.784   6.093
  460SOL    HW2 2280   1.022   1.688   6.057
  461SOL     OW 2281   1.550   6.059   5.383
  461SOL    HW1 2282   1.512   5.987   5.325
  461SOL    HW2 2283   1.492   6.141   5.377
  462SOL     OW 2284   3.461   4.189   4.711
  462SOL    HW1 2285   3.406   4.239   4.778
  462SOL    HW2 2286   3.467   4.092   4.739
  463SOL     OW 2287   5.555   6.038   3.228
  463SOL    HW1 2288   5.494   6.118   3.228
  463SOL    HW2 2289   5.625   6.049   3.158
  464SOL     OW 2290   4.325   5.332   5.287
  464SOL    HW1 2291   4.238   5.284   5.281
  464SOL    HW2 2292   4.377   5.318   5.203
  465SOL     OW 2293   0.226   4.567   6.660
  465SOL    HW1 2294   0.326   4.566   6.660
  465SOL    HW2 2295   0.191   4.476   6.680
  466SOL     OW 2296   4.004   5.324   4.440
  466SOL    HW1 2297   3.930   5.340   4.506
  466SOL    HW2 2298   3.993   5.385   4.362
  467SOL     OW 2299   6.631   0.654   2.055
  467SOL    HW1 2300   6.639   0.581   2.123
  467SOL    HW2 2301   6.717   0.705   2.051
  468SOL     OW 2302   2.549   6.175   6.277
  468SOL    HW1 2303   2.641   6.142   6.300
  468SOL    HW2 2304   2.487   6.097   6.268
  469SOL     OW 2305   3.097   4.658   5.336
  469SOL    HW1 2306   3.061   4.580   5.284
  469SOL    HW2 2307   3.020   4.710   5.374
  470SOL     OW 2308   2.080   4.801   3.063
  470SOL    HW1 2309   2.115   4.856   2.987
  470SOL    HW2 2310   1.984   4.777   3.045
  471SOL     OW 2311   1.690   2.059   3.777
  471SOL    HW1 2312   1.635   1.993   3.725
  471SOL    HW2 2313   1.687   2.148   3.732
  472SOL     OW 2314   5.463   4.289   6.856
  472SOL    HW1 2315   5.379   4.236   6.839
  472SOL    HW2 2316   5.460   4.374   6.803
  473SOL     OW 2317   5.039   3.382   2.435
  473SOL    HW1 2318   5.049   3.476   2.404
  473SOL    HW2 2319   4.995   3.327   2.364
  474SOL     OW 2320   5.183   5.532   3.953
  474SOL    HW1 2321   5.189   5.545   3.854
  474SOL    HW2 2322   5.272   5.549   3.994
  475SOL     OW 2323   5.773   1.526   0.822
  475SOL    HW1 2324   5.845   1.516   0.891
  475SOL    HW2 2325   5.786   1.611   0.772
  476SOL     OW 2326   1.208   3.886   0.164
  476SOL    HW1 2327   1.130   3.824   0.152
  476SOL    HW2 2328   1.293   3.837   0.146
  477SOL     OW 2329   0.256   5.351   2.771
  477SOL    HW1 2330   0.230   5.377   2.678
  477SOL    HW2 2331   0.211   5.412   2.837
  478SOL     OW 2332   6.005   5.569   2.737
  478SOL    HW1 2333   5.983   5.479   2.773
  478SOL    HW2 2334   6.058   5.620   2.805
  479SOL     OW 2335   3.064   3.919   2.910
  479SOL    HW1 2336   3.023   3.932   2.819
  479SOL    HW2 2337   3.161   3.942   2.906
  480SOL     OW 2338   0.920   0.888   2.007
  480SOL    HW1 2339   0.947   0.974   1.965
  480SOL    HW2 2340   0.965   0.878   2.096
  481SOL     OW 2341   5.820   6.791   0.882
  481SOL    HW1 2342   5.861   6.882   0.877
  481SOL    HW2 2343   5.865   6.731   0.817
  482SOL     OW 2344   3.879   4.894   2.612
  482SOL    HW1 2345   3.817   4.873   2.537
  482SOL    HW2 2346   3.826   4.910   2.695
  483SOL     OW 2347   5.806   1.329   3.933
  483SOL    HW1 2348   5.861   1.342   3.850
  483SOL    HW2 2349   5.834   1.245   3.978
  484SOL     OW 2350   1.843   5.046   3.314
  484SOL    HW1 2351   1.798   5.003   3.235
  484SOL    HW2 2352   1.940   5.025   3.313
  485SOL     OW 2353   5.077   1.974   0.891
  485SOL    HW1 2354   5.054   1.958   0.795
  485SOL    HW2 2355   5.025   2.053   0.925
  486SOL     OW 2356   5.817   6.910   5.714
  486SOL    HW1 2357   5.775   7.001   5.718
  486SOL    HW2 2358   5.750   6.844   5.680
  487SOL     OW 2359   0.219   0.973   6.472
  487SOL    HW1 2360   0.173   0.972   6.561
  487SOL    HW2 2361   0.271   0.889   6.461
  488SOL     OW 2362   1.748   5.712   3.304
  488SOL    HW1 2363   1.800   5.797   3.293
  488SOL    HW2 2364   1.663   5.731   3.352
  489SOL     OW 2365   2.959   5.158   5.524
  489SOL    HW1 2366   3.040   5.099   5.532
  489SOL    HW2 2367   2.892   5.131   5.593
  490SOL     OW 2368   1.610   3.536   4.675
  490SOL    HW1 2369   1.602   3.615   4.736
  490SOL    HW2 2370   1.605   3.566   4.580
  491SOL     OW 2371   6.165   2.755   1.056
  491SOL    HW1 2372   6.122   2.845   1.070
  491SOL    HW2 2373   6.263   2.768   1.041
  492SOL     OW 2374   1.822   2.372   5.755
  492SOL    HW1 2375   1.878   2.423   5.689
  492SOL    HW2 2376   1.766   2.306   5.705
  493SOL     OW 2377   2.130   5.615   4.241
  493SOL    HW1 2378   2.126   5.515   4.239
  493SOL    HW2 2379   2.037   5.652   4.247
  494SOL     OW 2380   2.890   0.973   4.209
  494SOL    HW1 2381   2.984   0.989   4.177
  494SOL    HW2 2382   2.849   1.061   4.233
  495SOL     OW 2383   3.800   4.320   6.769
  495SOL    HW1 2384   3.750   4.239   6.800
  495SOL    HW2 2385   3.751   4.362   6.693
  496SOL     OW 2386   5.084   1.125   3.005
  496SOL    HW1 2387   5.060   1.210   3.052
  496SOL    HW2 2388   5.138   1.146   2.923
  497SOL     OW 2389   4.401   2.189   0.709
  497SOL    HW1 2390   4.390   2.198   0.808
  497SOL    HW2 2391   4.437   2.098   0.688
  498SOL     OW 2392   0.235   0.491   1.232
  498SOL    HW1 2393   0.221   0.584   1.199
  498SOL    HW2 2394   0.266   0.493   1.327
  499SOL     OW 2395   2.885   6.072   0.196
  499SOL    HW1 2396   2.966   6.042   0.247
  499SOL    HW2 2397   2.870   6.170   0.211
  500SOL     OW 2398   5.610   1.904   6.112
  500SOL    HW1 2399   5.606   1.863   6.203
  500SOL    HW2 2400   5.588   2.001   6.119
  501SOL     OW 2401   2.015   1.747   4.402
  501SOL    HW1 2402   1.995   1.753   4.305
  501SOL    HW2 2403   2.044   1.837   4.436
  502SOL     OW 2404   2.679   4.060   6.801
  502SOL    HW1 2405   2.586   4.022   6.799
  502SOL    HW2 2406   2.683   4.141   6.743
  503SOL     OW 2407   3.247   5.049   1.253
  503SOL    HW1 2408   3.244   5.121   1.184
  503SOL    HW2 2409   3.266   5.089   1.343
  504SOL     OW 2410   6.031   6.590   0.374
  504SOL    HW1 2411   6.079   6.667   0.416
  504SOL    HW2 2412   6.014   6.520   0.444
  505SOL     OW 2413   5.940   4.491   5.683
  505SOL    HW1 2414   5.880   4.424   5.641
  505SOL    HW2 2415   5.952   4.570   5.622
  506SOL     OW 2416   3.251   5.393   2.985
  506SOL    HW1 2417   3.230   5.428   2.894
  506SOL    HW2 2418   3.168   5.360   3.029
  507SOL     OW 2419   3.741   0.497   2.383
  507SOL    HW1 2420   3.715   0.411   2.426
  507SOL    HW2 2421   3.720   0.573   2.444
  508SOL     OW 2422   0.767   4.955   3.550
  508SOL    HW1 2423   0.741   4.859   3.542
  508SOL    HW2 2424   0.845   4.964   3.612
  509SOL     OW 2425   4.295   6.823   6.479
  509SOL    HW1 2426   4.365   6.823   6.552
  509SOL    HW2 2427   4.309   6.901   6.419
  510SOL     OW 2428   6.533   4.165   0.257
  510SOL    HW1 2429   6.482   4.105   0.320
  510SOL    HW2 2430   6.517   4.260   0.282
  511SOL     OW 2431   0.727   1.320   6.875
  511SOL    HW1 2432   0.716   1.225   6.846
  511SOL    HW2 2433   0.770   1.322   6.965
  512SOL     OW 2434   0.376   2.350   4.209
  512SOL    HW1 2435   0.337   2.337   4.118
  512SOL    HW2 2436   0.357   2.270   4.266
  513SOL     OW 2437   5.654   6.874   2.756
  513SOL    HW1 2438   5.720   6.942   2.725
  513SOL    HW2 2439   5.649   6.875   2.856
  514SOL     OW 2440   5.008   1.829   4.931
  514SOL    HW1 2441   4.983   1.871   5.019
  514SOL    HW2 2442   5.007   1.729   4.941
  515SOL     OW 2443   3.344   0.774   0.020
  515SOL    HW1 2444   3.276   0.830   6.989
  515SOL    HW2 2445   3.410   0.835   0.065
  516SOL     OW 2446   1.507   6.098   1.917
  516SOL    HW1 2447   1.461   6.119   2.004
  516SOL    HW2 2448   1.448   6.125   1.841
  517SOL     OW 2449   3.270   5.479   1.598
  517SOL    HW1 2450   3.244   5.537   1.520
  517SOL    HW2 2451   3.244   5.524   1.683
  518SOL     OW 2452   2.320   5.823   4.301
  518SOL    HW1 2453   2.254   5.758   4.263
  518SOL    HW2 2454   2.319   5.818   4.400
  519SOL     OW 2455   6.618   0.337   2.432
  519SOL    HW1 2456   6.583   0.245   2.415
  519SOL    HW2 2457   6.621   0.353   2.531
  520SOL     OW 2458   2.222   5.011   0.901
  520SOL    HW1 2459   2.234   5.029   0.804
  520SOL    HW2 2460   2.280   4.935   0.929
  521SOL     OW 2461   6.133   5.939   5.583
  521SOL    HW1 2462   6.194   6.012   5.615
  521SOL    HW2 2463   6.121   5.871   5.656
  522SOL     OW 2464   3.715   4.324   0.013
  522SOL    HW1 2465   3.743   4.340   6.935
  522SOL    HW2 2466   3.726   4.227   0.035
  523SOL     OW 2467   1.858   6.828   6.091
  523SOL    HW1 2468   1.809   6.824   6.178
  523SOL    HW2 2469   1.893   6.921   6.077
  524SOL     OW 2470   0.173   1.170   0.801
  524SOL    HW1 2471   0.257   1.212   0.768
  524SOL    HW2 2472   0.104   1.240   0.814
  525SOL     OW 2473   0.365   3.114   3.233
  525SOL    HW1 2474   0.386   3.129   3.330
  525SOL    HW2 2475   0.439   3.063   3.190
  526SOL     OW 2476   4.459   6.980   4.447
  526SOL    HW1 2477   4.486   0.058   4.432
  526SOL    HW2 2478   4.540   6.926   4.472
  527SOL     OW 2479   0.274   1.015   1.057
  527SOL    HW1 2480   0.231   1.055   0.976
  527SOL    HW2 2481   0.364   1.055   1.070
  528SOL     OW 2482   0.317   2.189   4.443
  528SOL    HW1 2483   0.403   2.214   4.487
  528SOL    HW2 2484   0.275   2.114   4.494
  529SOL     OW 2485   1.608   0.322   5.976
  529SOL    HW1 2486   1.525   0.378   5.966
  529SOL    HW2 2487   1.644   0.298   5.886
  530SOL     OW 2488   2.757   4.714   1.306
  530SOL    HW1 2489   2.770   4.692   1.209
  530SOL    HW2 2490   2.843   4.748   1.344
  531SOL     OW 2491   1.190   0.744   6.542
  531SOL    HW1 2492   1.210   0.810   6.614
  531SOL    HW2 2493   1.128   0.786   6.475
  532SOL     OW 2494   2.932   0.797   6.364
  532SOL    HW1 2495   3.024   0.829   6.343
  532SOL    HW2 2496   2.937   0.714   6.419
  533SOL     OW 2497   4.070   0.062   4.292
  533SOL    HW1 2498   3.999   0.045   4.224
  533SOL    HW2 2499   4.070   0.159   4.317
  534SOL     OW 2500   1.596   4.090   2.073
  534SOL    HW1 2501   1.689   4.093   2.110
  534SOL    HW2 2502   1.596   4.127   1.980
  535SOL     OW 2503   4.839   4.105   4.567
  535SOL    HW1 2504   4.790   4.147   4.643
  535SOL    HW2 2505   4.937   4.109   4.584
  536SOL     OW 2506   6.800   6.267   1.532
  536SOL    HW1 2507   6.843   6.349   1.571
  536SOL    HW2 2508   6.829   6.187   1.584
  537SOL     OW 2509   2.844   1.763   2.126
  537SOL    HW1 2510   2.837   1.757   2.026
  537SOL    HW2 2511   2.796   1.844   2.158
  538SOL     OW 2512   4.008   4.666   5.265
  538SOL    HW1 2513   4.037   4.722   5.342
  538SOL    HW2 2514   4.018   4.570   5.288
  539SOL     OW 2515   2.249   0.242   6.635
  539SOL    HW1 2516   2.185   0.167   6.654
  539SOL    HW2 2517   2.343   0.208   6.639
  540SOL     OW 2518   1.920   1.048   5.106
  540SOL    HW1 2519   1.852   1.013   5.041
  540SOL    HW2 2520   1.937   1.145   5.088
  541SOL     OW 2521   5.431   6.373   3.500
  541SOL    HW1 2522   5.408   6.286   3.545
  541SOL    HW2 2523   5.347   6.416   3.467
  542SOL     OW 2524   3.694   6.427   6.110
  542SOL    HW1 2525   3.654   6.416   6.019
  542SOL    HW2 2526   3.718   6.523   6.125
  543SOL     OW 2527   5.904   2.948   4.001
  543SOL    HW1 2528   5.902   3.013   4.077
  543SOL    HW2 2529   5.814   2.943   3.958
  544SOL     OW 2530   1.569   3.344   1.060
  544SOL    HW1 2531   1.571   3.321   1.157
  544SOL    HW2 2532   1.561   3.444   1.050
  545SOL     OW 2533   6.736   5.548   0.635
  545SOL    HW1 2534   6.733   5.644   0.663
  545SOL    HW2 2535   6.783   5.495   0.706
  546SOL     OW 2536   7.016   4.485   1.918
  546SOL    HW1 2537   7.000   4.584   1.914
  546SOL    HW2 2538   0.097   4.467   1.907
  547SOL     OW 2539   4.164   0.085   7.016
  547SOL    HW1 2540   4.254   0.046   7.000
  547SOL    HW2 2541   4.172   0.182   0.019
  548SOL     OW 2542   4.217   2.822   0.308
  548SOL    HW1 2543   4.203   2.725   0.294
  548SOL    HW2 2544   4.267   2.861   0.230
  549SOL     OW 2545   5.301   2.143   3.176
  549SOL    HW1 2546   5.390   2.097   3.172
  549SOL    HW2 2547   5.238   2.100   3.112
  550SOL     OW 2548   6.841   5.800   3.897
  550SOL    HW1 2549   6.886   5.808   3.986
  550SOL    HW2 2550   6.887   5.731   3.842
  551SOL     OW 2551   5.642   0.336   0.173
  551SOL    HW1 2552   5.654   0.308   0.269
  551SOL    HW2 2553   5.561   0.394   0.166
  552SOL     OW 2554   0.752   0.128   4.771
  552SOL    HW1 2555   0.827   0.097   4.830
  552SOL    HW2 2556   0.745   0.228   4.778
  553SOL     OW 2557   3.390   2.632   6.031
  553SOL    HW1 2558   3.304   2.617   5.982
  553SOL    HW2 2559   3.465   2.638   5.965
  554SOL     OW 2560   6.658   5.897   0.532
  554SOL    HW1 2561   6.672   5.822   0.467
  554SOL    HW2 2562   6.565   5.893   0.567
  555SOL     OW 2563   2.980   3.726   5.602
  555SOL    HW1 2564   2.897   3.778   5.620
  555SOL    HW2 2565   3.015   3.749   5.511
  556SOL     OW 2566   6.363   6.227   3.183
  556SOL    HW1 2567   6.438   6.228   3.117
  556SOL    HW2 2568   6.399   6.213   3.275
  557SOL     OW 2569   5.379   4.315   6.535
  557SOL    HW1 2570   5.383   4.393   6.597
  557SOL    HW2 2571   5.463   4.312   6.481
  558SOL     OW 2572   3.649   3.529   2.340
  558SOL    HW1 2573   3.674   3.433   2.351
  558SOL    HW2 2574   3.693   3.583   2.411
  559SOL     OW 2575   6.621   0.973   6.321
  559SOL    HW1 2576   6.689   0.906   6.293
  559SOL    HW2 2577   6.529   0.938   6.303
  560SOL     OW 2578   0.083   2.431   4.403
  560SOL    HW1 2579   7.008   2.401   4.379
  560SOL    HW2 2580   0.146   2.353   4.397
  561SOL     OW 2581   0.485   3.945   0.044
  561SOL    HW1 2582   0.407   3.931   7.000
  561SOL    HW2 2583   0.522   3.857   0.072
  562SOL     OW 2584   4.737   6.327   3.854
  562SOL    HW1 2585   4.734   6.229   3.872
  562SOL    HW2 2586   4.672   6.374   3.915
  563SOL     OW 2587   1.355   0.795   3.963
  563SOL    HW1 2588   1.331   0.823   3.869
  563SOL    HW2 2589   1.357   0.876   4.021
  564SOL     OW 2590   5.955   1.691   6.245
  564SOL    HW1 2591   5.971   1.775   6.193
  564SOL    HW2 2592   6.041   1.641   6.254
  565SOL     OW 2593   3.251   2.937   3.537
  565SOL    HW1 2594   3.188   2.977   3.470
  565SOL    HW2 2595   3.305   3.010   3.580
  566SOL     OW 2596   2.472   1.794   3.532
  566SOL    HW1 2597   2.553   1.847   3.507
  566SOL    HW2 2598   2.492   1.697   3.524
  567SOL     OW 2599   2.047   3.117   5.334
  567SOL    HW1 2600   2.143   3.093   5.352
  567SOL    HW2 2601   2.038   3.216   5.328
  568SOL     OW 2602   0.965   6.571   0.077
  568SOL    HW1 2603   0.872   6.589   0.043
  568SOL    HW2 2604   0.960   6.507   0.154
  569SOL     OW 2605   5.597   3.644   6.677
  569SOL    HW1 2606   5.646   3.612   6.596
  569SOL    HW2 2607   5.505   3.605   6.678
  570SOL     OW 2608   3.709   0.570   5.843
  570SOL    HW1 2609   3.709   0.547   5.940
  570SOL    HW2 2610   3.796   0.613   5.819
  571SOL     OW 2611   2.422   4.598   1.763
  571SOL    HW1 2612   2.454   4.529   1.697
  571SOL    HW2 2613   2.501   4.649   1.798
  572SOL     OW 2614   2.919   0.993   4.601
  572SOL    HW1 2615   2.962   1.050   4.671
  572SOL    HW2 2616   2.953   0.899   4.609
  573SOL     OW 2617   0.392   0.585   5.404
  573SOL    HW1 2618   0.486   0.563   5.378
  573SOL    HW2 2619   0.384   0.684   5.417
  574SOL     OW 2620   2.467   1.025   6.065
  574SOL    HW1 2621   2.556   1.012   6.022
  574SOL    HW2 2622   2.469   1.107   6.122
  575SOL     OW 2623   3.986   4.135   6.964
  575SOL    HW1 2624   3.902   4.092   7.000
  575SOL    HW2 2625   4.012   4.211   0.006
  576SOL     OW 2626   1.403   1.427   2.822
  576SOL    HW1 2627   1.355   1.369   2.888
  576SOL    HW2 2628   1.386   1.394   2.729
  577SOL     OW 2629   0.525   0.802   2.095
  577SOL    HW1 2630   0.550   0.898   2.100
  577SOL    HW2 2631   0.427   0.792   2.111
  578SOL     OW 2632   3.531   6.747   6.918
  578SOL    HW1 2633   3.599   6.693   6.866
  578SOL    HW2 2634   3.570   6.837   6.939
  579SOL     OW 2635   0.989   3.464   2.047
  579SOL    HW1 2636   1.076   3.449   2.094
  579SOL    HW2 2637   0.984   3.558   2.014
  580SOL     OW 2638   4.697   4.851   4.485
  580SOL    HW1 2639   4.629   4.850   4.412
  580SOL    HW2 2640   4.789   4.847   4.446
  581SOL     OW 2641   2.067   2.499   4.086
  581SOL    HW1 2642   2.124   2.452   4.154
  581SOL    HW2 2643   2.083   2.597   4.092
  582SOL     OW 2644   5.606   4.422   5.085
  582SOL    HW1 2645   5.560   4.442   5.172
  582SOL    HW2 2646   5.639   4.507   5.045
  583SOL     OW 2647   3.642   6.295   5.638
  583SOL    HW1 2648   3.549   6.259   5.636
  583SOL    HW2 2649   3.707   6.220   5.633
  584SOL     OW 2650   3.732   0.552   5.133
  584SOL    HW1 2651   3.807   0.603   5.174
  584SOL    HW2 2652   3.736   0.559   5.033
  585SOL     OW 2653   3.667   6.677   1.691
  585SOL    HW1 2654   3.699   6.756   1.639
  585SOL    HW2 2655   3.635   6.708   1.781
  586SOL     OW 2656   3.515   0.243   0.760
  586SOL    HW1 2657   3.561   0.195   0.685
  586SOL    HW2 2658   3.469   0.324   0.725
  587SOL     OW 2659   4.766   1.338   2.021
  587SOL    HW1 2660   4.805   1.356   1.930
  587SOL    HW2 2661   4.714   1.418   2.051
  588SOL     OW 2662   1.743   4.603   2.731
  588SOL    HW1 2663   1.729   4.504   2.728
  588SOL    HW2 2664   1.826   4.624   2.783
  589SOL     OW 2665   3.540   5.207   0.678
  589SOL    HW1 2666   3.630   5.184   0.641
  589SOL    HW2 2667   3.550   5.239   0.772
  590SOL     OW 2668   3.208   2.401   6.498
  590SOL    HW1 2669   3.141   2.476   6.495
  590SOL    HW2 2670   3.183   2.331   6.431
  591SOL     OW 2671   2.917   6.987   3.893
  591SOL    HW1 2672   2.945   0.065   3.884
  591SOL    HW2 2673   2.823   6.983   3.928
  592SOL     OW 2674   4.734   2.635   4.358
  592SOL    HW1 2675   4.767   2.549   4.395
  592SOL    HW2 2676   4.637   2.627   4.335
  593SOL     OW 2677   2.028   1.552   6.436
  593SOL    HW1 2678   1.953   1.488   6.451
  593SOL    HW2 2679   2.115   1.505   6.447
  594SOL     OW 2680   4.507   1.179   3.107
  594SOL    HW1 2681   4.487   1.100   3.166
  594SOL    HW2 2682   4.544   1.253   3.163
  595SOL     OW 2683   6.017   4.793   2.733
  595SOL    HW1 2684   6.040   4.780   2.829
  595SOL    HW2 2685   6.098   4.774   2.676
  596SOL     OW 2686   6.475   4.858   4.576
  596SOL    HW1 2687   6.429   4.899   4.655
  596SOL    HW2 2688   6.414   4.792   4.532
  597SOL     OW 2689   3.198   1.694   6.726
  597SOL    HW1 2690   3.176   1.596   6.719
  597SOL    HW2 2691   3.146   1.734   6.801
  598SOL     OW 2692   3.547   3.387   2.974
  598SOL    HW1 2693   3.635   3.378   2.928
  598SOL    HW2 2694   3.481   3.323   2.933
  599SOL     OW 2695   1.370   4.929   1.646
  599SOL    HW1 2696   1.416   5.010   1.609
  599SOL    HW2 2697   1.271   4.940   1.636
  600SOL     OW 2698   6.851   3.484   5.599
  600SOL    HW1 2699   6.806   3.568   5.628
  600SOL    HW2 2700   6.902   3.501   5.514
  601SOL     OW 2701   0.230   6.580   5.835
  601SOL    HW1 2702   0.209   6.604   5.740
  601SOL    HW2 2703   0.299   6.643   5.871
  602SOL     OW 2704   1.908   0.753   3.683
  602SOL    HW1 2705   1.831   0.794   3.733
  602SOL    HW2 2706   1.887   0.658   3.662
  603SOL     OW 2707   1.976   1.837   4.136
  603SOL    HW1 2708   1.972   1.824   4.036
  603SOL    HW2 2709   1.944   1.928   4.159
  604SOL     OW 2710   5.838   2.695   0.894
  604SOL    HW1 2711   5.790   2.686   0.981
  604SOL    HW2 2712   5.882   2.608   0.871
  605SOL     OW 2713   6.397   6.216   1.260
  605SOL    HW1 2714   6.370   6.274   1.184
  605SOL    HW2 2715   6.360   6.253   1.345
  606SOL     OW 2716   3.459   6.642   4.872
  606SOL    HW1 2717   3.367   6.613   4.896
  606SOL    HW2 2718   3.458   6.736   4.837
  607SOL     OW 2719   1.684   2.572   6.118
  607SOL    HW1 2720   1.599   2.578   6.065
  607SOL    HW2 2721   1.671   2.505   6.192
  608SOL     OW 2722   3.465   1.157   6.326
  608SOL    HW1 2723   3.532   1.219   6.366
  608SOL    HW2 2724   3.507   1.066   6.316
  609SOL     OW 2725   3.596   2.889   2.134
  609SOL    HW1 2726   3.589   2.831   2.053
  609SOL    HW2 2727   3.504   2.913   2.166
  610SOL     OW 2728   4.885   3.541   1.567
  610SOL    HW1 2729   4.854   3.465   1.625
  610SOL    HW2 2730   4.889   3.509   1.472
  611SOL     OW 2731   4.260   1.417   2.736
  611SOL    HW1 2732   4.197   1.348   2.772
  611SOL    HW2 2733   4.346   1.413   2.788
  612SOL     OW 2734   4.910   4.821   3.768
  612SOL    HW1 2735   4.928   4.816   3.866
  612SOL    HW2 2736   4.840   4.890   3.750
  613SOL     OW 2737   3.867   4.649   6.215
  613SOL    HW1 2738   3.773   4.646   6.182
  613SOL    HW2 2739   3.928   4.609   6.146
  614SOL     OW 2740   2.627   6.592   6.258
  614SOL    HW1 2741   2.590   6.530   6.327
  614SOL    HW2 2742   2.584   6.682   6.267
  615SOL     OW 2743   0.249   4.838   2.868
  615SOL    HW1 2744   0.171   4.776   2.874
  615SOL    HW2 2745   0.231   4.908   2.799
  616SOL     OW 2746   6.279   3.522   3.775
  616SOL    HW1 2747   6.335   3.461   3.719
  616SOL    HW2 2748   6.206   3.470   3.818
  617SOL     OW 2749   3.380   6.683   5.973
  617SOL    HW1 2750   3.403   6.739   6.053
  617SOL    HW2 2751   3.447   6.698   5.901
  618SOL     OW 2752   1.707   0.818   3.853
  618SOL    HW1 2753   1.651   0.899   3.875
  618SOL    HW2 2754   1.727   0.768   3.937
  619SOL     OW 2755   0.782   2.200   6.285
  619SOL    HW1 2756   0.872   2.244   6.279
  619SOL    HW2 2757   0.714   2.256   6.238
  620SOL     OW 2758   4.400   3.189   0.339
  620SOL    HW1 2759   4.448   3.116   0.290
  620SOL    HW2 2760   4.450   3.212   0.422
  621SOL     OW 2761   0.137   6.001   0.650
  621SOL    HW1 2762   0.175   6.048   0.730
  621SOL    HW2 2763   0.049   6.041   0.627
  622SOL     OW 2764   0.388   0.691   6.734
  622SOL    HW1 2765   0.448   0.703   6.813
  622SOL    HW2 2766   0.299   0.657   6.764
  623SOL     OW 2767   0.332   5.064   4.953
  623SOL    HW1 2768   0.330   5.146   5.011
  623SOL    HW2 2769   0.418   5.016   4.968
  624SOL     OW 2770   1.059   1.608   1.710
  624SOL    HW1 2771   1.088   1.601   1.805
  624SOL    HW2 2772   1.139   1.613   1.650
  625SOL     OW 2773   1.536   1.134   3.046
  625SOL    HW1 2774   1.478   1.130   3.128
  625SOL    HW2 2775   1.619   1.185   3.066
  626SOL     OW 2776   3.046   5.947   4.688
  626SOL    HW1 2777   3.035   5.898   4.602
  626SOL    HW2 2778   3.085   5.886   4.757
  627SOL     OW 2779   5.316   6.615   0.097
  627SOL    HW1 2780   5.367   6.697   0.123
  627SOL    HW2 2781   5.226   6.616   0.140
  628SOL     OW 2782   5.722   4.227   3.109
  628SOL    HW1 2783   5.704   4.301   3.044
  628SOL    HW2 2784   5.705   4.139   3.065
  629SOL     OW 2785   1.242   0.018   1.292
  629SOL    HW1 2786   1.284   0.108   1.291
  629SOL    HW2 2787   1.286   6.978   1.362
  630SOL     OW 2788   2.805   1.556   1.053
  630SOL    HW1 2789   2.810   1.593   1.146
  630SOL    HW2 2790   2.883   1.588   1.000
  631SOL     OW 2791   2.825   0.598   4.362
  631SOL    HW1 2792   2.876   0.682   4.346
  631SOL    HW2 2793   2.798   0.593   4.458
  632SOL     OW 2794   2.976   0.350   1.165
  632SOL    HW1 2795   2.914   0.274   1.153
  632SOL    HW2 2796   2.926   0.429   1.203
  633SOL     OW 2797   2.232   6.893   5.175
  633SOL    HW1 2798   2.151   6.945   5.204
  633SOL    HW2 2799   2.253   6.823   5.243
  634SOL     OW 2800   2.893   5.513   1.773
  634SOL    HW1 2801   2.982   5.537   1.811
  634SOL    HW2 2802   2.877   5.415   1.785
  635SOL     OW 2803   2.908   0.107   3.273
  635SOL    HW1 2804   2.906   0.178   3.202
  635SOL    HW2 2805   2.817   0.067   3.283
  636SOL     OW 2806   4.615   5.302   6.951
  636SOL    HW1 2807   4.519   5.290   6.927
  636SOL    HW2 2808   4.664   5.216   6.936
  637SOL     OW 2809   5.946   4.292   0.168
  637SOL    HW1 2810   5.867   4.280   0.227
  637SOL    HW2 2811   5.919   4.282   0.072
  638SOL     OW 2812   5.439   1.326   2.992
  638SOL    HW1 2813   5.388   1.319   3.078
  638SOL    HW2 2814   5.508   1.397   3.000
  639SOL     OW 2815   4.843   3.908   2.035
  639SOL    HW1 2816   4.834   3.955   2.123
  639SOL    HW2 2817   4.791   3.957   1.965
  640SOL     OW 2818   2.070   3.455   5.809
  640SOL    HW1 2819   2.157   3.450   5.859
  640SOL    HW2 2820   2.046   3.551   5.796
  641SOL     OW 2821   0.118   5.771   5.334
  641SOL    HW1 2822   0.031   5.772   5.383
  641SOL    HW2 2823   0.181   5.836   5.376
  642SOL     OW 2824   1.570   4.591   6.092
  642SOL    HW1 2825   1.472   4.612   6.086
  642SOL    HW2 2826   1.603   4.611   6.184
  643SOL     OW 2827   6.084   6.132   4.952
  643SOL    HW1 2828   5.998   6.085   4.929
  643SOL    HW2 2829   6.064   6.226   4.980
  644SOL     OW 2830   2.278   6.057   1.688
  644SOL    HW1 2831   2.301   6.113   1.768
  644SOL    HW2 2832   2.194   6.092   1.647
  645SOL     OW 2833   6.656   2.350   2.905
  645SOL    HW1 2834   6.621   2.426   2.959
  645SOL    HW2 2835   6.648   2.265   2.957
  646SOL     OW 2836   0.938   2.716   4.294
  646SOL    HW1 2837   0.879   2.658   4.350
  646SOL    HW2 2838   0.889   2.799   4.268
  647SOL     OW 2839   5.267   3.203   0.140
  647SOL    HW1 2840   5.203   3.177   0.068
  647SOL    HW2 2841   5.302   3.121   0.185
  648SOL     OW 2842   4.791   2.268   4.171
  648SOL    HW1 2843   4.779   2.257   4.270
  648SOL    HW2 2844   4.735   2.344   4.140
  649SOL     OW 2845   4.518   4.581   2.025
  649SOL    HW1 2846   4.481   4.641   1.954
  649SOL    HW2 2847   4.558   4.500   1.981
  650SOL     OW 2848   4.984   4.106   0.814
  650SOL    HW1 2849   4.992   4.152   0.903
  650SOL    HW2 2850   4.936   4.019   0.826
  651SOL     OW 2851   0.770   6.446   6.181
  651SOL    HW1 2852   0.725   6.500   6.110
  651SOL    HW2 2853   0.739   6.477   6.271
  652SOL     OW 2854   4.896   1.585   2.436
  652SOL    HW1 2855   4.990   1.580   2.469
  652SOL    HW2 2856   4.868   1.495   2.403
  653SOL     OW 2857   3.482   5.008   2.571
  653SOL    HW1 2858   3.438   4.988   2.483
  653SOL    HW2 2859   3.416   4.998   2.645
  654SOL     OW 2860   6.658   5.815   6.430
  654SOL    HW1 2861   6.567   5.821   6.470
  654SOL    HW2 2862   6.715   5.753   6.483
  655SOL     OW 2863   0.474   1.423   6.931
  655SOL    HW1 2864   0.561   1.375   6.927
  655SOL    HW2 2865   0.410   1.373   6.989
  656SOL     OW 2866   2.390   6.105   1.040
  656SOL    HW1 2867   2.393   6.024   1.099
  656SOL    HW2 2868   2.301   6.150   1.050
  657SOL     OW 2869   3.565   1.494   0.115
  657SOL    HW1 2870   3.524   1.577   0.153
  657SOL    HW2 2871   3.616   1.446   0.187
  658SOL     OW 2872   3.656   5.508   6.183
  658SOL    HW1 2873   3.686   5.589   6.232
  658SOL    HW2 2874   3.609   5.536   6.099
  659SOL     OW 2875   3.820   0.815   5.514
  659SOL    HW1 2876   3.774   0.744   5.462
  659SOL    HW2 2877   3.799   0.805   5.611
  660SOL     OW 2878   3.720   5.637   3.312
  660SOL    HW1 2879   3.705   5.735   3.314
  660SOL    HW2 2880   3.639   5.590   3.346
  661SOL     OW 2881   5.748   5.403   2.756
  661SOL    HW1 2882   5.746   5.432   2.661
  661SOL    HW2 2883   5.826   5.343   2.771
  662SOL     OW 2884   3.975   1.786   0.464
  662SOL    HW1 2885   4.010   1.822   0.377
  662SOL    HW2 2886   4.048   1.738   0.512
  663SOL     OW 2887   1.695   4.461   4.805
  663SOL    HW1 2888   1.773   4.478   4.745
  663SOL    HW2 2889   1.728   4.426   4.893
  664SOL     OW 2890   5.868   7.006   6.639
  664SOL    HW1 2891   5.928   7.007   6.559
  664SOL    HW2 2892   5.921   6.977   6.719
  665SOL     OW 2893   0.836   4.720   1.872
  665SOL    HW1 2894   0.829   4.819   1.885
  665SOL    HW2 2895   0.822   4.698   1.775
  666SOL     OW 2896   4.541   1.461   1.380
  666SOL    HW1 2897   4.575   1.551   1.407
  666SOL    HW2 2898   4.551   1.450   1.281
  667SOL     OW 2899   1.284   0.316   2.387
  667SOL    HW1 2900   1.227   0.393   2.356
  667SOL    HW2 2901   1.269   0.301   2.485
  668SOL     OW 2902   5.943   3.203   0.568
  668SOL    HW1 2903   5.983   3.112   0.577
  668SOL    HW2 2904   5.851   3.195   0.530
  669SOL     OW 2905   5.038   1.571   2.952
  669SOL    HW1 2906   5.108   1.505   2.979
  669SOL    HW2 2907   5.024   1.637   3.025
  670SOL     OW 2908   3.660   1.820   2.817
  670SOL    HW1 2909   3.631   1.724   2.821
  670SOL    HW2 2910   3.614   1.865   2.740
  671SOL     OW 2911   2.179   6.215   1.925
  671SOL    HW1 2912   2.192   6.313   1.907
  671SOL    HW2 2913   2.230   6.190   2.007
  672SOL     OW 2914   0.764   7.009   2.158
  672SOL    HW1 2915   0.733   0.023   2.069
  672SOL    HW2 2916   0.812   0.066   2.205
  673SOL     OW 2917   6.014   6.896   6.841
  673SOL    HW1 2918   6.090   6.956   6.867
  673SOL    HW2 2919   6.050   6.816   6.793
  674SOL     OW 2920   5.424   0.672   3.879
  674SOL    HW1 2921   5.379   0.628   3.801
  674SOL    HW2 2922   5.369   0.749   3.909
  675SOL     OW 2923   0.607   3.515   2.944
  675SOL    HW1 2924   0.517   3.481   2.918
  675SOL    HW2 2925   0.663   3.528   2.862
  676SOL     OW 2926   2.182   6.236   6.006
  676SOL    HW1 2927   2.233   6.251   6.090
  676SOL    HW2 2928   2.182   6.319   5.950
  677SOL     OW 2929   5.791   1.999   1.230
  677SOL    HW1 2930   5.745   2.021   1.316
  677SOL    HW2 2931   5.732   1.939   1.176
  678SOL     OW 2932   1.097   5.139   3.525
  678SOL    HW1 2933   1.078   5.228   3.483
  678SOL    HW2 2934   1.016   5.107   3.574
  679SOL     OW 2935   4.753   2.111   5.037
  679SOL    HW1 2936   4.787   2.029   5.082
  679SOL    HW2 2937   4.831   2.170   5.012
  680SOL     OW 2938   6.476   6.104   3.714
  680SOL    HW1 2939   6.527   6.033   3.764
  680SOL    HW2 2940   6.488   6.192   3.759
  681SOL     OW 2941   4.722   4.616   3.039
  681SOL    HW1 2942   4.716   4.518   3.060
  681SOL    HW2 2943   4.755   4.665   3.119
  682SOL     OW 2944   0.299   1.639   3.187
  682SOL    HW1 2945   0.205   1.653   3.154
  682SOL    HW2 2946   0.306   1.548   3.229
  683SOL     OW 2947   3.481   4.155   1.226
  683SOL    HW1 2948   3.459   4.151   1.323
  683SOL    HW2 2949   3.443   4.076   1.179
  684SOL     OW 2950   6.434   1.327   5.705
  684SOL    HW1 2951   6.522   1.317   5.752
  684SOL    HW2 2952   6.427   1.255   5.635
  685SOL     OW 2953   3.100   6.972   2.901
  685SOL    HW1 2954   3.004   6.944   2.900
  685SOL    HW2 2955   3.153   6.910   2.843
  686SOL     OW 2956   4.237   0.754   5.059
  686SOL    HW1 2957   4.181   0.836   5.068
  686SOL    HW2 2958   4.210   0.703   4.977
  687SOL     OW 2959   6.705   1.297   3.971
  687SOL    HW1 2960   6.743   1.205   3.979
  687SOL    HW2 2961   6.777   1.364   3.986
  688SOL     OW 2962   5.683   1.245   7.011
  688SOL    HW1 2963   5.725   1.307   0.060
  688SOL    HW2 2964   5.619   1.296   6.953
  689SOL     OW 2965   1.817   5.395   6.844
  689SOL    HW1 2966   1.811   5.433   6.752
  689SOL    HW2 2967   1.886   5.322   6.846
  690SOL     OW 2968   5.712   4.015   3.453
  690SOL    HW1 2969   5.777   4.077   3.497
  690SOL    HW2 2970   5.762   3.947   3.399
  691SOL     OW 2971   5.924   1.417   1.256
  691SOL    HW1 2972   5.903   1.357   1.333
  691SOL    HW2 2973   5.883   1.381   1.172
  692SOL     OW 2974   1.956   1.077   4.389
  692SOL    HW1 2975   1.963   1.090   4.290
  692SOL    HW2 2976   2.023   1.008   4.418
  693SOL     OW 2977   6.193   4.960   3.202
  693SOL    HW1 2978   6.113   5.013   3.228
  693SOL    HW2 2979   6.178   4.864   3.226
  694SOL     OW 2980   4.554   6.036   4.632
  694SOL    HW1 2981   4.567   6.103   4.704
  694SOL    HW2 2982   4.472   6.060   4.579
  695SOL     OW 2983   5.061   6.973   4.063
  695SOL    HW1 2984   5.118   0.022   4.014
  695SOL    HW2 2985   5.022   6.908   3.997
  696SOL     OW 2986   5.678   4.216   2.294
  696SOL    HW1 2987   5.694   4.273   2.213
  696SOL    HW2 2988   5.740   4.138   2.293
  697SOL     OW 2989   1.084   6.556   2.061
  697SOL    HW1 2990   1.037   6.468   2.062
  697SOL    HW2 2991   1.147   6.561   2.138
  698SOL     OW 2992   5.512   5.784   6.292
  698SOL    HW1 2993   5.587   5.730   6.254
  698SOL    HW2 2994   5.543   5.878   6.307
  699SOL     OW 2995   3.893   3.523   0.559
  699SOL    HW1 2996   3.833   3.559   0.631
  699SOL    HW2 2997   3.981   3.569   0.562
  700SOL     OW 2998   4.017   6.764   5.096
  700SOL    HW1 2999   3.946   6.833   5.078
  700SOL    HW2 3000   4.106   6.798   5.065
  701SOL     OW 3001   4.306   5.033   1.009
  701SOL    HW1 3002   4.257   4.945   1.008
  701SOL    HW2 3003   4.250   5.101   1.056
  702SOL     OW 3004   4.412   0.840   4.477
  702SOL    HW1 3005   4.354   0.876   4.550
  702SOL    HW2 3006   4.502   0.819   4.514
  703SOL     OW 3007   2.913   2.692   0.240
  703SOL    HW1 3008   2.891   2.686   0.143
  703SOL    HW2 3009   2.960   2.778   0.258
  704SOL     OW 3010   3.334   1.342   5.791
  704SOL    HW1 3011   3.360   1.438   5.786
  704SOL    HW2 3012   3.235   1.334   5.802
  705SOL     OW 3013   0.160   6.313   5.484
  705SOL    HW1 3014   0.243   6.264   5.512
  705SOL    HW2 3015   0.083   6.249   5.482
  706SOL     OW 3016   4.046   0.953   5.049
  706SOL    HW1 3017   3.966   0.924   5.102
  706SOL    HW2 3018   4.037   1.050   5.027
  707SOL     OW 3019   2.496   5.748   4.032
  707SOL    HW1 3020   2.499   5.819   4.102
  707SOL    HW2 3021   2.577   5.691   4.039
  708SOL     OW 3022   4.689   6.085   4.018
  708SOL    HW1 3023   4.681   6.047   3.925
  708SOL    HW2 3024   4.780   6.064   4.054
  709SOL     OW 3025   2.363   0.496   1.748
  709SOL    HW1 3026   2.339   0.468   1.841
  709SOL    HW2 3027   2.431   0.570   1.752
  710SOL     OW 3028   5.334   3.616   2.115
  710SOL    HW1 3029   5.248   3.653   2.148
  710SOL    HW2 3030   5.333   3.516   2.125
  711SOL     OW 3031   0.182   1.623   0.306
  711SOL    HW1 3032   0.264   1.674   0.331
  711SOL    HW2 3033   0.170   1.627   0.206
  712SOL     OW 3034   5.146   3.905   0.075
  712SOL    HW1 3035   5.149   3.858   0.163
  712SOL    HW2 3036   5.197   3.991   0.082
  713SOL     OW 3037   4.268   3.541   5.193
  713SOL    HW1 3038   4.226   3.584   5.113
  713SOL    HW2 3039   4.346   3.597   5.223
  714SOL     OW 3040   5.557   6.037   2.826
  714SOL    HW1 3041   5.466   6.058   2.862
  714SOL    HW2 3042   5.614   6.118   2.830
  715SOL     OW 3043   6.064   4.690   5.539
  715SOL    HW1 3044   6.024   4.773   5.502
  715SOL    HW2 3045   6.163   4.703   5.551
  716SOL     OW 3046   3.279   2.091   3.111
  716SOL    HW1 3047   3.251   2.150   3.188
  716SOL    HW2 3048   3.215   2.014   3.104
  717SOL     OW 3049   5.132   5.118   4.060
  717SOL    HW1 3050   5.073   5.157   3.989
  717SOL    HW2 3051   5.217   5.086   4.018
  718SOL     OW 3052   6.397   2.389   5.267
  718SOL    HW1 3053   6.409   2.382   5.168
  718SOL    HW2 3054   6.302   2.414   5.287
  719SOL     OW 3055   5.187   6.479   3.487
  719SOL    HW1 3056   5.134   6.498   3.570
  719SOL    HW2 3057   5.137   6.514   3.407
  720SOL     OW 3058   2.699   1.034   1.032
  720SOL    HW1 3059   2.732   1.126   1.013
  720SOL    HW2 3060   2.696   1.018   1.130
  721SOL     OW 3061   6.786   2.973   1.984
  721SOL    HW1 3062   6.798   2.892   2.043
  721SOL    HW2 3063   6.775   3.054   2.042
  722SOL     OW 3064   4.715   6.049   0.833
  722SOL    HW1 3065   4.745   6.020   0.743
  722SOL    HW2 3066   4.764   6.131   0.861
  723SOL     OW 3067   2.279   0.508   4.501
  723SOL    HW1 3068   2.263   0.474   4.593
  723SOL    HW2 3069   2.329   0.595   4.505
  724SOL     OW 3070   1.087   1.610   4.732
  724SOL    HW1 3071   1.145   1.544   4.684
  724SOL    HW2 3072   1.083   1.695   4.681
  725SOL     OW 3073   1.924   4.545   2.978
  725SOL    HW1 3074   2.010   4.498   3.001
  725SOL    HW2 3075   1.848   4.496   3.019
  726SOL     OW 3076   1.752   4.011   1.135
  726SOL    HW1 3077   1.659   4.044   1.153
  726SOL    HW2 3078   1.750   3.947   1.058
  727SOL     OW 3079   3.462   4.956   4.861
  727SOL    HW1 3080   3.498   5.031   4.805
  727SOL    HW2 3081   3.508   4.871   4.835
  728SOL     OW 3082   6.765   3.206   3.781
  728SOL    HW1 3083   6.689   3.159   3.734
  728SOL    HW2 3084   6.749   3.204   3.879
  729SOL     OW 3085   0.562   4.150   1.044
  729SOL    HW1 3086   0.609   4.123   1.128
  729SOL    HW2 3087   0.614   4.223   0.999
  730SOL     OW 3088   4.500   1.394   2.925
  730SOL    HW1 3089   4.498   1.310   2.979
  730SOL    HW2 3090   4.589   1.438   2.935
  731SOL     OW 3091   4.471   4.485   4.291
  731SOL    HW1 3092   4.496   4.388   4.293
  731SOL    HW2 3093   4.501   4.528   4.377
  732SOL     OW 3094   3.493   0.963   4.889
  732SOL    HW1 3095   3.536   0.926   4.972
  732SOL    HW2 3096   3.559   1.019   4.839
  733SOL     OW 3097   6.248   5.058   3.717
  733SOL    HW1 3098   6.241   5.150   3.755
  733SOL    HW2 3099   6.179   5.046   3.645
  734SOL     OW 3100   6.687   6.501   2.777
  734SOL    HW1 3101   6.760   6.517   2.711
  734SOL    HW2 3102   6.618   6.440   2.737
  735SOL     OW 3103   4.249   6.909   2.616
  735SOL    HW1 3104   4.257   6.810   2.625
  735SOL    HW2 3105   4.329   6.953   2.657
  736SOL     OW 3106   1.872   1.997   3.483
  736SOL    HW1 3107   1.798   2.041   3.431
  736SOL    HW2 3108   1.934   2.067   3.519
  737SOL     OW 3109   3.827   1.117   6.336
  737SOL    HW1 3110   3.873   1.029   6.328
  737SOL    HW2 3111   3.850   1.174   6.257
  738SOL     OW 3112   1.920   4.729   0.396
  738SOL    HW1 3113   1.924   4.823   0.429
  738SOL    HW2 3114   1.944   4.666   0.469
  739SOL     OW 3115   1.878   6.844   3.745
  739SOL    HW1 3116   1.828   6.915   3.696
  739SOL    HW2 3117   1.953   6.886   3.797
  740SOL     OW 3118   5.160   3.595   3.384
  740SOL    HW1 3119   5.230   3.527   3.363
  740SOL    HW2 3120   5.074   3.549   3.405
  741SOL     OW 3121   3.173   1.293   2.843
  741SOL    HW1 3122   3.190   1.199   2.875
  741SOL    HW2 3123   3.117   1.341   2.910
  742SOL     OW 3124   1.576   6.476   1.922
  742SOL    HW1 3125   1.605   6.449   1.830
  742SOL    HW2 3126   1.598   6.572   1.937
  743SOL     OW 3127   0.552   5.991   2.881
  743SOL    HW1 3128   0.646   5.994   2.915
  743SOL    HW2 3129   0.550   6.019   2.785
  744SOL     OW 3130   5.167   1.681   6.870
  744SOL    HW1 3131   5.250   1.733   6.888
  744SOL    HW2 3132   5.190   1.587   6.844
  745SOL     OW 3133   2.250   6.451   4.636
  745SOL    HW1 3134   2.157   6.413   4.633
  745SOL    HW2 3135   2.316   6.378   4.617
  746SOL     OW 3136   0.148   4.678   4.523
  746SOL    HW1 3137   0.109   4.769   4.540
  746SOL    HW2 3138   0.230   4.686   4.466
  747SOL     OW 3139   4.682   5.420   2.826
  747SOL    HW1 3140   4.598   5.468   2.800
  747SOL    HW2 3141   4.758   5.451   2.769
  748SOL     OW 3142   5.542   4.857   1.289
  748SOL    HW1 3143   5.533   4.921   1.212
  748SOL    HW2 3144   5.623   4.800   1.275
  749SOL     OW 3145   5.099   4.617   5.147
  749SOL    HW1 3146   5.086   4.652   5.054
  749SOL    HW2 3147   5.138   4.689   5.205
  750SOL     OW 3148   2.275   1.987   3.184
  750SOL    HW1 3149   2.196   2.030   3.140
  750SOL    HW2 3150   2.248   1.948   3.271
  751SOL     OW 3151   3.397   0.722   0.699
  751SOL    HW1 3152   3.367   0.724   0.604
  751SOL    HW2 3153   3.401   0.815   0.735
  752SOL     OW 3154   3.739   2.831   5.160
  752SOL    HW1 3155   3.770   2.861   5.070
  752SOL    HW2 3156   3.818   2.805   5.216
  753SOL     OW 3157   3.581   4.142   3.830
  753SOL    HW1 3158   3.561   4.112   3.736
  753SOL    HW2 3159   3.498   4.179   3.872
  754SOL     OW 3160   4.798   0.295   0.233
  754SOL    HW1 3161   4.841   0.239   0.304
  754SOL    HW2 3162   4.829   0.265   0.143
  755SOL     OW 3163   4.496   4.572   5.260
  755SOL    HW1 3164   4.529   4.510   5.331
  755SOL    HW2 3165   4.443   4.520   5.192
  756SOL     OW 3166   2.394   4.903   6.088
  756SOL    HW1 3167   2.340   4.936   6.165
  756SOL    HW2 3168   2.389   4.969   6.013
  757SOL     OW 3169   1.737   6.204   1.849
  757SOL    HW1 3170   1.657   6.156   1.888
  757SOL    HW2 3171   1.724   6.215   1.751
  758SOL     OW 3172   4.841   0.969   4.344
  758SOL    HW1 3173   4.894   0.913   4.408
  758SOL    HW2 3174   4.820   1.057   4.385
  759SOL     OW 3175   0.245   3.731   4.098
  759SOL    HW1 3176   0.169   3.783   4.059
  759SOL    HW2 3177   0.322   3.733   4.034
  760SOL     OW 3178   6.821   4.941   3.618
  760SOL    HW1 3179   6.874   4.856   3.615
  760SOL    HW2 3180   6.795   4.967   3.525
  761SOL     OW 3181   5.174   5.090   6.467
  761SOL    HW1 3182   5.190   4.991   6.469
  761SOL    HW2 3183   5.151   5.119   6.375
  762SOL     OW 3184   4.022   5.869   3.405
  762SOL    HW1 3185   3.962   5.886   3.327
  762SOL    HW2 3186   3.972   5.822   3.477
  763SOL     OW 3187   5.224   0.280   0.486
  763SOL    HW1 3188   5.135   0.284   0.531
  763SOL    HW2 3189   5.296   0.291   0.554
  764SOL     OW 3190   5.310   6.398   5.291
  764SOL    HW1 3191   5.293   6.350   5.377
  764SOL    HW2 3192   5.373   6.474   5.307
  765SOL     OW 3193   6.250   6.640   0.702
  765SOL    HW1 3194   6.305   6.622   0.784
  765SOL    HW2 3195   6.291   6.593   0.624
  766SOL     OW 3196   2.611   1.714   4.440
  766SOL    HW1 3197   2.526   1.700   4.490
  766SOL    HW2 3198   2.689   1.703   4.502
  767SOL     OW 3199   6.518   5.770   4.207
  767SOL    HW1 3200   6.563   5.858   4.188
  767SOL    HW2 3201   6.469   5.740   4.125
  768SOL     OW 3202   2.379   5.638   2.990
  768SOL    HW1 3203   2.370   5.738   2.999
  768SOL    HW2 3204   2.302   5.603   2.936
  769SOL     OW 3205   3.113   2.025   5.416
  769SOL    HW1 3206   3.159   2.113   5.418
  769SOL    HW2 3207   3.063   2.016   5.330
  770SOL     OW 3208   1.524   4.998   5.802
  770SOL    HW1 3209   1.429   4.992   5.774
  770SOL    HW2 3210   1.559   4.906   5.821
  771SOL     OW 3211   1.655   4.858   2.820
  771SOL    HW1 3212   1.694   4.769   2.793
  771SOL    HW2 3213   1.565   4.843   2.860
  772SOL     OW 3214   5.327   4.620   0.277
  772SOL    HW1 3215   5.342   4.625   0.376
  772SOL    HW2 3216   5.402   4.569   0.235
  773SOL     OW 3217   2.070   4.388   3.956
  773SOL    HW1 3218   2.054   4.325   4.032
  773SOL    HW2 3219   2.099   4.337   3.876
  774SOL     OW 3220   2.144   1.287   3.492
  774SOL    HW1 3221   2.232   1.299   3.446
  774SOL    HW2 3222   2.096   1.374   3.496
  775SOL     OW 3223   1.277   4.553   2.714
  775SOL    HW1 3224   1.266   4.546   2.813
  775SOL    HW2 3225   1.239   4.472   2.670
  776SOL     OW 3226   2.415   5.305   6.342
  776SOL    HW1 3227   2.324   5.313   6.383
  776SOL    HW2 3228   2.407   5.314   6.242
  777SOL     OW 3229   1.903   3.635   6.361
  777SOL    HW1 3230   1.945   3.725   6.371
  777SOL    HW2 3231   1.969   3.564   6.389
  778SOL     OW 3232   3.377   5.550   6.715
  778SOL    HW1 3233   3.286   5.522   6.743
  778SOL    HW2 3234   3.445   5.508   6.776
  779SOL     OW 3235   6.411   2.211   2.781
  779SOL    HW1 3236   6.483   2.280   2.777
  779SOL    HW2 3237   6.449   2.121   2.762
  780SOL     OW 3238   6.976   2.149   4.519
  780SOL    HW1 3239   6.888   2.103   4.505
  780SOL    HW2 3240   6.960   2.239   4.558
  781SOL     OW 3241   0.436   4.443   6.824
  781SOL    HW1 3242   0.493   4.405   6.897
  781SOL    HW2 3243   0.398   4.368   6.769
  782SOL     OW 3244   1.996   3.760   5.366
  782SOL    HW1 3245   1.999   3.838   5.429
  782SOL    HW2 3246   2.063   3.773   5.293
  783SOL     OW 3247   6.472   4.742   6.912
  783SOL    HW1 3248   6.546   4.796   6.952
  783SOL    HW2 3249   6.436   4.680   6.981
  784SOL     OW 3250   2.035   6.254   0.725
  784SOL    HW1 3251   2.024   6.330   0.661
  784SOL    HW2 3252   2.093   6.183   0.684
  785SOL     OW 3253   0.426   1.051   4.409
  785SOL    HW1 3254   0.334   1.065   4.447
  785SOL    HW2 3255   0.420   0.990   4.329
  786SOL     OW 3256   5.901   0.963   4.266
  786SOL    HW1 3257   5.809   0.975   4.304
  786SOL    HW2 3258   5.963   1.031   4.305
  787SOL     OW 3259   2.043   6.878   1.562
  787SOL    HW1 3260   2.141   6.901   1.561
  787SOL    HW2 3261   2.007   6.888   1.655
  788SOL     OW 3262   2.210   2.885   2.150
  788SOL    HW1 3263   2.230   2.894   2.248
  788SOL    HW2 3264   2.253   2.802   2.115
  789SOL     OW 3265   4.158   4.746   2.568
  789SOL    HW1 3266   4.214   4.704   2.639
  789SOL    HW2 3267   4.068   4.702   2.566
  790SOL     OW 3268   0.102   2.985   2.489
  790SOL    HW1 3269   0.150   2.902   2.458
  790SOL    HW2 3270   0.169   3.052   2.521
  791SOL     OW 3271   3.214   0.188   3.870
  791SOL    HW1 3272   3.117   0.212   3.865
  791SOL    HW2 3273   3.224   0.089   3.861
  792SOL     OW 3274   2.456   0.644   0.660
  792SOL    HW1 3275   2.405   0.626   0.743
  792SOL    HW2 3276   2.396   0.686   0.592
  793SOL     OW 3277   2.024   6.252   4.713
  793SOL    HW1 3278   2.066   6.164   4.688
  793SOL    HW2 3279   1.978   6.290   4.633
  794SOL     OW 3280   2.909   3.251   2.624
  794SOL    HW1 3281   2.877   3.220   2.714
  794SOL    HW2 3282   2.936   3.347   2.629
  795SOL     OW 3283   4.934   0.971   5.556
  795SOL    HW1 3284   4.996   1.020   5.617
  795SOL    HW2 3285   4.846   1.018   5.553
  796SOL     OW 3286   0.733   1.992   0.058
  796SOL    HW1 3287   0.727   2.091   0.044
  796SOL    HW2 3288   0.803   1.972   0.126
  797SOL     OW 3289   3.319   6.278   1.248
  797SOL    HW1 3290   3.362   6.221   1.179
  797SOL    HW2 3291   3.295   6.366   1.209
  798SOL     OW 3292   4.957   4.724   1.231
  798SOL    HW1 3293   4.937   4.699   1.136
  798SOL    HW2 3294   5.001   4.648   1.277
  799SOL     OW 3295   2.752   2.895   5.879
  799SOL    HW1 3296   2.808   2.978   5.868
  799SOL    HW2 3297   2.674   2.915   5.939
  800SOL     OW 3298   5.896   3.095   3.661
  800SOL    HW1 3299   5.879   3.015   3.604
  800SOL    HW2 3300   5.991   3.094   3.693
  801SOL     OW 3301   1.834   5.761   6.436
  801SOL    HW1 3302   1.779   5.681   6.413
  801SOL    HW2 3303   1.815   5.835   6.371
  802SOL     OW 3304   4.454   2.540   6.525
  802SOL    HW1 3305   4.512   2.507   6.600
  802SOL    HW2 3306   4.384   2.471   6.505
  803SOL     OW 3307   2.355   2.221   3.987
  803SOL    HW1 3308   2.380   2.316   3.972
  803SOL    HW2 3309   2.257   2.214   4.008
  804SOL     OW 3310   5.178   0.369   2.766
  804SOL    HW1 3311   5.222   0.422   2.839
  804SOL    HW2 3312   5.197   0.271   2.780
  805SOL     OW 3313   3.554   0.841   4.046
  805SOL    HW1 3314   3.597   0.897   3.975
  805SOL    HW2 3315   3.537   0.749   4.010
  806SOL     OW 3316   3.216   6.486   5.510
  806SOL    HW1 3317   3.298   6.534   5.543
  806SOL    HW2 3318   3.236   6.388   5.503
  807SOL     OW 3319   0.841   6.074   5.716
  807SOL    HW1 3320   0.831   6.171   5.694
  807SOL    HW2 3321   0.761   6.023   5.684
  808SOL     OW 3322   5.291   2.807   6.208
  808SOL    HW1 3323   5.240   2.836   6.127
  808SOL    HW2 3324   5.358   2.737   6.181
  809SOL     OW 3325   3.182   5.905   6.732
  809SOL    HW1 3326   3.155   5.853   6.651
  809SOL    HW2 3327   3.151   6.000   6.723
  810SOL     OW 3328   3.538   3.782   6.996
  810SOL    HW1 3329   3.517   3.685   6.991
  810SOL    HW2 3330   3.638   3.794   6.996
  811SOL     OW 3331   5.860   5.727   4.739
  811SOL    HW1 3332   5.951   5.709   4.774
  811SOL    HW2 3333   5.861   5.727   4.639
  812SOL     OW 3334   1.024   3.597   1.374
  812SOL    HW1 3335   0.996   3.553   1.289
  812SOL    HW2 3336   1.124   3.598   1.379
  813SOL     OW 3337   2.047   1.456   5.032
  813SOL    HW1 3338   1.958   1.502   5.034
  813SOL    HW2 3339   2.069   1.432   4.937
  814SOL     OW 3340   0.867   4.223   2.330
  814SOL    HW1 3341   0.798   4.219   2.258
  814SOL    HW2 3342   0.829   4.273   2.409
  815SOL     OW 3343   4.701   2.777   4.730
  815SOL    HW1 3344   4.625   2.712   4.730
  815SOL    HW2 3345   4.681   2.851   4.795
  816SOL     OW 3346   5.408   3.327   6.401
  816SOL    HW1 3347   5.470   3.264   6.355
  816SOL    HW2 3348   5.357   3.277   6.472
  817SOL     OW 3349   0.315   4.808   6.230
  817SOL    HW1 3350   0.300   4.861   6.146
  817SOL    HW2 3351   0.236   4.748   6.246
  818SOL     OW 3352   0.301   1.831   5.284
  818SOL    HW1 3353   0.345   1.743   5.265
  818SOL    HW2 3354   0.303   1.848   5.382
  819SOL     OW 3355   5.053   3.177   1.636
  819SOL    HW1 3356   5.049   3.079   1.656
  819SOL    HW2 3357   5.139   3.214   1.673
  820SOL     OW 3358   2.698   2.088   5.251
  820SOL    HW1 3359   2.645   2.157   5.202
  820SOL    HW2 3360   2.636   2.015   5.282
  821SOL     OW 3361   5.076   3.336   6.937
  821SOL    HW1 3362   5.008   3.365   7.005
  821SOL    HW2 3363   5.069   3.393   6.856
  822SOL     OW 3364   0.243   4.973   3.163
  822SOL    HW1 3365   0.253   4.989   3.065
  822SOL    HW2 3366   0.327   5.002   3.210
  823SOL     OW 3367   1.841   2.824   4.323
  823SOL    HW1 3368   1.789   2.909   4.333
  823SOL    HW2 3369   1.890   2.805   4.408
  824SOL     OW 3370   5.072   0.054   6.740
  824SOL    HW1 3371   5.123   0.024   6.821
  824SOL    HW2 3372   5.001   0.118   6.767
  825SOL     OW 3373   6.161   5.967   0.771
  825SOL    HW1 3374   6.085   5.917   0.813
  825SOL    HW2 3375   6.144   5.978   0.673
  826SOL     OW 3376   3.800   1.828   0.187
  826SOL    HW1 3377   3.830   1.922   0.174
  826SOL    HW2 3378   3.720   1.810   0.129
  827SOL     OW 3379   3.340   3.751   4.590
  827SOL    HW1 3380   3.347   3.747   4.491
  827SOL    HW2 3381   3.411   3.693   4.631
  828SOL     OW 3382   6.908   6.722   6.411
  828SOL    HW1 3383   7.004   6.698   6.426
  828SOL    HW2 3384   6.901   6.819   6.389
  829SOL     OW 3385   3.778   3.563   2.094
  829SOL    HW1 3386   3.817   3.471   2.092
  829SOL    HW2 3387   3.707   3.568   2.165
  830SOL     OW 3388   0.074   4.825   6.724
  830SOL    HW1 3389   0.113   4.733   6.718
  830SOL    HW2 3390   0.147   4.893   6.725
  831SOL     OW 3391   5.721   0.866   2.305
  831SOL    HW1 3392   5.714   0.814   2.390
  831SOL    HW2 3393   5.672   0.818   2.232
  832SOL     OW 3394   3.003   1.930   4.426
  832SOL    HW1 3395   2.945   1.873   4.484
  832SOL    HW2 3396   3.046   2.001   4.481
  833SOL     OW 3397   4.022   3.104   6.966
  833SOL    HW1 3398   3.942   3.099   6.906
  833SOL    HW2 3399   4.056   3.198   6.968
  834SOL     OW 3400   5.594   2.935   0.557
  834SOL    HW1 3401   5.496   2.923   0.574
  834SOL    HW2 3402   5.624   2.870   0.487
  835SOL     OW 3403   7.005   0.302   4.632
  835SOL    HW1 3404   7.000   0.210   4.670
  835SOL    HW2 3405   6.928   0.356   4.666
  836SOL     OW 3406   4.979   0.752   4.803
  836SOL    HW1 3407   4.973   0.851   4.813
  836SOL    HW2 3408   5.056   0.717   4.856
  837SOL     OW 3409   1.260   0.665   0.124
  837SOL    HW1 3410   1.324   0.602   0.168
  837SOL    HW2 3411   1.286   0.677   0.028
  838SOL     OW 3412   1.873   6.209   3.169
  838SOL    HW1 3413   1.866   6.283   3.236
  838SOL    HW2 3414   1.801   6.218   3.100
  839SOL     OW 3415   1.301   2.215   0.969
  839SOL    HW1 3416   1.291   2.236   0.871
  839SOL    HW2 3417   1.377   2.151   0.981
  840SOL     OW 3418   4.620   5.075   0.647
  840SOL    HW1 3419   4.646   5.171   0.634
  840SOL    HW2 3420   4.626   5.027   0.559
  841SOL     OW 3421   2.588   5.260   6.559
  841SOL    HW1 3422   2.603   5.335   6.623
  841SOL    HW2 3423   2.560   5.297   6.470
  842SOL     OW 3424   3.994   5.823   0.758
  842SOL    HW1 3425   4.042   5.777   0.833
  842SOL    HW2 3426   4.060   5.871   0.701
  843SOL     OW 3427   1.373   0.567   1.962
  843SOL    HW1 3428   1.325   0.516   1.891
  843SOL    HW2 3429   1.366   0.665   1.945
  844SOL     OW 3430   6.987   0.525   1.817
  844SOL    HW1 3431   6.942   0.614   1.817
  844SOL    HW2 3432   6.953   0.471   1.894
  845SOL     OW 3433   3.580   1.570   2.772
  845SOL    HW1 3434   3.483   1.588   2.785
  845SOL    HW2 3435   3.596   1.533   2.681
  846SOL     OW 3436   2.056   2.241   0.626
  846SOL    HW1 3437   2.137   2.197   0.589
  846SOL    HW2 3438   2.043   2.212   0.721
  847SOL     OW 3439   2.619   3.694   1.586
  847SOL    HW1 3440   2.617   3.749   1.503
  847SOL    HW2 3441   2.712   3.660   1.602
  848SOL     OW 3442   6.495   6.102   0.205
  848SOL    HW1 3443   6.505   6.191   0.159
  848SOL    HW2 3444   6.472   6.116   0.301
  849SOL     OW 3445   5.782   2.831   6.931
  849SOL    HW1 3446   5.832   2.757   6.885
  849SOL    HW2 3447   5.845   2.881   6.991
  850SOL     OW 3448   1.480   0.861   4.378
  850SOL    HW1 3449   1.399   0.806   4.399
  850SOL    HW2 3450   1.501   0.920   4.455
  851SOL     OW 3451   5.357   2.860   6.484
  851SOL    HW1 3452   5.333   2.832   6.390
  851SOL    HW2 3453   5.315   2.948   6.504
  852SOL     OW 3454   6.916   4.092   2.081
  852SOL    HW1 3455   6.819   4.097   2.058
  852SOL    HW2 3456   6.958   4.016   2.031
  853SOL     OW 3457   2.925   3.171   0.701
  853SOL    HW1 3458   3.018   3.136   0.712
  853SOL    HW2 3459   2.880   3.173   0.790
  854SOL     OW 3460   6.458   6.618   5.546
  854SOL    HW1 3461   6.470   6.533   5.598
  854SOL    HW2 3462   6.477   6.696   5.605
  855SOL     OW 3463   5.785   1.653   0.533
  855SOL    HW1 3464   5.842   1.734   0.548
  855SOL    HW2 3465   5.699   1.663   0.583
  856SOL     OW 3466   2.069   5.462   1.998
  856SOL    HW1 3467   2.035   5.548   1.959
  856SOL    HW2 3468   2.042   5.386   1.939
  857SOL     OW 3469   6.983   5.310   4.893
  857SOL    HW1 3470   6.965   5.284   4.988
  857SOL    HW2 3471   6.896   5.325   4.846
  858SOL     OW 3472   4.526   4.136   0.160
  858SOL    HW1 3473   4.610   4.082   0.149
  858SOL    HW2 3474   4.462   4.085   0.218
  859SOL     OW 3475   5.037   5.437   5.295
  859SOL    HW1 3476   4.972   5.510   5.317
  859SOL    HW2 3477   5.100   5.424   5.372
  860SOL     OW 3478   4.712   2.872   6.460
  860SOL    HW1 3479   4.721   2.843   6.556
  860SOL    HW2 3480   4.751   2.963   6.449
  861SOL     OW 3481   1.985   5.462   2.273
  861SOL    HW1 3482   2.057   5.413   2.322
  861SOL    HW2 3483   1.992   5.442   2.175
  862SOL     OW 3484   0.600   3.962   3.677
  862SOL    HW1 3485   0.504   3.943   3.658
  862SOL    HW2 3486   0.640   4.014   3.601
  863SOL     OW 3487   6.395   0.563   1.388
  863SOL    HW1 3488   6.467   0.505   1.350
  863SOL    HW2 3489   6.374   0.533   1.482
  864SOL     OW 3490   6.031   5.979   2.953
  864SOL    HW1 3491   5.939   5.940   2.956
  864SOL    HW2 3492   6.031   6.067   3.001
  865SOL     OW 3493   1.678   5.829   4.757
  865SOL    HW1 3494   1.662   5.795   4.665
  865SOL    HW2 3495   1.775   5.851   4.769
  866SOL     OW 3496   3.645   0.404   2.083
  866SOL    HW1 3497   3.593   0.371   2.161
  866SOL    HW2 3498   3.671   0.499   2.097
  867SOL     OW 3499   6.031   2.806   5.853
  867SOL    HW1 3500   5.985   2.762   5.930
  867SOL    HW2 3501   6.020   2.749   5.771
  868SOL     OW 3502   0.355   2.409   1.424
  868SOL    HW1 3503   0.390   2.501   1.438
  868SOL    HW2 3504   0.266   2.400   1.469
  869SOL     OW 3505   6.986   3.752   3.006
  869SOL    HW1 3506   0.062   3.747   3.044
  869SOL    HW2 3507   6.953   3.846   3.010
  870SOL     OW 3508   3.637   5.371   2.364
  870SOL    HW1 3509   3.595   5.352   2.276
  870SOL    HW2 3510   3.597   5.454   2.404
  871SOL     OW 3511   4.898   2.011   3.422
  871SOL    HW1 3512   4.966   2.076   3.388
  871SOL    HW2 3513   4.807   2.043   3.396
  872SOL     OW 3514   1.129   2.161   4.881
  872SOL    HW1 3515   1.059   2.230   4.900
  872SOL    HW2 3516   1.218   2.205   4.875
  873SOL     OW 3517   4.286   0.041   6.332
  873SOL    HW1 3518   4.216   0.098   6.288
  873SOL    HW2 3519   4.330   0.092   6.405
  874SOL     OW 3520   5.395   3.552   1.797
  874SOL    HW1 3521   5.336   3.600   1.862
  874SOL    HW2 3522   5.481   3.529   1.842
  875SOL     OW 3523   4.845   5.579   1.845
  875SOL    HW1 3524   4.849   5.517   1.923
  875SOL    HW2 3525   4.780   5.542   1.778
  876SOL     OW 3526   6.221   0.077   0.237
  876SOL    HW1 3527   6.167   0.035   0.311
  876SOL    HW2 3528   6.219   0.177   0.247
  877SOL     OW 3529   1.676   3.956   0.157
  877SOL    HW1 3530   1.717   3.975   0.067
  877SOL    HW2 3531   1.579   3.980   0.155
  878SOL     OW 3532   3.844   6.356   4.555
  878SOL    HW1 3533   3.911   6.394   4.619
  878SOL    HW2 3534   3.869   6.382   4.461
  879SOL     OW 3535   5.810   6.553   6.659
  879SOL    HW1 3536   5.845   6.469   6.617
  879SOL    HW2 3537   5.730   6.531   6.716
  880SOL     OW 3538   2.881   3.472   2.819
  880SOL    HW1 3539   2.868   3.510   2.727
  880SOL    HW2 3540   2.968   3.505   2.856
  881SOL     OW 3541   4.526   1.332   0.433
  881SOL    HW1 3542   4.489   1.366   0.347
  881SOL    HW2 3543   4.603   1.390   0.461
  882SOL     OW 3544   1.429   2.953   3.258
  882SOL    HW1 3545   1.529   2.966   3.260
  882SOL    HW2 3546   1.391   2.974   3.347
  883SOL     OW 3547   3.094   6.948   3.414
  883SOL    HW1 3548   3.188   6.977   3.399
  883SOL    HW2 3549   3.032   7.006   3.360
  884SOL     OW 3550   3.726   3.753   5.687
  884SOL    HW1 3551   3.646   3.695   5.672
  884SOL    HW2 3552   3.805   3.711   5.643
  885SOL     OW 3553   4.475   2.767   6.371
  885SOL    HW1 3554   4.565   2.809   6.382
  885SOL    HW2 3555   4.472   2.682   6.422
  886SOL     OW 3556   3.412   2.050   6.854
  886SOL    HW1 3557   3.509   2.027   6.862
  886SOL    HW2 3558   3.382   2.036   6.759
  887SOL     OW 3559   5.138   1.122   5.398
  887SOL    HW1 3560   5.199   1.168   5.462
  887SOL    HW2 3561   5.080   1.057   5.447
  888SOL     OW 3562   0.104   5.951   2.372
  888SOL    HW1 3563   0.072   5.859   2.352
  888SOL    HW2 3564   0.098   5.968   2.470
  889SOL     OW 3565   0.808   3.861   0.109
  889SOL    HW1 3566   0.881   3.796   0.128
  889SOL    HW2 3567   0.792   3.918   0.190
  890SOL     OW 3568   2.434   6.256   4.555
  890SOL    HW1 3569   2.459   6.257   4.458
  890SOL    HW2 3570   2.515   6.235   4.610
  891SOL     OW 3571   4.902   5.014   2.239
  891SOL    HW1 3572   4.875   5.099   2.193
  891SOL    HW2 3573   4.848   5.003   2.322
  892SOL     OW 3574   2.271   4.416   0.636
  892SOL    HW1 3575   2.337   4.465   0.578
  892SOL    HW2 3576   2.298   4.422   0.731
  893SOL     OW 3577   1.935   5.998   2.606
  893SOL    HW1 3578   2.028   5.981   2.573
  893SOL    HW2 3579   1.878   5.918   2.587
  894SOL     OW 3580   0.941   3.874   1.406
  894SOL    HW1 3581   1.022   3.932   1.393
  894SOL    HW2 3582   0.968   3.778   1.398
  895SOL     OW 3583   0.493   5.642   4.099
  895SOL    HW1 3584   0.473   5.689   4.013
  895SOL    HW2 3585   0.409   5.601   4.135
  896SOL     OW 3586   0.498   1.003   6.600
  896SOL    HW1 3587   0.469   0.907   6.590
  896SOL    HW2 3588   0.463   1.056   6.524
  897SOL     OW 3589   4.582   0.817   0.376
  897SOL    HW1 3590   4.548   0.788   0.466
  897SOL    HW2 3591   4.644   0.895   0.387
  898SOL     OW 3592   4.101   0.266   3.314
  898SOL    HW1 3593   4.146   0.182   3.342
  898SOL    HW2 3594   4.024   0.245   3.254
  899SOL     OW 3595   6.863   5.533   0.165
  899SOL    HW1 3596   6.912   5.492   0.242
  899SOL    HW2 3597   6.928   5.574   0.102
  900SOL     OW 3598   5.434   5.594   1.347
  900SOL    HW1 3599   5.366   5.667   1.349
  900SOL    HW2 3600   5.485   5.592   1.433
  901SOL     OW 3601   1.131   0.585   3.100
  901SOL    HW1 3602   1.152   0.669   3.151
  901SOL    HW2 3603   1.140   0.506   3.161
  902SOL     OW 3604   6.090   2.930   1.690
  902SOL    HW1 3605   6.053   2.843   1.657
  902SOL    HW2 3606   6.151   2.914   1.767
  903SOL     OW 3607   6.948   1.983   1.286
  903SOL    HW1 3608   6.967   1.922   1.209
  903SOL    HW2 3609   6.986   2.074   1.266
  904SOL     OW 3610   2.869   1.031   2.258
  904SOL    HW1 3611   2.823   1.021   2.346
  904SOL    HW2 3612   2.826   0.972   2.190
  905SOL     OW 3613   5.631   2.550   6.459
  905SOL    HW1 3614   5.685   2.562   6.376
  905SOL    HW2 3615   5.644   2.457   6.494
  906SOL     OW 3616   5.287   2.729   6.849
  906SOL    HW1 3617   5.244   2.693   6.766
  906SOL    HW2 3618   5.383   2.699   6.852
  907SOL     OW 3619   4.930   4.448   6.527
  907SOL    HW1 3620   4.845   4.396   6.512
  907SOL    HW2 3621   4.931   4.482   6.621
  908SOL     OW 3622   1.381   4.491   3.034
  908SOL    HW1 3623   1.352   4.534   3.119
  908SOL    HW2 3624   1.361   4.393   3.037
  909SOL     OW 3625   5.390   5.320   6.368
  909SOL    HW1 3626   5.425   5.227   6.362
  909SOL    HW2 3627   5.428   5.375   6.293
  910SOL     OW 3628   2.379   4.826   1.152
  910SOL    HW1 3629   2.357   4.735   1.189
  910SOL    HW2 3630   2.370   4.894   1.225
  911SOL     OW 3631   1.143   4.867   6.179
  911SOL    HW1 3632   1.195   4.789   6.145
  911SOL    HW2 3633   1.125   4.855   6.276
  912SOL     OW 3634   5.330   1.971   4.362
  912SOL    HW1 3635   5.289   1.955   4.452
  912SOL    HW2 3636   5.427   1.994   4.374
  913SOL     OW 3637   5.460   6.771   2.570
  913SOL    HW1 3638   5.514   6.808   2.646
  913SOL    HW2 3639   5.520   6.718   2.510
  914SOL     OW 3640   2.736   6.861   6.917
  914SOL    HW1 3641   2.711   6.833   6.824
  914SOL    HW2 3642   2.772   6.782   6.967
  915SOL     OW 3643   5.530   5.794   1.039
  915SOL    HW1 3644   5.567   5.764   0.951
  915SOL    HW2 3645   5.431   5.805   1.031
  916SOL     OW 3646   1.744   3.083   2.568
  916SOL    HW1 3647   1.676   3.116   2.634
  916SOL    HW2 3648   1.698   3.041   2.491
  917SOL     OW 3649   0.445   6.753   0.381
  917SOL    HW1 3650   0.534   6.762   0.426
  917SOL    HW2 3651   0.446   6.670   0.324
  918SOL     OW 3652   2.661   5.899   0.249
  918SOL    HW1 3653   2.751   5.943   0.246
  918SOL    HW2 3654   2.669   5.805   0.217
  919SOL     OW 3655   5.604   1.569   5.690
  919SOL    HW1 3656   5.600   1.606   5.783
  919SOL    HW2 3657   5.522   1.596   5.640
  920SOL     OW 3658   2.786   5.034   2.408
  920SOL    HW1 3659   2.753   4.979   2.330
  920SOL    HW2 3660   2.804   4.974   2.486
  921SOL     OW 3661   5.041   5.552   4.845
  921SOL    HW1 3662   4.945   5.568   4.866
  921SOL    HW2 3663   5.053   5.458   4.814
  922SOL     OW 3664   3.405   2.972   4.027
  922SOL    HW1 3665   3.484   3.012   4.073
  922SOL    HW2 3666   3.326   2.977   4.088
  923SOL     OW 3667   2.277   3.482   5.306
  923SOL    HW1 3668   2.360   3.436   5.273
  923SOL    HW2 3669   2.299   3.575   5.335
  924SOL     OW 3670   6.948   3.034   1.767
  924SOL    HW1 3671   6.949   3.126   1.728
  924SOL    HW2 3672   6.870   3.024   1.830
  925SOL     OW 3673   0.504   1.733   0.234
  925SOL    HW1 3674   0.478   1.788   0.314
  925SOL    HW2 3675   0.510   1.792   0.154
  926SOL     OW 3676   1.882   1.929   1.921
  926SOL    HW1 3677   1.823   1.899   1.847
  926SOL    HW2 3678   1.964   1.972   1.883
  927SOL     OW 3679   6.570   3.617   4.723
  927SOL    HW1 3680   6.487   3.671   4.739
  927SOL    HW2 3681   6.552   3.521   4.746
  928SOL     OW 3682   3.360   4.369   5.925
  928SOL    HW1 3683   3.346   4.467   5.912
  928SOL    HW2 3684   3.287   4.318   5.878
  929SOL     OW 3685   0.357   1.414   5.005
  929SOL    HW1 3686   0.335   1.500   4.959
  929SOL    HW2 3687   0.453   1.390   4.987
  930SOL     OW 3688   5.015   5.284   5.092
  930SOL    HW1 3689   5.014   5.339   5.176
  930SOL    HW2 3690   4.938   5.311   5.034
  931SOL     OW 3691   6.542   0.910   2.802
  931SOL    HW1 3692   6.450   0.872   2.811
  931SOL    HW2 3693   6.607   0.853   2.851
  932SOL     OW 3694   3.890   0.710   3.705
  932SOL    HW1 3695   3.790   0.702   3.704
  932SOL    HW2 3696   3.930   0.619   3.702
  933SOL     OW 3697   1.710   5.727   1.944
  933SOL    HW1 3698   1.740   5.713   2.038
  933SOL    HW2 3699   1.620   5.770   1.943
  934SOL     OW 3700   1.710   3.284   0.276
  934SOL    HW1 3701   1.781   3.327   0.332
  934SOL    HW2 3702   1.644   3.353   0.247
  935SOL     OW 3703   6.062   2.674   4.973
  935SOL    HW1 3704   5.992   2.689   5.043
  935SOL    HW2 3705   6.019   2.675   4.882
  936SOL     OW 3706   1.866   0.237   5.806
  936SOL    HW1 3707   1.800   0.175   5.764
  936SOL    HW2 3708   1.958   0.214   5.773
  937SOL     OW 3709   3.792   1.905   5.588
  937SOL    HW1 3710   3.705   1.869   5.623
  937SOL    HW2 3711   3.868   1.862   5.637
  938SOL     OW 3712   5.893   6.033   4.476
  938SOL    HW1 3713   5.934   6.107   4.528
  938SOL    HW2 3714   5.819   6.069   4.418
  939SOL     OW 3715   1.090   6.429   5.641
  939SOL    HW1 3716   1.031   6.394   5.714
  939SOL    HW2 3717   1.162   6.486   5.679
  940SOL     OW 3718   1.922   5.205   0.141
  940SOL    HW1 3719   1.902   5.134   0.208
  940SOL    HW2 3720   2.009   5.250   0.165
  941SOL     OW 3721   3.580   0.484   0.316
  941SOL    HW1 3722   3.485   0.513   0.327
  941SOL    HW2 3723   3.584   0.384   0.314
  942SOL     OW 3724   6.647   5.171   0.534
  942SOL    HW1 3725   6.636   5.203   0.440
  942SOL    HW2 3726   6.570   5.202   0.589
  943SOL     OW 3727   3.370   5.681   1.395
  943SOL    HW1 3728   3.446   5.616   1.404
  943SOL    HW2 3729   3.290   5.634   1.356
  944SOL     OW 3730   6.634   6.776   3.501
  944SOL    HW1 3731   6.622   6.859   3.446
  944SOL    HW2 3732   6.575   6.780   3.581
  945SOL     OW 3733   0.650   5.106   6.082
  945SOL    HW1 3734   0.616   5.200   6.086
  945SOL    HW2 3735   0.717   5.092   6.155
  946SOL     OW 3736   5.754   2.156   4.296
  946SOL    HW1 3737   5.787   2.187   4.206
  946SOL    HW2 3738   5.828   2.110   4.344
  947SOL     OW 3739   3.695   4.011   4.041
  947SOL    HW1 3740   3.668   4.057   3.956
  947SOL    HW2 3741   3.697   3.912   4.026
  948SOL     OW 3742   3.566   0.903   3.302
  948SOL    HW1 3743   3.532   0.997   3.293
  948SOL    HW2 3744   3.664   0.905   3.318
  949SOL     OW 3745   3.558   0.223   5.652
  949SOL    HW1 3746   3.463   0.241   5.678
  949SOL    HW2 3747   3.565   0.131   5.615
  950SOL     OW 3748   0.071   0.650   2.693
  950SOL    HW1 3749   0.026   0.608   2.771
  950SOL    HW2 3750   0.137   0.585   2.653
  951SOL     OW 3751   1.809   6.930   2.974
  951SOL    HW1 3752   1.904   6.949   2.952
  951SOL    HW2 3753   1.764   7.013   3.006
  952SOL     OW 3754   3.842   1.190   3.322
  952SOL    HW1 3755   3.910   1.263   3.324
  952SOL    HW2 3756   3.771   1.211   3.256
  953SOL     OW 3757   0.497   4.760   5.985
  953SOL    HW1 3758   0.549   4.769   5.901
  953SOL    HW2 3759   0.404   4.730   5.964
  954SOL     OW 3760   4.842   6.150   2.604
  954SOL    HW1 3761   4.832   6.183   2.511
  954SOL    HW2 3762   4.754   6.152   2.650
  955SOL     OW 3763   2.034   5.229   0.853
  955SOL    HW1 3764   2.063   5.237   0.948
  955SOL    HW2 3765   2.084   5.155   0.808
  956SOL     OW 3766   4.496   0.843   1.196
  956SOL    HW1 3767   4.398   0.862   1.197
  956SOL    HW2 3768   4.528   0.832   1.291
  957SOL     OW 3769   6.232   0.566   2.720
  957SOL    HW1 3770   6.186   0.526   2.799
  957SOL    HW2 3771   6.313   0.512   2.697
  958SOL     OW 3772   5.155   6.582   1.510
  958SOL    HW1 3773   5.088   6.510   1.527
  958SOL    HW2 3774   5.118   6.646   1.442
  959SOL     OW 3775   5.131   6.351   2.956
  959SOL    HW1 3776   5.087   6.437   2.932
  959SOL    HW2 3777   5.075   6.275   2.924
  960SOL     OW 3778   1.708   6.553   6.379
  960SOL    HW1 3779   1.740   6.459   6.393
  960SOL    HW2 3780   1.640   6.576   6.449
  961SOL     OW 3781   3.859   0.918   3.284
  961SOL    HW1 3782   3.898   0.888   3.371
  961SOL    HW2 3783   3.867   1.018   3.276
  962SOL     OW 3784   0.446   0.579   4.831
  962SOL    HW1 3785   0.416   0.485   4.815
  962SOL    HW2 3786   0.511   0.582   4.906
  963SOL     OW 3787   5.653   2.803   1.278
  963SOL    HW1 3788   5.574   2.790   1.338
  963SOL    HW2 3789   5.623   2.846   1.192
  964SOL     OW 3790   3.950   5.839   5.035
  964SOL    HW1 3791   4.040   5.797   5.034
  964SOL    HW2 3792   3.901   5.814   4.951
  965SOL     OW 3793   5.916   2.060   3.371
  965SOL    HW1 3794   5.817   2.067   3.380
  965SOL    HW2 3795   5.941   2.055   3.274
  966SOL     OW 3796   4.864   1.003   4.020
  966SOL    HW1 3797   4.950   0.984   4.067
  966SOL    HW2 3798   4.851   0.937   3.946
  967SOL     OW 3799   4.326   4.649   6.672
  967SOL    HW1 3800   4.338   4.635   6.770
  967SOL    HW2 3801   4.416   4.657   6.629
  968SOL     OW 3802   3.385   0.394   1.623
  968SOL    HW1 3803   3.372   0.419   1.719
  968SOL    HW2 3804   3.311   0.333   1.594
  969SOL     OW 3805   3.006   4.243   6.396
  969SOL    HW1 3806   3.076   4.262   6.327
  969SOL    HW2 3807   3.042   4.178   6.464
  970SOL     OW 3808   4.993   6.585   6.321
  970SOL    HW1 3809   5.061   6.537   6.377
  970SOL    HW2 3810   5.023   6.586   6.226
  971SOL     OW 3811   5.396   3.508   3.292
  971SOL    HW1 3812   5.417   3.602   3.319
  971SOL    HW2 3813   5.368   3.506   3.196
  972SOL     OW 3814   0.416   2.786   0.640
  972SOL    HW1 3815   0.332   2.751   0.599
  972SOL    HW2 3816   0.448   2.721   0.710
  973SOL     OW 3817   0.184   2.752   5.605
  973SOL    HW1 3818   0.104   2.698   5.580
  973SOL    HW2 3819   0.266   2.711   5.566
  974SOL     OW 3820   0.666   4.495   2.353
  974SOL    HW1 3821   0.650   4.478   2.256
  974SOL    HW2 3822   0.597   4.560   2.387
  975SOL     OW 3823   2.961   0.399   2.766
  975SOL    HW1 3824   3.020   0.322   2.743
  975SOL    HW2 3825   2.944   0.453   2.684
  976SOL     OW 3826   6.986   3.253   3.552
  976SOL    HW1 3827   6.953   3.237   3.645
  976SOL    HW2 3828   0.046   3.318   3.554
  977SOL     OW 3829   6.497   1.433   2.028
  977SOL    HW1 3830   6.524   1.399   1.938
  977SOL    HW2 3831   6.473   1.357   2.087
  978SOL     OW 3832   5.285   2.886   1.394
  978SOL    HW1 3833   5.326   2.972   1.366
  978SOL    HW2 3834   5.227   2.901   1.474
  979SOL     OW 3835   0.225   4.489   0.000
  979SOL    HW1 3836   0.172   4.410   0.032
  979SOL    HW2 3837   0.241   4.481   6.919
  980SOL     OW 3838   4.089   1.139   4.605
  980SOL    HW1 3839   4.021   1.191   4.656
  980SOL    HW2 3840   4.114   1.057   4.658
  981SOL     OW 3841   0.629   6.619   5.503
  981SOL    HW1 3842   0.728   6.626   5.491
  981SOL    HW2 3843   0.584   6.629   5.414
  982SOL     OW 3844   6.385   1.148   6.109
  982SOL    HW1 3845   6.455   1.218   6.102
  982SOL    HW2 3846   6.333   1.160   6.193
  983SOL     OW 3847   0.698   4.366   3.103
  983SOL    HW1 3848   0.628   4.295   3.110
  983SOL    HW2 3849   0.788   4.325   3.115
  984SOL     OW 3850   0.628   3.495   3.573
  984SOL    HW1 3851   0.681   3.417   3.604
  984SOL    HW2 3852   0.569   3.467   3.497
  985SOL     OW 3853   6.248   5.463   4.839
  985SOL    HW1 3854   6.199   5.382   4.872
  985SOL    HW2 3855   6.325   5.482   4.900
  986SOL     OW 3856   4.654   5.410   1.264
  986SOL    HW1 3857   4.625   5.315   1.253
  986SOL    HW2 3858   4.585   5.471   1.226
  987SOL     OW 3859   4.840   4.575   4.831
  987SOL    HW1 3860   4.761   4.525   4.866
  987SOL    HW2 3861   4.921   4.516   4.835
  988SOL     OW 3862   2.532   4.599   2.174
  988SOL    HW1 3863   2.469   4.543   2.121
  988SOL    HW2 3864   2.622   4.600   2.130
  989SOL     OW 3865   1.256   2.405   1.156
  989SOL    HW1 3866   1.338   2.462   1.165
  989SOL    HW2 3867   1.264   2.349   1.074
  990SOL     OW 3868   3.806   6.787   4.541
  990SOL    HW1 3869   3.726   6.808   4.484
  990SOL    HW2 3870   3.777   6.774   4.636
  991SOL     OW 3871   0.771   5.446   3.875
  991SOL    HW1 3872   0.745   5.541   3.859
  991SOL    HW2 3873   0.713   5.407   3.946
  992SOL     OW 3874   6.688   2.138   0.007
  992SOL    HW1 3875   6.686   2.142   0.106
  992SOL    HW2 3876   6.594   2.138   6.989
  993SOL     OW 3877   1.099   5.194   0.074
  993SOL    HW1 3878   1.007   5.232   0.084
  993SOL    HW2 3879   1.093   5.098   0.045
  994SOL     OW 3880   3.258   6.845   0.434
  994SOL    HW1 3881   3.276   6.874   0.528
  994SOL    HW2 3882   3.178   6.785   0.431
  995SOL     OW 3883   6.080   3.637   5.846
  995SOL    HW1 3884   6.121   3.603   5.931
  995SOL    HW2 3885   6.016   3.711   5.867
  996SOL     OW 3886   4.418   6.435   4.549
  996SOL    HW1 3887   4.433   6.374   4.471
  996SOL    HW2 3888   4.463   6.522   4.532
  997SOL     OW 3889   1.202   6.531   3.397
  997SOL    HW1 3890   1.296   6.543   3.429
  997SOL    HW2 3891   1.200   6.460   3.326
  998SOL     OW 3892   4.415   6.886   6.138
  998SOL    HW1 3893   4.391   6.951   6.210
  998SOL    HW2 3894   4.513   6.891   6.120
  999SOL     OW 3895   5.409   2.989   2.957
  999SOL    HW1 3896   5.415   2.903   3.009
  999SOL    HW2 3897   5.450   3.063   3.010
 1000SOL     OW 3898   5.359   2.017   1.577
 1000SOL    HW1 3899   5.422   2.065   1.638
 1000SOL    HW2 3900   5.296   1.961   1.631
 1001SOL     OW 3901   2.927   6.993   2.587
 1001SOL    HW1 3902   2.879   6.963   2.505
 1001SOL    HW2 3903   2.866   6.989   2.666
 1002SOL     OW 3904   4.132   2.826   1.225
 1002SOL    HW1 3905   4.128   2.863   1.132
 1002SOL    HW2 3906   4.065   2.753   1.235
 1003SOL     OW 3907   0.907   0.203   3.123
 1003SOL    HW1 3908   0.977   0.248   3.179
 1003SOL    HW2 3909   0.896   0.109   3.154
 1004SOL     OW 3910   4.969   1.314   4.679
 1004SOL    HW1 3911   5.037   1.272   4.739
 1004SOL    HW2 3912   4.994   1.297   4.584
 1005SOL     OW 3913   0.728   5.267   2.175
 1005SOL    HW1 3914   0.824   5.238   2.166
 1005SOL    HW2 3915   0.678   5.201   2.230
 1006SOL     OW 3916   2.382   3.916   1.704
 1006SOL    HW1 3917   2.398   3.940   1.609
 1006SOL    HW2 3918   2.366   3.817   1.711
 1007SOL     OW 3919   4.685   0.547   6.071
 1007SOL    HW1 3920   4.630   0.609   6.014
 1007SOL    HW2 3921   4.760   0.510   6.017
 1008SOL     OW 3922   0.767   5.135   5.201
 1008SOL    HW1 3923   0.811   5.050   5.232
 1008SOL    HW2 3924   0.836   5.205   5.187
 1009SOL     OW 3925   6.740   5.683   6.151
 1009SOL    HW1 3926   6.818   5.689   6.214
 1009SOL    HW2 3927   6.744   5.759   6.086
 1010SOL     OW 3928   3.150   3.589   0.466
 1010SOL    HW1 3929   3.151   3.538   0.380
 1010SOL    HW2 3930   3.180   3.530   0.541
 1011SOL     OW 3931   6.705   5.068   2.894
 1011SOL    HW1 3932   6.675   5.147   2.947
 1011SOL    HW2 3933   6.768   5.013   2.949
 1012SOL     OW 3934   5.462   6.365   2.668
 1012SOL    HW1 3935   5.475   6.450   2.719
 1012SOL    HW2 3936   5.542   6.348   2.610
 1013SOL     OW 3937   6.950   0.020   6.090
 1013SOL    HW1 3938   6.968   0.083   6.167
 1013SOL    HW2 3939   6.866   6.987   6.108
 1014SOL     OW 3940   0.921   4.892   5.268
 1014SOL    HW1 3941   1.012   4.932   5.283
 1014SOL    HW2 3942   0.918   4.801   5.308
 1015SOL     OW 3943   1.897   6.392   0.277
 1015SOL    HW1 3944   1.901   6.421   0.181
 1015SOL    HW2 3945   1.832   6.317   0.286
 1016SOL     OW 3946   6.850   3.643   0.746
 1016SOL    HW1 3947   6.888   3.594   0.824
 1016SOL    HW2 3948   6.923   3.667   0.682
 1017SOL     OW 3949   2.417   1.412   2.465
 1017SOL    HW1 3950   2.419   1.444   2.559
 1017SOL    HW2 3951   2.425   1.490   2.403
 1018SOL     OW 3952   6.098   6.720   4.094
 1018SOL    HW1 3953   6.089   6.747   4.190
 1018SOL    HW2 3954   6.131   6.625   4.089
 1019SOL     OW 3955   6.665   4.441   0.832
 1019SOL    HW1 3956   6.722   4.408   0.908
 1019SOL    HW2 3957   6.657   4.370   0.763
 1020SOL     OW 3958   5.033   1.188   0.843
 1020SOL    HW1 3959   5.093   1.263   0.869
 1020SOL    HW2 3960   5.047   1.165   0.747
 1021SOL     OW 3961   0.919   6.445   0.973
 1021SOL    HW1 3962   0.983   6.521   0.989
 1021SOL    HW2 3963   0.831   6.467   1.014
 1022SOL     OW 3964   2.771   5.522   6.778
 1022SOL    HW1 3965   2.788   5.606   6.726
 1022SOL    HW2 3966   2.673   5.502   6.777
 1023SOL     OW 3967   0.659   1.473   2.721
 1023SOL    HW1 3968   0.685   1.470   2.625
 1023SOL    HW2 3969   0.710   1.404   2.772
 1024SOL     OW 3970   1.583   1.989   4.034
 1024SOL    HW1 3971   1.633   2.036   3.961
 1024SOL    HW2 3972   1.616   1.895   4.042
 1025SOL     OW 3973   5.029   4.367   0.398
 1025SOL    HW1 3974   4.994   4.287   0.349
 1025SOL    HW2 3975   5.015   4.449   0.342
 1026SOL     OW 3976   2.928   2.841   1.668
 1026SOL    HW1 3977   2.968   2.920   1.715
 1026SOL    HW2 3978   2.984   2.760   1.686
 1027SOL     OW 3979   0.287   6.844   0.096
 1027SOL    HW1 3980   0.296   6.783   0.175
 1027SOL    HW2 3981   0.357   6.821   0.029
 1028SOL     OW 3982   1.179   5.965   2.774
 1028SOL    HW1 3983   1.185   6.065   2.769
 1028SOL    HW2 3984   1.236   5.925   2.702
 1029SOL     OW 3985   1.493   0.761   5.451
 1029SOL    HW1 3986   1.436   0.815   5.390
 1029SOL    HW2 3987   1.474   0.664   5.437
 1030SOL     OW 3988   3.788   3.366   0.957
 1030SOL    HW1 3989   3.817   3.461   0.966
 1030SOL    HW2 3990   3.834   3.311   1.027
 1031SOL     OW 3991   3.785   3.307   0.680
 1031SOL    HW1 3992   3.829   3.373   0.619
 1031SOL    HW2 3993   3.774   3.348   0.771
 1032SOL     OW 3994   1.960   1.628   0.476
 1032SOL    HW1 3995   1.909   1.639   0.391
 1032SOL    HW2 3996   2.057   1.644   0.459
 1033SOL     OW 3997   0.168   0.826   2.361
 1033SOL    HW1 3998   0.253   0.825   2.413
 1033SOL    HW2 3999   0.108   0.898   2.395
 1034SOL     OW 4000   3.219   0.971   4.996
 1034SOL    HW1 4001   3.301   0.916   5.006
 1034SOL    HW2 4002   3.237   1.047   4.933
 1035SOL     OW 4003   1.886   1.206   0.226
 1035SOL    HW1 4004   1.814   1.272   0.247
 1035SOL    HW2 4005   1.852   1.138   0.161
 1036SOL     OW 4006   4.727   1.151   1.367
 1036SOL    HW1 4007   4.803   1.216   1.363
 1036SOL    HW2 4008   4.657   1.177   1.301
 1037SOL     OW 4009   1.397   3.730   2.156
 1037SOL    HW1 4010   1.356   3.640   2.139
 1037SOL    HW2 4011   1.341   3.801   2.113
 1038SOL     OW 4012   2.375   6.103   0.382
 1038SOL    HW1 4013   2.401   6.056   0.298
 1038SOL    HW2 4014   2.280   6.132   0.376
 1039SOL     OW 4015   3.372   3.598   3.022
 1039SOL    HW1 4016   3.458   3.551   3.042
 1039SOL    HW2 4017   3.308   3.584   3.098
 1040SOL     OW 4018   3.718   1.958   3.360
 1040SOL    HW1 4019   3.786   2.028   3.338
 1040SOL    HW2 4020   3.739   1.918   3.449
 1041SOL     OW 4021   6.312   6.165   7.007
 1041SOL    HW1 4022   6.385   6.221   0.030
 1041SOL    HW2 4023   6.263   6.219   6.938
 1042SOL     OW 4024   5.500   4.678   3.325
 1042SOL    HW1 4025   5.428   4.672   3.394
 1042SOL    HW2 4026   5.546   4.590   3.317
 1043SOL     OW 4027   2.742   2.176   3.904
 1043SOL    HW1 4028   2.809   2.158   3.832
 1043SOL    HW2 4029   2.737   2.097   3.966
 1044SOL     OW 4030   6.026   4.744   1.838
 1044SOL    HW1 4031   6.118   4.740   1.799
 1044SOL    HW2 4032   5.991   4.651   1.849
 1045SOL     OW 4033   2.105   0.693   2.173
 1045SOL    HW1 4034   2.164   0.709   2.252
 1045SOL    HW2 4035   2.020   0.651   2.202
 1046SOL     OW 4036   3.013   1.946   1.311
 1046SOL    HW1 4037   3.086   1.878   1.306
 1046SOL    HW2 4038   3.052   2.038   1.304
 1047SOL     OW 4039   3.689   0.415   3.344
 1047SOL    HW1 4040   3.757   0.432   3.415
 1047SOL    HW2 4041   3.718   0.337   3.289
 1048SOL     OW 4042   1.046   0.179   2.100
 1048SOL    HW1 4043   1.101   0.101   2.069
 1048SOL    HW2 4044   1.019   0.165   2.195
 1049SOL     OW 4045   4.294   6.622   6.163
 1049SOL    HW1 4046   4.296   6.536   6.112
 1049SOL    HW2 4047   4.300   6.699   6.099
 1050SOL     OW 4048   3.104   0.050   4.211
 1050SOL    HW1 4049   3.077   6.972   4.196
 1050SOL    HW2 4050   3.204   0.055   4.221
 1051SOL     OW 4051   1.804   1.563   5.104
 1051SOL    HW1 4052   1.852   1.641   5.145
 1051SOL    HW2 4053   1.723   1.542   5.158
 1052SOL     OW 4054   3.442   1.409   0.491
 1052SOL    HW1 4055   3.452   1.498   0.447
 1052SOL    HW2 4056   3.361   1.363   0.455
 1053SOL     OW 4057   4.965   1.966   4.524
 1053SOL    HW1 4058   4.909   1.883   4.523
 1053SOL    HW2 4059   5.048   1.949   4.578
 1054SOL     OW 4060   3.992   5.044   6.160
 1054SOL    HW1 4061   4.051   4.986   6.216
 1054SOL    HW2 4062   4.025   5.139   6.164
 1055SOL     OW 4063   4.765   5.472   6.767
 1055SOL    HW1 4064   4.714   5.411   6.828
 1055SOL    HW2 4065   4.740   5.567   6.787
 1056SOL     OW 4066   3.280   3.868   6.868
 1056SOL    HW1 4067   3.332   3.835   6.947
 1056SOL    HW2 4068   3.189   3.897   6.897
 1057SOL     OW 4069   3.298   2.870   6.828
 1057SOL    HW1 4070   3.291   2.770   6.827
 1057SOL    HW2 4071   3.251   2.906   6.909
 1058SOL     OW 4072   3.050   2.187   2.193
 1058SOL    HW1 4073   3.053   2.278   2.234
 1058SOL    HW2 4074   2.978   2.184   2.123
 1059SOL     OW 4075   2.258   6.074   2.193
 1059SOL    HW1 4076   2.210   6.069   2.280
 1059SOL    HW2 4077   2.310   5.990   2.179
 1060SOL     OW 4078   6.143   0.793   5.413
 1060SOL    HW1 4079   6.108   0.703   5.388
 1060SOL    HW2 4080   6.219   0.783   5.477
 1061SOL     OW 4081   0.414   3.738   5.893
 1061SOL    HW1 4082   0.383   3.645   5.876
 1061SOL    HW2 4083   0.347   3.786   5.951
 1062SOL     OW 4084   3.270   5.202   4.612
 1062SOL    HW1 4085   3.317   5.120   4.581
 1062SOL    HW2 4086   3.240   5.191   4.706
 1063SOL     OW 4087   3.550   6.535   4.375
 1063SOL    HW1 4088   3.529   6.471   4.449
 1063SOL    HW2 4089   3.496   6.512   4.294
 1064SOL     OW 4090   1.416   3.223   0.485
 1064SOL    HW1 4091   1.492   3.283   0.508
 1064SOL    HW2 4092   1.417   3.143   0.546
 1065SOL     OW 4093   6.193   1.176   4.940
 1065SOL    HW1 4094   6.104   1.137   4.965
 1065SOL    HW2 4095   6.202   1.177   4.840
 1066SOL     OW 4096   4.861   6.666   0.612
 1066SOL    HW1 4097   4.780   6.725   0.612
 1066SOL    HW2 4098   4.887   6.645   0.706
 1067SOL     OW 4099   2.574   1.786   6.990
 1067SOL    HW1 4100   2.494   1.769   6.933
 1067SOL    HW2 4101   2.551   1.849   0.046
 1068SOL     OW 4102   6.469   2.780   1.282
 1068SOL    HW1 4103   6.516   2.781   1.371
 1068SOL    HW2 4104   6.459   2.874   1.249
 1069SOL     OW 4105   6.141   3.496   2.623
 1069SOL    HW1 4106   6.160   3.594   2.619
 1069SOL    HW2 4107   6.048   3.480   2.657
 1070SOL     OW 4108   0.855   0.546   2.090
 1070SOL    HW1 4109   0.849   0.617   2.020
 1070SOL    HW2 4110   0.763   0.518   2.117
 1071SOL     OW 4111   0.499   3.168   6.180
 1071SOL    HW1 4112   0.439   3.136   6.107
 1071SOL    HW2 4113   0.588   3.193   6.141
 1072SOL     OW 4114   1.686   1.414   2.458
 1072SOL    HW1 4115   1.726   1.496   2.499
 1072SOL    HW2 4116   1.745   1.335   2.477
 1073SOL     OW 4117   5.401   2.632   2.832
 1073SOL    HW1 4118   5.384   2.534   2.818
 1073SOL    HW2 4119   5.496   2.653   2.811
 1074SOL     OW 4120   2.920   5.116   1.474
 1074SOL    HW1 4121   2.981   5.175   1.422
 1074SOL    HW2 4122   2.889   5.164   1.556
 1075SOL     OW 4123   6.838   4.037   6.032
 1075SOL    HW1 4124   6.801   4.109   6.091
 1075SOL    HW2 4125   6.790   3.951   6.049
 1076SOL     OW 4126   1.625   4.759   5.242
 1076SOL    HW1 4127   1.721   4.762   5.211
 1076SOL    HW2 4128   1.566   4.742   5.163
 1077SOL     OW 4129   6.662   6.460   0.573
 1077SOL    HW1 4130   6.747   6.499   0.607
 1077SOL    HW2 4131   6.682   6.397   0.498
 1078SOL     OW 4132   6.201   6.478   4.509
 1078SOL    HW1 4133   6.197   6.470   4.609
 1078SOL    HW2 4134   6.108   6.490   4.473
 1079SOL     OW 4135   0.640   6.730   1.527
 1079SOL    HW1 4136   0.642   6.829   1.514
 1079SOL    HW2 4137   0.584   6.688   1.455
 1080SOL     OW 4138   3.545   6.980   0.108
 1080SOL    HW1 4139   3.456   7.012   0.140
 1080SOL    HW2 4140   3.592   6.933   0.182
 1081SOL     OW 4141   6.537   6.566   3.378
 1081SOL    HW1 4142   6.557   6.650   3.428
 1081SOL    HW2 4143   6.462   6.582   3.314
 1082SOL     OW 4144   3.981   0.038   0.464
 1082SOL    HW1 4145   3.891   0.005   0.491
 1082SOL    HW2 4146   3.996   0.019   0.367
 1083SOL     OW 4147   5.695   4.343   2.051
 1083SOL    HW1 4148   5.599   4.333   2.026
 1083SOL    HW2 4149   5.751   4.282   1.994
 1084SOL     OW 4150   5.503   0.612   5.298
 1084SOL    HW1 4151   5.424   0.656   5.341
 1084SOL    HW2 4152   5.561   0.681   5.256
 1085SOL     OW 4153   2.016   3.858   4.660
 1085SOL    HW1 4154   1.921   3.828   4.654
 1085SOL    HW2 4155   2.027   3.914   4.743
 1086SOL     OW 4156   5.414   5.478   0.612
 1086SOL    HW1 4157   5.482   5.419   0.657
 1086SOL    HW2 4158   5.456   5.526   0.536
 1087SOL     OW 4159   4.145   0.109   5.587
 1087SOL    HW1 4160   4.076   0.173   5.623
 1087SOL    HW2 4161   4.099   0.028   5.551
 1088SOL     OW 4162   6.523   5.244   3.745
 1088SOL    HW1 4163   6.615   5.251   3.705
 1088SOL    HW2 4164   6.506   5.149   3.773
 1089SOL     OW 4165   5.607   5.329   4.279
 1089SOL    HW1 4166   5.583   5.248   4.332
 1089SOL    HW2 4167   5.703   5.353   4.295
 1090SOL     OW 4168   5.751   2.101   5.049
 1090SOL    HW1 4169   5.667   2.088   5.102
 1090SOL    HW2 4170   5.809   2.168   5.094
 1091SOL     OW 4171   1.675   3.048   3.261
 1091SOL    HW1 4172   1.698   3.075   3.354
 1091SOL    HW2 4173   1.711   3.116   3.197
 1092SOL     OW 4174   0.269   6.033   0.237
 1092SOL    HW1 4175   0.178   6.003   0.265
 1092SOL    HW2 4176   0.328   6.038   0.318
 1093SOL     OW 4177   1.409   0.401   3.144
 1093SOL    HW1 4178   1.474   0.395   3.219
 1093SOL    HW2 4179   1.437   0.474   3.081
 1094SOL     OW 4180   0.185   0.038   3.148
 1094SOL    HW1 4181   0.283   0.020   3.144
 1094SOL    HW2 4182   0.136   6.989   3.092
 1095SOL     OW 4183   5.664   3.190   0.485
 1095SOL    HW1 4184   5.619   3.258   0.543
 1095SOL    HW2 4185   5.648   3.098   0.522
 1096SOL     OW 4186   1.978   5.405   1.661
 1096SOL    HW1 4187   1.996   5.321   1.713
 1096SOL    HW2 4188   1.888   5.440   1.684
 1097SOL     OW 4189   2.920   6.535   4.271
 1097SOL    HW1 4190   2.872   6.449   4.248
 1097SOL    HW2 4191   2.857   6.595   4.320
 1098SOL     OW 4192   6.796   3.997   0.577
 1098SOL    HW1 4193   6.858   4.050   0.634
 1098SOL    HW2 4194   6.815   4.017   0.480
 1099SOL     OW 4195   5.072   0.386   6.578
 1099SOL    HW1 4196   5.007   0.328   6.529
 1099SOL    HW2 4197   5.150   0.406   6.519
 1100SOL     OW 4198   4.232   1.743   4.608
 1100SOL    HW1 4199   4.208   1.748   4.511
 1100SOL    HW2 4200   4.149   1.755   4.663
 1101SOL     OW 4201   5.009   2.873   6.564
 1101SOL    HW1 4202   5.093   2.922   6.589
 1101SOL    HW2 4203   5.022   2.828   6.476
 1102SOL     OW 4204   2.829   0.606   3.201
 1102SOL    HW1 4205   2.742   0.642   3.166
 1102SOL    HW2 4206   2.895   0.599   3.126
 1103SOL     OW 4207   3.417   5.952   0.589
 1103SOL    HW1 4208   3.358   5.937   0.509
 1103SOL    HW2 4209   3.462   5.866   0.614
 1104SOL     OW 4210   0.038   2.698   3.858
 1104SOL    HW1 4211   0.090   2.735   3.936
 1104SOL    HW2 4212   6.995   2.770   3.822
 1105SOL     OW 4213   5.310   1.793   5.952
 1105SOL    HW1 4214   5.285   1.857   5.879
 1105SOL    HW2 4215   5.398   1.751   5.929
 1106SOL     OW 4216   6.403   1.585   0.912
 1106SOL    HW1 4217   6.475   1.562   0.847
 1106SOL    HW2 4218   6.343   1.655   0.873
 1107SOL     OW 4219   0.914   1.570   6.476
 1107SOL    HW1 4220   0.909   1.533   6.383
 1107SOL    HW2 4221   0.845   1.526   6.533
 1108SOL     OW 4222   2.283   0.813   4.089
 1108SOL    HW1 4223   2.207   0.760   4.126
 1108SOL    HW2 4224   2.266   0.911   4.103
 1109SOL     OW 4225   4.963   2.651   4.958
 1109SOL    HW1 4226   5.042   2.643   5.019
 1109SOL    HW2 4227   4.929   2.745   4.961
 1110SOL     OW 4228   2.293   0.757   2.373
 1110SOL    HW1 4229   2.391   0.751   2.357
 1110SOL    HW2 4230   2.273   0.729   2.466
 1111SOL     OW 4231   5.973   3.902   6.529
 1111SOL    HW1 4232   6.030   3.891   6.610
 1111SOL    HW2 4233   5.877   3.890   6.554
 1112SOL     OW 4234   5.568   0.387   2.619
 1112SOL    HW1 4235   5.579   0.394   2.718
 1112SOL    HW2 4236   5.645   0.337   2.580
 1113SOL     OW 4237   5.846   3.489   2.442
 1113SOL    HW1 4238   5.905   3.569   2.445
 1113SOL    HW2 4239   5.847   3.444   2.531
 1114SOL     OW 4240   3.783   4.119   4.773
 1114SOL    HW1 4241   3.706   4.065   4.805
 1114SOL    HW2 4242   3.750   4.192   4.713
 1115SOL     OW 4243   2.898   4.531   5.763
 1115SOL    HW1 4244   2.958   4.480   5.825
 1115SOL    HW2 4245   2.916   4.504   5.669
 1116SOL     OW 4246   4.151   0.340   0.132
 1116SOL    HW1 4247   4.109   0.384   0.211
 1116SOL    HW2 4248   4.176   0.409   0.065
 1117SOL     OW 4249   2.374   2.528   1.658
 1117SOL    HW1 4250   2.340   2.615   1.693
 1117SOL    HW2 4251   2.408   2.473   1.733
 1118SOL     OW 4252   4.226   6.189   0.168
 1118SOL    HW1 4253   4.228   6.253   0.091
 1118SOL    HW2 4254   4.133   6.182   0.204
 1119SOL     OW 4255   3.393   4.966   3.775
 1119SOL    HW1 4256   3.397   5.049   3.831
 1119SOL    HW2 4257   3.336   4.984   3.694
 1120SOL     OW 4258   6.565   3.116   1.253
 1120SOL    HW1 4259   6.608   3.107   1.343
 1120SOL    HW2 4260   6.522   3.206   1.244
 1121SOL     OW 4261   6.759   4.622   5.002
 1121SOL    HW1 4262   6.812   4.691   4.952
 1121SOL    HW2 4263   6.787   4.621   5.098
 1122SOL     OW 4264   5.546   2.147   1.727
 1122SOL    HW1 4265   5.520   2.236   1.763
 1122SOL    HW2 4266   5.645   2.135   1.736
 1123SOL     OW 4267   3.740   1.551   3.796
 1123SOL    HW1 4268   3.789   1.565   3.710
 1123SOL    HW2 4269   3.788   1.482   3.850
 1124SOL     OW 4270   2.236   2.679   3.868
 1124SOL    HW1 4271   2.234   2.768   3.915
 1124SOL    HW2 4272   2.280   2.612   3.927
 1125SOL     OW 4273   1.502   3.527   3.683
 1125SOL    HW1 4274   1.548   3.560   3.600
 1125SOL    HW2 4275   1.553   3.556   3.763
 1126SOL     OW 4276   4.304   5.016   4.691
 1126SOL    HW1 4277   4.246   4.940   4.722
 1126SOL    HW2 4278   4.251   5.078   4.634
 1127SOL     OW 4279   6.680   6.862   1.993
 1127SOL    HW1 4280   6.673   6.933   2.063
 1127SOL    HW2 4281   6.760   6.804   2.013
 1128SOL     OW 4282   4.827   1.266   5.050
 1128SOL    HW1 4283   4.872   1.278   4.961
 1128SOL    HW2 4284   4.894   1.281   5.123
 1129SOL     OW 4285   1.033   0.463   0.615
 1129SOL    HW1 4286   0.954   0.522   0.631
 1129SOL    HW2 4287   1.074   0.438   0.703
 1130SOL     OW 4288   2.468   4.845   2.312
 1130SOL    HW1 4289   2.476   4.755   2.269
 1130SOL    HW2 4290   2.379   4.854   2.356
 1131SOL     OW 4291   1.917   5.582   3.781
 1131SOL    HW1 4292   1.992   5.531   3.740
 1131SOL    HW2 4293   1.904   5.668   3.732
 1132SOL     OW 4294   1.824   1.661   2.512
 1132SOL    HW1 4295   1.921   1.651   2.489
 1132SOL    HW2 4296   1.787   1.739   2.463
 1133SOL     OW 4297   0.855   6.816   6.259
 1133SOL    HW1 4298   0.949   6.850   6.271
 1133SOL    HW2 4299   0.792   6.877   6.307
 1134SOL     OW 4300   3.526   6.041   1.782
 1134SOL    HW1 4301   3.523   6.123   1.725
 1134SOL    HW2 4302   3.614   5.995   1.770
 1135SOL     OW 4303   1.604   6.003   3.230
 1135SOL    HW1 4304   1.616   6.055   3.145
 1135SOL    HW2 4305   1.688   5.952   3.250
 1136SOL     OW 4306   1.893   5.361   2.583
 1136SOL    HW1 4307   1.881   5.378   2.681
 1136SOL    HW2 4308   1.987   5.333   2.565
 1137SOL     OW 4309   0.985   5.791   4.582
 1137SOL    HW1 4310   1.015   5.801   4.487
 1137SOL    HW2 4311   0.885   5.797   4.586
 1138SOL     OW 4312   1.814   3.657   5.160
 1138SOL    HW1 4313   1.892   3.653   5.222
 1138SOL    HW2 4314   1.808   3.573   5.108
 1139SOL     OW 4315   2.406   5.027   5.050
 1139SOL    HW1 4316   2.489   5.064   5.093
 1139SOL    HW2 4317   2.379   5.088   4.975
 1140SOL     OW 4318   2.132   2.255   1.164
 1140SOL    HW1 4319   2.121   2.156   1.165
 1140SOL    HW2 4320   2.211   2.280   1.109
 1141SOL     OW 4321   0.198   4.744   5.928
 1141SOL    HW1 4322   0.137   4.809   5.883
 1141SOL    HW2 4323   0.154   4.710   6.012
 1142SOL     OW 4324   1.558   6.379   2.195
 1142SOL    HW1 4325   1.506   6.296   2.213
 1142SOL    HW2 4326   1.562   6.396   2.096
 1143SOL     OW 4327   0.656   3.895   2.211
 1143SOL    HW1 4328   0.667   3.986   2.172
 1143SOL    HW2 4329   0.594   3.842   2.153
 1144SOL     OW 4330   5.692   4.188   0.272
 1144SOL    HW1 4331   5.689   4.139   0.185
 1144SOL    HW2 4332   5.647   4.277   0.262
 1145SOL     OW 4333   5.570   6.736   0.799
 1145SOL    HW1 4334   5.562   6.637   0.806
 1145SOL    HW2 4335   5.659   6.765   0.832
 1146SOL     OW 4336   1.122   0.793   1.056
 1146SOL    HW1 4337   1.191   0.773   1.125
 1146SOL    HW2 4338   1.035   0.749   1.081
 1147SOL     OW 4339   1.720   6.514   0.986
 1147SOL    HW1 4340   1.687   6.609   0.981
 1147SOL    HW2 4341   1.669   6.465   1.056
 1148SOL     OW 4342   4.139   5.716   3.219
 1148SOL    HW1 4343   4.124   5.775   3.298
 1148SOL    HW2 4344   4.210   5.649   3.240
 1149SOL     OW 4345   4.908   3.229   1.409
 1149SOL    HW1 4346   4.824   3.176   1.395
 1149SOL    HW2 4347   4.949   3.204   1.496
 1150SOL     OW 4348   1.473   3.609   0.753
 1150SOL    HW1 4349   1.496   3.623   0.849
 1150SOL    HW2 4350   1.528   3.671   0.697
 1151SOL     OW 4351   6.021   5.496   4.588
 1151SOL    HW1 4352   6.110   5.488   4.542
 1151SOL    HW2 4353   5.982   5.586   4.568
 1152SOL     OW 4354   3.603   6.525   6.480
 1152SOL    HW1 4355   3.507   6.515   6.509
 1152SOL    HW2 4356   3.629   6.447   6.423
 1153SOL     OW 4357   5.448   6.628   1.964
 1153SOL    HW1 4358   5.530   6.672   1.929
 1153SOL    HW2 4359   5.374   6.695   1.972
 1154SOL     OW 4360   2.242   2.504   0.492
 1154SOL    HW1 4361   2.287   2.456   0.417
 1154SOL    HW2 4362   2.301   2.576   0.527
 1155SOL     OW 4363   3.664   6.011   4.393
 1155SOL    HW1 4364   3.613   6.079   4.339
 1155SOL    HW2 4365   3.652   5.921   4.353
 1156SOL     OW 4366   2.512   1.742   2.859
 1156SOL    HW1 4367   2.465   1.700   2.937
 1156SOL    HW2 4368   2.606   1.708   2.854
 1157SOL     OW 4369   2.704   1.383   0.287
 1157SOL    HW1 4370   2.799   1.351   0.289
 1157SOL    HW2 4371   2.674   1.401   0.381
 1158SOL     OW 4372   5.996   4.237   3.168
 1158SOL    HW1 4373   5.899   4.258   3.161
 1158SOL    HW2 4374   6.026   4.247   3.263
 1159SOL     OW 4375   6.418   5.156   0.696
 1159SOL    HW1 4376   6.332   5.167   0.747
 1159SOL    HW2 4377   6.473   5.085   0.739
 1160SOL     OW 4378   5.761   2.145   0.211
 1160SOL    HW1 4379   5.728   2.187   0.295
 1160SOL    HW2 4380   5.821   2.068   0.232
 1161SOL     OW 4381   6.712   4.998   1.069
 1161SOL    HW1 4382   6.752   5.008   1.160
 1161SOL    HW2 4383   6.773   4.943   1.012
 1162SOL     OW 4384   3.020   2.226   4.712
 1162SOL    HW1 4385   3.092   2.213   4.643
 1162SOL    HW2 4386   3.062   2.256   4.798
 1163SOL     OW 4387   5.444   2.683   1.395
 1163SOL    HW1 4388   5.384   2.763   1.403
 1163SOL    HW2 4389   5.451   2.638   1.484
 1164SOL     OW 4390   4.261   2.732   6.155
 1164SOL    HW1 4391   4.342   2.726   6.213
 1164SOL    HW2 4392   4.183   2.761   6.210
 1165SOL     OW 4393   4.420   6.835   3.339
 1165SOL    HW1 4394   4.356   6.772   3.295
 1165SOL    HW2 4395   4.511   6.822   3.301
 1166SOL     OW 4396   2.900   4.904   6.326
 1166SOL    HW1 4397   2.845   4.823   6.345
 1166SOL    HW2 4398   2.856   4.958   6.254
 1167SOL     OW 4399   5.004   4.542   2.442
 1167SOL    HW1 4400   5.018   4.538   2.343
 1167SOL    HW2 4401   4.906   4.548   2.462
 1168SOL     OW 4402   6.951   0.148   2.507
 1168SOL    HW1 4403   6.998   0.088   2.572
 1168SOL    HW2 4404   6.860   0.111   2.487
 1169SOL     OW 4405   4.455   1.306   5.398
 1169SOL    HW1 4406   4.369   1.350   5.372
 1169SOL    HW2 4407   4.496   1.263   5.318
 1170SOL     OW 4408   4.758   5.039   2.910
 1170SOL    HW1 4409   4.800   4.948   2.921
 1170SOL    HW2 4410   4.830   5.107   2.893
 1171SOL     OW 4411   0.179   6.336   0.393
 1171SOL    HW1 4412   0.099   6.336   0.452
 1171SOL    HW2 4413   0.262   6.334   0.450
 1172SOL     OW 4414   6.705   3.588   6.561
 1172SOL    HW1 4415   6.673   3.679   6.533
 1172SOL    HW2 4416   6.672   3.520   6.496
 1173SOL     OW 4417   3.856   1.959   0.704
 1173SOL    HW1 4418   3.817   1.989   0.791
 1173SOL    HW2 4419   3.939   2.010   0.685
 1174SOL     OW 4420   2.000   4.507   0.662
 1174SOL    HW1 4421   1.985   4.434   0.729
 1174SOL    HW2 4422   2.089   4.495   0.618
 1175SOL     OW 4423   2.962   3.152   4.502
 1175SOL    HW1 4424   2.958   3.245   4.539
 1175SOL    HW2 4425   2.968   3.157   4.402
 1176SOL     OW 4426   5.259   3.092   6.557
 1176SOL    HW1 4427   5.201   3.122   6.482
 1176SOL    HW2 4428   5.226   3.130   6.643
 1177SOL     OW 4429   1.164   1.798   4.161
 1177SOL    HW1 4430   1.190   1.783   4.066
 1177SOL    HW2 4431   1.172   1.895   4.184
 1178SOL     OW 4432   4.149   5.885   6.948
 1178SOL    HW1 4433   4.110   5.974   6.926
 1178SOL    HW2 4434   4.080   5.829   6.994
 1179SOL     OW 4435   1.294   5.992   7.011
 1179SOL    HW1 4436   1.355   6.017   6.936
 1179SOL    HW2 4437   1.236   6.070   0.018
 1180SOL     OW 4438   3.371   6.416   0.480
 1180SOL    HW1 4439   3.457   6.366   0.487
 1180SOL    HW2 4440   3.388   6.508   0.443
 1181SOL     OW 4441   6.808   6.379   0.128
 1181SOL    HW1 4442   6.841   6.381   0.033
 1181SOL    HW2 4443   6.733   6.445   0.138
 1182SOL     OW 4444   4.713   4.643   2.467
 1182SOL    HW1 4445   4.682   4.722   2.520
 1182SOL    HW2 4446   4.704   4.662   2.370
 1183SOL     OW 4447   1.958   3.850   6.056
 1183SOL    HW1 4448   1.969   3.906   5.974
 1183SOL    HW2 4449   1.933   3.757   6.030
 1184SOL     OW 4450   0.664   6.988   5.393
 1184SOL    HW1 4451   0.618   0.059   5.409
 1184SOL    HW2 4452   0.674   6.940   5.480
 1185SOL     OW 4453   6.681   1.555   6.714
 1185SOL    HW1 4454   6.581   1.557   6.715
 1185SOL    HW2 4455   6.716   1.647   6.701
 1186SOL     OW 4456   6.012   6.206   4.631
 1186SOL    HW1 4457   5.998   6.302   4.610
 1186SOL    HW2 4458   5.965   6.182   4.716
 1187SOL     OW 4459   6.454   0.851   6.020
 1187SOL    HW1 4460   6.366   0.832   5.976
 1187SOL    HW2 4461   6.440   0.907   6.101
 1188SOL     OW 4462   2.791   0.184   6.279
 1188SOL    HW1 4463   2.706   0.219   6.241
 1188SOL    HW2 4464   2.857   0.258   6.288
 1189SOL     OW 4465   5.611   3.607   3.770
 1189SOL    HW1 4466   5.556   3.579   3.849
 1189SOL    HW2 4467   5.621   3.707   3.770
 1190SOL     OW 4468   2.132   6.398   3.778
 1190SOL    HW1 4469   2.161   6.491   3.754
 1190SOL    HW2 4470   2.212   6.341   3.793
 1191SOL     OW 4471   4.176   5.988   2.358
 1191SOL    HW1 4472   4.236   6.000   2.279
 1191SOL    HW2 4473   4.231   5.959   2.436
 1192SOL     OW 4474   5.702   5.876   3.418
 1192SOL    HW1 4475   5.640   5.927   3.357
 1192SOL    HW2 4476   5.757   5.941   3.471
 1193SOL     OW 4477   6.856   5.453   4.228
 1193SOL    HW1 4478   6.864   5.552   4.222
 1193SOL    HW2 4479   6.910   5.419   4.305
 1194SOL     OW 4480   3.728   0.496   1.429
 1194SOL    HW1 4481   3.763   0.517   1.338
 1194SOL    HW2 4482   3.741   0.575   1.489
 1195SOL     OW 4483   5.680   2.578   3.711
 1195SOL    HW1 4484   5.584   2.573   3.740
 1195SOL    HW2 4485   5.692   2.527   3.626
 1196SOL     OW 4486   6.765   6.374   5.000
 1196SOL    HW1 4487   6.826   6.335   4.931
 1196SOL    HW2 4488   6.767   6.474   4.994
 1197SOL     OW 4489   2.102   6.142   0.376
 1197SOL    HW1 4490   2.008   6.141   0.410
 1197SOL    HW2 4491   2.138   6.235   0.381
 1198SOL     OW 4492   1.705   2.741   6.972
 1198SOL    HW1 4493   1.712   2.646   6.940
 1198SOL    HW2 4494   1.615   2.777   6.947
 1199SOL     OW 4495   5.820   4.115   1.483
 1199SOL    HW1 4496   5.780   4.179   1.549
 1199SOL    HW2 4497   5.794   4.021   1.507
 1200SOL     OW 4498   2.927   3.323   2.303
 1200SOL    HW1 4499   2.898   3.413   2.270
 1200SOL    HW2 4500   2.865   3.293   2.376
 1201SOL     OW 4501   1.560   2.384   4.200
 1201SOL    HW1 4502   1.463   2.361   4.212
 1201SOL    HW2 4503   1.568   2.464   4.141
 1202SOL     OW 4504   1.043   5.602   5.533
 1202SOL    HW1 4505   1.056   5.565   5.626
 1202SOL    HW2 4506   1.127   5.648   5.504
 1203SOL     OW 4507   4.287   5.934   5.696
 1203SOL    HW1 4508   4.244   6.020   5.725
 1203SOL    HW2 4509   4.257   5.912   5.603
 1204SOL     OW 4510   2.360   6.766   2.740
 1204SOL    HW1 4511   2.430   6.756   2.670
 1204SOL    HW2 4512   2.281   6.708   2.717
 1205SOL     OW 4513   5.425   4.343   2.289
 1205SOL    HW1 4514   5.518   4.310   2.303
 1205SOL    HW2 4515   5.422   4.441   2.305
 1206SOL     OW 4516   3.093   3.728   4.869
 1206SOL    HW1 4517   3.088   3.628   4.878
 1206SOL    HW2 4518   3.050   3.756   4.783
 1207SOL     OW 4519   1.333   6.119   2.544
 1207SOL    HW1 4520   1.238   6.130   2.514
 1207SOL    HW2 4521   1.388   6.082   2.468
 1208SOL     OW 4522   3.268   3.881   5.657
 1208SOL    HW1 4523   3.310   3.825   5.728
 1208SOL    HW2 4524   3.175   3.906   5.684
 1209SOL     OW 4525   3.825   6.472   5.539
 1209SOL    HW1 4526   3.754   6.413   5.576
 1209SOL    HW2 4527   3.788   6.526   5.464
 1210SOL     OW 4528   3.253   1.075   3.012
 1210SOL    HW1 4529   3.256   1.118   3.102
 1210SOL    HW2 4530   3.204   0.988   3.018
 1211SOL     OW 4531   1.087   3.079   0.176
 1211SOL    HW1 4532   1.025   3.154   0.199
 1211SOL    HW2 4533   1.181   3.114   0.170
 1212SOL     OW 4534   1.118   0.135   0.178
 1212SOL    HW1 4535   1.043   0.104   0.237
 1212SOL    HW2 4536   1.081   0.187   0.101
 1213SOL     OW 4537   5.369   3.134   1.332
 1213SOL    HW1 4538   5.283   3.140   1.280
 1213SOL    HW2 4539   5.442   3.181   1.281
 1214SOL     OW 4540   6.855   2.616   1.761
 1214SOL    HW1 4541   6.875   2.528   1.719
 1214SOL    HW2 4542   6.883   2.690   1.700
 1215SOL     OW 4543   1.501   5.799   3.432
 1215SOL    HW1 4544   1.467   5.757   3.516
 1215SOL    HW2 4545   1.499   5.898   3.440
 1216SOL     OW 4546   3.774   6.546   1.451
 1216SOL    HW1 4547   3.716   6.467   1.473
 1216SOL    HW2 4548   3.722   6.610   1.395
 1217SOL     OW 4549   3.050   4.698   0.236
 1217SOL    HW1 4550   3.023   4.766   0.168
 1217SOL    HW2 4551   2.995   4.616   0.224
 1218SOL     OW 4552   1.969   5.148   3.782
 1218SOL    HW1 4553   1.906   5.163   3.706
 1218SOL    HW2 4554   1.930   5.186   3.866
 1219SOL     OW 4555   4.534   6.314   2.345
 1219SOL    HW1 4556   4.450   6.358   2.378
 1219SOL    HW2 4557   4.518   6.279   2.252
 1220SOL     OW 4558   0.988   4.570   2.705
 1220SOL    HW1 4559   0.958   4.497   2.644
 1220SOL    HW2 4560   0.966   4.545   2.800
 1221SOL     OW 4561   5.117   4.213   6.549
 1221SOL    HW1 4562   5.215   4.231   6.540
 1221SOL    HW2 4563   5.066   4.296   6.528
 1222SOL     OW 4564   6.589   0.737   6.531
 1222SOL    HW1 4565   6.495   0.711   6.507
 1222SOL    HW2 4566   6.608   0.828   6.495
 1223SOL     OW 4567   3.463   6.164   0.775
 1223SOL    HW1 4568   3.478   6.081   0.721
 1223SOL    HW2 4569   3.451   6.242   0.713
 1224SOL     OW 4570   2.862   0.352   2.456
 1224SOL    HW1 4571   2.842   0.296   2.376
 1224SOL    HW2 4572   2.778   0.369   2.508
 1225SOL     OW 4573   2.671   4.054   5.940
 1225SOL    HW1 4574   2.644   4.149   5.922
 1225SOL    HW2 4575   2.741   4.053   6.012
 1226SOL     OW 4576   1.808   4.779   0.967
 1226SOL    HW1 4577   1.873   4.854   0.974
 1226SOL    HW2 4578   1.718   4.814   0.940
 1227SOL     OW 4579   0.851   3.634   5.962
 1227SOL    HW1 4580   0.866   3.536   5.946
 1227SOL    HW2 4581   0.836   3.680   5.874
 1228SOL     OW 4582   3.673   1.864   6.611
 1228SOL    HW1 4583   3.692   1.961   6.596
 1228SOL    HW2 4584   3.575   1.850   6.622
 1229SOL     OW 4585   3.233   4.264   6.211
 1229SOL    HW1 4586   3.261   4.230   6.121
 1229SOL    HW2 4587   3.275   4.207   6.282
 1230SOL     OW 4588   4.530   0.558   3.607
 1230SOL    HW1 4589   4.491   0.466   3.608
 1230SOL    HW2 4590   4.456   0.626   3.607
 1231SOL     OW 4591   1.262   4.525   4.650
 1231SOL    HW1 4592   1.177   4.501   4.603
 1231SOL    HW2 4593   1.307   4.599   4.601
 1232SOL     OW 4594   1.773   2.496   4.338
 1232SOL    HW1 4595   1.792   2.583   4.292
 1232SOL    HW2 4596   1.698   2.449   4.291
 1233SOL     OW 4597   0.541   2.913   4.203
 1233SOL    HW1 4598   0.535   2.947   4.110
 1233SOL    HW2 4599   0.489   2.972   4.265
 1234SOL     OW 4600   6.414   3.834   4.182
 1234SOL    HW1 4601   6.488   3.766   4.187
 1234SOL    HW2 4602   6.330   3.794   4.217
 1235SOL     OW 4603   6.786   5.348   3.759
 1235SOL    HW1 4604   6.834   5.347   3.847
 1235SOL    HW2 4605   6.853   5.346   3.685
 1236SOL     OW 4606   5.331   1.133   6.253
 1236SOL    HW1 4607   5.313   1.209   6.192
 1236SOL    HW2 4608   5.270   1.138   6.332
 1237SOL     OW 4609   3.000   4.919   0.072
 1237SOL    HW1 4610   3.075   4.983   0.057
 1237SOL    HW2 4611   2.945   4.912   7.005
 1238SOL     OW 4612   1.265   1.805   1.511
 1238SOL    HW1 4613   1.357   1.824   1.476
 1238SOL    HW2 4614   1.197   1.857   1.459
 1239SOL     OW 4615   0.720   0.013   5.718
 1239SOL    HW1 4616   0.790   0.083   5.735
 1239SOL    HW2 4617   0.764   6.944   5.691
 1240SOL     OW 4618   4.299   6.153   1.925
 1240SOL    HW1 4619   4.304   6.252   1.918
 1240SOL    HW2 4620   4.207   6.126   1.956
 1241SOL     OW 4621   0.171   2.610   4.192
 1241SOL    HW1 4622   0.114   2.673   4.245
 1241SOL    HW2 4623   0.151   2.516   4.219
 1242SOL     OW 4624   2.233   3.638   6.491
 1242SOL    HW1 4625   2.169   3.714   6.501
 1242SOL    HW2 4626   2.183   3.551   6.501
 1243SOL     OW 4627   2.912   5.431   5.620
 1243SOL    HW1 4628   2.944   5.384   5.702
 1243SOL    HW2 4629   2.889   5.364   5.549
 1244SOL     OW 4630   0.821   1.031   3.031
 1244SOL    HW1 4631   0.901   1.014   3.088
 1244SOL    HW2 4632   0.824   0.971   2.950
 1245SOL     OW 4633   2.931   3.173   6.424
 1245SOL    HW1 4634   2.912   3.243   6.492
 1245SOL    HW2 4635   2.846   3.128   6.397
 1246SOL     OW 4636   0.971   0.093   1.278
 1246SOL    HW1 4637   0.994   0.190   1.269
 1246SOL    HW2 4638   1.052   0.041   1.304
 1247SOL     OW 4639   0.832   6.668   6.727
 1247SOL    HW1 4640   0.927   6.694   6.707
 1247SOL    HW2 4641   0.781   6.749   6.757
 1248SOL     OW 4642   1.975   6.675   3.522
 1248SOL    HW1 4643   1.921   6.618   3.583
 1248SOL    HW2 4644   2.014   6.752   3.573
 1249SOL     OW 4645   6.080   3.272   3.519
 1249SOL    HW1 4646   6.037   3.212   3.452
 1249SOL    HW2 4647   6.113   3.217   3.596
 1250SOL     OW 4648   0.407   3.934   4.267
 1250SOL    HW1 4649   0.494   3.887   4.286
 1250SOL    HW2 4650   0.347   3.874   4.215
 1251SOL     OW 4651   3.518   7.012   5.905
 1251SOL    HW1 4652   3.584   0.063   5.937
 1251SOL    HW2 4653   3.494   6.951   5.981
 1252SOL     OW 4654   3.607   3.220   6.677
 1252SOL    HW1 4655   3.540   3.175   6.617
 1252SOL    HW2 4656   3.635   3.306   6.636
 1253SOL     OW 4657   4.254   6.614   3.201
 1253SOL    HW1 4658   4.232   6.660   3.115
 1253SOL    HW2 4659   4.322   6.542   3.183
 1254SOL     OW 4660   6.655   2.014   2.430
 1254SOL    HW1 4661   6.645   2.091   2.492
 1254SOL    HW2 4662   6.698   1.937   2.477
 1255SOL     OW 4663   5.848   0.571   0.232
 1255SOL    HW1 4664   5.815   0.512   0.305
 1255SOL    HW2 4665   5.947   0.584   0.242
 1256SOL     OW 4666   4.942   1.790   4.076
 1256SOL    HW1 4667   4.986   1.876   4.100
 1256SOL    HW2 4668   4.873   1.806   4.005
 1257SOL     OW 4669   6.209   1.644   4.286
 1257SOL    HW1 4670   6.217   1.725   4.227
 1257SOL    HW2 4671   6.141   1.582   4.247
 1258SOL     OW 4672   0.114   6.061   3.808
 1258SOL    HW1 4673   0.134   6.156   3.785
 1258SOL    HW2 4674   0.199   6.013   3.829
 1259SOL     OW 4675   4.304   2.320   5.332
 1259SOL    HW1 4676   4.298   2.257   5.254
 1259SOL    HW2 4677   4.246   2.400   5.315
 1260SOL     OW 4678   0.691   1.603   5.533
 1260SOL    HW1 4679   0.678   1.672   5.461
 1260SOL    HW2 4680   0.766   1.631   5.592
 1261SOL     OW 4681   6.380   3.808   0.634
 1261SOL    HW1 4682   6.478   3.788   0.624
 1261SOL    HW2 4683   6.361   3.834   0.728
 1262SOL     OW 4684   5.002   5.971   2.467
 1262SOL    HW1 4685   4.926   5.995   2.528
 1262SOL    HW2 4686   5.066   6.048   2.463
 1263SOL     OW 4687   6.554   2.536   3.380
 1263SOL    HW1 4688   6.587   2.571   3.468
 1263SOL    HW2 4689   6.459   2.506   3.390
 1264SOL     OW 4690   0.945   2.873   5.709
 1264SOL    HW1 4691   0.977   2.960   5.744
 1264SOL    HW2 4692   0.848   2.862   5.731
 1265SOL     OW 4693   5.720   6.696   6.060
 1265SOL    HW1 4694   5.811   6.664   6.088
 1265SOL    HW2 4695   5.676   6.625   6.005
 1266SOL     OW 4696   2.247   0.971   5.675
 1266SOL    HW1 4697   2.255   0.874   5.694
 1266SOL    HW2 4698   2.155   1.003   5.699
 1267SOL     OW 4699   3.617   0.224   2.501
 1267SOL    HW1 4700   3.701   0.185   2.538
 1267SOL    HW2 4701   3.539   0.200   2.559
 1268SOL     OW 4702   3.979   3.063   5.791
 1268SOL    HW1 4703   3.952   3.141   5.734
 1268SOL    HW2 4704   4.079   3.059   5.794
 1269SOL     OW 4705   5.853   2.067   3.749
 1269SOL    HW1 4706   5.933   2.019   3.713
 1269SOL    HW2 4707   5.852   2.059   3.849
 1270SOL     OW 4708   6.489   4.787   2.857
 1270SOL    HW1 4709   6.563   4.841   2.897
 1270SOL    HW2 4710   6.420   4.769   2.927
 1271SOL     OW 4711   2.116   1.377   0.951
 1271SOL    HW1 4712   2.079   1.321   0.877
 1271SOL    HW2 4713   2.080   1.471   0.942
 1272SOL     OW 4714   6.122   1.949   7.013
 1272SOL    HW1 4715   6.085   1.926   6.922
 1272SOL    HW2 4716   6.122   2.049   0.007
 1273SOL     OW 4717   1.525   4.349   5.453
 1273SOL    HW1 4718   1.601   4.381   5.510
 1273SOL    HW2 4719   1.444   4.338   5.509
 1274SOL     OW 4720   0.186   4.769   3.345
 1274SOL    HW1 4721   0.178   4.689   3.286
 1274SOL    HW2 4722   0.215   4.848   3.291
 1275SOL     OW 4723   2.113   1.659   2.570
 1275SOL    HW1 4724   2.113   1.632   2.473
 1275SOL    HW2 4725   2.204   1.691   2.595
 1276SOL     OW 4726   5.816   4.973   3.505
 1276SOL    HW1 4727   5.821   4.900   3.573
 1276SOL    HW2 4728   5.753   4.946   3.432
 1277SOL     OW 4729   0.519   6.394   6.995
 1277SOL    HW1 4730   0.495   6.305   0.016
 1277SOL    HW2 4731   0.456   6.417   6.921
 1278SOL     OW 4732   0.740   5.571   2.969
 1278SOL    HW1 4733   0.753   5.564   2.870
 1278SOL    HW2 4734   0.650   5.610   2.988
 1279SOL     OW 4735   2.711   2.748   1.531
 1279SOL    HW1 4736   2.647   2.706   1.595
 1279SOL    HW2 4737   2.785   2.792   1.582
 1280SOL     OW 4738   2.535   2.494   3.977
 1280SOL    HW1 4739   2.538   2.471   3.880
 1280SOL    HW2 4740   2.625   2.482   4.017
 1281SOL     OW 4741   6.257   6.438   4.783
 1281SOL    HW1 4742   6.203   6.426   4.867
 1281SOL    HW2 4743   6.352   6.458   4.806
 1282SOL     OW 4744   0.619   2.816   1.350
 1282SOL    HW1 4745   0.655   2.909   1.360
 1282SOL    HW2 4746   0.671   2.767   1.280
 1283SOL     OW 4747   6.788   1.805   4.792
 1283SOL    HW1 4748   6.857   1.876   4.783
 1283SOL    HW2 4749   6.718   1.815   4.721
 1284SOL     OW 4750   3.773   2.003   1.856
 1284SOL    HW1 4751   3.873   2.006   1.853
 1284SOL    HW2 4752   3.738   2.088   1.895
 1285SOL     OW 4753   4.577   1.162   4.220
 1285SOL    HW1 4754   4.626   1.116   4.147
 1285SOL    HW2 4755   4.631   1.240   4.253
 1286SOL     OW 4756   5.206   1.394   0.918
 1286SOL    HW1 4757   5.305   1.411   0.921
 1286SOL    HW2 4758   5.159   1.478   0.889
 1287SOL     OW 4759   6.117   4.768   4.990
 1287SOL    HW1 4760   6.181   4.813   4.928
 1287SOL    HW2 4761   6.089   4.680   4.951
 1288SOL     OW 4762   5.003   4.843   0.153
 1288SOL    HW1 4763   4.943   4.915   0.187
 1288SOL    HW2 4764   5.098   4.873   0.157
 1289SOL     OW 4765   6.608   6.987   0.904
 1289SOL    HW1 4766   6.561   6.927   0.838
 1289SOL    HW2 4767   6.706   6.986   0.886
 1290SOL     OW 4768   1.409   6.291   5.397
 1290SOL    HW1 4769   1.445   6.307   5.489
 1290SOL    HW2 4770   1.310   6.297   5.399
 1291SOL     OW 4771   6.105   5.264   4.135
 1291SOL    HW1 4772   6.091   5.225   4.226
 1291SOL    HW2 4773   6.184   5.325   4.136
 1292SOL     OW 4774   1.150   6.955   2.057
 1292SOL    HW1 4775   1.062   6.908   2.061
 1292SOL    HW2 4776   1.183   6.957   1.962
 1293SOL     OW 4777   4.733   1.034   0.400
 1293SOL    HW1 4778   4.826   1.050   0.366
 1293SOL    HW2 4779   4.684   1.121   0.407
 1294SOL     OW 4780   1.883   4.749   5.077
 1294SOL    HW1 4781   1.961   4.782   5.129
 1294SOL    HW2 4782   1.907   4.743   4.980
 1295SOL     OW 4783   6.567   4.255   0.613
 1295SOL    HW1 4784   6.588   4.180   0.677
 1295SOL    HW2 4785   6.562   4.219   0.520
 1296SOL     OW 4786   5.077   6.898   5.986
 1296SOL    HW1 4787   5.011   6.969   5.963
 1296SOL    HW2 4788   5.117   6.917   6.076
 1297SOL     OW 4789   6.911   0.073   1.595
 1297SOL    HW1 4790   6.913   0.169   1.621
 1297SOL    HW2 4791   6.874   0.019   1.670
 1298SOL     OW 4792   5.348   0.683   2.850
 1298SOL    HW1 4793   5.292   0.725   2.922
 1298SOL    HW2 4794   5.289   0.660   2.772
 1299SOL     OW 4795   0.829   3.262   4.244
 1299SOL    HW1 4796   0.791   3.283   4.334
 1299SOL    HW2 4797   0.924   3.294   4.240
 1300SOL     OW 4798   0.265   5.831   0.960
 1300SOL    HW1 4799   0.261   5.925   0.994
 1300SOL    HW2 4800   0.356   5.814   0.922
 1301SOL     OW 4801   6.726   0.634   0.166
 1301SOL    HW1 4802   6.753   0.629   0.262
 1301SOL    HW2 4803   6.741   0.727   0.132
 1302SOL     OW 4804   6.489   0.020   5.539
 1302SOL    HW1 4805   6.471   0.032   5.442
 1302SOL    HW2 4806   6.586   0.000   5.554
 1303SOL     OW 4807   3.165   6.073   1.654
 1303SOL    HW1 4808   3.104   6.151   1.671
 1303SOL    HW2 4809   3.238   6.073   1.723
 1304SOL     OW 4810   0.069   0.860   0.864
 1304SOL    HW1 4811   0.147   0.883   0.806
 1304SOL    HW2 4812   0.019   0.944   0.888
 1305SOL     OW 4813   4.022   4.550   6.025
 1305SOL    HW1 4814   4.057   4.629   5.977
 1305SOL    HW2 4815   3.980   4.486   5.960
 1306SOL     OW 4816   3.280   5.746   4.009
 1306SOL    HW1 4817   3.275   5.846   4.005
 1306SOL    HW2 4818   3.375   5.718   4.019
 1307SOL     OW 4819   2.245   2.932   3.952
 1307SOL    HW1 4820   2.255   2.970   4.044
 1307SOL    HW2 4821   2.250   3.006   3.885
 1308SOL     OW 4822   6.875   3.888   6.360
 1308SOL    HW1 4823   6.974   3.884   6.366
 1308SOL    HW2 4824   6.843   3.819   6.295
 1309SOL     OW 4825   6.295   4.147   6.734
 1309SOL    HW1 4826   6.203   4.116   6.761
 1309SOL    HW2 4827   6.304   4.141   6.635
 1310SOL     OW 4828   1.647   4.407   3.016
 1310SOL    HW1 4829   1.551   4.432   3.030
 1310SOL    HW2 4830   1.656   4.308   3.026
 1311SOL     OW 4831   5.388   5.334   0.159
 1311SOL    HW1 4832   5.405   5.357   0.063
 1311SOL    HW2 4833   5.472   5.301   0.201
 1312SOL     OW 4834   2.711   1.326   5.994
 1312SOL    HW1 4835   2.776   1.369   5.931
 1312SOL    HW2 4836   2.757   1.308   6.082
 1313SOL     OW 4837   6.568   5.377   1.545
 1313SOL    HW1 4838   6.540   5.394   1.640
 1313SOL    HW2 4839   6.555   5.460   1.491
 1314SOL     OW 4840   2.313   1.885   3.868
 1314SOL    HW1 4841   2.267   1.886   3.780
 1314SOL    HW2 4842   2.289   1.967   3.920
 1315SOL     OW 4843   6.463   1.153   2.686
 1315SOL    HW1 4844   6.462   1.231   2.750
 1315SOL    HW2 4845   6.497   1.072   2.733
 1316SOL     OW 4846   5.259   0.047   6.535
 1316SOL    HW1 4847   5.313   0.124   6.570
 1316SOL    HW2 4848   5.174   0.039   6.589
 1317SOL     OW 4849   3.237   3.139   5.536
 1317SOL    HW1 4850   3.184   3.064   5.576
 1317SOL    HW2 4851   3.306   3.169   5.601
 1318SOL     OW 4852   1.966   1.546   5.668
 1318SOL    HW1 4853   1.933   1.453   5.688
 1318SOL    HW2 4854   1.987   1.554   5.571
 1319SOL     OW 4855   6.906   0.294   0.416
 1319SOL    HW1 4856   6.990   0.312   0.468
 1319SOL    HW2 4857   6.859   0.215   0.456
 1320SOL     OW 4858   3.376   3.379   6.365
 1320SOL    HW1 4859   3.355   3.477   6.359
 1320SOL    HW2 4860   3.307   3.335   6.423
 1321SOL     OW 4861   0.174   2.741   0.526
 1321SOL    HW1 4862   0.118   2.674   0.575
 1321SOL    HW2 4863   0.124   2.773   0.445
 1322SOL     OW 4864   3.745   2.299   6.837
 1322SOL    HW1 4865   3.836   2.325   6.805
 1322SOL    HW2 4866   3.730   2.336   6.929
 1323SOL     OW 4867   3.748   6.773   1.241
 1323SOL    HW1 4868   3.764   6.865   1.277
 1323SOL    HW2 4869   3.657   6.769   1.201
 1324SOL     OW 4870   2.405   3.979   6.017
 1324SOL    HW1 4871   2.355   3.895   5.995
 1324SOL    HW2 4872   2.499   3.971   5.985
 1325SOL     OW 4873   3.554   5.677   5.388
 1325SOL    HW1 4874   3.583   5.664   5.293
 1325SOL    HW2 4875   3.517   5.591   5.423
 1326SOL     OW 4876   5.282   1.693   4.697
 1326SOL    HW1 4877   5.218   1.763   4.729
 1326SOL    HW2 4878   5.234   1.629   4.637
 1327SOL     OW 4879   4.907   5.542   2.707
 1327SOL    HW1 4880   4.958   5.570   2.789
 1327SOL    HW2 4881   4.852   5.619   2.674
 1328SOL     OW 4882   1.994   2.106   6.115
 1328SOL    HW1 4883   1.950   2.182   6.066
 1328SOL    HW2 4884   1.992   2.124   6.213
 1329SOL     OW 4885   0.633   2.425   3.987
 1329SOL    HW1 4886   0.724   2.450   3.952
 1329SOL    HW2 4887   0.602   2.494   4.051
 1330SOL     OW 4888   5.864   3.151   2.807
 1330SOL    HW1 4889   5.933   3.089   2.769
 1330SOL    HW2 4890   5.782   3.100   2.830
 1331SOL     OW 4891   4.497   2.512   3.471
 1331SOL    HW1 4892   4.513   2.414   3.458
 1331SOL    HW2 4893   4.483   2.531   3.568
 1332SOL     OW 4894   2.086   5.702   0.314
 1332SOL    HW1 4895   2.112   5.796   0.288
 1332SOL    HW2 4896   2.068   5.699   0.412
 1333SOL     OW 4897   3.704   4.025   3.087
 1333SOL    HW1 4898   3.608   3.995   3.083
 1333SOL    HW2 4899   3.743   4.000   3.175
 1334SOL     OW 4900   6.522   3.325   1.860
 1334SOL    HW1 4901   6.561   3.272   1.935
 1334SOL    HW2 4902   6.460   3.394   1.897
 1335SOL     OW 4903   0.696   3.270   3.233
 1335SOL    HW1 4904   0.768   3.266   3.303
 1335SOL    HW2 4905   0.668   3.365   3.219
 1336SOL     OW 4906   1.983   0.319   5.426
 1336SOL    HW1 4907   1.965   0.371   5.509
 1336SOL    HW2 4908   2.024   0.379   5.357
 1337SOL     OW 4909   6.901   6.756   2.554
 1337SOL    HW1 4910   6.893   6.808   2.469
 1337SOL    HW2 4911   6.941   6.813   2.625
 1338SOL     OW 4912   6.390   3.907   5.232
 1338SOL    HW1 4913   6.484   3.889   5.261
 1338SOL    HW2 4914   6.333   3.921   5.313
 1339SOL     OW 4915   6.147   0.420   6.968
 1339SOL    HW1 4916   6.103   0.331   6.984
 1339SOL    HW2 4917   6.242   0.405   6.939
 1340SOL     OW 4918   3.649   2.719   1.348
 1340SOL    HW1 4919   3.718   2.780   1.387
 1340SOL    HW2 4920   3.627   2.749   1.255
 1341SOL     OW 4921   4.965   6.133   6.791
 1341SOL    HW1 4922   5.055   6.155   6.751
 1341SOL    HW2 4923   4.972   6.132   6.890
 1342SOL     OW 4924   1.695   6.238   1.413
 1342SOL    HW1 4925   1.753   6.164   1.378
 1342SOL    HW2 4926   1.636   6.202   1.485
 1343SOL     OW 4927   5.496   5.660   3.023
 1343SOL    HW1 4928   5.586   5.674   2.980
 1343SOL    HW2 4929   5.506   5.598   3.101
 1344SOL     OW 4930   0.937   0.674   4.496
 1344SOL    HW1 4931   0.955   0.609   4.423
 1344SOL    HW2 4932   1.006   0.747   4.494
 1345SOL     OW 4933   1.192   6.636   6.965
 1345SOL    HW1 4934   1.099   6.610   6.994
 1345SOL    HW2 4935   1.216   6.723   7.007
 1346SOL     OW 4936   3.117   5.194   4.395
 1346SOL    HW1 4937   3.177   5.204   4.474
 1346SOL    HW2 4938   3.088   5.099   4.387
 1347SOL     OW 4939   1.549   0.684   6.574
 1347SOL    HW1 4940   1.569   0.689   6.672
 1347SOL    HW2 4941   1.480   0.614   6.558
 1348SOL     OW 4942   1.015   6.190   5.029
 1348SOL    HW1 4943   0.966   6.103   5.042
 1348SOL    HW2 4944   0.988   6.254   5.101
 1349SOL     OW 4945   5.143   3.376   4.239
 1349SOL    HW1 4946   5.137   3.361   4.338
 1349SOL    HW2 4947   5.063   3.429   4.209
 1350SOL     OW 4948   4.602   4.726   0.088
 1350SOL    HW1 4949   4.546   4.684   0.016
 1350SOL    HW2 4950   4.687   4.674   0.098
 1351SOL     OW 4951   0.137   2.907   6.129
 1351SOL    HW1 4952   0.050   2.957   6.133
 1351SOL    HW2 4953   0.141   2.856   6.043
 1352SOL     OW 4954   0.227   0.898   3.098
 1352SOL    HW1 4955   0.260   0.811   3.063
 1352SOL    HW2 4956   0.150   0.883   3.159
 1353SOL     OW 4957   0.015   0.893   0.477
 1353SOL    HW1 4958   0.084   0.959   0.450
 1353SOL    HW2 4959   6.954   0.942   0.517
 1354SOL     OW 4960   4.718   4.999   2.451
 1354SOL    HW1 4961   4.621   5.005   2.429
 1354SOL    HW2 4962   4.750   5.089   2.482
 1355SOL     OW 4963   4.783   3.062   5.253
 1355SOL    HW1 4964   4.789   3.104   5.344
 1355SOL    HW2 4965   4.798   3.132   5.183
 1356SOL     OW 4966   2.865   3.409   0.220
 1356SOL    HW1 4967   2.799   3.419   0.294
 1356SOL    HW2 4968   2.874   3.497   0.172
 1357SOL     OW 4969   1.455   2.605   5.533
 1357SOL    HW1 4970   1.383   2.612   5.602
 1357SOL    HW2 4971   1.502   2.693   5.525
 1358SOL     OW 4972   1.969   6.934   0.111
 1358SOL    HW1 4973   1.959   6.856   0.173
 1358SOL    HW2 4974   1.956   0.002   0.161
 1359SOL     OW 4975   6.349   4.040   1.206
 1359SOL    HW1 4976   6.324   4.084   1.120
 1359SOL    HW2 4977   6.304   3.950   1.211
 1360SOL     OW 4978   2.100   2.785   0.143
 1360SOL    HW1 4979   2.034   2.837   0.197
 1360SOL    HW2 4980   2.181   2.768   0.199
 1361SOL     OW 4981   6.653   4.370   4.830
 1361SOL    HW1 4982   6.655   4.464   4.862
 1361SOL    HW2 4983   6.658   4.307   4.908
 1362SOL     OW 4984   3.108   3.636   2.866
 1362SOL    HW1 4985   3.078   3.715   2.813
 1362SOL    HW2 4986   3.207   3.643   2.882
 1363SOL     OW 4987   0.956   6.194   4.239
 1363SOL    HW1 4988   0.975   6.257   4.164
 1363SOL    HW2 4989   1.023   6.208   4.312
 1364SOL     OW 4990   4.750   4.172   0.660
 1364SOL    HW1 4991   4.676   4.162   0.727
 1364SOL    HW2 4992   4.838   4.171   0.708
 1365SOL     OW 4993   6.554   3.027   6.456
 1365SOL    HW1 4994   6.515   3.119   6.467
 1365SOL    HW2 4995   6.591   2.997   6.544
 1366SOL     OW 4996   2.395   0.104   5.704
 1366SOL    HW1 4997   2.304   0.146   5.697
 1366SOL    HW2 4998   2.462   0.163   5.660
 1367SOL     OW 4999   2.807   1.386   1.961
 1367SOL    HW1 5000   2.834   1.301   1.916
 1367SOL    HW2 5001   2.795   1.457   1.892
 1368SOL     OW 5002   5.855   6.463   3.165
 1368SOL    HW1 5003   5.920   6.508   3.227
 1368SOL    HW2 5004   5.861   6.364   3.178
 1369SOL     OW 5005   1.107   0.609   2.560
 1369SOL    HW1 5006   1.187   0.640   2.611
 1369SOL    HW2 5007   1.089   0.513   2.581
 1370SOL     OW 5008   2.381   1.126   1.756
 1370SOL    HW1 5009   2.331   1.207   1.724
 1370SOL    HW2 5010   2.450   1.155   1.823
 1371SOL     OW 5011   3.617   0.240   6.348
 1371SOL    HW1 5012   3.518   0.251   6.345
 1371SOL    HW2 5013   3.658   0.318   6.395
 1372SOL     OW 5014   2.742   2.137   1.906
 1372SOL    HW1 5015   2.807   2.100   1.840
 1372SOL    HW2 5016   2.777   2.223   1.944
 1373SOL     OW 5017   1.643   5.795   6.829
 1373SOL    HW1 5018   1.618   5.847   6.910
 1373SOL    HW2 5019   1.581   5.716   6.820
 1374SOL     OW 5020   5.132   4.291   0.050
 1374SOL    HW1 5021   5.072   4.256   0.122
 1374SOL    HW2 5022   5.199   4.353   0.090
 1375SOL     OW 5023   0.912   4.649   5.387
 1375SOL    HW1 5024   0.830   4.625   5.440
 1375SOL    HW2 5025   0.993   4.642   5.446
 1376SOL     OW 5026   4.943   1.020   2.412
 1376SOL    HW1 5027   4.910   0.963   2.487
 1376SOL    HW2 5028   4.994   1.098   2.449
 1377SOL     OW 5029   1.029   4.506   4.502
 1377SOL    HW1 5030   0.968   4.539   4.430
 1377SOL    HW2 5031   0.998   4.415   4.532
 1378SOL     OW 5032   1.909   2.913   6.845
 1378SOL    HW1 5033   1.840   2.854   6.888
 1378SOL    HW2 5034   1.863   2.990   6.800
 1379SOL     OW 5035   4.246   6.185   1.162
 1379SOL    HW1 5036   4.219   6.106   1.217
 1379SOL    HW2 5037   4.187   6.262   1.184
 1380SOL     OW 5038   5.880   5.006   2.943
 1380SOL    HW1 5039   5.882   5.000   2.844
 1380SOL    HW2 5040   5.791   4.974   2.977
 1381SOL     OW 5041   5.699   6.761   1.990
 1381SOL    HW1 5042   5.640   6.826   2.038
 1381SOL    HW2 5043   5.770   6.811   1.941
 1382SOL     OW 5044   0.103   4.265   6.431
 1382SOL    HW1 5045   0.086   4.297   6.525
 1382SOL    HW2 5046   0.190   4.303   6.399
 1383SOL     OW 5047   2.309   0.374   0.318
 1383SOL    HW1 5048   2.284   0.277   0.316
 1383SOL    HW2 5049   2.318   0.408   0.225
 1384SOL     OW 5050   2.225   2.053   2.348
 1384SOL    HW1 5051   2.227   2.122   2.419
 1384SOL    HW2 5052   2.184   1.969   2.384
 1385SOL     OW 5053   5.167   3.191   4.035
 1385SOL    HW1 5054   5.127   3.221   3.948
 1385SOL    HW2 5055   5.143   3.256   4.107
 1386SOL     OW 5056   2.185   3.129   3.775
 1386SOL    HW1 5057   2.185   3.226   3.749
 1386SOL    HW2 5058   2.167   3.073   3.695
 1387SOL     OW 5059   2.844   0.317   4.415
 1387SOL    HW1 5060   2.843   0.289   4.319
 1387SOL    HW2 5061   2.846   0.417   4.421
 1388SOL     OW 5062   5.655   1.548   4.155
 1388SOL    HW1 5063   5.665   1.461   4.107
 1388SOL    HW2 5064   5.598   1.610   4.101
 1389SOL     OW 5065   6.833   0.527   3.784
 1389SOL    HW1 5066   6.859   0.623   3.779
 1389SOL    HW2 5067   6.799   0.507   3.876
 1390SOL     OW 5068   4.476   2.475   2.759
 1390SOL    HW1 5069   4.395   2.529   2.784
 1390SOL    HW2 5070   4.554   2.536   2.746
 1391SOL     OW 5071   5.608   1.254   4.503
 1391SOL    HW1 5072   5.648   1.235   4.593
 1391SOL    HW2 5073   5.525   1.200   4.492
 1392SOL     OW 5074   4.378   6.397   5.624
 1392SOL    HW1 5075   4.466   6.357   5.648
 1392SOL    HW2 5076   4.345   6.358   5.538
 1393SOL     OW 5077   4.580   0.061   0.176
 1393SOL    HW1 5078   4.535   0.138   0.131
 1393SOL    HW2 5079   4.523   6.996   0.168
 1394SOL     OW 5080   4.570   7.016   4.127
 1394SOL    HW1 5081   4.479   0.006   4.168
 1394SOL    HW2 5082   4.579   0.066   4.053
 1395SOL     OW 5083   0.275   5.119   2.439
 1395SOL    HW1 5084   0.237   5.138   2.349
 1395SOL    HW2 5085   0.374   5.132   2.438
 1396SOL     OW 5086   1.104   2.055   3.492
 1396SOL    HW1 5087   1.024   2.012   3.534
 1396SOL    HW2 5088   1.073   2.126   3.428
 1397SOL     OW 5089   1.699   5.057   5.118
 1397SOL    HW1 5090   1.682   4.982   5.054
 1397SOL    HW2 5091   1.618   5.073   5.174
 1398SOL     OW 5092   2.144   6.860   6.479
 1398SOL    HW1 5093   2.057   6.820   6.450
 1398SOL    HW2 5094   2.210   6.787   6.498
 1399SOL     OW 5095   3.638   0.407   7.000
 1399SOL    HW1 5096   3.628   0.465   0.064
 1399SOL    HW2 5097   3.734   0.381   6.990
 1400SOL     OW 5098   0.274   0.536   5.685
 1400SOL    HW1 5099   0.329   0.458   5.715
 1400SOL    HW2 5100   0.300   0.561   5.592
 1401SOL     OW 5101   5.626   0.111   1.926
 1401SOL    HW1 5102   5.676   0.186   1.969
 1401SOL    HW2 5103   5.691   0.050   1.880
 1402SOL     OW 5104   6.230   4.396   2.152
 1402SOL    HW1 5105   6.235   4.463   2.078
 1402SOL    HW2 5106   6.183   4.438   2.231
 1403SOL     OW 5107   2.916   3.772   6.291
 1403SOL    HW1 5108   2.970   3.792   6.209
 1403SOL    HW2 5109   2.838   3.834   6.295
 1404SOL     OW 5110   3.663   6.651   0.565
 1404SOL    HW1 5111   3.663   6.663   0.664
 1404SOL    HW2 5112   3.732   6.582   0.540
 1405SOL     OW 5113   1.001   3.594   0.469
 1405SOL    HW1 5114   0.917   3.602   0.416
 1405SOL    HW2 5115   1.044   3.506   0.451
 1406SOL     OW 5116   2.469   2.723   6.889
 1406SOL    HW1 5117   2.436   2.758   6.801
 1406SOL    HW2 5118   2.473   2.797   6.955
 1407SOL     OW 5119   0.482   2.245   1.005
 1407SOL    HW1 5120   0.538   2.248   0.922
 1407SOL    HW2 5121   0.431   2.330   1.014
 1408SOL     OW 5122   5.095   6.253   0.549
 1408SOL    HW1 5123   5.099   6.196   0.467
 1408SOL    HW2 5124   5.181   6.303   0.558
 1409SOL     OW 5125   6.078   1.689   5.707
 1409SOL    HW1 5126   6.062   1.788   5.706
 1409SOL    HW2 5127   6.163   1.669   5.659
 1410SOL     OW 5128   2.923   0.895   0.349
 1410SOL    HW1 5129   3.006   0.843   0.327
 1410SOL    HW2 5130   2.854   0.833   0.385
 1411SOL     OW 5131   3.694   5.348   6.721
 1411SOL    HW1 5132   3.758   5.273   6.706
 1411SOL    HW2 5133   3.709   5.419   6.652
 1412SOL     OW 5134   2.238   2.362   6.802
 1412SOL    HW1 5135   2.256   2.427   6.876
 1412SOL    HW2 5136   2.184   2.407   6.731
 1413SOL     OW 5137   2.486   1.500   5.484
 1413SOL    HW1 5138   2.436   1.414   5.497
 1413SOL    HW2 5139   2.422   1.577   5.492
 1414SOL     OW 5140   0.316   4.946   1.999
 1414SOL    HW1 5141   0.409   4.973   2.020
 1414SOL    HW2 5142   0.286   4.990   1.914
 1415SOL     OW 5143   3.887   1.704   4.969
 1415SOL    HW1 5144   3.844   1.779   5.019
 1415SOL    HW2 5145   3.957   1.741   4.908
 1416SOL     OW 5146   4.704   0.332   5.016
 1416SOL    HW1 5147   4.652   0.279   4.949
 1416SOL    HW2 5148   4.736   0.417   4.974
 1417SOL     OW 5149   3.381   3.286   4.436
 1417SOL    HW1 5150   3.467   3.298   4.385
 1417SOL    HW2 5151   3.396   3.313   4.532
 1418SOL     OW 5152   2.933   3.415   5.080
 1418SOL    HW1 5153   2.891   3.351   5.145
 1418SOL    HW2 5154   2.933   3.507   5.119
 1419SOL     OW 5155   1.257   5.904   2.125
 1419SOL    HW1 5156   1.231   5.965   2.050
 1419SOL    HW2 5157   1.176   5.855   2.158
 1420SOL     OW 5158   3.098   6.156   3.226
 1420SOL    HW1 5159   3.143   6.230   3.176
 1420SOL    HW2 5160   3.126   6.068   3.187
 1421SOL     OW 5161   1.828   5.626   0.248
 1421SOL    HW1 5162   1.922   5.652   0.270
 1421SOL    HW2 5163   1.819   5.614   0.149
 1422SOL     OW 5164   1.508   3.798   6.947
 1422SOL    HW1 5165   1.585   3.793   6.883
 1422SOL    HW2 5166   1.487   3.894   6.966
 1423SOL     OW 5167   4.501   1.167   4.658
 1423SOL    HW1 5168   4.432   1.210   4.715
 1423SOL    HW2 5169   4.459   1.131   4.575
 1424SOL     OW 5170   6.156   2.380   1.391
 1424SOL    HW1 5171   6.118   2.461   1.345
 1424SOL    HW2 5172   6.124   2.297   1.345
 1425SOL     OW 5173   5.661   0.005   3.274
 1425SOL    HW1 5174   5.606   0.084   3.303
 1425SOL    HW2 5175   5.736   7.008   3.338
 1426SOL     OW 5176   3.779   1.019   0.776
 1426SOL    HW1 5177   3.796   1.086   0.848
 1426SOL    HW2 5178   3.754   1.066   0.691
 1427SOL     OW 5179   1.027   0.552   4.263
 1427SOL    HW1 5180   0.951   0.495   4.232
 1427SOL    HW2 5181   1.101   0.548   4.196
 1428SOL     OW 5182   2.071   4.005   3.908
 1428SOL    HW1 5183   2.138   3.950   3.958
 1428SOL    HW2 5184   2.115   4.085   3.869
 1429SOL     OW 5185   5.941   0.149   2.124
 1429SOL    HW1 5186   5.948   0.169   2.222
 1429SOL    HW2 5187   5.873   0.209   2.083
 1430SOL     OW 5188   2.226   4.241   4.385
 1430SOL    HW1 5189   2.229   4.211   4.289
 1430SOL    HW2 5190   2.169   4.178   4.437
 1431SOL     OW 5191   3.218   1.825   0.566
 1431SOL    HW1 5192   3.153   1.815   0.490
 1431SOL    HW2 5193   3.274   1.743   0.572
 1432SOL     OW 5194   4.652   0.446   3.314
 1432SOL    HW1 5195   4.637   0.392   3.231
 1432SOL    HW2 5196   4.616   0.397   3.393
 1433SOL     OW 5197   3.068   1.903   3.802
 1433SOL    HW1 5198   3.158   1.911   3.760
 1433SOL    HW2 5199   3.029   1.813   3.781
 1434SOL     OW 5200   5.197   3.660   0.821
 1434SOL    HW1 5201   5.239   3.746   0.851
 1434SOL    HW2 5202   5.265   3.586   0.826
 1435SOL     OW 5203   0.578   6.506   4.243
 1435SOL    HW1 5204   0.612   6.413   4.236
 1435SOL    HW2 5205   0.599   6.556   4.159
 1436SOL     OW 5206   5.173   0.507   0.327
 1436SOL    HW1 5207   5.161   0.555   0.414
 1436SOL    HW2 5208   5.207   0.415   0.343
 1437SOL     OW 5209   4.419   1.102   0.519
 1437SOL    HW1 5210   4.462   1.181   0.475
 1437SOL    HW2 5211   4.326   1.126   0.546
 1438SOL     OW 5212   2.246   0.078   2.784
 1438SOL    HW1 5213   2.322   0.021   2.816
 1438SOL    HW2 5214   2.212   0.042   2.697
 1439SOL     OW 5215   0.762   5.311   5.664
 1439SOL    HW1 5216   0.714   5.380   5.718
 1439SOL    HW2 5217   0.843   5.280   5.714
 1440SOL     OW 5218   4.012   3.123   2.159
 1440SOL    HW1 5219   3.941   3.072   2.110
 1440SOL    HW2 5220   4.098   3.073   2.154
 1441SOL     OW 5221   6.203   2.100   6.024
 1441SOL    HW1 5222   6.272   2.173   6.020
 1441SOL    HW2 5223   6.185   2.066   5.932
 1442SOL     OW 5224   5.047   6.093   0.334
 1442SOL    HW1 5225   5.001   6.005   0.342
 1442SOL    HW2 5226   5.029   6.133   0.245
 1443SOL     OW 5227   1.145   2.362   3.670
 1443SOL    HW1 5228   1.222   2.298   3.666
 1443SOL    HW2 5229   1.152   2.417   3.753
 1444SOL     OW 5230   5.284   6.297   4.855
 1444SOL    HW1 5231   5.229   6.301   4.938
 1444SOL    HW2 5232   5.282   6.203   4.820
 1445SOL     OW 5233   6.443   2.215   6.896
 1445SOL    HW1 5234   6.490   2.210   6.807
 1445SOL    HW2 5235   6.344   2.215   6.882
 1446SOL     OW 5236   3.793   5.561   1.341
 1446SOL    HW1 5237   3.808   5.648   1.387
 1446SOL    HW2 5238   3.739   5.575   1.258
 1447SOL     OW 5239   6.662   1.055   4.673
 1447SOL    HW1 5240   6.658   1.127   4.743
 1447SOL    HW2 5241   6.692   0.969   4.715
 1448SOL     OW 5242   5.427   0.698   6.917
 1448SOL    HW1 5243   5.486   0.774   6.945
 1448SOL    HW2 5244   5.332   0.723   6.932
 1449SOL     OW 5245   4.250   5.529   0.261
 1449SOL    HW1 5246   4.166   5.532   0.315
 1449SOL    HW2 5247   4.309   5.455   0.295
 1450SOL     OW 5248   6.104   1.672   3.843
 1450SOL    HW1 5249   6.190   1.647   3.889
 1450SOL    HW2 5250   6.035   1.692   3.912
 1451SOL     OW 5251   1.219   6.941   1.786
 1451SOL    HW1 5252   1.301   6.888   1.766
 1451SOL    HW2 5253   1.146   6.914   1.723
 1452SOL     OW 5254   3.326   0.340   5.725
 1452SOL    HW1 5255   3.285   0.362   5.636
 1452SOL    HW2 5256   3.253   0.328   5.793
 1453SOL     OW 5257   5.038   4.215   4.316
 1453SOL    HW1 5258   5.094   4.176   4.243
 1453SOL    HW2 5259   4.968   4.274   4.275
 1454SOL     OW 5260   5.291   3.891   1.197
 1454SOL    HW1 5261   5.299   3.990   1.191
 1454SOL    HW2 5262   5.381   3.849   1.179
 1455SOL     OW 5263   1.905   2.068   1.459
 1455SOL    HW1 5264   1.942   2.123   1.533
 1455SOL    HW2 5265   1.978   2.016   1.416
 1456SOL     OW 5266   5.995   5.435   5.284
 1456SOL    HW1 5267   5.946   5.427   5.198
 1456SOL    HW2 5268   5.942   5.393   5.357
 1457SOL     OW 5269   1.846   0.680   4.069
 1457SOL    HW1 5270   1.823   0.583   4.063
 1457SOL    HW2 5271   1.772   0.729   4.116
 1458SOL     OW 5272   0.458   5.529   6.856
 1458SOL    HW1 5273   0.470   5.585   6.774
 1458SOL    HW2 5274   0.466   5.586   6.938
 1459SOL     OW 5275   2.880   0.069   1.316
 1459SOL    HW1 5276   2.863   0.150   1.372
 1459SOL    HW2 5277   2.870   0.092   1.220
 1460SOL     OW 5278   0.336   0.034   6.760
 1460SOL    HW1 5279   0.247   0.077   6.746
 1460SOL    HW2 5280   0.406   0.105   6.772
 1461SOL     OW 5281   4.849   5.241   2.520
 1461SOL    HW1 5282   4.805   5.322   2.483
 1461SOL    HW2 5283   4.932   5.268   2.570
 1462SOL     OW 5284   5.490   0.207   5.143
 1462SOL    HW1 5285   5.545   0.240   5.220
 1462SOL    HW2 5286   5.550   0.181   5.067
 1463SOL     OW 5287   0.807   2.418   5.938
 1463SOL    HW1 5288   0.715   2.442   5.969
 1463SOL    HW2 5289   0.872   2.485   5.973
 1464SOL     OW 5290   0.668   0.823   1.267
 1464SOL    HW1 5291   0.726   0.762   1.320
 1464SOL    HW2 5292   0.672   0.915   1.305
 1465SOL     OW 5293   0.931   0.679   3.729
 1465SOL    HW1 5294   0.976   0.687   3.640
 1465SOL    HW2 5295   0.975   0.740   3.795
 1466SOL     OW 5296   5.863   5.409   4.783
 1466SOL    HW1 5297   5.912   5.348   4.845
 1466SOL    HW2 5298   5.925   5.441   4.711
 1467SOL     OW 5299   6.018   3.945   4.108
 1467SOL    HW1 5300   5.971   3.861   4.081
 1467SOL    HW2 5301   6.102   3.955   4.056
 1468SOL     OW 5302   4.538   0.425   2.494
 1468SOL    HW1 5303   4.587   0.341   2.469
 1468SOL    HW2 5304   4.444   0.420   2.458
 1469SOL     OW 5305   0.741   0.707   1.895
 1469SOL    HW1 5306   0.798   0.775   1.942
 1469SOL    HW2 5307   0.646   0.719   1.923
 1470SOL     OW 5308   6.990   6.905   2.805
 1470SOL    HW1 5309   0.028   6.874   2.882
 1470SOL    HW2 5310   6.906   6.948   2.839
 1471SOL     OW 5311   5.646   1.183   1.278
 1471SOL    HW1 5312   5.564   1.126   1.265
 1471SOL    HW2 5313   5.714   1.132   1.330
 1472SOL     OW 5314   4.850   5.270   4.866
 1472SOL    HW1 5315   4.902   5.195   4.824
 1472SOL    HW2 5316   4.767   5.233   4.908
 1473SOL     OW 5317   6.229   3.607   3.438
 1473SOL    HW1 5318   6.307   3.575   3.383
 1473SOL    HW2 5319   6.263   3.656   3.518
 1474SOL     OW 5320   4.427   5.336   3.184
 1474SOL    HW1 5321   4.467   5.427   3.171
 1474SOL    HW2 5322   4.470   5.291   3.262
 1475SOL     OW 5323   6.120   6.529   3.295
 1475SOL    HW1 5324   6.135   6.482   3.383
 1475SOL    HW2 5325   6.203   6.523   3.240
 1476SOL     OW 5326   0.261   2.409   1.104
 1476SOL    HW1 5327   0.247   2.395   1.202
 1476SOL    HW2 5328   0.264   2.507   1.084
 1477SOL     OW 5329   2.555   6.385   4.080
 1477SOL    HW1 5330   2.596   6.475   4.087
 1477SOL    HW2 5331   2.593   6.337   4.000
 1478SOL     OW 5332   6.517   3.362   1.348
 1478SOL    HW1 5333   6.608   3.403   1.342
 1478SOL    HW2 5334   6.491   3.352   1.444
 1479SOL     OW 5335   1.096   5.517   0.581
 1479SOL    HW1 5336   1.032   5.517   0.657
 1479SOL    HW2 5337   1.074   5.443   0.518
 1480SOL     OW 5338   2.260   0.990   6.850
 1480SOL    HW1 5339   2.201   1.013   6.773
 1480SOL    HW2 5340   2.295   1.073   6.892
 1481SOL     OW 5341   0.899   3.582   6.909
 1481SOL    HW1 5342   0.801   3.593   6.893
 1481SOL    HW2 5343   0.948   3.604   6.825
 1482SOL     OW 5344   5.580   0.397   6.356
 1482SOL    HW1 5345   5.609   0.330   6.425
 1482SOL    HW2 5346   5.491   0.434   6.381
 1483SOL     OW 5347   6.198   1.725   6.485
 1483SOL    HW1 5348   6.206   1.806   6.426
 1483SOL    HW2 5349   6.290   1.690   6.506
 1484SOL     OW 5350   6.243   6.548   2.719
 1484SOL    HW1 5351   6.183   6.505   2.785
 1484SOL    HW2 5352   6.328   6.496   2.712
 1485SOL     OW 5353   5.633   3.228   4.117
 1485SOL    HW1 5354   5.586   3.160   4.061
 1485SOL    HW2 5355   5.576   3.311   4.123
 1486SOL     OW 5356   5.256   2.309   2.008
 1486SOL    HW1 5357   5.285   2.230   2.062
 1486SOL    HW2 5358   5.172   2.286   1.958
 1487SOL     OW 5359   6.727   0.148   5.534
 1487SOL    HW1 5360   6.781   0.065   5.549
 1487SOL    HW2 5361   6.707   0.191   5.622
 1488SOL     OW 5362   5.145   2.018   4.119
 1488SOL    HW1 5363   5.097   2.106   4.125
 1488SOL    HW2 5364   5.238   2.028   4.155
 1489SOL     OW 5365   3.812   5.349   4.654
 1489SOL    HW1 5366   3.786   5.430   4.706
 1489SOL    HW2 5367   3.871   5.290   4.710
 1490SOL     OW 5368   2.506   2.325   1.207
 1490SOL    HW1 5369   2.599   2.324   1.242
 1490SOL    HW2 5370   2.443   2.345   1.282
 1491SOL     OW 5371   0.187   2.380   5.182
 1491SOL    HW1 5372   0.148   2.292   5.212
 1491SOL    HW2 5373   0.212   2.375   5.086
 1492SOL     OW 5374   6.777   2.352   1.179
 1492SOL    HW1 5375   6.861   2.303   1.201
 1492SOL    HW2 5376   6.713   2.290   1.133
 1493SOL     OW 5377   6.148   2.521   5.298
 1493SOL    HW1 5378   6.124   2.599   5.355
 1493SOL    HW2 5379   6.100   2.527   5.210
 1494SOL     OW 5380   5.617   1.717   4.391
 1494SOL    HW1 5381   5.623   1.655   4.312
 1494SOL    HW2 5382   5.573   1.670   4.467
 1495SOL     OW 5383   1.151   3.635   2.329
 1495SOL    HW1 5384   1.203   3.592   2.256
 1495SOL    HW2 5385   1.159   3.580   2.412
 1496SOL     OW 5386   1.079   0.503   2.285
 1496SOL    HW1 5387   0.990   0.489   2.243
 1496SOL    HW2 5388   1.067   0.532   2.380
 1497SOL     OW 5389   5.116   5.367   5.801
 1497SOL    HW1 5390   5.194   5.421   5.769
 1497SOL    HW2 5391   5.038   5.427   5.815
 1498SOL     OW 5392   2.501   5.591   0.547
 1498SOL    HW1 5393   2.437   5.647   0.495
 1498SOL    HW2 5394   2.554   5.650   0.608
 1499SOL     OW 5395   0.843   3.819   4.586
 1499SOL    HW1 5396   0.751   3.838   4.620
 1499SOL    HW2 5397   0.850   3.846   4.491
 1500SOL     OW 5398   3.933   6.820   5.404
 1500SOL    HW1 5399   4.000   6.848   5.334
 1500SOL    HW2 5400   3.976   6.821   5.494
 1501SOL     OW 5401   3.810   0.740   0.646
 1501SOL    HW1 5402   3.824   0.800   0.725
 1501SOL    HW2 5403   3.827   0.645   0.673
 1502SOL     OW 5404   0.303   6.019   5.952
 1502SOL    HW1 5405   0.272   6.048   6.042
 1502SOL    HW2 5406   0.239   6.052   5.883
 1503SOL     OW 5407   3.681   4.288   5.635
 1503SOL    HW1 5408   3.703   4.334   5.721
 1503SOL    HW2 5409   3.644   4.197   5.655
 1504SOL     OW 5410   2.623   6.653   4.049
 1504SOL    HW1 5411   2.598   6.661   4.145
 1504SOL    HW2 5412   2.583   6.729   3.998
 1505SOL     OW 5413   4.932   0.002   2.468
 1505SOL    HW1 5414   4.929   0.072   2.539
 1505SOL    HW2 5415   5.027   6.987   2.457
 1506SOL     OW 5416   0.772   6.504   3.306
 1506SOL    HW1 5417   0.760   6.509   3.405
 1506SOL    HW2 5418   0.774   6.597   3.268
 1507SOL     OW 5419   2.291   2.538   0.025
 1507SOL    HW1 5420   2.213   2.588   7.006
 1507SOL    HW2 5421   2.376   2.580   7.008
 1508SOL     OW 5422   4.620   6.850   1.457
 1508SOL    HW1 5423   4.681   6.908   1.402
 1508SOL    HW2 5424   4.601   6.766   1.407
 1509SOL     OW 5425   5.692   1.846   6.377
 1509SOL    HW1 5426   5.726   1.769   6.431
 1509SOL    HW2 5427   5.766   1.911   6.360
 1510SOL     OW 5428   6.796   1.490   2.765
 1510SOL    HW1 5429   6.836   1.431   2.695
 1510SOL    HW2 5430   6.730   1.553   2.723
 1511SOL     OW 5431   1.292   2.836   0.300
 1511SOL    HW1 5432   1.270   2.922   0.346
 1511SOL    HW2 5433   1.355   2.854   0.224
 1512SOL     OW 5434   6.997   1.441   1.664
 1512SOL    HW1 5435   7.000   1.350   1.707
 1512SOL    HW2 5436   6.922   1.494   1.703
 1513SOL     OW 5437   2.978   0.583   2.968
 1513SOL    HW1 5438   2.977   0.503   2.909
 1513SOL    HW2 5439   3.003   0.664   2.915
 1514SOL     OW 5440   4.784   0.178   6.226
 1514SOL    HW1 5441   4.821   0.200   6.316
 1514SOL    HW2 5442   4.717   0.248   6.200
 1515SOL     OW 5443   5.308   5.021   5.449
 1515SOL    HW1 5444   5.219   5.060   5.474
 1515SOL    HW2 5445   5.359   4.998   5.531
 1516SOL     OW 5446   0.356   1.548   0.799
 1516SOL    HW1 5447   0.395   1.609   0.730
 1516SOL    HW2 5448   0.424   1.528   0.869
 1517SOL     OW 5449   2.933   5.743   3.180
 1517SOL    HW1 5450   2.883   5.662   3.150
 1517SOL    HW2 5451   2.961   5.796   3.100
 1518SOL     OW 5452   0.415   4.851   0.793
 1518SOL    HW1 5453   0.485   4.890   0.735
 1518SOL    HW2 5454   0.380   4.921   0.856
 1519SOL     OW 5455   0.498   4.105   0.791
 1519SOL    HW1 5456   0.511   4.115   0.890
 1519SOL    HW2 5457   0.433   4.174   0.759
 1520SOL     OW 5458   1.481   2.796   3.047
 1520SOL    HW1 5459   1.485   2.829   3.142
 1520SOL    HW2 5460   1.408   2.844   2.998
 1521SOL     OW 5461   2.635   4.581   5.231
 1521SOL    HW1 5462   2.559   4.535   5.184
 1521SOL    HW2 5463   2.711   4.593   5.167
 1522SOL     OW 5464   1.500   2.057   6.211
 1522SOL    HW1 5465   1.565   1.991   6.174
 1522SOL    HW2 5466   1.483   2.037   6.307
 1523SOL     OW 5467   5.566   1.789   1.096
 1523SOL    HW1 5468   5.469   1.770   1.082
 1523SOL    HW2 5469   5.615   1.702   1.105
 1524SOL     OW 5470   0.243   1.413   1.598
 1524SOL    HW1 5471   0.173   1.467   1.645
 1524SOL    HW2 5472   0.204   1.324   1.573
 1525SOL     OW 5473   4.851   1.302   5.955
 1525SOL    HW1 5474   4.765   1.258   5.980
 1525SOL    HW2 5475   4.924   1.268   6.014
 1526SOL     OW 5476   5.973   1.125   0.052
 1526SOL    HW1 5477   5.899   1.177   0.008
 1526SOL    HW2 5478   6.050   1.186   0.071
 1527SOL     OW 5479   3.222   1.764   6.238
 1527SOL    HW1 5480   3.180   1.789   6.151
 1527SOL    HW2 5481   3.257   1.670   6.233
 1528SOL     OW 5482   5.529   5.397   4.015
 1528SOL    HW1 5483   5.491   5.490   4.013
 1528SOL    HW2 5484   5.552   5.373   4.110
 1529SOL     OW 5485   2.176   0.135   5.428
 1529SOL    HW1 5486   2.207   0.172   5.516
 1529SOL    HW2 5487   2.096   0.186   5.397
 1530SOL     OW 5488   2.926   6.496   1.345
 1530SOL    HW1 5489   2.899   6.405   1.312
 1530SOL    HW2 5490   2.994   6.486   1.418
 1531SOL     OW 5491   5.788   0.510   6.196
 1531SOL    HW1 5492   5.726   0.555   6.132
 1531SOL    HW2 5493   5.737   0.477   6.275
 1532SOL     OW 5494   2.791   2.637   5.372
 1532SOL    HW1 5495   2.873   2.595   5.409
 1532SOL    HW2 5496   2.810   2.732   5.346
 1533SOL     OW 5497   4.766   2.681   0.273
 1533SOL    HW1 5498   4.774   2.780   0.259
 1533SOL    HW2 5499   4.784   2.633   0.187
 1534SOL     OW 5500   6.848   0.380   1.646
 1534SOL    HW1 5501   6.766   0.382   1.703
 1534SOL    HW2 5502   6.910   0.454   1.673
 1535SOL     OW 5503   5.184   4.494   4.796
 1535SOL    HW1 5504   5.156   4.449   4.711
 1535SOL    HW2 5505   5.205   4.590   4.777
 1536SOL     OW 5506   3.496   6.422   3.079
 1536SOL    HW1 5507   3.554   6.421   2.997
 1536SOL    HW2 5508   3.410   6.376   3.060
 1537SOL     OW 5509   2.952   5.508   4.617
 1537SOL    HW1 5510   2.942   5.418   4.660
 1537SOL    HW2 5511   2.975   5.576   4.687
 1538SOL     OW 5512   2.927   5.483   6.426
 1538SOL    HW1 5513   2.908   5.557   6.490
 1538SOL    HW2 5514   2.848   5.468   6.368
 1539SOL     OW 5515   3.004   6.272   1.761
 1539SOL    HW1 5516   3.019   6.345   1.829
 1539SOL    HW2 5517   2.910   6.277   1.728
 1540SOL     OW 5518   5.839   0.022   5.149
 1540SOL    HW1 5519   5.781   0.028   5.068
 1540SOL    HW2 5520   5.849   6.943   5.176
 1541SOL     OW 5521   5.042   1.440   1.131
 1541SOL    HW1 5522   5.089   1.399   1.053
 1541SOL    HW2 5523   5.001   1.368   1.187
 1542SOL     OW 5524   6.997   6.225   1.280
 1542SOL    HW1 5525   0.006   6.204   1.375
 1542SOL    HW2 5526   6.965   6.142   1.235
 1543SOL     OW 5527   3.650   3.200   3.375
 1543SOL    HW1 5528   3.691   3.291   3.376
 1543SOL    HW2 5529   3.568   3.200   3.318
 1544SOL     OW 5530   3.300   3.748   2.565
 1544SOL    HW1 5531   3.348   3.708   2.643
 1544SOL    HW2 5532   3.343   3.717   2.480
 1545SOL     OW 5533   0.096   0.141   4.960
 1545SOL    HW1 5534   0.021   0.080   4.986
 1545SOL    HW2 5535   0.112   0.135   4.862
 1546SOL     OW 5536   6.136   6.446   6.445
 1546SOL    HW1 5537   6.048   6.401   6.463
 1546SOL    HW2 5538   6.189   6.450   6.529
 1547SOL     OW 5539   3.370   5.543   0.075
 1547SOL    HW1 5540   3.420   5.494   0.004
 1547SOL    HW2 5541   3.275   5.558   0.046
 1548SOL     OW 5542   6.524   3.930   3.423
 1548SOL    HW1 5543   6.589   3.993   3.465
 1548SOL    HW2 5544   6.464   3.891   3.493
 1549SOL     OW 5545   0.070   2.205   0.477
 1549SOL    HW1 5546   0.009   2.143   0.526
 1549SOL    HW2 5547   0.053   2.197   0.379
 1550SOL     OW 5548   2.893   5.138   2.711
 1550SOL    HW1 5549   2.903   5.044   2.679
 1550SOL    HW2 5550   2.851   5.193   2.639
 1551SOL     OW 5551   0.400   2.133   1.443
 1551SOL    HW1 5552   0.475   2.106   1.384
 1551SOL    HW2 5553   0.377   2.229   1.428
 1552SOL     OW 5554   1.089   6.428   2.469
 1552SOL    HW1 5555   1.165   6.471   2.420
 1552SOL    HW2 5556   1.087   6.330   2.449
 1553SOL     OW 5557   5.380   0.921   6.068
 1553SOL    HW1 5558   5.470   0.907   6.107
 1553SOL    HW2 5559   5.326   0.980   6.129
 1554SOL     OW 5560   2.774   2.373   0.840
 1554SOL    HW1 5561   2.823   2.406   0.921
 1554SOL    HW2 5562   2.786   2.274   0.833
 1555SOL     OW 5563   3.905   1.445   0.412
 1555SOL    HW1 5564   3.937   1.356   0.377
 1555SOL    HW2 5565   3.898   1.510   0.336
 1556SOL     OW 5566   3.492   2.130   0.409
 1556SOL    HW1 5567   3.468   2.226   0.418
 1556SOL    HW2 5568   3.490   2.103   0.313
 1557SOL     OW 5569   1.610   2.864   0.392
 1557SOL    HW1 5570   1.571   2.907   0.473
 1557SOL    HW2 5571   1.582   2.768   0.388
 1558SOL     OW 5572   5.049   2.485   6.537
 1558SOL    HW1 5573   5.102   2.405   6.566
 1558SOL    HW2 5574   5.011   2.530   6.618
 1559SOL     OW 5575   2.729   6.286   3.893
 1559SOL    HW1 5576   2.689   6.350   3.828
 1559SOL    HW2 5577   2.828   6.301   3.900
 1560SOL     OW 5578   4.303   3.166   1.219
 1560SOL    HW1 5579   4.352   3.210   1.144
 1560SOL    HW2 5580   4.218   3.127   1.184
 1561SOL     OW 5581   5.533   6.104   0.864
 1561SOL    HW1 5582   5.531   6.199   0.894
 1561SOL    HW2 5583   5.444   6.078   0.827
 1562SOL     OW 5584   2.545   0.124   2.453
 1562SOL    HW1 5585   2.536   0.154   2.358
 1562SOL    HW2 5586   2.478   0.171   2.509
 1563SOL     OW 5587   1.743   3.537   3.864
 1563SOL    HW1 5588   1.821   3.555   3.804
 1563SOL    HW2 5589   1.756   3.586   3.950
 1564SOL     OW 5590   0.669   1.931   2.903
 1564SOL    HW1 5591   0.704   1.850   2.855
 1564SOL    HW2 5592   0.638   1.904   2.994
 1565SOL     OW 5593   4.752   1.860   5.657
 1565SOL    HW1 5594   4.732   1.893   5.750
 1565SOL    HW2 5595   4.721   1.927   5.590
 1566SOL     OW 5596   0.538   3.774   3.417
 1566SOL    HW1 5597   0.458   3.811   3.465
 1566SOL    HW2 5598   0.578   3.700   3.471
 1567SOL     OW 5599   5.589   0.425   4.821
 1567SOL    HW1 5600   5.589   0.365   4.741
 1567SOL    HW2 5601   5.574   0.371   4.904
 1568SOL     OW 5602   2.371   4.434   0.895
 1568SOL    HW1 5603   2.358   4.428   0.994
 1568SOL    HW2 5604   2.467   4.420   0.872
 1569SOL     OW 5605   2.309   1.470   2.778
 1569SOL    HW1 5606   2.293   1.561   2.740
 1569SOL    HW2 5607   2.223   1.420   2.784
 1570SOL     OW 5608   2.509   5.554   6.645
 1570SOL    HW1 5609   2.539   5.598   6.560
 1570SOL    HW2 5610   2.488   5.624   6.713
 1571SOL     OW 5611   6.840   2.337   4.329
 1571SOL    HW1 5612   6.777   2.265   4.357
 1571SOL    HW2 5613   6.809   2.425   4.364
 1572SOL     OW 5614   2.587   6.321   3.167
 1572SOL    HW1 5615   2.495   6.361   3.172
 1572SOL    HW2 5616   2.585   6.229   3.205
 1573SOL     OW 5617   5.143   5.535   0.164
 1573SOL    HW1 5618   5.122   5.516   0.259
 1573SOL    HW2 5619   5.223   5.482   0.136
 1574SOL     OW 5620   0.958   4.404   2.915
 1574SOL    HW1 5621   0.992   4.326   2.863
 1574SOL    HW2 5622   0.862   4.420   2.893
 1575SOL     OW 5623   6.756   2.312   0.379
 1575SOL    HW1 5624   6.771   2.324   0.477
 1575SOL    HW2 5625   6.829   2.357   0.328
 1576SOL     OW 5626   2.008   6.166   1.592
 1576SOL    HW1 5627   1.957   6.090   1.633
 1576SOL    HW2 5628   1.996   6.248   1.648
 1577SOL     OW 5629   4.824   5.790   3.696
 1577SOL    HW1 5630   4.832   5.701   3.741
 1577SOL    HW2 5631   4.909   5.841   3.707
 1578SOL     OW 5632   5.048   1.897   1.551
 1578SOL    HW1 5633   5.050   1.841   1.634
 1578SOL    HW2 5634   5.002   1.847   1.478
 1579SOL     OW 5635   1.861   3.231   1.982
 1579SOL    HW1 5636   1.958   3.238   2.004
 1579SOL    HW2 5637   1.817   3.167   2.045
 1580SOL     OW 5638   3.055   3.854   3.173
 1580SOL    HW1 5639   3.051   3.848   3.073
 1580SOL    HW2 5640   3.023   3.944   3.202
 1581SOL     OW 5641   5.650   4.235   4.821
 1581SOL    HW1 5642   5.597   4.224   4.737
 1581SOL    HW2 5643   5.607   4.305   4.878
 1582SOL     OW 5644   4.448   6.005   5.009
 1582SOL    HW1 5645   4.479   6.095   4.978
 1582SOL    HW2 5646   4.479   5.989   5.103
 1583SOL     OW 5647   1.370   5.329   5.377
 1583SOL    HW1 5648   1.281   5.326   5.331
 1583SOL    HW2 5649   1.394   5.424   5.396
 1584SOL     OW 5650   0.259   4.077   0.448
 1584SOL    HW1 5651   0.180   4.029   0.409
 1584SOL    HW2 5652   0.301   4.134   0.378
 1585SOL     OW 5653   5.097   6.616   4.219
 1585SOL    HW1 5654   5.098   6.617   4.119
 1585SOL    HW2 5655   5.097   6.710   4.252
 1586SOL     OW 5656   2.882   5.973   3.317
 1586SOL    HW1 5657   2.898   5.888   3.268
 1586SOL    HW2 5658   2.945   6.043   3.284
 1587SOL     OW 5659   2.984   6.683   6.774
 1587SOL    HW1 5660   2.935   6.742   6.710
 1587SOL    HW2 5661   2.999   6.594   6.732
 1588SOL     OW 5662   6.348   2.063   3.203
 1588SOL    HW1 5663   6.310   2.153   3.184
 1588SOL    HW2 5664   6.330   2.002   3.125
 1589SOL     OW 5665   0.005   2.747   4.712
 1589SOL    HW1 5666   7.005   2.735   4.809
 1589SOL    HW2 5667   6.965   2.823   4.678
 1590SOL     OW 5668   5.724   1.057   3.306
 1590SOL    HW1 5669   5.670   1.000   3.243
 1590SOL    HW2 5670   5.798   1.002   3.345
 1591SOL     OW 5671   0.938   5.851   0.304
 1591SOL    HW1 5672   0.943   5.914   0.227
 1591SOL    HW2 5673   0.920   5.759   0.271
 1592SOL     OW 5674   6.983   3.590   5.385
 1592SOL    HW1 5675   0.050   3.643   5.372
 1592SOL    HW2 5676   6.910   3.627   5.327
 1593SOL     OW 5677   4.012   6.001   1.062
 1593SOL    HW1 5678   3.996   6.100   1.059
 1593SOL    HW2 5679   4.012   5.971   1.157
 1594SOL     OW 5680   5.261   0.996   2.760
 1594SOL    HW1 5681   5.183   0.939   2.786
 1594SOL    HW2 5682   5.298   0.964   2.673
 1595SOL     OW 5683   1.000   3.129   6.668
 1595SOL    HW1 5684   0.982   3.050   6.727
 1595SOL    HW2 5685   0.920   3.189   6.668
 1596SOL     OW 5686   4.642   4.488   3.811
 1596SOL    HW1 5687   4.716   4.530   3.864
 1596SOL    HW2 5688   4.679   4.415   3.755
 1597SOL     OW 5689   3.446   5.651   0.315
 1597SOL    HW1 5690   3.420   5.595   0.237
 1597SOL    HW2 5691   3.498   5.731   0.283
 1598SOL     OW 5692   1.361   4.596   6.419
 1598SOL    HW1 5693   1.431   4.579   6.350
 1598SOL    HW2 5694   1.394   4.665   6.483
 1599SOL     OW 5695   4.681   5.523   3.609
 1599SOL    HW1 5696   4.682   5.429   3.575
 1599SOL    HW2 5697   4.710   5.525   3.705
 1600SOL     OW 5698   4.553   0.450   1.697
 1600SOL    HW1 5699   4.556   0.497   1.785
 1600SOL    HW2 5700   4.473   0.480   1.646
 1601SOL     OW 5701   6.492   0.853   4.434
 1601SOL    HW1 5702   6.472   0.835   4.338
 1601SOL    HW2 5703   6.499   0.952   4.448
 1602SOL     OW 5704   4.396   5.647   3.627
 1602SOL    HW1 5705   4.491   5.617   3.631
 1602SOL    HW2 5706   4.351   5.629   3.714
 1603SOL     OW 5707   3.032   4.872   2.269
 1603SOL    HW1 5708   2.959   4.858   2.202
 1603SOL    HW2 5709   3.121   4.866   2.223
 1604SOL     OW 5710   4.340   5.048   2.645
 1604SOL    HW1 5711   4.381   5.019   2.559
 1604SOL    HW2 5712   4.411   5.085   2.705
 1605SOL     OW 5713   4.644   5.310   0.439
 1605SOL    HW1 5714   4.716   5.319   0.370
 1605SOL    HW2 5715   4.680   5.336   0.528
 1606SOL     OW 5716   2.998   5.702   4.815
 1606SOL    HW1 5717   2.920   5.748   4.858
 1606SOL    HW2 5718   3.056   5.662   4.886
 1607SOL     OW 5719   4.764   4.222   3.757
 1607SOL    HW1 5720   4.778   4.123   3.753
 1607SOL    HW2 5721   4.730   4.247   3.848
 1608SOL     OW 5722   5.762   2.832   3.645
 1608SOL    HW1 5723   5.727   2.896   3.713
 1608SOL    HW2 5724   5.744   2.738   3.675
 1609SOL     OW 5725   1.757   0.312   0.789
 1609SOL    HW1 5726   1.752   0.360   0.877
 1609SOL    HW2 5727   1.710   0.366   0.719
 1610SOL     OW 5728   5.599   6.460   0.842
 1610SOL    HW1 5729   5.616   6.422   0.933
 1610SOL    HW2 5730   5.642   6.401   0.773
 1611SOL     OW 5731   1.307   4.265   0.104
 1611SOL    HW1 5732   1.257   4.215   0.174
 1611SOL    HW2 5733   1.281   4.361   0.107
 1612SOL     OW 5734   4.322   1.048   2.355
 1612SOL    HW1 5735   4.341   1.080   2.262
 1612SOL    HW2 5736   4.223   1.044   2.369
 1613SOL     OW 5737   0.480   5.694   2.993
 1613SOL    HW1 5738   0.410   5.707   3.063
 1613SOL    HW2 5739   0.504   5.782   2.952
 1614SOL     OW 5740   6.666   1.273   5.822
 1614SOL    HW1 5741   6.629   1.180   5.820
 1614SOL    HW2 5742   6.761   1.272   5.792
 1615SOL     OW 5743   6.890   3.763   5.783
 1615SOL    HW1 5744   6.980   3.740   5.746
 1615SOL    HW2 5745   6.898   3.845   5.841
 1616SOL     OW 5746   0.494   0.986   3.981
 1616SOL    HW1 5747   0.536   0.897   3.998
 1616SOL    HW2 5748   0.550   1.058   4.021
 1617SOL     OW 5749   6.641   5.569   3.594
 1617SOL    HW1 5750   6.667   5.502   3.664
 1617SOL    HW2 5751   6.703   5.562   3.516
 1618SOL     OW 5752   3.669   5.854   2.902
 1618SOL    HW1 5753   3.598   5.784   2.905
 1618SOL    HW2 5754   3.756   5.813   2.876
 1619SOL     OW 5755   1.122   3.948   6.440
 1619SOL    HW1 5756   1.147   3.916   6.531
 1619SOL    HW2 5757   1.203   3.983   6.393
 1620SOL     OW 5758   3.366   6.992   4.166
 1620SOL    HW1 5759   3.439   0.015   4.109
 1620SOL    HW2 5760   3.343   6.901   4.131
 1621SOL     OW 5761   4.748   5.625   0.703
 1621SOL    HW1 5762   4.821   5.689   0.728
 1621SOL    HW2 5763   4.685   5.671   0.639
 1622SOL     OW 5764   6.031   4.409   4.211
 1622SOL    HW1 5765   6.100   4.443   4.146
 1622SOL    HW2 5766   6.009   4.314   4.189
 1623SOL     OW 5767   0.437   2.551   3.603
 1623SOL    HW1 5768   0.468   2.464   3.566
 1623SOL    HW2 5769   0.337   2.551   3.608
 1624SOL     OW 5770   3.618   3.243   0.332
 1624SOL    HW1 5771   3.551   3.277   0.398
 1624SOL    HW2 5772   3.654   3.320   0.279
 1625SOL     OW 5773   0.745   6.549   0.303
 1625SOL    HW1 5774   0.658   6.561   0.255
 1625SOL    HW2 5775   0.757   6.452   0.324
 1626SOL     OW 5776   2.374   1.842   1.804
 1626SOL    HW1 5777   2.308   1.845   1.879
 1626SOL    HW2 5778   2.426   1.927   1.802
 1627SOL     OW 5779   4.138   2.079   5.820
 1627SOL    HW1 5780   4.128   2.174   5.851
 1627SOL    HW2 5781   4.157   2.078   5.722
 1628SOL     OW 5782   5.298   6.712   0.908
 1628SOL    HW1 5783   5.379   6.697   0.851
 1628SOL    HW2 5784   5.245   6.627   0.913
 1629SOL     OW 5785   1.758   7.010   3.585
 1629SOL    HW1 5786   1.770   0.041   3.499
 1629SOL    HW2 5787   1.710   0.051   3.650
 1630SOL     OW 5788   0.320   3.504   5.789
 1630SOL    HW1 5789   0.351   3.420   5.834
 1630SOL    HW2 5790   0.361   3.509   5.698
 1631SOL     OW 5791   5.778   2.952   0.838
 1631SOL    HW1 5792   5.712   2.934   0.765
 1631SOL    HW2 5793   5.822   2.867   0.865
 1632SOL     OW 5794   6.560   5.973   2.113
 1632SOL    HW1 5795   6.499   5.913   2.165
 1632SOL    HW2 5796   6.587   6.051   2.170
 1633SOL     OW 5797   5.216   3.731   4.772
 1633SOL    HW1 5798   5.214   3.653   4.709
 1633SOL    HW2 5799   5.130   3.735   4.823
 1634SOL     OW 5800   1.251   3.355   5.619
 1634SOL    HW1 5801   1.328   3.417   5.606
 1634SOL    HW2 5802   1.278   3.282   5.682
 1635SOL     OW 5803   3.310   0.446   3.917
 1635SOL    HW1 5804   3.286   0.355   3.884
 1635SOL    HW2 5805   3.342   0.439   4.012
 1636SOL     OW 5806   6.460   5.796   1.442
 1636SOL    HW1 5807   6.386   5.734   1.471
 1636SOL    HW2 5808   6.524   5.746   1.384
 1637SOL     OW 5809   1.416   1.694   2.852
 1637SOL    HW1 5810   1.407   1.597   2.827
 1637SOL    HW2 5811   1.480   1.739   2.789
 1638SOL     OW 5812   5.176   2.343   2.984
 1638SOL    HW1 5813   5.201   2.274   3.051
 1638SOL    HW2 5814   5.082   2.327   2.953
 1639SOL     OW 5815   4.712   2.198   2.123
 1639SOL    HW1 5816   4.626   2.192   2.072
 1639SOL    HW2 5817   4.757   2.285   2.101
 1640SOL     OW 5818   6.088   0.658   6.647
 1640SOL    HW1 5819   6.062   0.679   6.741
 1640SOL    HW2 5820   6.061   0.734   6.587
 1641SOL     OW 5821   6.266   1.457   3.077
 1641SOL    HW1 5822   6.327   1.406   3.138
 1641SOL    HW2 5823   6.246   1.546   3.117
 1642SOL     OW 5824   0.052   3.508   6.425
 1642SOL    HW1 5825   0.016   3.526   6.333
 1642SOL    HW2 5826   7.000   3.460   6.479
 1643SOL     OW 5827   1.703   5.443   3.384
 1643SOL    HW1 5828   1.725   5.537   3.357
 1643SOL    HW2 5829   1.609   5.440   3.418
 1644SOL     OW 5830   6.278   1.632   1.695
 1644SOL    HW1 5831   6.211   1.666   1.629
 1644SOL    HW2 5832   6.366   1.677   1.678
 1645SOL     OW 5833   2.459   0.839   5.060
 1645SOL    HW1 5834   2.487   0.930   5.031
 1645SOL    HW2 5835   2.520   0.770   5.020
 1646SOL     OW 5836   0.872   5.234   1.171
 1646SOL    HW1 5837   0.885   5.162   1.239
 1646SOL    HW2 5838   0.776   5.240   1.147
 1647SOL     OW 5839   6.196   3.083   4.639
 1647SOL    HW1 5840   6.238   3.169   4.609
 1647SOL    HW2 5841   6.142   3.100   4.722
 1648SOL     OW 5842   5.925   6.056   1.646
 1648SOL    HW1 5843   5.864   6.114   1.592
 1648SOL    HW2 5844   5.919   6.082   1.742
 1649SOL     OW 5845   3.780   1.578   3.491
 1649SOL    HW1 5846   3.776   1.621   3.401
 1649SOL    HW2 5847   3.791   1.479   3.480
 1650SOL     OW 5848   3.068   2.663   5.470
 1650SOL    HW1 5849   3.068   2.753   5.513
 1650SOL    HW2 5850   3.129   2.664   5.390
 1651SOL     OW 5851   1.079   2.199   3.933
 1651SOL    HW1 5852   0.994   2.152   3.956
 1651SOL    HW2 5853   1.115   2.163   3.847
 1652SOL     OW 5854   0.276   3.754   1.644
 1652SOL    HW1 5855   0.198   3.742   1.582
 1652SOL    HW2 5856   0.343   3.682   1.626
 1653SOL     OW 5857   0.166   4.164   1.821
 1653SOL    HW1 5858   0.212   4.085   1.862
 1653SOL    HW2 5859   0.208   4.249   1.855
 1654SOL     OW 5860   0.421   3.987   1.624
 1654SOL    HW1 5861   0.349   4.053   1.604
 1654SOL    HW2 5862   0.382   3.894   1.624
 1655SOL     OW 5863   0.573   0.816   6.041
 1655SOL    HW1 5864   0.488   0.826   5.989
 1655SOL    HW2 5865   0.632   0.895   6.023
 1656SOL     OW 5866   2.242   4.257   3.500
 1656SOL    HW1 5867   2.320   4.318   3.518
 1656SOL    HW2 5868   2.244   4.227   3.405
 1657SOL     OW 5869   0.571   0.424   5.750
 1657SOL    HW1 5870   0.511   0.349   5.721
 1657SOL    HW2 5871   0.602   0.408   5.844
 1658SOL     OW 5872   5.094   6.454   6.531
 1658SOL    HW1 5873   5.099   6.359   6.499
 1658SOL    HW2 5874   5.134   6.459   6.623
 1659SOL     OW 5875   4.126   6.835   5.592
 1659SOL    HW1 5876   4.223   6.815   5.580
 1659SOL    HW2 5877   4.082   6.759   5.641
 1660SOL     OW 5878   2.417   0.818   1.919
 1660SOL    HW1 5879   2.338   0.862   1.877
 1660SOL    HW2 5880   2.467   0.767   1.849
 1661SOL     OW 5881   4.835   3.980   2.638
 1661SOL    HW1 5882   4.915   3.960   2.582
 1661SOL    HW2 5883   4.792   4.064   2.605
 1662SOL     OW 5884   0.013   2.063   3.711
 1662SOL    HW1 5885   0.085   1.996   3.690
 1662SOL    HW2 5886   6.944   2.032   3.671
 1663SOL     OW 5887   5.534   3.828   1.175
 1663SOL    HW1 5888   5.603   3.896   1.201
 1663SOL    HW2 5889   5.573   3.765   1.108
 1664SOL     OW 5890   1.576   0.428   6.232
 1664SOL    HW1 5891   1.621   0.517   6.233
 1664SOL    HW2 5892   1.602   0.378   6.149
 1665SOL     OW 5893   2.762   4.421   6.374
 1665SOL    HW1 5894   2.841   4.363   6.394
 1665SOL    HW2 5895   2.699   4.372   6.314
 1666SOL     OW 5896   5.249   6.048   6.820
 1666SOL    HW1 5897   5.323   6.081   6.761
 1666SOL    HW2 5898   5.204   5.970   6.775
 1667SOL     OW 5899   7.007   5.647   0.499
 1667SOL    HW1 5900   0.007   5.569   0.439
 1667SOL    HW2 5901   6.918   5.636   0.542
 1668SOL     OW 5902   5.905   2.997   2.084
 1668SOL    HW1 5903   5.869   2.916   2.131
 1668SOL    HW2 5904   5.886   2.990   1.986
 1669SOL     OW 5905   6.723   2.974   5.844
 1669SOL    HW1 5906   6.755   3.033   5.770
 1669SOL    HW2 5907   6.792   2.904   5.863
 1670SOL     OW 5908   3.367   4.507   5.623
 1670SOL    HW1 5909   3.403   4.501   5.530
 1670SOL    HW2 5910   3.297   4.436   5.636
 1671SOL     OW 5911   6.002   2.252   0.546
 1671SOL    HW1 5912   5.923   2.217   0.596
 1671SOL    HW2 5913   6.069   2.179   0.534
 1672SOL     OW 5914   0.674   2.172   1.406
 1672SOL    HW1 5915   0.748   2.237   1.391
 1672SOL    HW2 5916   0.702   2.105   1.475
 1673SOL     OW 5917   1.429   0.442   4.546
 1673SOL    HW1 5918   1.384   0.353   4.541
 1673SOL    HW2 5919   1.394   0.493   4.625
 1674SOL     OW 5920   5.077   2.032   3.019
 1674SOL    HW1 5921   5.048   2.099   2.950
 1674SOL    HW2 5922   5.018   1.952   3.014
 1675SOL     OW 5923   5.730   0.144   1.557
 1675SOL    HW1 5924   5.692   0.214   1.618
 1675SOL    HW2 5925   5.740   0.181   1.465
 1676SOL     OW 5926   0.780   2.149   3.836
 1676SOL    HW1 5927   0.844   2.162   3.760
 1676SOL    HW2 5928   0.688   2.174   3.806
 1677SOL     OW 5929   3.197   3.353   2.783
 1677SOL    HW1 5930   3.115   3.332   2.837
 1677SOL    HW2 5931   3.214   3.452   2.785
 1678SOL     OW 5932   0.696   0.063   0.249
 1678SOL    HW1 5933   0.728   0.090   0.341
 1678SOL    HW2 5934   0.663   0.144   0.201
 1679SOL     OW 5935   6.224   1.293   0.016
 1679SOL    HW1 5936   6.307   1.348   0.025
 1679SOL    HW2 5937   6.211   1.268   6.937
 1680SOL     OW 5938   5.946   2.622   2.864
 1680SOL    HW1 5939   5.947   2.721   2.852
 1680SOL    HW2 5940   5.922   2.600   2.959
 1681SOL     OW 5941   3.692   6.174   4.677
 1681SOL    HW1 5942   3.739   6.242   4.620
 1681SOL    HW2 5943   3.721   6.184   4.772
 1682SOL     OW 5944   4.089   0.560   4.533
 1682SOL    HW1 5945   4.099   0.652   4.495
 1682SOL    HW2 5946   4.174   0.510   4.521
 1683SOL     OW 5947   6.818   2.713   3.059
 1683SOL    HW1 5948   6.912   2.682   3.072
 1683SOL    HW2 5949   6.798   2.718   2.961
 1684SOL     OW 5950   2.650   5.797   1.605
 1684SOL    HW1 5951   2.641   5.816   1.508
 1684SOL    HW2 5952   2.700   5.872   1.650
 1685SOL     OW 5953   6.980   1.283   5.776
 1685SOL    HW1 5954   0.018   1.218   5.723
 1685SOL    HW2 5955   6.965   1.365   5.722
 1686SOL     OW 5956   3.729   5.121   1.948
 1686SOL    HW1 5957   3.795   5.180   1.994
 1686SOL    HW2 5958   3.677   5.175   1.880
 1687SOL     OW 5959   5.075   4.054   1.279
 1687SOL    HW1 5960   5.017   4.109   1.339
 1687SOL    HW2 5961   5.163   4.101   1.266
 1688SOL     OW 5962   2.084   0.305   3.391
 1688SOL    HW1 5963   2.111   0.351   3.475
 1688SOL    HW2 5964   2.032   0.368   3.333
 1689SOL     OW 5965   3.893   0.560   1.893
 1689SOL    HW1 5966   3.843   0.510   1.823
 1689SOL    HW2 5967   3.839   0.562   1.978
 1690SOL     OW 5968   6.286   4.570   4.173
 1690SOL    HW1 5969   6.357   4.515   4.130
 1690SOL    HW2 5970   6.296   4.666   4.145
 1691SOL     OW 5971   4.183   2.590   5.466
 1691SOL    HW1 5972   4.205   2.687   5.460
 1691SOL    HW2 5973   4.170   2.553   5.374
 1692SOL     OW 5974   5.183   5.088   1.514
 1692SOL    HW1 5975   5.165   5.095   1.612
 1692SOL    HW2 5976   5.221   5.174   1.480
 1693SOL     OW 5977   5.326   6.772   5.980
 1693SOL    HW1 5978   5.393   6.844   6.000
 1693SOL    HW2 5979   5.250   6.811   5.927
 1694SOL     OW 5980   4.705   1.375   6.412
 1694SOL    HW1 5981   4.760   1.292   6.414
 1694SOL    HW2 5982   4.762   1.452   6.382
 1695SOL     OW 5983   4.122   0.622   5.575
 1695SOL    HW1 5984   4.054   0.564   5.530
 1695SOL    HW2 5985   4.160   0.686   5.509
 1696SOL     OW 5986   4.324   0.111   0.940
 1696SOL    HW1 5987   4.373   0.167   0.872
 1696SOL    HW2 5988   4.297   0.168   1.017
 1697SOL     OW 5989   4.659   2.749   1.905
 1697SOL    HW1 5990   4.682   2.722   1.998
 1697SOL    HW2 5991   4.664   2.849   1.897
 1698SOL     OW 5992   4.408   1.840   1.431
 1698SOL    HW1 5993   4.340   1.774   1.397
 1698SOL    HW2 5994   4.490   1.792   1.460
 1699SOL     OW 5995   1.712   0.716   0.616
 1699SOL    HW1 5996   1.700   0.780   0.691
 1699SOL    HW2 5997   1.801   0.733   0.572
 1700SOL     OW 5998   4.983   3.286   2.715
 1700SOL    HW1 5999   4.987   3.345   2.796
 1700SOL    HW2 6000   5.009   3.340   2.635
 1701SOL     OW 6001   0.766   5.341   4.634
 1701SOL    HW1 6002   0.724   5.294   4.556
 1701SOL    HW2 6003   0.854   5.380   4.607
 1702SOL     OW 6004   2.579   2.903   6.546
 1702SOL    HW1 6005   2.503   2.860   6.593
 1702SOL    HW2 6006   2.546   2.944   6.461
 1703SOL     OW 6007   1.261   2.309   1.926
 1703SOL    HW1 6008   1.356   2.280   1.917
 1703SOL    HW2 6009   1.234   2.305   2.022
 1704SOL     OW 6010   2.796   2.908   6.941
 1704SOL    HW1 6011   2.825   2.813   6.956
 1704SOL    HW2 6012   2.873   2.960   6.904
 1705SOL     OW 6013   4.875   3.138   0.990
 1705SOL    HW1 6014   4.842   3.231   0.975
 1705SOL    HW2 6015   4.912   3.102   0.904
 1706SOL     OW 6016   5.820   1.629   6.501
 1706SOL    HW1 6017   5.897   1.643   6.564
 1706SOL    HW2 6018   5.852   1.634   6.407
 1707SOL     OW 6019   4.012   1.309   2.011
 1707SOL    HW1 6020   4.083   1.251   1.971
 1707SOL    HW2 6021   4.046   1.402   2.019
 1708SOL     OW 6022   2.638   4.754   1.842
 1708SOL    HW1 6023   2.668   4.683   1.906
 1708SOL    HW2 6024   2.702   4.757   1.765
 1709SOL     OW 6025   5.233   4.977   0.976
 1709SOL    HW1 6026   5.257   4.887   1.013
 1709SOL    HW2 6027   5.216   5.040   1.052
 1710SOL     OW 6028   4.817   3.067   2.306
 1710SOL    HW1 6029   4.773   3.047   2.218
 1710SOL    HW2 6030   4.796   2.992   2.370
 1711SOL     OW 6031   3.956   5.703   0.060
 1711SOL    HW1 6032   3.935   5.651   6.995
 1711SOL    HW2 6033   3.892   5.680   0.133
 1712SOL     OW 6034   0.023   1.848   1.897
 1712SOL    HW1 6035   6.973   1.792   1.945
 1712SOL    HW2 6036   0.113   1.836   1.938
 1713SOL     OW 6037   2.484   1.669   2.369
 1713SOL    HW1 6038   2.576   1.633   2.379
 1713SOL    HW2 6039   2.466   1.692   2.273
 1714SOL     OW 6040   2.528   4.063   1.052
 1714SOL    HW1 6041   2.433   4.060   1.083
 1714SOL    HW2 6042   2.581   4.119   1.116
 1715SOL     OW 6043   0.872   5.770   0.789
 1715SOL    HW1 6044   0.942   5.800   0.854
 1715SOL    HW2 6045   0.894   5.679   0.754
 1716SOL     OW 6046   4.889   1.492   2.727
 1716SOL    HW1 6047   4.956   1.520   2.795
 1716SOL    HW2 6048   4.935   1.476   2.639
 1717SOL     OW 6049   4.060   6.324   3.878
 1717SOL    HW1 6050   3.988   6.288   3.937
 1717SOL    HW2 6051   4.135   6.258   3.872
 1718SOL     OW 6052   1.825   3.412   1.708
 1718SOL    HW1 6053   1.798   3.492   1.762
 1718SOL    HW2 6054   1.909   3.373   1.746
 1719SOL     OW 6055   1.622   5.644   2.922
 1719SOL    HW1 6056   1.618   5.556   2.875
 1719SOL    HW2 6057   1.647   5.716   2.857
 1720SOL     OW 6058   1.066   3.199   5.307
 1720SOL    HW1 6059   1.134   3.128   5.323
 1720SOL    HW2 6060   1.005   3.205   5.386
 1721SOL     OW 6061   2.016   2.590   6.945
 1721SOL    HW1 6062   1.995   2.649   0.005
 1721SOL    HW2 6063   2.006   2.495   6.972
 1722SOL     OW 6064   2.322   2.689   3.364
 1722SOL    HW1 6065   2.338   2.704   3.462
 1722SOL    HW2 6066   2.260   2.612   3.353
 1723SOL     OW 6067   5.627   4.366   1.110
 1723SOL    HW1 6068   5.669   4.385   1.199
 1723SOL    HW2 6069   5.528   4.378   1.116
 1724SOL     OW 6070   5.302   2.603   0.910
 1724SOL    HW1 6071   5.214   2.585   0.867
 1724SOL    HW2 6072   5.291   2.606   1.009
 1725SOL     OW 6073   2.140   6.476   5.843
 1725SOL    HW1 6074   2.103   6.516   5.927
 1725SOL    HW2 6075   2.123   6.539   5.767
 1726SOL     OW 6076   4.985   4.486   3.116
 1726SOL    HW1 6077   4.890   4.461   3.098
 1726SOL    HW2 6078   4.998   4.584   3.099
 1727SOL     OW 6079   3.794   3.805   2.978
 1727SOL    HW1 6080   3.883   3.825   2.936
 1727SOL    HW2 6081   3.755   3.889   3.016
 1728SOL     OW 6082   5.508   2.138   4.074
 1728SOL    HW1 6083   5.483   2.218   4.128
 1728SOL    HW2 6084   5.519   2.059   4.135
 1729SOL     OW 6085   1.164   2.292   2.837
 1729SOL    HW1 6086   1.220   2.216   2.870
 1729SOL    HW2 6087   1.205   2.378   2.868
 1730SOL     OW 6088   2.703   6.656   4.919
 1730SOL    HW1 6089   2.700   6.646   5.018
 1730SOL    HW2 6090   2.663   6.574   4.876
 1731SOL     OW 6091   4.772   4.560   4.025
 1731SOL    HW1 6092   4.788   4.503   4.105
 1731SOL    HW2 6093   4.738   4.649   4.054
 1732SOL     OW 6094   3.469   3.564   5.167
 1732SOL    HW1 6095   3.460   3.643   5.106
 1732SOL    HW2 6096   3.383   3.551   5.217
 1733SOL     OW 6097   1.577   2.356   6.456
 1733SOL    HW1 6098   1.478   2.366   6.450
 1733SOL    HW2 6099   1.614   2.430   6.513
 1734SOL     OW 6100   0.269   3.287   0.838
 1734SOL    HW1 6101   0.211   3.211   0.811
 1734SOL    HW2 6102   0.232   3.330   0.920
 1735SOL     OW 6103   3.128   5.361   6.545
 1735SOL    HW1 6104   3.062   5.411   6.488
 1735SOL    HW2 6105   3.118   5.390   6.640
 1736SOL     OW 6106   5.169   2.202   6.556
 1736SOL    HW1 6107   5.071   2.191   6.570
 1736SOL    HW2 6108   5.208   2.118   6.518
 1737SOL     OW 6109   2.971   1.049   5.891
 1737SOL    HW1 6110   3.032   0.995   5.949
 1737SOL    HW2 6111   2.884   1.064   5.938
 1738SOL     OW 6112   1.373   4.069   2.224
 1738SOL    HW1 6113   1.451   4.076   2.162
 1738SOL    HW2 6114   1.402   4.029   2.311
 1739SOL     OW 6115   5.009   5.604   2.965
 1739SOL    HW1 6116   5.085   5.663   2.990
 1739SOL    HW2 6117   4.972   5.561   3.047
 1740SOL     OW 6118   0.394   2.802   5.208
 1740SOL    HW1 6119   0.422   2.767   5.118
 1740SOL    HW2 6120   0.313   2.752   5.239
 1741SOL     OW 6121   1.002   2.796   4.742
 1741SOL    HW1 6122   0.930   2.820   4.808
 1741SOL    HW2 6123   1.010   2.869   4.674
 1742SOL     OW 6124   6.529   6.837   0.010
 1742SOL    HW1 6125   6.438   6.815   6.990
 1742SOL    HW2 6126   6.541   6.936   0.011
 1743SOL     OW 6127   1.791   2.392   1.520
 1743SOL    HW1 6128   1.860   2.381   1.448
 1743SOL    HW2 6129   1.790   2.486   1.552
 1744SOL     OW 6130   3.250   2.270   5.415
 1744SOL    HW1 6131   3.197   2.302   5.494
 1744SOL    HW2 6132   3.222   2.321   5.333
 1745SOL     OW 6133   6.754   6.710   0.422
 1745SOL    HW1 6134   6.722   6.686   0.514
 1745SOL    HW2 6135   6.834   6.654   0.399
 1746SOL     OW 6136   2.509   4.794   3.140
 1746SOL    HW1 6137   2.437   4.842   3.191
 1746SOL    HW2 6138   2.485   4.697   3.131
 1747SOL     OW 6139   4.075   0.010   2.469
 1747SOL    HW1 6140   4.136   6.963   2.515
 1747SOL    HW2 6141   4.110   0.030   2.377
 1748SOL     OW 6142   6.999   1.992   4.021
 1748SOL    HW1 6143   6.905   1.971   3.994
 1748SOL    HW2 6144   0.042   1.983   3.942
 1749SOL     OW 6145   6.521   5.049   1.962
 1749SOL    HW1 6146   6.574   5.134   1.963
 1749SOL    HW2 6147   6.427   5.069   1.936
 1750SOL     OW 6148   3.136   0.954   0.648
 1750SOL    HW1 6149   3.121   0.930   0.553
 1750SOL    HW2 6150   3.106   0.879   0.707
 1751SOL     OW 6151   5.296   3.972   4.989
 1751SOL    HW1 6152   5.237   4.024   4.928
 1751SOL    HW2 6153   5.243   3.900   5.035
 1752SOL     OW 6154   6.894   0.826   2.586
 1752SOL    HW1 6155   6.938   0.749   2.634
 1752SOL    HW2 6156   6.798   0.803   2.568
 1753SOL     OW 6157   6.801   2.134   1.595
 1753SOL    HW1 6158   6.822   2.049   1.643
 1753SOL    HW2 6159   6.758   2.112   1.507
 1754SOL     OW 6160   3.142   5.595   3.621
 1754SOL    HW1 6161   3.133   5.605   3.522
 1754SOL    HW2 6162   3.221   5.538   3.642
 1755SOL     OW 6163   6.362   0.124   4.970
 1755SOL    HW1 6164   6.328   0.111   5.063
 1755SOL    HW2 6165   6.442   0.066   4.956
 1756SOL     OW 6166   4.500   6.061   1.213
 1756SOL    HW1 6167   4.556   5.990   1.169
 1756SOL    HW2 6168   4.411   6.065   1.168
 1757SOL     OW 6169   2.783   4.865   5.162
 1757SOL    HW1 6170   2.770   4.872   5.261
 1757SOL    HW2 6171   2.813   4.773   5.138
 1758SOL     OW 6172   0.965   6.273   3.596
 1758SOL    HW1 6173   0.877   6.236   3.566
 1758SOL    HW2 6174   1.039   6.220   3.555
 1759SOL     OW 6175   1.026   5.629   6.983
 1759SOL    HW1 6176   0.954   5.696   7.002
 1759SOL    HW2 6177   0.987   5.552   6.932
 1760SOL     OW 6178   6.424   1.551   4.687
 1760SOL    HW1 6179   6.327   1.560   4.665
 1760SOL    HW2 6180   6.436   1.547   4.786
 1761SOL     OW 6181   5.263   1.157   3.244
 1761SOL    HW1 6182   5.232   1.076   3.195
 1761SOL    HW2 6183   5.354   1.140   3.282
 1762SOL     OW 6184   0.906   1.352   5.771
 1762SOL    HW1 6185   1.003   1.366   5.794
 1762SOL    HW2 6186   0.877   1.423   5.706
 1763SOL     OW 6187   1.498   5.149   3.197
 1763SOL    HW1 6188   1.592   5.170   3.168
 1763SOL    HW2 6189   1.450   5.234   3.217
 1764SOL     OW 6190   0.712   5.877   3.229
 1764SOL    HW1 6191   0.654   5.948   3.269
 1764SOL    HW2 6192   0.761   5.915   3.150
 1765SOL     OW 6193   5.465   4.048   2.278
 1765SOL    HW1 6194   5.559   4.081   2.291
 1765SOL    HW2 6195   5.401   4.125   2.284
 1766SOL     OW 6196   4.878   4.423   4.218
 1766SOL    HW1 6197   4.961   4.475   4.236
 1766SOL    HW2 6198   4.832   4.402   4.304
 1767SOL     OW 6199   0.327   4.808   1.547
 1767SOL    HW1 6200   0.358   4.742   1.479
 1767SOL    HW2 6201   0.249   4.771   1.598
 1768SOL     OW 6202   4.577   4.424   2.424
 1768SOL    HW1 6203   4.491   4.470   2.447
 1768SOL    HW2 6204   4.654   4.486   2.439
 1769SOL     OW 6205   5.055   0.174   1.160
 1769SOL    HW1 6206   5.060   0.092   1.217
 1769SOL    HW2 6207   4.985   0.236   1.197
 1770SOL     OW 6208   1.680   5.101   0.439
 1770SOL    HW1 6209   1.698   5.058   0.350
 1770SOL    HW2 6210   1.767   5.120   0.484
 1771SOL     OW 6211   1.695   2.852   6.648
 1771SOL    HW1 6212   1.645   2.827   6.731
 1771SOL    HW2 6213   1.722   2.948   6.653
 1772SOL     OW 6214   2.189   4.142   3.259
 1772SOL    HW1 6215   2.159   4.047   3.260
 1772SOL    HW2 6216   2.222   4.165   3.168
 1773SOL     OW 6217   2.382   6.258   4.919
 1773SOL    HW1 6218   2.361   6.356   4.910
 1773SOL    HW2 6219   2.467   6.238   4.871
 1774SOL     OW 6220   5.595   5.704   1.611
 1774SOL    HW1 6221   5.645   5.662   1.687
 1774SOL    HW2 6222   5.530   5.771   1.647
 1775SOL     OW 6223   1.204   6.023   0.287
 1775SOL    HW1 6224   1.192   6.071   0.200
 1775SOL    HW2 6225   1.299   6.032   0.317
 1776SOL     OW 6226   4.579   3.677   5.945
 1776SOL    HW1 6227   4.492   3.681   5.895
 1776SOL    HW2 6228   4.624   3.590   5.926
 1777SOL     OW 6229   4.221   6.375   6.994
 1777SOL    HW1 6230   4.169   6.459   7.009
 1777SOL    HW2 6231   4.289   6.390   6.923
 1778SOL     OW 6232   6.235   0.219   3.807
 1778SOL    HW1 6233   6.137   0.240   3.800
 1778SOL    HW2 6234   6.286   0.279   3.746
 1779SOL     OW 6235   5.735   0.567   4.449
 1779SOL    HW1 6236   5.740   0.628   4.370
 1779SOL    HW2 6237   5.654   0.589   4.503
 1780SOL     OW 6238   3.055   5.952   5.024
 1780SOL    HW1 6239   3.061   6.010   5.106
 1780SOL    HW2 6240   2.995   5.874   5.043
 1781SOL     OW 6241   4.101   0.961   5.635
 1781SOL    HW1 6242   4.072   0.908   5.555
 1781SOL    HW2 6243   4.198   0.981   5.629
 1782SOL     OW 6244   5.228   0.780   2.345
 1782SOL    HW1 6245   5.210   0.691   2.386
 1782SOL    HW2 6246   5.191   0.783   2.252
 1783SOL     OW 6247   1.946   4.171   6.503
 1783SOL    HW1 6248   1.866   4.172   6.444
 1783SOL    HW2 6249   2.026   4.203   6.452
 1784SOL     OW 6250   2.752   6.102   1.282
 1784SOL    HW1 6251   2.829   6.129   1.341
 1784SOL    HW2 6252   2.776   6.120   1.187
 1785SOL     OW 6253   1.556   6.118   4.348
 1785SOL    HW1 6254   1.585   6.122   4.253
 1785SOL    HW2 6255   1.637   6.113   4.407
 1786SOL     OW 6256   0.767   6.050   1.481
 1786SOL    HW1 6257   0.786   5.955   1.455
 1786SOL    HW2 6258   0.852   6.102   1.482
 1787SOL     OW 6259   2.164   2.396   5.888
 1787SOL    HW1 6260   2.115   2.443   5.960
 1787SOL    HW2 6261   2.225   2.460   5.841
 1788SOL     OW 6262   4.000   3.941   0.525
 1788SOL    HW1 6263   3.900   3.942   0.528
 1788SOL    HW2 6264   4.030   3.933   0.430
 1789SOL     OW 6265   5.629   2.848   2.034
 1789SOL    HW1 6266   5.595   2.837   2.128
 1789SOL    HW2 6267   5.678   2.765   2.008
 1790SOL     OW 6268   2.195   1.819   4.784
 1790SOL    HW1 6269   2.189   1.762   4.866
 1790SOL    HW2 6270   2.177   1.914   4.808
 1791SOL     OW 6271   5.680   0.558   3.922
 1791SOL    HW1 6272   5.732   0.609   3.990
 1791SOL    HW2 6273   5.588   0.597   3.913
 1792SOL     OW 6274   6.628   2.405   6.580
 1792SOL    HW1 6275   6.654   2.366   6.669
 1792SOL    HW2 6276   6.579   2.491   6.595
 1793SOL     OW 6277   0.153   1.276   4.859
 1793SOL    HW1 6278   0.200   1.311   4.940
 1793SOL    HW2 6279   0.217   1.223   4.804
 1794SOL     OW 6280   0.421   1.580   6.291
 1794SOL    HW1 6281   0.481   1.516   6.339
 1794SOL    HW2 6282   0.361   1.626   6.356
 1795SOL     OW 6283   5.526   4.728   0.762
 1795SOL    HW1 6284   5.506   4.824   0.780
 1795SOL    HW2 6285   5.542   4.681   0.848
 1796SOL     OW 6286   6.198   6.921   0.754
 1796SOL    HW1 6287   6.111   6.950   0.795
 1796SOL    HW2 6288   6.206   6.822   0.761
 1797SOL     OW 6289   3.411   5.874   5.710
 1797SOL    HW1 6290   3.428   5.884   5.612
 1797SOL    HW2 6291   3.471   5.935   5.760
 1798SOL     OW 6292   1.944   3.725   5.736
 1798SOL    HW1 6293   2.007   3.738   5.659
 1798SOL    HW2 6294   1.892   3.809   5.751
 1799SOL     OW 6295   3.439   1.449   2.202
 1799SOL    HW1 6296   3.438   1.371   2.139
 1799SOL    HW2 6297   3.526   1.497   2.194
 1800SOL     OW 6298   6.257   2.853   6.098
 1800SOL    HW1 6299   6.353   2.876   6.082
 1800SOL    HW2 6300   6.221   2.801   6.021
 1801SOL     OW 6301   0.264   1.387   2.916
 1801SOL    HW1 6302   0.223   1.373   3.007
 1801SOL    HW2 6303   0.339   1.453   2.924
 1802SOL     OW 6304   5.803   5.029   4.182
 1802SOL    HW1 6305   5.841   5.075   4.102
 1802SOL    HW2 6306   5.871   4.966   4.220
 1803SOL     OW 6307   0.203   0.157   4.288
 1803SOL    HW1 6308   0.261   0.203   4.221
 1803SOL    HW2 6309   0.138   0.098   4.241
 1804SOL     OW 6310   1.092   2.700   6.518
 1804SOL    HW1 6311   1.039   2.739   6.593
 1804SOL    HW2 6312   1.165   2.642   6.555
 1805SOL     OW 6313   5.978   4.704   0.204
 1805SOL    HW1 6314   5.897   4.701   0.145
 1805SOL    HW2 6315   6.059   4.686   0.148
 1806SOL     OW 6316   0.774   1.968   1.569
 1806SOL    HW1 6317   0.797   1.983   1.665
 1806SOL    HW2 6318   0.778   1.870   1.548
 1807SOL     OW 6319   6.057   3.036   2.683
 1807SOL    HW1 6320   6.131   2.997   2.739
 1807SOL    HW2 6321   6.067   3.004   2.589
 1808SOL     OW 6322   5.628   0.821   6.197
 1808SOL    HW1 6323   5.686   0.881   6.251
 1808SOL    HW2 6324   5.570   0.767   6.258
 1809SOL     OW 6325   5.091   0.227   5.555
 1809SOL    HW1 6326   5.099   0.195   5.650
 1809SOL    HW2 6327   5.053   0.154   5.498
 1810SOL     OW 6328   1.354   1.202   4.471
 1810SOL    HW1 6329   1.374   1.227   4.376
 1810SOL    HW2 6330   1.419   1.132   4.501
 1811SOL     OW 6331   3.072   5.689   2.477
 1811SOL    HW1 6332   3.077   5.632   2.559
 1811SOL    HW2 6333   3.143   5.759   2.481
 1812SOL     OW 6334   4.095   0.208   6.155
 1812SOL    HW1 6335   4.087   0.108   6.148
 1812SOL    HW2 6336   4.005   0.248   6.169
 1813SOL     OW 6337   5.026   3.709   1.731
 1813SOL    HW1 6338   4.976   3.665   1.657
 1813SOL    HW2 6339   5.036   3.645   1.808
 1814SOL     OW 6340   6.525   5.735   0.897
 1814SOL    HW1 6341   6.609   5.785   0.878
 1814SOL    HW2 6342   6.448   5.779   0.850
 1815SOL     OW 6343   6.271   5.227   1.108
 1815SOL    HW1 6344   6.197   5.266   1.163
 1815SOL    HW2 6345   6.359   5.263   1.140
 1816SOL     OW 6346   4.252   5.239   4.550
 1816SOL    HW1 6347   4.175   5.256   4.489
 1816SOL    HW2 6348   4.273   5.322   4.601
 1817SOL     OW 6349   6.555   2.897   3.466
 1817SOL    HW1 6350   6.636   2.862   3.419
 1817SOL    HW2 6351   6.493   2.939   3.400
 1818SOL     OW 6352   2.190   1.449   0.602
 1818SOL    HW1 6353   2.140   1.364   0.587
 1818SOL    HW2 6354   2.201   1.498   0.515
 1819SOL     OW 6355   0.878   4.258   1.790
 1819SOL    HW1 6356   0.924   4.296   1.871
 1819SOL    HW2 6357   0.780   4.273   1.797
 1820SOL     OW 6358   4.212   0.420   5.124
 1820SOL    HW1 6359   4.260   0.432   5.211
 1820SOL    HW2 6360   4.172   0.508   5.096
 1821SOL     OW 6361   4.050   1.608   2.725
 1821SOL    HW1 6362   4.086   1.515   2.735
 1821SOL    HW2 6363   3.979   1.609   2.655
 1822SOL     OW 6364   1.731   3.942   4.174
 1822SOL    HW1 6365   1.755   4.035   4.148
 1822SOL    HW2 6366   1.653   3.911   4.120
 1823SOL     OW 6367   3.929   6.940   3.324
 1823SOL    HW1 6368   3.894   6.858   3.369
 1823SOL    HW2 6369   3.915   0.003   3.383
 1824SOL     OW 6370   4.439   3.116   1.738
 1824SOL    HW1 6371   4.473   3.203   1.702
 1824SOL    HW2 6372   4.513   3.067   1.784
 1825SOL     OW 6373   1.028   3.708   0.084
 1825SOL    HW1 6374   0.981   3.665   0.007
 1825SOL    HW2 6375   1.078   3.638   0.135
 1826SOL     OW 6376   3.561   2.699   0.390
 1826SOL    HW1 6377   3.648   2.721   0.345
 1826SOL    HW2 6378   3.489   2.691   0.321
 1827SOL     OW 6379   5.052   4.561   0.197
 1827SOL    HW1 6380   5.031   4.656   0.173
 1827SOL    HW2 6381   5.148   4.553   0.222
 1828SOL     OW 6382   2.249   4.632   4.829
 1828SOL    HW1 6383   2.183   4.627   4.754
 1828SOL    HW2 6384   2.276   4.540   4.856
 1829SOL     OW 6385   2.480   6.027   1.901
 1829SOL    HW1 6386   2.530   5.983   1.975
 1829SOL    HW2 6387   2.451   5.957   1.835
 1830SOL     OW 6388   4.548   1.306   6.180
 1830SOL    HW1 6389   4.599   1.274   6.260
 1830SOL    HW2 6390   4.525   1.229   6.121
 1831SOL     OW 6391   3.680   4.475   0.240
 1831SOL    HW1 6392   3.709   4.428   0.157
 1831SOL    HW2 6393   3.707   4.571   0.236
 1832SOL     OW 6394   1.826   3.514   5.474
 1832SOL    HW1 6395   1.837   3.613   5.467
 1832SOL    HW2 6396   1.747   3.485   5.420
 1833SOL     OW 6397   5.837   0.544   6.915
 1833SOL    HW1 6398   5.936   0.537   6.905
 1833SOL    HW2 6399   5.813   0.548   7.012
 1834SOL     OW 6400   1.392   3.752   6.571
 1834SOL    HW1 6401   1.370   3.708   6.483
 1834SOL    HW2 6402   1.307   3.772   6.620
 1835SOL     OW 6403   6.826   6.548   0.979
 1835SOL    HW1 6404   6.898   6.618   0.981
 1835SOL    HW2 6405   6.829   6.496   1.064
 1836SOL     OW 6406   5.856   1.740   2.909
 1836SOL    HW1 6407   5.839   1.651   2.867
 1836SOL    HW2 6408   5.798   1.809   2.864
 1837SOL     OW 6409   1.805   2.261   6.829
 1837SOL    HW1 6410   1.787   2.351   6.869
 1837SOL    HW2 6411   1.873   2.212   6.884
 1838SOL     OW 6412   4.517   0.501   0.847
 1838SOL    HW1 6413   4.455   0.567   0.888
 1838SOL    HW2 6414   4.584   0.471   0.915
 1839SOL     OW 6415   6.749   0.752   6.785
 1839SOL    HW1 6416   6.737   0.803   6.700
 1839SOL    HW2 6417   6.694   0.794   6.857
 1840SOL     OW 6418   4.253   0.129   4.987
 1840SOL    HW1 6419   4.170   0.108   4.935
 1840SOL    HW2 6420   4.252   0.226   5.013
 1841SOL     OW 6421   1.790   1.016   1.635
 1841SOL    HW1 6422   1.870   0.985   1.584
 1841SOL    HW2 6423   1.713   1.028   1.572
 1842SOL     OW 6424   6.937   5.268   1.290
 1842SOL    HW1 6425   6.957   5.320   1.207
 1842SOL    HW2 6426   6.963   5.322   1.370
 1843SOL     OW 6427   2.877   1.259   6.758
 1843SOL    HW1 6428   2.880   1.285   6.854
 1843SOL    HW2 6429   2.784   1.274   6.722
 1844SOL     OW 6430   5.457   2.808   0.166
 1844SOL    HW1 6431   5.396   2.740   0.207
 1844SOL    HW2 6432   5.444   2.896   0.211
 1845SOL     OW 6433   1.083   2.541   4.146
 1845SOL    HW1 6434   1.033   2.464   4.185
 1845SOL    HW2 6435   1.079   2.618   4.210
 1846SOL     OW 6436   3.319   1.105   1.627
 1846SOL    HW1 6437   3.343   1.094   1.723
 1846SOL    HW2 6438   3.238   1.164   1.620
 1847SOL     OW 6439   2.295   6.101   6.503
 1847SOL    HW1 6440   2.335   6.061   6.421
 1847SOL    HW2 6441   2.235   6.035   6.548
 1848SOL     OW 6442   4.158   6.357   3.354
 1848SOL    HW1 6443   4.114   6.301   3.284
 1848SOL    HW2 6444   4.194   6.440   3.312
 1849SOL     OW 6445   4.849   3.090   3.026
 1849SOL    HW1 6446   4.937   3.077   2.980
 1849SOL    HW2 6447   4.782   3.026   2.989
 1850SOL     OW 6448   4.335   1.644   0.730
 1850SOL    HW1 6449   4.255   1.704   0.725
 1850SOL    HW2 6450   4.399   1.667   0.656
 1851SOL     OW 6451   0.566   5.041   4.280
 1851SOL    HW1 6452   0.471   5.072   4.273
 1851SOL    HW2 6453   0.583   5.007   4.372
 1852SOL     OW 6454   0.273   6.588   3.730
 1852SOL    HW1 6455   0.222   6.510   3.765
 1852SOL    HW2 6456   0.216   6.639   3.665
 1853SOL     OW 6457   1.138   1.632   5.925
 1853SOL    HW1 6458   1.173   1.723   5.903
 1853SOL    HW2 6459   1.214   1.571   5.944
 1854SOL     OW 6460   0.498   0.166   4.212
 1854SOL    HW1 6461   0.544   0.164   4.301
 1854SOL    HW2 6462   0.499   0.259   4.176
 1855SOL     OW 6463   6.432   2.144   4.966
 1855SOL    HW1 6464   6.352   2.099   4.927
 1855SOL    HW2 6465   6.483   2.190   4.894
 1856SOL     OW 6466   5.050   3.985   6.854
 1856SOL    HW1 6467   4.952   3.963   6.854
 1856SOL    HW2 6468   5.089   3.960   6.943
 1857SOL     OW 6469   3.956   1.386   6.482
 1857SOL    HW1 6470   3.949   1.393   6.581
 1857SOL    HW2 6471   3.962   1.477   6.442
 1858SOL     OW 6472   5.516   1.918   5.086
 1858SOL    HW1 6473   5.521   1.936   4.988
 1858SOL    HW2 6474   5.577   1.841   5.109
 1859SOL     OW 6475   6.470   6.785   2.831
 1859SOL    HW1 6476   6.471   6.790   2.731
 1859SOL    HW2 6477   6.405   6.714   2.859
 1860SOL     OW 6478   2.818   1.145   6.179
 1860SOL    HW1 6479   2.751   1.113   6.246
 1860SOL    HW2 6480   2.896   1.082   6.176
 1861SOL     OW 6481   6.323   6.357   5.171
 1861SOL    HW1 6482   6.271   6.431   5.128
 1861SOL    HW2 6483   6.346   6.289   5.103
 1862SOL     OW 6484   2.797   5.823   6.255
 1862SOL    HW1 6485   2.798   5.739   6.201
 1862SOL    HW2 6486   2.853   5.892   6.211
 1863SOL     OW 6487   6.957   1.858   1.591
 1863SOL    HW1 6488   6.961   1.831   1.688
 1863SOL    HW2 6489   7.013   1.940   1.577
 1864SOL     OW 6490   1.933   6.409   1.769
 1864SOL    HW1 6491   1.865   6.347   1.809
 1864SOL    HW2 6492   2.022   6.393   1.813
 1865SOL     OW 6493   6.190   2.459   5.893
 1865SOL    HW1 6494   6.270   2.399   5.895
 1865SOL    HW2 6495   6.158   2.468   5.799
 1866SOL     OW 6496   0.128   4.462   3.836
 1866SOL    HW1 6497   0.181   4.472   3.752
 1866SOL    HW2 6498   0.077   4.547   3.853
 1867SOL     OW 6499   1.389   1.501   2.031
 1867SOL    HW1 6500   1.331   1.431   1.989
 1867SOL    HW2 6501   1.463   1.458   2.082
 1868SOL     OW 6502   5.197   4.074   6.278
 1868SOL    HW1 6503   5.217   4.151   6.217
 1868SOL    HW2 6504   5.257   4.079   6.357
 1869SOL     OW 6505   5.185   0.683   5.491
 1869SOL    HW1 6506   5.160   0.599   5.443
 1869SOL    HW2 6507   5.103   0.729   5.523
 1870SOL     OW 6508   6.055   0.399   6.247
 1870SOL    HW1 6509   5.975   0.459   6.246
 1870SOL    HW2 6510   6.028   0.307   6.219
 1871SOL     OW 6511   0.745   6.024   6.452
 1871SOL    HW1 6512   0.650   6.013   6.425
 1871SOL    HW2 6513   0.784   5.934   6.474
 1872SOL     OW 6514   2.571   3.171   1.151
 1872SOL    HW1 6515   2.602   3.248   1.207
 1872SOL    HW2 6516   2.479   3.144   1.179
 1873SOL     OW 6517   5.800   1.328   2.027
 1873SOL    HW1 6518   5.893   1.356   2.003
 1873SOL    HW2 6519   5.804   1.264   2.104
 1874SOL     OW 6520   1.389   6.271   6.232
 1874SOL    HW1 6521   1.325   6.251   6.159
 1874SOL    HW2 6522   1.343   6.325   6.303
 1875SOL     OW 6523   0.640   6.292   2.461
 1875SOL    HW1 6524   0.549   6.318   2.429
 1875SOL    HW2 6525   0.679   6.366   2.515
 1876SOL     OW 6526   0.732   4.512   0.605
 1876SOL    HW1 6527   0.756   4.466   0.520
 1876SOL    HW2 6528   0.815   4.544   0.650
 1877SOL     OW 6529   1.303   0.986   2.943
 1877SOL    HW1 6530   1.248   1.039   2.879
 1877SOL    HW2 6531   1.379   1.042   2.976
 1878SOL     OW 6532   5.345   3.903   4.243
 1878SOL    HW1 6533   5.308   3.818   4.279
 1878SOL    HW2 6534   5.428   3.927   4.293
 1879SOL     OW 6535   4.223   6.407   5.109
 1879SOL    HW1 6536   4.146   6.449   5.156
 1879SOL    HW2 6537   4.251   6.464   5.033
 1880SOL     OW 6538   1.204   2.731   4.376
 1880SOL    HW1 6539   1.237   2.788   4.450
 1880SOL    HW2 6540   1.111   2.760   4.350
 1881SOL     OW 6541   2.020   1.330   3.977
 1881SOL    HW1 6542   2.092   1.331   3.907
 1881SOL    HW2 6543   2.015   1.420   4.021
 1882SOL     OW 6544   2.872   5.557   0.682
 1882SOL    HW1 6545   2.960   5.551   0.730
 1882SOL    HW2 6546   2.887   5.588   0.589
 1883SOL     OW 6547   1.925   2.896   2.625
 1883SOL    HW1 6548   1.857   2.968   2.611
 1883SOL    HW2 6549   1.977   2.915   2.708
 1884SOL     OW 6550   4.639   0.372   0.431
 1884SOL    HW1 6551   4.607   0.286   0.471
 1884SOL    HW2 6552   4.708   0.354   0.362
 1885SOL     OW 6553   6.847   1.265   0.657
 1885SOL    HW1 6554   6.773   1.198   0.663
 1885SOL    HW2 6555   6.935   1.220   0.668
 1886SOL     OW 6556   3.692   2.930   5.740
 1886SOL    HW1 6557   3.656   2.842   5.708
 1886SOL    HW2 6558   3.763   2.961   5.677
 1887SOL     OW 6559   0.928   5.938   5.028
 1887SOL    HW1 6560   0.860   5.958   4.957
 1887SOL    HW2 6561   0.942   5.839   5.033
 1888SOL     OW 6562   1.413   1.505   5.944
 1888SOL    HW1 6563   1.479   1.580   5.941
 1888SOL    HW2 6564   1.383   1.490   6.038
 1889SOL     OW 6565   3.492   2.553   6.824
 1889SOL    HW1 6566   3.550   2.550   6.905
 1889SOL    HW2 6567   3.418   2.487   6.834
 1890SOL     OW 6568   6.391   5.840   6.528
 1890SOL    HW1 6569   6.341   5.838   6.615
 1890SOL    HW2 6570   6.359   5.764   6.470
 1891SOL     OW 6571   5.410   3.418   0.230
 1891SOL    HW1 6572   5.377   3.331   0.192
 1891SOL    HW2 6573   5.416   3.486   0.157
 1892SOL     OW 6574   4.172   0.526   3.434
 1892SOL    HW1 6575   4.218   0.610   3.462
 1892SOL    HW2 6576   4.186   0.512   3.336
 1893SOL     OW 6577   2.743   0.996   6.401
 1893SOL    HW1 6578   2.802   0.919   6.377
 1893SOL    HW2 6579   2.797   1.063   6.454
 1894SOL     OW 6580   4.831   2.980   0.712
 1894SOL    HW1 6581   4.830   2.908   0.643
 1894SOL    HW2 6582   4.890   3.055   0.682
 1895SOL     OW 6583   4.828   5.646   3.208
 1895SOL    HW1 6584   4.863   5.552   3.216
 1895SOL    HW2 6585   4.799   5.678   3.298
 1896SOL     OW 6586   6.530   2.081   5.224
 1896SOL    HW1 6587   6.494   2.092   5.131
 1896SOL    HW2 6588   6.626   2.053   5.220
 1897SOL     OW 6589   5.109   4.815   3.058
 1897SOL    HW1 6590   5.192   4.765   3.034
 1897SOL    HW2 6591   5.133   4.907   3.088
 1898SOL     OW 6592   5.452   6.341   0.129
 1898SOL    HW1 6593   5.541   6.357   0.172
 1898SOL    HW2 6594   5.397   6.425   0.134
 1899SOL     OW 6595   2.157   3.116   3.280
 1899SOL    HW1 6596   2.139   3.177   3.357
 1899SOL    HW2 6597   2.133   3.162   3.195
 1900SOL     OW 6598   2.075   5.666   1.667
 1900SOL    HW1 6599   2.025   5.700   1.747
 1900SOL    HW2 6600   2.055   5.569   1.654
 1901SOL     OW 6601   1.766   0.654   5.262
 1901SOL    HW1 6602   1.850   0.634   5.211
 1901SOL    HW2 6603   1.789   0.685   5.354
 1902SOL     OW 6604   0.988   3.054   3.790
 1902SOL    HW1 6605   0.974   3.077   3.694
 1902SOL    HW2 6606   0.909   3.003   3.824
 1903SOL     OW 6607   6.731   4.760   3.827
 1903SOL    HW1 6608   6.699   4.728   3.738
 1903SOL    HW2 6609   6.729   4.860   3.829
 1904SOL     OW 6610   0.673   0.153   4.464
 1904SOL    HW1 6611   0.764   0.185   4.489
 1904SOL    HW2 6612   0.639   0.090   4.534
 1905SOL     OW 6613   6.625   3.035   5.004
 1905SOL    HW1 6614   6.536   3.052   4.962
 1905SOL    HW2 6615   6.612   2.994   5.094
 1906SOL     OW 6616   2.310   6.714   5.359
 1906SOL    HW1 6617   2.400   6.756   5.350
 1906SOL    HW2 6618   2.320   6.617   5.378
 1907SOL     OW 6619   4.205   6.987   3.438
 1907SOL    HW1 6620   4.269   6.912   3.419
 1907SOL    HW2 6621   4.112   6.955   3.419
 1908SOL     OW 6622   4.625   5.895   1.037
 1908SOL    HW1 6623   4.642   5.954   0.958
 1908SOL    HW2 6624   4.712   5.865   1.075
 1909SOL     OW 6625   5.063   5.374   3.679
 1909SOL    HW1 6626   5.036   5.333   3.766
 1909SOL    HW2 6627   5.048   5.309   3.605
 1910SOL     OW 6628   4.887   3.221   4.504
 1910SOL    HW1 6629   4.835   3.183   4.580
 1910SOL    HW2 6630   4.851   3.185   4.417
 1911SOL     OW 6631   0.659   2.845   5.754
 1911SOL    HW1 6632   0.643   2.746   5.756
 1911SOL    HW2 6633   0.575   2.892   5.778
 1912SOL     OW 6634   3.578   6.385   3.341
 1912SOL    HW1 6635   3.678   6.379   3.341
 1912SOL    HW2 6636   3.546   6.401   3.247
 1913SOL     OW 6637   2.248   4.218   5.561
 1913SOL    HW1 6638   2.317   4.193   5.493
 1913SOL    HW2 6639   2.268   4.310   5.596
 1914SOL     OW 6640   4.186   1.495   4.740
 1914SOL    HW1 6641   4.097   1.465   4.705
 1914SOL    HW2 6642   4.203   1.589   4.713
 1915SOL     OW 6643   3.229   0.124   5.483
 1915SOL    HW1 6644   3.287   0.085   5.554
 1915SOL    HW2 6645   3.276   0.116   5.395
 1916SOL     OW 6646   3.497   6.255   2.487
 1916SOL    HW1 6647   3.402   6.280   2.503
 1916SOL    HW2 6648   3.501   6.168   2.437
 1917SOL     OW 6649   3.294   3.822   3.937
 1917SOL    HW1 6650   3.281   3.892   4.007
 1917SOL    HW2 6651   3.386   3.785   3.945
 1918SOL     OW 6652   6.853   6.501   5.423
 1918SOL    HW1 6653   6.949   6.528   5.413
 1918SOL    HW2 6654   6.844   6.403   5.404
 1919SOL     OW 6655   6.621   0.811   2.561
 1919SOL    HW1 6656   6.589   0.872   2.634
 1919SOL    HW2 6657   6.546   0.790   2.499
 1920SOL     OW 6658   6.602   6.450   4.631
 1920SOL    HW1 6659   6.560   6.472   4.719
 1920SOL    HW2 6660   6.565   6.510   4.561
 1921SOL     OW 6661   2.272   6.643   6.606
 1921SOL    HW1 6662   2.330   6.568   6.640
 1921SOL    HW2 6663   2.312   6.730   6.633
 1922SOL     OW 6664   3.641   4.381   0.685
 1922SOL    HW1 6665   3.606   4.313   0.750
 1922SOL    HW2 6666   3.573   4.453   0.673
 1923SOL     OW 6667   1.583   2.790   0.708
 1923SOL    HW1 6668   1.666   2.845   0.707
 1923SOL    HW2 6669   1.605   2.695   0.730
 1924SOL     OW 6670   0.575   3.807   0.977
 1924SOL    HW1 6671   0.659   3.824   1.029
 1924SOL    HW2 6672   0.537   3.894   0.946
 1925SOL     OW 6673   2.936   4.461   0.243
 1925SOL    HW1 6674   2.964   4.416   0.328
 1925SOL    HW2 6675   2.838   4.477   0.244
 1926SOL     OW 6676   0.435   0.374   3.638
 1926SOL    HW1 6677   0.529   0.350   3.617
 1926SOL    HW2 6678   0.432   0.421   3.727
 1927SOL     OW 6679   4.924   3.442   1.221
 1927SOL    HW1 6680   4.939   3.350   1.256
 1927SOL    HW2 6681   5.005   3.498   1.241
 1928SOL     OW 6682   0.010   5.569   4.587
 1928SOL    HW1 6683   6.956   5.637   4.600
 1928SOL    HW2 6684   0.067   5.563   4.670
 1929SOL     OW 6685   1.677   5.884   2.808
 1929SOL    HW1 6686   1.722   5.971   2.792
 1929SOL    HW2 6687   1.589   5.882   2.760
 1930SOL     OW 6688   6.903   5.424   6.587
 1930SOL    HW1 6689   6.900   5.324   6.576
 1930SOL    HW2 6690   6.811   5.461   6.572
 1931SOL     OW 6691   0.924   2.025   4.271
 1931SOL    HW1 6692   0.851   1.983   4.325
 1931SOL    HW2 6693   0.899   2.023   4.174
 1932SOL     OW 6694   5.887   3.372   2.680
 1932SOL    HW1 6695   5.872   3.279   2.713
 1932SOL    HW2 6696   5.813   3.432   2.710
 1933SOL     OW 6697   2.795   4.943   0.551
 1933SOL    HW1 6698   2.793   4.896   0.463
 1933SOL    HW2 6699   2.834   5.035   0.539
 1934SOL     OW 6700   6.790   6.125   3.003
 1934SOL    HW1 6701   6.776   6.026   2.993
 1934SOL    HW2 6702   6.866   6.153   2.944
 1935SOL     OW 6703   1.986   1.394   3.098
 1935SOL    HW1 6704   1.948   1.434   3.181
 1935SOL    HW2 6705   1.952   1.300   3.088
 1936SOL     OW 6706   6.516   5.974   5.214
 1936SOL    HW1 6707   6.590   6.034   5.183
 1936SOL    HW2 6708   6.454   6.026   5.273
 1937SOL     OW 6709   4.410   1.122   2.808
 1937SOL    HW1 6710   4.482   1.102   2.875
 1937SOL    HW2 6711   4.323   1.138   2.856
 1938SOL     OW 6712   5.556   0.885   4.696
 1938SOL    HW1 6713   5.601   0.922   4.776
 1938SOL    HW2 6714   5.504   0.957   4.650
 1939SOL     OW 6715   3.073   0.755   4.630
 1939SOL    HW1 6716   3.041   0.694   4.702
 1939SOL    HW2 6717   3.172   0.751   4.624
 1940SOL     OW 6718   6.459   5.734   6.166
 1940SOL    HW1 6719   6.559   5.729   6.168
 1940SOL    HW2 6720   6.431   5.798   6.095
 1941SOL     OW 6721   4.744   4.822   2.682
 1941SOL    HW1 6722   4.748   4.904   2.626
 1941SOL    HW2 6723   4.817   4.824   2.750
 1942SOL     OW 6724   0.216   3.749   3.105
 1942SOL    HW1 6725   0.303   3.752   3.155
 1942SOL    HW2 6726   0.233   3.720   3.011
 1943SOL     OW 6727   2.956   5.784   3.681
 1943SOL    HW1 6728   3.002   5.717   3.623
 1943SOL    HW2 6729   3.023   5.849   3.717
 1944SOL     OW 6730   0.142   6.708   2.199
 1944SOL    HW1 6731   0.231   6.722   2.156
 1944SOL    HW2 6732   0.149   6.722   2.298
 1945SOL     OW 6733   3.401   5.034   3.294
 1945SOL    HW1 6734   3.316   5.004   3.251
 1945SOL    HW2 6735   3.479   4.989   3.249
 1946SOL     OW 6736   1.528   6.807   6.830
 1946SOL    HW1 6737   1.522   6.800   6.929
 1946SOL    HW2 6738   1.559   6.899   6.805
 1947SOL     OW 6739   4.766   6.925   3.721
 1947SOL    HW1 6740   4.774   6.995   3.650
 1947SOL    HW2 6741   4.852   6.920   3.772
 1948SOL     OW 6742   6.433   3.828   4.980
 1948SOL    HW1 6743   6.414   3.837   5.077
 1948SOL    HW2 6744   6.425   3.918   4.936
 1949SOL     OW 6745   4.584   4.377   6.765
 1949SOL    HW1 6746   4.583   4.338   6.673
 1949SOL    HW2 6747   4.493   4.367   6.806
 1950SOL     OW 6748   3.501   5.026   1.032
 1950SOL    HW1 6749   3.530   4.942   0.985
 1950SOL    HW2 6750   3.581   5.075   1.064
 1951SOL     OW 6751   6.590   2.865   0.689
 1951SOL    HW1 6752   6.541   2.932   0.632
 1951SOL    HW2 6753   6.523   2.808   0.737
 1952SOL     OW 6754   3.453   2.898   4.920
 1952SOL    HW1 6755   3.363   2.902   4.964
 1952SOL    HW2 6756   3.444   2.852   4.831
 1953SOL     OW 6757   0.460   2.831   4.780
 1953SOL    HW1 6758   0.504   2.807   4.693
 1953SOL    HW2 6759   0.404   2.755   4.811
 1954SOL     OW 6760   2.849   1.878   3.444
 1954SOL    HW1 6761   2.798   1.832   3.516
 1954SOL    HW2 6762   2.801   1.961   3.417
 1955SOL     OW 6763   6.052   5.445   1.817
 1955SOL    HW1 6764   6.024   5.442   1.913
 1955SOL    HW2 6765   5.985   5.396   1.761
 1956SOL     OW 6766   5.353   5.689   2.540
 1956SOL    HW1 6767   5.399   5.772   2.510
 1956SOL    HW2 6768   5.274   5.713   2.597
 1957SOL     OW 6769   1.647   6.637   4.427
 1957SOL    HW1 6770   1.642   6.593   4.338
 1957SOL    HW2 6771   1.654   6.736   4.415
 1958SOL     OW 6772   4.241   3.395   5.894
 1958SOL    HW1 6773   4.187   3.392   5.978
 1958SOL    HW2 6774   4.288   3.483   5.887
 1959SOL     OW 6775   2.029   1.215   0.491
 1959SOL    HW1 6776   1.995   1.228   0.398
 1959SOL    HW2 6777   2.124   1.185   0.488
 1960SOL     OW 6778   5.844   5.852   2.327
 1960SOL    HW1 6779   5.884   5.817   2.411
 1960SOL    HW2 6780   5.916   5.886   2.267
 1961SOL     OW 6781   5.964   4.889   5.166
 1961SOL    HW1 6782   6.028   4.836   5.111
 1961SOL    HW2 6783   6.016   4.952   5.224
 1962SOL     OW 6784   6.830   6.952   3.913
 1962SOL    HW1 6785   6.782   6.970   3.827
 1962SOL    HW2 6786   6.874   6.863   3.909
 1963SOL     OW 6787   2.842   0.625   3.448
 1963SOL    HW1 6788   2.852   0.722   3.470
 1963SOL    HW2 6789   2.845   0.612   3.349
 1964SOL     OW 6790   5.835   3.245   2.335
 1964SOL    HW1 6791   5.846   3.339   2.370
 1964SOL    HW2 6792   5.925   3.209   2.310
 1965SOL     OW 6793   2.141   6.130   3.483
 1965SOL    HW1 6794   2.084   6.208   3.509
 1965SOL    HW2 6795   2.179   6.145   3.391
 1966SOL     OW 6796   6.314   6.704   0.231
 1966SOL    HW1 6797   6.380   6.778   0.249
 1966SOL    HW2 6798   6.225   6.728   0.270
 1967SOL     OW 6799   5.134   3.794   5.104
 1967SOL    HW1 6800   5.082   3.770   5.022
 1967SOL    HW2 6801   5.187   3.715   5.135
 1968SOL     OW 6802   3.925   5.173   4.838
 1968SOL    HW1 6803   3.915   5.086   4.788
 1968SOL    HW2 6804   3.847   5.185   4.899
 1969SOL     OW 6805   6.652   1.387   1.796
 1969SOL    HW1 6806   6.722   1.450   1.829
 1969SOL    HW2 6807   6.692   1.297   1.783
 1970SOL     OW 6808   1.781   0.511   3.648
 1970SOL    HW1 6809   1.797   0.428   3.701
 1970SOL    HW2 6810   1.740   0.486   3.560
 1971SOL     OW 6811   0.519   1.263   5.956
 1971SOL    HW1 6812   0.466   1.320   6.018
 1971SOL    HW2 6813   0.498   1.287   5.861
 1972SOL     OW 6814   1.661   0.388   3.427
 1972SOL    HW1 6815   1.703   0.298   3.434
 1972SOL    HW2 6816   1.568   0.384   3.465
 1973SOL     OW 6817   2.449   3.540   0.413
 1973SOL    HW1 6818   2.402   3.600   0.348
 1973SOL    HW2 6819   2.391   3.462   0.434
 1974SOL     OW 6820   5.944   0.095   4.478
 1974SOL    HW1 6821   5.942   0.078   4.380
 1974SOL    HW2 6822   5.935   0.193   4.496
 1975SOL     OW 6823   2.953   0.236   3.835
 1975SOL    HW1 6824   2.924   0.265   3.926
 1975SOL    HW2 6825   2.951   0.314   3.773
 1976SOL     OW 6826   6.601   4.167   6.451
 1976SOL    HW1 6827   6.634   4.192   6.359
 1976SOL    HW2 6828   6.680   4.154   6.511
 1977SOL     OW 6829   3.002   2.062   5.696
 1977SOL    HW1 6830   2.947   2.145   5.708
 1977SOL    HW2 6831   3.031   2.056   5.600
 1978SOL     OW 6832   6.927   2.280   5.719
 1978SOL    HW1 6833   6.938   2.265   5.817
 1978SOL    HW2 6834   7.003   2.237   5.670
 1979SOL     OW 6835   6.343   4.128   2.504
 1979SOL    HW1 6836   6.376   4.204   2.449
 1979SOL    HW2 6837   6.290   4.065   2.447
 1980SOL     OW 6838   2.776   0.930   1.748
 1980SOL    HW1 6839   2.769   0.964   1.842
 1980SOL    HW2 6840   2.684   0.922   1.709
 1981SOL     OW 6841   5.084   3.545   1.944
 1981SOL    HW1 6842   5.133   3.475   1.995
 1981SOL    HW2 6843   5.001   3.570   1.994
 1982SOL     OW 6844   6.704   6.660   5.241
 1982SOL    HW1 6845   6.734   6.584   5.298
 1982SOL    HW2 6846   6.604   6.660   5.236
 1983SOL     OW 6847   0.290   4.467   2.240
 1983SOL    HW1 6848   0.198   4.492   2.271
 1983SOL    HW2 6849   0.357   4.520   2.291
 1984SOL     OW 6850   4.604   0.606   4.698
 1984SOL    HW1 6851   4.657   0.610   4.783
 1984SOL    HW2 6852   4.578   0.699   4.671
 1985SOL     OW 6853   1.596   6.361   1.184
 1985SOL    HW1 6854   1.650   6.343   1.266
 1985SOL    HW2 6855   1.510   6.404   1.210
 1986SOL     OW 6856   0.179   2.259   6.938
 1986SOL    HW1 6857   0.130   2.172   6.935
 1986SOL    HW2 6858   0.146   2.318   6.865
 1987SOL     OW 6859   2.592   4.596   0.163
 1987SOL    HW1 6860   2.513   4.635   0.210
 1987SOL    HW2 6861   2.573   4.501   0.136
 1988SOL     OW 6862   4.518   3.600   0.172
 1988SOL    HW1 6863   4.447   3.554   0.225
 1988SOL    HW2 6864   4.605   3.553   0.186
 1989SOL     OW 6865   1.928   2.189   4.257
 1989SOL    HW1 6866   1.850   2.251   4.245
 1989SOL    HW2 6867   1.948   2.180   4.355
 1990SOL     OW 6868   1.567   0.624   3.025
 1990SOL    HW1 6869   1.636   0.695   3.037
 1990SOL    HW2 6870   1.486   0.662   2.981
 1991SOL     OW 6871   4.221   5.547   2.988
 1991SOL    HW1 6872   4.211   5.452   2.960
 1991SOL    HW2 6873   4.170   5.562   3.073
 1992SOL     OW 6874   2.705   6.177   5.073
 1992SOL    HW1 6875   2.802   6.192   5.053
 1992SOL    HW2 6876   2.673   6.245   5.139
 1993SOL     OW 6877   2.933   3.393   4.219
 1993SOL    HW1 6878   2.981   3.320   4.171
 1993SOL    HW2 6879   2.845   3.359   4.252
 1994SOL     OW 6880   6.072   2.412   1.957
 1994SOL    HW1 6881   6.078   2.408   1.857
 1994SOL    HW2 6882   6.016   2.337   1.990
 1995SOL     OW 6883   4.005   2.576   1.473
 1995SOL    HW1 6884   4.005   2.527   1.560
 1995SOL    HW2 6885   4.093   2.562   1.427
 1996SOL     OW 6886   2.892   4.017   5.226
 1996SOL    HW1 6887   2.970   3.982   5.173
 1996SOL    HW2 6888   2.817   3.951   5.219
 1997SOL     OW 6889   5.685   6.605   3.453
 1997SOL    HW1 6890   5.749   6.658   3.509
 1997SOL    HW2 6891   5.736   6.557   3.382
 1998SOL     OW 6892   3.099   5.168   4.849
 1998SOL    HW1 6893   3.146   5.088   4.811
 1998SOL    HW2 6894   3.078   5.151   4.945
 1999SOL     OW 6895   2.513   0.965   1.569
 1999SOL    HW1 6896   2.463   1.008   1.644
 1999SOL    HW2 6897   2.518   1.028   1.492
 2000SOL     OW 6898   3.346   1.322   5.032
 2000SOL    HW1 6899   3.266   1.301   5.087
 2000SOL    HW2 6900   3.424   1.266   5.061
 2001SOL     OW 6901   2.202   3.551   0.092
 2001SOL    HW1 6902   2.285   3.506   0.061
 2001SOL    HW2 6903   2.133   3.547   0.020
 2002SOL     OW 6904   1.289   5.257   4.933
 2002SOL    HW1 6905   1.352   5.180   4.945
 2002SOL    HW2 6906   1.341   5.342   4.926
 2003SOL     OW 6907   6.735   4.436   2.981
 2003SOL    HW1 6908   6.800   4.369   3.018
 2003SOL    HW2 6909   6.664   4.388   2.930
 2004SOL     OW 6910   2.916   0.016   6.783
 2004SOL    HW1 6911   2.996   6.975   6.768
 2004SOL    HW2 6912   2.846   6.982   6.832
 2005SOL     OW 6913   2.812   6.823   5.266
 2005SOL    HW1 6914   2.793   6.730   5.235
 2005SOL    HW2 6915   2.889   6.821   5.330
 2006SOL     OW 6916   5.258   6.597   3.115
 2006SOL    HW1 6917   5.303   6.543   3.044
 2006SOL    HW2 6918   5.168   6.557   3.135
 2007SOL     OW 6919   6.192   5.467   0.006
 2007SOL    HW1 6920   6.242   5.547   6.990
 2007SOL    HW2 6921   6.185   5.399   6.950
 2008SOL     OW 6922   0.160   6.354   4.975
 2008SOL    HW1 6923   0.178   6.265   4.933
 2008SOL    HW2 6924   0.209   6.359   5.063
 2009SOL     OW 6925   0.913   0.611   6.929
 2009SOL    HW1 6926   0.820   0.575   6.942
 2009SOL    HW2 6927   0.907   0.700   6.883
 2010SOL     OW 6928   1.477   0.724   1.135
 2010SOL    HW1 6929   1.572   0.723   1.168
 2010SOL    HW2 6930   1.473   0.771   1.047
 2011SOL     OW 6931   0.100   2.149   5.291
 2011SOL    HW1 6932   0.053   2.137   5.378
 2011SOL    HW2 6933   0.087   2.067   5.235
 2012SOL     OW 6934   6.720   3.348   0.829
 2012SOL    HW1 6935   6.817   3.333   0.809
 2012SOL    HW2 6936   6.664   3.300   0.761
 2013SOL     OW 6937   4.050   2.062   2.124
 2013SOL    HW1 6938   4.032   2.089   2.218
 2013SOL    HW2 6939   3.994   1.983   2.101
 2014SOL     OW 6940   3.108   6.013   3.753
 2014SOL    HW1 6941   3.119   6.057   3.842
 2014SOL    HW2 6942   3.097   6.083   3.682
 2015SOL     OW 6943   3.029   6.486   0.172
 2015SOL    HW1 6944   2.963   6.415   0.196
 2015SOL    HW2 6945   3.045   6.544   0.252
 2016SOL     OW 6946   6.406   5.736   3.927
 2016SOL    HW1 6947   6.389   5.681   3.845
 2016SOL    HW2 6948   6.320   5.753   3.975
 2017SOL     OW 6949   2.230   4.920   1.965
 2017SOL    HW1 6950   2.324   4.954   1.963
 2017SOL    HW2 6951   2.179   4.955   1.886
 2018SOL     OW 6952   0.557   4.027   6.013
 2018SOL    HW1 6953   0.475   4.067   6.056
 2018SOL    HW2 6954   0.539   3.931   5.991
 2019SOL     OW 6955   5.603   1.869   3.314
 2019SOL    HW1 6956   5.569   1.826   3.398
 2019SOL    HW2 6957   5.671   1.810   3.272
 2020SOL     OW 6958   1.853   5.615   3.071
 2020SOL    HW1 6959   1.768   5.624   3.019
 2020SOL    HW2 6960   1.840   5.652   3.163
 2021SOL     OW 6961   1.978   0.227   1.618
 2021SOL    HW1 6962   1.981   0.186   1.709
 2021SOL    HW2 6963   1.930   0.166   1.555
 2022SOL     OW 6964   2.780   4.613   1.047
 2022SOL    HW1 6965   2.788   4.681   0.974
 2022SOL    HW2 6966   2.753   4.525   1.008
 2023SOL     OW 6967   6.028   1.203   6.474
 2023SOL    HW1 6968   6.044   1.167   6.382
 2023SOL    HW2 6969   5.955   1.271   6.471
 2024SOL     OW 6970   6.222   0.292   2.573
 2024SOL    HW1 6971   6.261   0.201   2.560
 2024SOL    HW2 6972   6.263   0.356   2.508
 2025SOL     OW 6973   6.041   0.865   1.174
 2025SOL    HW1 6974   5.949   0.861   1.135
 2025SOL    HW2 6975   6.076   0.772   1.183
 2026SOL     OW 6976   1.437   1.931   4.995
 2026SOL    HW1 6977   1.526   1.972   5.014
 2026SOL    HW2 6978   1.399   1.972   4.912
 2027SOL     OW 6979   0.877   1.235   2.594
 2027SOL    HW1 6980   0.911   1.170   2.662
 2027SOL    HW2 6981   0.884   1.194   2.503
 2028SOL     OW 6982   3.859   4.026   5.789
 2028SOL    HW1 6983   3.770   3.984   5.773
 2028SOL    HW2 6984   3.927   3.987   5.727
 2029SOL     OW 6985   1.699   0.746   0.266
 2029SOL    HW1 6986   1.794   0.780   0.265
 2029SOL    HW2 6987   1.678   0.710   0.357
 2030SOL     OW 6988   1.903   2.890   3.225
 2030SOL    HW1 6989   1.997   2.919   3.244
 2030SOL    HW2 6990   1.839   2.954   3.266
 2031SOL     OW 6991   5.680   0.145   2.775
 2031SOL    HW1 6992   5.590   0.170   2.740
 2031SOL    HW2 6993   5.738   0.116   2.700
 2032SOL     OW 6994   4.655   5.884   1.646
 2032SOL    HW1 6995   4.610   5.799   1.620
 2032SOL    HW2 6996   4.672   5.939   1.564
 2033SOL     OW 6997   6.886   5.154   6.646
 2033SOL    HW1 6998   6.873   5.177   6.742
 2033SOL    HW2 6999   6.866   5.057   6.632
 2034SOL     OW 7000   2.264   6.717   3.632
 2034SOL    HW1 7001   2.287   6.641   3.571
 2034SOL    HW2 7002   2.315   6.708   3.717
 2035SOL     OW 7003   0.126   2.437   1.577
 2035SOL    HW1 7004   0.156   2.519   1.625
 2035SOL    HW2 7005   0.027   2.438   1.566
 2036SOL     OW 7006   0.312   4.292   0.774
 2036SOL    HW1 7007   0.218   4.302   0.742
 2036SOL    HW2 7008   0.367   4.367   0.738
 2037SOL     OW 7009   0.315   1.941   6.279
 2037SOL    HW1 7010   0.381   1.949   6.354
 2037SOL    HW2 7011   0.255   2.021   6.279
 2038SOL     OW 7012   1.233   0.063   5.055
 2038SOL    HW1 7013   1.222   0.155   5.095
 2038SOL    HW2 7014   1.212   7.011   5.124
 2039SOL     OW 7015   1.350   5.478   1.994
 2039SOL    HW1 7016   1.403   5.561   1.979
 2039SOL    HW2 7017   1.272   5.476   1.931
 2040SOL     OW 7018   3.850   3.902   4.415
 2040SOL    HW1 7019   3.761   3.867   4.445
 2040SOL    HW2 7020   3.892   3.954   4.489
 2041SOL     OW 7021   5.648   3.096   0.132
 2041SOL    HW1 7022   5.588   3.093   0.052
 2041SOL    HW2 7023   5.668   3.191   0.155
 2042SOL     OW 7024   3.290   5.876   0.351
 2042SOL    HW1 7025   3.320   5.782   0.366
 2042SOL    HW2 7026   3.305   5.901   0.255
 2043SOL     OW 7027   4.444   5.019   2.379
 2043SOL    HW1 7028   4.405   4.932   2.350
 2043SOL    HW2 7029   4.395   5.094   2.334
 2044SOL     OW 7030   6.496   0.867   2.141
 2044SOL    HW1 7031   6.569   0.935   2.132
 2044SOL    HW2 7032   6.527   0.780   2.102
 2045SOL     OW 7033   2.521   6.388   5.825
 2045SOL    HW1 7034   2.487   6.325   5.895
 2045SOL    HW2 7035   2.536   6.478   5.866
 2046SOL     OW 7036   6.266   0.139   4.703
 2046SOL    HW1 7037   6.206   0.219   4.695
 2046SOL    HW2 7038   6.318   0.146   4.789
 2047SOL     OW 7039   5.152   2.586   0.118
 2047SOL    HW1 7040   5.112   2.501   0.083
 2047SOL    HW2 7041   5.250   2.587   0.099
 2048SOL     OW 7042   4.501   6.547   5.356
 2048SOL    HW1 7043   4.547   6.521   5.271
 2048SOL    HW2 7044   4.427   6.482   5.375
 2049SOL     OW 7045   4.559   6.400   0.167
 2049SOL    HW1 7046   4.559   6.491   0.126
 2049SOL    HW2 7047   4.646   6.354   0.148
 2050SOL     OW 7048   5.645   0.874   3.966
 2050SOL    HW1 7049   5.581   0.863   3.889
 2050SOL    HW2 7050   5.625   0.959   4.015
 2051SOL     OW 7051   2.401   5.373   0.946
 2051SOL    HW1 7052   2.441   5.336   0.862
 2051SOL    HW2 7053   2.306   5.343   0.953
 2052SOL     OW 7054   1.522   2.869   0.975
 2052SOL    HW1 7055   1.539   2.967   0.980
 2052SOL    HW2 7056   1.559   2.833   0.889
 2053SOL     OW 7057   5.118   0.848   0.263
 2053SOL    HW1 7058   5.088   0.763   0.219
 2053SOL    HW2 7059   5.070   0.926   0.223
 2054SOL     OW 7060   0.094   3.536   1.540
 2054SOL    HW1 7061   0.054   3.447   1.522
 2054SOL    HW2 7062   0.023   3.607   1.535
 2055SOL     OW 7063   6.301   1.855   4.106
 2055SOL    HW1 7064   6.265   1.935   4.059
 2055SOL    HW2 7065   6.318   1.782   4.040
 2056SOL     OW 7066   0.876   0.280   1.815
 2056SOL    HW1 7067   0.925   0.320   1.892
 2056SOL    HW2 7068   0.803   0.221   1.848
 2057SOL     OW 7069   6.495   2.018   4.251
 2057SOL    HW1 7070   6.421   1.961   4.216
 2057SOL    HW2 7071   6.465   2.064   4.335
 2058SOL     OW 7072   0.887   1.625   2.029
 2058SOL    HW1 7073   0.815   1.694   2.032
 2058SOL    HW2 7074   0.972   1.667   1.998
 2059SOL     OW 7075   1.780   0.485   6.744
 2059SOL    HW1 7076   1.785   0.444   6.652
 2059SOL    HW2 7077   1.847   0.440   6.803
 2060SOL     OW 7078   0.230   5.708   2.029
 2060SOL    HW1 7079   0.311   5.668   1.985
 2060SOL    HW2 7080   0.260   5.769   2.102
 2061SOL     OW 7081   0.911   1.166   1.040
 2061SOL    HW1 7082   1.007   1.176   1.015
 2061SOL    HW2 7083   0.891   1.070   1.059
 2062SOL     OW 7084   4.032   0.230   3.874
 2062SOL    HW1 7085   4.008   0.322   3.843
 2062SOL    HW2 7086   4.123   0.207   3.840
 2063SOL     OW 7087   2.412   1.924   0.441
 2063SOL    HW1 7088   2.374   2.017   0.445
 2063SOL    HW2 7089   2.465   1.906   0.523
 2064SOL     OW 7090   0.852   1.923   0.293
 2064SOL    HW1 7091   0.925   1.854   0.287
 2064SOL    HW2 7092   0.791   1.900   0.369
 2065SOL     OW 7093   6.315   2.993   2.163
 2065SOL    HW1 7094   6.317   2.996   2.063
 2065SOL    HW2 7095   6.341   2.902   2.194
 2066SOL     OW 7096   1.596   6.808   3.074
 2066SOL    HW1 7097   1.672   6.858   3.030
 2066SOL    HW2 7098   1.631   6.758   3.152
 2067SOL     OW 7099   6.772   0.086   0.577
 2067SOL    HW1 7100   6.702   0.131   0.632
 2067SOL    HW2 7101   6.851   0.065   0.634
 2068SOL     OW 7102   2.150   1.412   4.789
 2068SOL    HW1 7103   2.120   1.456   4.704
 2068SOL    HW2 7104   2.206   1.332   4.767
 2069SOL     OW 7105   0.966   1.991   2.052
 2069SOL    HW1 7106   0.933   1.970   1.960
 2069SOL    HW2 7107   1.064   1.973   2.057
 2070SOL     OW 7108   0.977   0.969   2.692
 2070SOL    HW1 7109   0.990   0.919   2.607
 2070SOL    HW2 7110   1.060   1.020   2.714
 2071SOL     OW 7111   1.893   6.207   4.952
 2071SOL    HW1 7112   1.818   6.140   4.955
 2071SOL    HW2 7113   1.912   6.230   4.856
 2072SOL     OW 7114   4.715   4.654   2.204
 2072SOL    HW1 7115   4.631   4.628   2.156
 2072SOL    HW2 7116   4.787   4.587   2.184
 2073SOL     OW 7117   3.625   6.175   5.373
 2073SOL    HW1 7118   3.723   6.166   5.391
 2073SOL    HW2 7119   3.595   6.267   5.398
 2074SOL     OW 7120   6.417   1.951   2.327
 2074SOL    HW1 7121   6.511   1.976   2.350
 2074SOL    HW2 7122   6.379   2.020   2.265
 2075SOL     OW 7123   3.830   3.781   6.314
 2075SOL    HW1 7124   3.860   3.804   6.406
 2075SOL    HW2 7125   3.743   3.827   6.295
 2076SOL     OW 7126   4.597   0.441   1.256
 2076SOL    HW1 7127   4.538   0.363   1.275
 2076SOL    HW2 7128   4.628   0.437   1.161
 2077SOL     OW 7129   4.948   1.332   3.659
 2077SOL    HW1 7130   4.885   1.389   3.711
 2077SOL    HW2 7131   5.023   1.389   3.624
 2078SOL     OW 7132   4.203   5.695   5.027
 2078SOL    HW1 7133   4.170   5.614   4.979
 2078SOL    HW2 7134   4.283   5.732   4.979
 2079SOL     OW 7135   5.776   0.634   3.496
 2079SOL    HW1 7136   5.711   0.710   3.500
 2079SOL    HW2 7137   5.848   0.655   3.430
 2080SOL     OW 7138   2.657   2.275   4.160
 2080SOL    HW1 7139   2.561   2.244   4.161
 2080SOL    HW2 7140   2.694   2.266   4.068
 2081SOL     OW 7141   1.128   5.887   4.334
 2081SOL    HW1 7142   1.095   5.895   4.240
 2081SOL    HW2 7143   1.134   5.978   4.375
 2082SOL     OW 7144   5.020   0.539   2.096
 2082SOL    HW1 7145   5.020   0.615   2.162
 2082SOL    HW2 7146   4.954   0.470   2.124
 2083SOL     OW 7147   3.366   5.042   5.915
 2083SOL    HW1 7148   3.288   5.085   5.869
 2083SOL    HW2 7149   3.336   5.003   6.002
 2084SOL     OW 7150   0.229   2.613   2.333
 2084SOL    HW1 7151   0.163   2.634   2.261
 2084SOL    HW2 7152   0.249   2.515   2.333
 2085SOL     OW 7153   5.483   6.092   6.707
 2085SOL    HW1 7154   5.552   6.106   6.777
 2085SOL    HW2 7155   5.482   5.996   6.680
 2086SOL     OW 7156   3.635   5.338   0.394
 2086SOL    HW1 7157   3.560   5.404   0.397
 2086SOL    HW2 7158   3.641   5.291   0.482
 2087SOL     OW 7159   6.235   5.807   3.487
 2087SOL    HW1 7160   6.190   5.732   3.439
 2087SOL    HW2 7161   6.168   5.877   3.510
 2088SOL     OW 7162   2.316   0.303   0.878
 2088SOL    HW1 7163   2.291   0.242   0.953
 2088SOL    HW2 7164   2.239   0.313   0.816
 2089SOL     OW 7165   2.943   1.157   6.527
 2089SOL    HW1 7166   3.039   1.140   6.505
 2089SOL    HW2 7167   2.935   1.176   6.625
 2090SOL     OW 7168   3.344   3.123   3.791
 2090SOL    HW1 7169   3.383   3.056   3.853
 2090SOL    HW2 7170   3.245   3.128   3.804
 2091SOL     OW 7171   1.909   5.427   0.685
 2091SOL    HW1 7172   1.964   5.509   0.699
 2091SOL    HW2 7173   1.923   5.364   0.761
 2092SOL     OW 7174   0.145   6.150   1.537
 2092SOL    HW1 7175   0.234   6.116   1.507
 2092SOL    HW2 7176   0.158   6.236   1.587
 2093SOL     OW 7177   0.780   2.639   1.521
 2093SOL    HW1 7178   0.726   2.710   1.476
 2093SOL    HW2 7179   0.870   2.633   1.477
 2094SOL     OW 7180   6.385   0.468   1.660
 2094SOL    HW1 7181   6.407   0.371   1.652
 2094SOL    HW2 7182   6.305   0.479   1.718
 2095SOL     OW 7183   6.794   4.850   4.817
 2095SOL    HW1 7184   6.760   4.814   4.731
 2095SOL    HW2 7185   6.889   4.822   4.830
 2096SOL     OW 7186   5.082   3.788   3.597
 2096SOL    HW1 7187   5.105   3.723   3.525
 2096SOL    HW2 7188   5.033   3.740   3.670
 2097SOL     OW 7189   6.337   3.616   6.955
 2097SOL    HW1 7190   6.328   3.706   6.997
 2097SOL    HW2 7191   6.272   3.553   6.998
 2098SOL     OW 7192   4.745   0.343   4.146
 2098SOL    HW1 7193   4.741   0.321   4.244
 2098SOL    HW2 7194   4.744   0.442   4.135
 2099SOL     OW 7195   3.079   2.160   2.872
 2099SOL    HW1 7196   3.142   2.192   2.942
 2099SOL    HW2 7197   3.088   2.061   2.861
 2100SOL     OW 7198   3.658   4.455   6.563
 2100SOL    HW1 7199   3.652   4.421   6.470
 2100SOL    HW2 7200   3.595   4.531   6.576
 2101SOL     OW 7201   0.415   0.668   2.623
 2101SOL    HW1 7202   0.357   0.603   2.574
 2101SOL    HW2 7203   0.425   0.752   2.568
 2102SOL     OW 7204   0.139   4.742   1.729
 2102SOL    HW1 7205   0.052   4.744   1.779
 2102SOL    HW2 7206   0.163   4.648   1.707
 2103SOL     OW 7207   2.497   3.615   6.341
 2103SOL    HW1 7208   2.405   3.627   6.377
 2103SOL    HW2 7209   2.548   3.701   6.349
 2104SOL     OW 7210   1.215   3.900   5.378
 2104SOL    HW1 7211   1.165   3.946   5.304
 2104SOL    HW2 7212   1.225   3.803   5.355
 2105SOL     OW 7213   6.077   5.857   1.544
 2105SOL    HW1 7214   6.014   5.932   1.567
 2105SOL    HW2 7215   6.145   5.889   1.478
 2106SOL     OW 7216   5.720   5.260   6.691
 2106SOL    HW1 7217   5.746   5.256   6.595
 2106SOL    HW2 7218   5.711   5.355   6.719
 2107SOL     OW 7219   2.721   4.742   0.369
 2107SOL    HW1 7220   2.710   4.677   0.444
 2107SOL    HW2 7221   2.680   4.703   0.286
 2108SOL     OW 7222   5.557   4.507   5.685
 2108SOL    HW1 7223   5.588   4.523   5.591
 2108SOL    HW2 7224   5.603   4.428   5.723
 2109SOL     OW 7225   5.724   6.367   2.497
 2109SOL    HW1 7226   5.710   6.279   2.451
 2109SOL    HW2 7227   5.820   6.376   2.523
 2110SOL     OW 7228   2.185   4.856   4.996
 2110SOL    HW1 7229   2.220   4.795   4.926
 2110SOL    HW2 7230   2.249   4.931   5.011
 2111SOL     OW 7231   1.942   2.634   6.687
 2111SOL    HW1 7232   1.892   2.720   6.682
 2111SOL    HW2 7233   2.005   2.636   6.764
 2112SOL     OW 7234   5.253   3.195   0.928
 2112SOL    HW1 7235   5.240   3.096   0.923
 2112SOL    HW2 7236   5.325   3.222   0.864
 2113SOL     OW 7237   6.752   1.718   3.024
 2113SOL    HW1 7238   6.811   1.738   2.946
 2113SOL    HW2 7239   6.657   1.734   2.998
 2114SOL     OW 7240   1.632   3.755   0.568
 2114SOL    HW1 7241   1.660   3.818   0.496
 2114SOL    HW2 7242   1.660   3.662   0.545
 2115SOL     OW 7243   3.149   5.528   2.099
 2115SOL    HW1 7244   3.164   5.538   2.001
 2115SOL    HW2 7245   3.228   5.483   2.141
 2116SOL     OW 7246   0.193   4.046   3.134
 2116SOL    HW1 7247   0.201   3.946   3.129
 2116SOL    HW2 7248   0.190   4.085   3.042
 2117SOL     OW 7249   0.195   5.764   6.499
 2117SOL    HW1 7250   0.259   5.734   6.428
 2117SOL    HW2 7251   0.202   5.864   6.510
 2118SOL     OW 7252   6.594   3.539   2.197
 2118SOL    HW1 7253   6.681   3.534   2.149
 2118SOL    HW2 7254   6.556   3.631   2.191
 2119SOL     OW 7255   3.487   5.703   0.685
 2119SOL    HW1 7256   3.438   5.616   0.678
 2119SOL    HW2 7257   3.585   5.688   0.677
 2120SOL     OW 7258   6.635   4.689   2.403
 2120SOL    HW1 7259   6.720   4.741   2.405
 2120SOL    HW2 7260   6.651   4.597   2.438
 2121SOL     OW 7261   0.568   3.914   4.675
 2121SOL    HW1 7262   0.551   3.956   4.764
 2121SOL    HW2 7263   0.518   3.964   4.605
 2122SOL     OW 7264   4.587   4.403   5.433
 2122SOL    HW1 7265   4.530   4.344   5.376
 2122SOL    HW2 7266   4.683   4.380   5.419
 2123SOL     OW 7267   4.316   4.639   3.595
 2123SOL    HW1 7268   4.351   4.684   3.677
 2123SOL    HW2 7269   4.231   4.590   3.617
 2124SOL     OW 7270   3.139   1.290   1.546
 2124SOL    HW1 7271   3.105   1.361   1.608
 2124SOL    HW2 7272   3.107   1.308   1.453
 2125SOL     OW 7273   3.351   0.058   0.891
 2125SOL    HW1 7274   3.304   0.113   0.960
 2125SOL    HW2 7275   3.413   0.116   0.838
 2126SOL     OW 7276   2.762   0.363   1.752
 2126SOL    HW1 7277   2.684   0.315   1.711
 2126SOL    HW2 7278   2.740   0.388   1.846
 2127SOL     OW 7279   5.609   2.932   5.086
 2127SOL    HW1 7280   5.694   2.984   5.096
 2127SOL    HW2 7281   5.555   2.940   5.170
 2128SOL     OW 7282   0.973   4.311   4.110
 2128SOL    HW1 7283   0.921   4.308   4.025
 2128SOL    HW2 7284   0.964   4.402   4.151
 2129SOL     OW 7285   3.958   2.468   5.649
 2129SOL    HW1 7286   3.878   2.430   5.695
 2129SOL    HW2 7287   3.993   2.402   5.582
 2130SOL     OW 7288   4.695   0.773   3.501
 2130SOL    HW1 7289   4.647   0.687   3.482
 2130SOL    HW2 7290   4.789   0.753   3.528
 2131SOL     OW 7291   5.390   1.826   6.819
 2131SOL    HW1 7292   5.482   1.791   6.835
 2131SOL    HW2 7293   5.380   1.853   6.724
 2132SOL     OW 7294   1.842   3.574   0.917
 2132SOL    HW1 7295   1.784   3.655   0.907
 2132SOL    HW2 7296   1.867   3.562   1.013
 2133SOL     OW 7297   2.295   3.767   5.865
 2133SOL    HW1 7298   2.199   3.743   5.882
 2133SOL    HW2 7299   2.337   3.696   5.809
 2134SOL     OW 7300   0.462   0.016   0.806
 2134SOL    HW1 7301   0.389   0.010   0.874
 2134SOL    HW2 7302   0.482   6.942   0.771
 2135SOL     OW 7303   6.527   4.430   5.571
 2135SOL    HW1 7304   6.563   4.499   5.633
 2135SOL    HW2 7305   6.600   4.367   5.544
 2136SOL     OW 7306   0.723   4.768   0.868
 2136SOL    HW1 7307   0.679   4.856   0.885
 2136SOL    HW2 7308   0.658   4.694   0.885
 2137SOL     OW 7309   1.311   6.449   4.181
 2137SOL    HW1 7310   1.377   6.380   4.209
 2137SOL    HW2 7311   1.227   6.437   4.234
 2138SOL     OW 7312   5.377   1.895   1.844
 2138SOL    HW1 7313   5.373   1.795   1.848
 2138SOL    HW2 7314   5.296   1.933   1.889
 2139SOL     OW 7315   2.970   0.157   5.580
 2139SOL    HW1 7316   2.922   0.214   5.513
 2139SOL    HW2 7317   3.068   0.158   5.560
 2140SOL     OW 7318   2.491   1.719   4.175
 2140SOL    HW1 7319   2.545   1.712   4.258
 2140SOL    HW2 7320   2.437   1.804   4.177
 2141SOL     OW 7321   6.715   3.136   3.228
 2141SOL    HW1 7322   6.799   3.152   3.178
 2141SOL    HW2 7323   6.710   3.040   3.257
 2142SOL     OW 7324   1.471   2.244   2.327
 2142SOL    HW1 7325   1.493   2.341   2.332
 2142SOL    HW2 7326   1.551   2.191   2.356
 2143SOL     OW 7327   0.743   4.776   6.112
 2143SOL    HW1 7328   0.652   4.778   6.071
 2143SOL    HW2 7329   0.767   4.682   6.135
 2144SOL     OW 7330   6.803   4.632   3.397
 2144SOL    HW1 7331   6.758   4.549   3.430
 2144SOL    HW2 7332   6.817   4.625   3.298
 2145SOL     OW 7333   4.271   1.323   3.199
 2145SOL    HW1 7334   4.304   1.292   3.110
 2145SOL    HW2 7335   4.265   1.245   3.261
 2146SOL     OW 7336   2.559   2.925   0.050
 2146SOL    HW1 7337   2.647   2.912   0.004
 2146SOL    HW2 7338   2.567   2.999   0.116
 2147SOL     OW 7339   6.038   6.877   3.890
 2147SOL    HW1 7340   6.052   6.824   3.973
 2147SOL    HW2 7341   6.127   6.906   3.853
 2148SOL     OW 7342   0.365   3.230   5.912
 2148SOL    HW1 7343   0.309   3.243   5.994
 2148SOL    HW2 7344   0.306   3.232   5.832
 2149SOL     OW 7345   0.761   0.347   0.148
 2149SOL    HW1 7346   0.750   0.419   0.080
 2149SOL    HW2 7347   0.776   0.387   0.238
 2150SOL     OW 7348   1.736   3.240   1.319
 2150SOL    HW1 7349   1.756   3.196   1.231
 2150SOL    HW2 7350   1.657   3.196   1.360
 2151SOL     OW 7351   0.777   4.911   0.633
 2151SOL    HW1 7352   0.756   4.853   0.712
 2151SOL    HW2 7353   0.852   4.973   0.656
 2152SOL     OW 7354   5.650   6.042   3.932
 2152SOL    HW1 7355   5.734   6.014   3.979
 2152SOL    HW2 7356   5.659   6.136   3.900
 2153SOL     OW 7357   5.396   0.661   4.204
 2153SOL    HW1 7358   5.434   0.578   4.244
 2153SOL    HW2 7359   5.373   0.644   4.108
 2154SOL     OW 7360   2.656   0.574   2.818
 2154SOL    HW1 7361   2.628   0.488   2.861
 2154SOL    HW2 7362   2.659   0.646   2.887
 2155SOL     OW 7363   4.003   0.894   1.199
 2155SOL    HW1 7364   4.007   0.839   1.283
 2155SOL    HW2 7365   3.909   0.923   1.182
 2156SOL     OW 7366   5.339   2.079   4.881
 2156SOL    HW1 7367   5.356   2.176   4.900
 2156SOL    HW2 7368   5.375   2.024   4.956
 2157SOL     OW 7369   3.879   6.144   4.264
 2157SOL    HW1 7370   3.794   6.109   4.302
 2157SOL    HW2 7371   3.864   6.174   4.170
 2158SOL     OW 7372   2.918   0.135   0.447
 2158SOL    HW1 7373   2.823   0.143   0.475
 2158SOL    HW2 7374   2.927   0.157   0.350
 2159SOL     OW 7375   0.814   0.828   5.272
 2159SOL    HW1 7376   0.879   0.766   5.229
 2159SOL    HW2 7377   0.827   0.826   5.371
 2160SOL     OW 7378   5.484   6.896   6.955
 2160SOL    HW1 7379   5.465   6.867   0.031
 2160SOL    HW2 7380   5.583   6.913   6.945
 2161SOL     OW 7381   1.811   3.068   1.151
 2161SOL    HW1 7382   1.847   3.036   1.064
 2161SOL    HW2 7383   1.849   3.013   1.226
 2162SOL     OW 7384   1.491   0.618   1.610
 2162SOL    HW1 7385   1.456   0.675   1.536
 2162SOL    HW2 7386   1.439   0.533   1.615
 2163SOL     OW 7387   1.434   3.359   3.197
 2163SOL    HW1 7388   1.481   3.355   3.285
 2163SOL    HW2 7389   1.349   3.307   3.203
 2164SOL     OW 7390   2.051   3.416   2.397
 2164SOL    HW1 7391   2.070   3.356   2.475
 2164SOL    HW2 7392   1.954   3.410   2.373
 2165SOL     OW 7393   6.526   1.147   4.459
 2165SOL    HW1 7394   6.539   1.246   4.451
 2165SOL    HW2 7395   6.572   1.114   4.542
 2166SOL     OW 7396   0.026   3.419   2.440
 2166SOL    HW1 7397   6.967   3.483   2.433
 2166SOL    HW2 7398   0.066   3.405   2.349
 2167SOL     OW 7399   2.043   1.737   3.079
 2167SOL    HW1 7400   2.046   1.804   3.005
 2167SOL    HW2 7401   1.958   1.685   3.072
 2168SOL     OW 7402   1.843   1.592   3.286
 2168SOL    HW1 7403   1.811   1.661   3.351
 2168SOL    HW2 7404   1.811   1.614   3.194
 2169SOL     OW 7405   6.762   6.869   1.385
 2169SOL    HW1 7406   6.765   6.969   1.385
 2169SOL    HW2 7407   6.810   6.834   1.465
 2170SOL     OW 7408   1.200   3.509   6.058
 2170SOL    HW1 7409   1.220   3.572   5.983
 2170SOL    HW2 7410   1.271   3.517   6.128
 2171SOL     OW 7411   6.673   6.164   1.140
 2171SOL    HW1 7412   6.730   6.246   1.151
 2171SOL    HW2 7413   6.577   6.188   1.149
 2172SOL     OW 7414   2.447   1.521   5.065
 2172SOL    HW1 7415   2.523   1.519   5.130
 2172SOL    HW2 7416   2.445   1.435   5.014
 2173SOL     OW 7417   4.967   0.797   5.135
 2173SOL    HW1 7418   4.954   0.881   5.083
 2173SOL    HW2 7419   5.064   0.785   5.155
 2174SOL     OW 7420   5.638   0.138   6.179
 2174SOL    HW1 7421   5.624   0.233   6.150
 2174SOL    HW2 7422   5.659   0.136   6.277
 2175SOL     OW 7423   2.646   3.865   5.260
 2175SOL    HW1 7424   2.625   3.848   5.357
 2175SOL    HW2 7425   2.563   3.891   5.212
 2176SOL     OW 7426   5.367   2.367   2.794
 2176SOL    HW1 7427   5.446   2.312   2.817
 2176SOL    HW2 7428   5.309   2.379   2.875
 2177SOL     OW 7429   1.155   0.876   4.720
 2177SOL    HW1 7430   1.146   0.858   4.622
 2177SOL    HW2 7431   1.195   0.967   4.733
 2178SOL     OW 7432   1.220   1.882   2.769
 2178SOL    HW1 7433   1.247   1.922   2.857
 2178SOL    HW2 7434   1.272   1.797   2.755
 2179SOL     OW 7435   2.041   4.144   6.755
 2179SOL    HW1 7436   1.997   4.131   6.666
 2179SOL    HW2 7437   2.136   4.171   6.741
 2180SOL     OW 7438   0.763   5.636   2.712
 2180SOL    HW1 7439   0.807   5.719   2.677
 2180SOL    HW2 7440   0.665   5.640   2.695
 2181SOL     OW 7441   4.093   4.829   4.733
 2181SOL    HW1 7442   4.010   4.856   4.686
 2181SOL    HW2 7443   4.073   4.811   4.830
 2182SOL     OW 7444   0.492   6.248   1.595
 2182SOL    HW1 7445   0.503   6.213   1.502
 2182SOL    HW2 7446   0.582   6.260   1.637
 2183SOL     OW 7447   3.198   3.207   6.511
 2183SOL    HW1 7448   3.121   3.158   6.470
 2183SOL    HW2 7449   3.168   3.252   6.595
 2184SOL     OW 7450   6.363   1.370   0.644
 2184SOL    HW1 7451   6.279   1.385   0.695
 2184SOL    HW2 7452   6.442   1.403   0.697
 2185SOL     OW 7453   0.806   0.740   5.903
 2185SOL    HW1 7454   0.727   0.755   5.963
 2185SOL    HW2 7455   0.886   0.786   5.941
 2186SOL     OW 7456   6.534   5.782   5.404
 2186SOL    HW1 7457   6.436   5.766   5.409
 2186SOL    HW2 7458   6.553   5.849   5.332
 2187SOL     OW 7459   6.353   5.112   1.706
 2187SOL    HW1 7460   6.326   5.208   1.706
 2187SOL    HW2 7461   6.433   5.100   1.647
 2188SOL     OW 7462   2.396   0.959   0.339
 2188SOL    HW1 7463   2.470   0.952   0.406
 2188SOL    HW2 7464   2.435   0.956   0.247
 2189SOL     OW 7465   1.938   1.208   1.765
 2189SOL    HW1 7466   1.967   1.265   1.688
 2189SOL    HW2 7467   1.893   1.126   1.729
 2190SOL     OW 7468   6.834   4.040   1.543
 2190SOL    HW1 7469   6.837   3.954   1.593
 2190SOL    HW2 7470   6.795   4.024   1.452
 2191SOL     OW 7471   3.146   0.691   6.698
 2191SOL    HW1 7472   3.087   0.624   6.652
 2191SOL    HW2 7473   3.100   0.780   6.699
 2192SOL     OW 7474   5.031   1.734   1.782
 2192SOL    HW1 7475   5.053   1.682   1.864
 2192SOL    HW2 7476   4.953   1.794   1.800
 2193SOL     OW 7477   2.388   0.170   5.263
 2193SOL    HW1 7478   2.436   0.252   5.292
 2193SOL    HW2 7479   2.292   0.176   5.292
 2194SOL     OW 7480   0.734   3.915   6.263
 2194SOL    HW1 7481   0.726   3.993   6.201
 2194SOL    HW2 7482   0.688   3.836   6.222
 2195SOL     OW 7483   0.259   3.828   4.764
 2195SOL    HW1 7484   0.283   3.889   4.688
 2195SOL    HW2 7485   0.160   3.817   4.768
 2196SOL     OW 7486   3.667   0.839   6.742
 2196SOL    HW1 7487   3.572   0.810   6.752
 2196SOL    HW2 7488   3.706   0.801   6.658
 2197SOL     OW 7489   3.629   5.921   5.929
 2197SOL    HW1 7490   3.615   5.943   6.025
 2197SOL    HW2 7491   3.577   5.839   5.905
 2198SOL     OW 7492   1.200   0.994   6.741
 2198SOL    HW1 7493   1.271   1.018   6.675
 2198SOL    HW2 7494   1.154   1.077   6.773
 2199SOL     OW 7495   4.261   6.898   3.831
 2199SOL    HW1 7496   4.349   6.940   3.810
 2199SOL    HW2 7497   4.269   6.843   3.913
 2200SOL     OW 7498   2.938   2.114   3.704
 2200SOL    HW1 7499   2.951   2.020   3.735
 2200SOL    HW2 7500   3.026   2.158   3.689
 2201SOL     OW 7501   5.483   3.758   5.140
 2201SOL    HW1 7502   5.470   3.675   5.087
 2201SOL    HW2 7503   5.546   3.819   5.092
 2202SOL     OW 7504   3.899   0.119   2.920
 2202SOL    HW1 7505   3.905   0.176   2.838
 2202SOL    HW2 7506   3.823   0.056   2.911
 2203SOL     OW 7507   1.565   5.229   1.131
 2203SOL    HW1 7508   1.570   5.159   1.202
 2203SOL    HW2 7509   1.608   5.195   1.047
 2204SOL     OW 7510   6.185   2.794   0.685
 2204SOL    HW1 7511   6.201   2.737   0.765
 2204SOL    HW2 7512   6.147   2.739   0.611
 2205SOL     OW 7513   6.872   5.384   0.817
 2205SOL    HW1 7514   6.903   5.411   0.908
 2205SOL    HW2 7515   6.779   5.348   0.822
 2206SOL     OW 7516   3.707   2.674   5.597
 2206SOL    HW1 7517   3.707   2.588   5.649
 2206SOL    HW2 7518   3.621   2.682   5.547
 2207SOL     OW 7519   4.807   6.003   1.339
 2207SOL    HW1 7520   4.892   5.991   1.391
 2207SOL    HW2 7521   4.816   6.085   1.281
 2208SOL     OW 7522   6.997   6.738   3.215
 2208SOL    HW1 7523   6.957   6.703   3.299
 2208SOL    HW2 7524   6.940   6.711   3.137
 2209SOL     OW 7525   2.982   6.080   4.163
 2209SOL    HW1 7526   2.974   6.129   4.076
 2209SOL    HW2 7527   2.955   5.984   4.149
 2210SOL     OW 7528   4.646   0.242   1.577
 2210SOL    HW1 7529   4.574   0.211   1.516
 2210SOL    HW2 7530   4.608   0.307   1.643
 2211SOL     OW 7531   1.345   1.764   1.197
 2211SOL    HW1 7532   1.310   1.721   1.114
 2211SOL    HW2 7533   1.295   1.849   1.214
 2212SOL     OW 7534   2.875   5.703   6.603
 2212SOL    HW1 7535   2.961   5.737   6.563
 2212SOL    HW2 7536   2.812   5.780   6.614
 2213SOL     OW 7537   3.581   1.826   4.782
 2213SOL    HW1 7538   3.556   1.738   4.742
 2213SOL    HW2 7539   3.501   1.886   4.783
 2214SOL     OW 7540   4.159   4.388   6.559
 2214SOL    HW1 7541   4.227   4.383   6.633
 2214SOL    HW2 7542   4.204   4.375   6.471
 2215SOL     OW 7543   3.712   6.930   0.506
 2215SOL    HW1 7544   3.698   6.843   0.553
 2215SOL    HW2 7545   3.627   6.982   0.507
 2216SOL     OW 7546   0.147   6.669   6.452
 2216SOL    HW1 7547   0.192   6.580   6.453
 2216SOL    HW2 7548   0.176   6.723   6.531
 2217SOL     OW 7549   4.382   1.649   3.696
 2217SOL    HW1 7550   4.288   1.621   3.673
 2217SOL    HW2 7551   4.418   1.707   3.622
 2218SOL     OW 7552   0.073   5.441   5.254
 2218SOL    HW1 7553   0.027   5.507   5.313
 2218SOL    HW2 7554   0.004   5.379   5.215
 2219SOL     OW 7555   5.236   0.986   0.930
 2219SOL    HW1 7556   5.165   1.044   0.890
 2219SOL    HW2 7557   5.270   1.029   1.014
 2220SOL     OW 7558   6.994   5.863   4.130
 2220SOL    HW1 7559   0.009   5.954   4.153
 2220SOL    HW2 7560   6.946   5.823   4.208
 2221SOL     OW 7561   6.126   1.140   4.363
 2221SOL    HW1 7562   6.128   1.067   4.432
 2221SOL    HW2 7563   6.209   1.136   4.308
 2222SOL     OW 7564   4.760   0.245   2.844
 2222SOL    HW1 7565   4.699   0.172   2.814
 2222SOL    HW2 7566   4.827   0.265   2.772
 2223SOL     OW 7567   0.985   6.629   5.101
 2223SOL    HW1 7568   1.082   6.614   5.120
 2223SOL    HW2 7569   0.956   6.715   5.143
 2224SOL     OW 7570   5.069   3.935   0.399
 2224SOL    HW1 7571   5.027   3.883   0.473
 2224SOL    HW2 7572   5.165   3.953   0.420
 2225SOL     OW 7573   6.920   6.468   1.681
 2225SOL    HW1 7574   6.904   6.559   1.643
 2225SOL    HW2 7575   0.002   6.453   1.690
 2226SOL     OW 7576   2.354   4.799   6.936
 2226SOL    HW1 7577   2.316   4.817   0.010
 2226SOL    HW2 7578   2.360   4.885   6.885
 2227SOL     OW 7579   4.190   1.795   1.687
 2227SOL    HW1 7580   4.235   1.853   1.619
 2227SOL    HW2 7581   4.139   1.852   1.751
 2228SOL     OW 7582   5.287   5.219   6.701
 2228SOL    HW1 7583   5.258   5.174   6.616
 2228SOL    HW2 7584   5.322   5.310   6.680
 2229SOL     OW 7585   3.063   3.184   4.107
 2229SOL    HW1 7586   3.078   3.172   4.008
 2229SOL    HW2 7587   3.080   3.098   4.154
 2230SOL     OW 7588   6.527   0.445   6.720
 2230SOL    HW1 7589   6.477   0.412   6.799
 2230SOL    HW2 7590   6.621   0.466   6.747
 2231SOL     OW 7591   1.248   6.717   6.129
 2231SOL    HW1 7592   1.235   6.701   6.227
 2231SOL    HW2 7593   1.237   6.631   6.079
 2232SOL     OW 7594   1.851   0.507   5.787
 2232SOL    HW1 7595   1.896   0.569   5.851
 2232SOL    HW2 7596   1.881   0.413   5.806
 2233SOL     OW 7597   2.738   4.526   0.586
 2233SOL    HW1 7598   2.789   4.592   0.640
 2233SOL    HW2 7599   2.786   4.439   0.585
 2234SOL     OW 7600   4.917   2.173   1.725
 2234SOL    HW1 7601   4.949   2.135   1.638
 2234SOL    HW2 7602   4.818   2.163   1.731
 2235SOL     OW 7603   0.747   1.756   3.323
 2235SOL    HW1 7604   0.843   1.775   3.345
 2235SOL    HW2 7605   0.726   1.661   3.345
 2236SOL     OW 7606   2.886   4.793   5.489
 2236SOL    HW1 7607   2.798   4.747   5.497
 2236SOL    HW2 7608   2.930   4.796   5.579
 2237SOL     OW 7609   6.357   5.859   5.923
 2237SOL    HW1 7610   6.259   5.844   5.912
 2237SOL    HW2 7611   6.381   5.949   5.887
 2238SOL     OW 7612   5.933   3.523   1.975
 2238SOL    HW1 7613   5.906   3.570   2.059
 2238SOL    HW2 7614   5.943   3.426   1.993
 2239SOL     OW 7615   4.796   6.416   2.965
 2239SOL    HW1 7616   4.770   6.460   3.052
 2239SOL    HW2 7617   4.775   6.318   2.970
 2240SOL     OW 7618   5.032   4.988   1.834
 2240SOL    HW1 7619   4.989   5.071   1.798
 2240SOL    HW2 7620   4.966   4.939   1.891
 2241SOL     OW 7621   0.484   1.571   2.904
 2241SOL    HW1 7622   0.525   1.661   2.917
 2241SOL    HW2 7623   0.540   1.518   2.840
 2242SOL     OW 7624   5.369   2.352   3.847
 2242SOL    HW1 7625   5.391   2.442   3.885
 2242SOL    HW2 7626   5.454   2.305   3.822
 2243SOL     OW 7627   2.382   6.876   0.882
 2243SOL    HW1 7628   2.374   6.780   0.857
 2243SOL    HW2 7629   2.385   6.885   0.982
 2244SOL     OW 7630   2.205   1.728   0.385
 2244SOL    HW1 7631   2.280   1.793   0.399
 2244SOL    HW2 7632   2.240   1.648   0.336
 2245SOL     OW 7633   0.335   0.686   0.193
 2245SOL    HW1 7634   0.401   0.739   0.245
 2245SOL    HW2 7635   0.282   0.628   0.256
 2246SOL     OW 7636   3.674   2.142   5.153
 2246SOL    HW1 7637   3.714   2.173   5.240
 2246SOL    HW2 7638   3.579   2.114   5.169
 2247SOL     OW 7639   3.085   3.123   2.448
 2247SOL    HW1 7640   3.036   3.176   2.379
 2247SOL    HW2 7641   3.050   3.145   2.539
 2248SOL     OW 7642   4.720   3.948   5.411
 2248SOL    HW1 7643   4.623   3.961   5.395
 2248SOL    HW2 7644   4.764   3.915   5.328
 2249SOL     OW 7645   1.958   6.495   2.989
 2249SOL    HW1 7646   2.038   6.537   2.946
 2249SOL    HW2 7647   1.982   6.465   3.081
 2250SOL     OW 7648   4.545   5.871   6.641
 2250SOL    HW1 7649   4.568   5.958   6.685
 2250SOL    HW2 7650   4.547   5.883   6.542
 2251SOL     OW 7651   4.930   6.389   4.811
 2251SOL    HW1 7652   5.016   6.439   4.803
 2251SOL    HW2 7653   4.859   6.451   4.844
 2252SOL     OW 7654   4.072   1.221   2.268
 2252SOL    HW1 7655   4.098   1.308   2.311
 2252SOL    HW2 7656   4.037   1.238   2.176
 2253SOL     OW 7657   0.255   3.313   1.283
 2253SOL    HW1 7658   0.163   3.274   1.288
 2253SOL    HW2 7659   0.276   3.360   1.369
 2254SOL     OW 7660   4.096   3.475   3.112
 2254SOL    HW1 7661   3.997   3.484   3.101
 2254SOL    HW2 7662   4.123   3.379   3.097
 2255SOL     OW 7663   2.097   3.418   6.443
 2255SOL    HW1 7664   2.166   3.425   6.370
 2255SOL    HW2 7665   2.040   3.338   6.426
 2256SOL     OW 7666   5.405   0.061   1.253
 2256SOL    HW1 7667   5.344   0.001   1.202
 2256SOL    HW2 7668   5.352   0.120   1.313
 2257SOL     OW 7669   6.774   0.847   5.460
 2257SOL    HW1 7670   6.847   0.885   5.403
 2257SOL    HW2 7671   6.814   0.784   5.526
 2258SOL     OW 7672   2.614   6.016   4.215
 2258SOL    HW1 7673   2.635   5.932   4.265
 2258SOL    HW2 7674   2.641   6.006   4.120
 2259SOL     OW 7675   6.175   2.263   5.128
 2259SOL    HW1 7676   6.193   2.242   5.032
 2259SOL    HW2 7677   6.210   2.190   5.186
 2260SOL     OW 7678   0.691   3.819   1.533
 2260SOL    HW1 7679   0.683   3.834   1.632
 2260SOL    HW2 7680   0.765   3.876   1.497
 2261SOL     OW 7681   5.419   4.051   0.128
 2261SOL    HW1 7682   5.380   4.136   0.092
 2261SOL    HW2 7683   5.516   4.047   0.105
 2262SOL     OW 7684   6.695   0.156   4.575
 2262SOL    HW1 7685   6.693   0.147   4.674
 2262SOL    HW2 7686   6.701   0.253   4.550
 2263SOL     OW 7687   2.021   4.459   6.335
 2263SOL    HW1 7688   1.972   4.546   6.339
 2263SOL    HW2 7689   1.960   4.387   6.301
 2264SOL     OW 7690   3.339   0.012   5.699
 2264SOL    HW1 7691   3.276   6.959   5.733
 2264SOL    HW2 7692   3.423   0.009   5.753
 2265SOL     OW 7693   6.731   6.602   4.345
 2265SOL    HW1 7694   6.638   6.576   4.371
 2265SOL    HW2 7695   6.794   6.574   4.418
 2266SOL     OW 7696   4.389   3.099   6.769
 2266SOL    HW1 7697   4.318   3.046   6.723
 2266SOL    HW2 7698   4.465   3.040   6.793
 2267SOL     OW 7699   5.317   3.090   4.368
 2267SOL    HW1 7700   5.287   3.059   4.278
 2267SOL    HW2 7701   5.352   3.012   4.420
 2268SOL     OW 7702   1.375   5.749   4.552
 2268SOL    HW1 7703   1.472   5.767   4.567
 2268SOL    HW2 7704   1.365   5.668   4.494
 2269SOL     OW 7705   1.774   2.084   5.329
 2269SOL    HW1 7706   1.744   2.066   5.235
 2269SOL    HW2 7707   1.873   2.089   5.332
 2270SOL     OW 7708   4.551   1.568   6.148
 2270SOL    HW1 7709   4.535   1.470   6.162
 2270SOL    HW2 7710   4.469   1.619   6.170
 2271SOL     OW 7711   4.709   5.422   5.332
 2271SOL    HW1 7712   4.663   5.495   5.282
 2271SOL    HW2 7713   4.683   5.333   5.294
 2272SOL     OW 7714   5.433   1.328   5.822
 2272SOL    HW1 7715   5.495   1.374   5.759
 2272SOL    HW2 7716   5.434   1.229   5.804
 2273SOL     OW 7717   1.228   2.310   3.154
 2273SOL    HW1 7718   1.322   2.338   3.170
 2273SOL    HW2 7719   1.196   2.347   3.067
 2274SOL     OW 7720   0.699   1.583   0.128
 2274SOL    HW1 7721   0.748   1.646   0.068
 2274SOL    HW2 7722   0.618   1.629   0.164
 2275SOL     OW 7723   5.629   4.001   2.993
 2275SOL    HW1 7724   5.609   4.003   2.895
 2275SOL    HW2 7725   5.559   4.053   3.043
 2276SOL     OW 7726   2.156   1.940   1.090
 2276SOL    HW1 7727   2.254   1.932   1.106
 2276SOL    HW2 7728   2.107   1.885   1.158
 2277SOL     OW 7729   3.928   3.016   3.643
 2277SOL    HW1 7730   3.862   3.091   3.646
 2277SOL    HW2 7731   3.889   2.939   3.592
 2278SOL     OW 7732   0.532   2.663   3.833
 2278SOL    HW1 7733   0.630   2.646   3.846
 2278SOL    HW2 7734   0.499   2.608   3.757
 2279SOL     OW 7735   0.599   5.679   5.077
 2279SOL    HW1 7736   0.684   5.680   5.130
 2279SOL    HW2 7737   0.621   5.663   4.981
 2280SOL     OW 7738   4.487   2.136   5.814
 2280SOL    HW1 7739   4.419   2.107   5.748
 2280SOL    HW2 7740   4.524   2.226   5.787
 2281SOL     OW 7741   5.936   6.761   2.323
 2281SOL    HW1 7742   5.985   6.726   2.403
 2281SOL    HW2 7743   5.879   6.688   2.285
 2282SOL     OW 7744   3.693   6.645   5.342
 2282SOL    HW1 7745   3.645   6.688   5.265
 2282SOL    HW2 7746   3.782   6.690   5.355
 2283SOL     OW 7747   0.168   0.598   3.994
 2283SOL    HW1 7748   0.192   0.588   4.090
 2283SOL    HW2 7749   0.140   0.692   3.976
 2284SOL     OW 7750   1.124   2.633   0.121
 2284SOL    HW1 7751   1.188   2.690   0.173
 2284SOL    HW2 7752   1.043   2.615   0.177
 2285SOL     OW 7753   1.835   4.407   6.644
 2285SOL    HW1 7754   1.756   4.349   6.624
 2285SOL    HW2 7755   1.918   4.364   6.607
 2286SOL     OW 7756   4.817   4.754   3.242
 2286SOL    HW1 7757   4.805   4.728   3.338
 2286SOL    HW2 7758   4.796   4.851   3.231
 2287SOL     OW 7759   1.129   1.233   3.340
 2287SOL    HW1 7760   1.072   1.305   3.300
 2287SOL    HW2 7761   1.102   1.218   3.435
 2288SOL     OW 7762   6.949   5.586   2.845
 2288SOL    HW1 7763   6.902   5.587   2.757
 2288SOL    HW2 7764   6.893   5.538   2.913
 2289SOL     OW 7765   0.216   5.727   0.690
 2289SOL    HW1 7766   0.184   5.793   0.622
 2289SOL    HW2 7767   0.225   5.772   0.779
 2290SOL     OW 7768   0.797   5.608   0.213
 2290SOL    HW1 7769   0.740   5.534   0.249
 2290SOL    HW2 7770   0.740   5.672   0.160
 2291SOL     OW 7771   2.075   1.675   0.023
 2291SOL    HW1 7772   2.081   1.728   0.108
 2291SOL    HW2 7773   2.028   1.589   0.041
 2292SOL     OW 7774   2.040   1.495   4.525
 2292SOL    HW1 7775   2.041   1.582   4.477
 2292SOL    HW2 7776   2.091   1.427   4.473
 2293SOL     OW 7777   5.382   4.351   2.628
 2293SOL    HW1 7778   5.338   4.291   2.694
 2293SOL    HW2 7779   5.325   4.432   2.613
 2294SOL     OW 7780   3.187   6.204   6.719
 2294SOL    HW1 7781   3.180   6.221   6.817
 2294SOL    HW2 7782   3.252   6.268   6.678
 2295SOL     OW 7783   0.949   2.279   1.141
 2295SOL    HW1 7784   1.048   2.271   1.153
 2295SOL    HW2 7785   0.903   2.253   1.225
 2296SOL     OW 7786   3.189   6.643   0.687
 2296SOL    HW1 7787   3.166   6.731   0.727
 2296SOL    HW2 7788   3.122   6.575   0.715
 2297SOL     OW 7789   4.182   6.268   6.326
 2297SOL    HW1 7790   4.231   6.339   6.377
 2297SOL    HW2 7791   4.239   6.185   6.324
 2298SOL     OW 7792   4.169   2.964   6.654
 2298SOL    HW1 7793   4.114   2.883   6.671
 2298SOL    HW2 7794   4.169   2.985   6.556
 2299SOL     OW 7795   4.102   6.657   0.167
 2299SOL    HW1 7796   4.124   6.645   0.264
 2299SOL    HW2 7797   4.007   6.686   0.158
 2300SOL     OW 7798   1.405   4.428   1.536
 2300SOL    HW1 7799   1.440   4.449   1.445
 2300SOL    HW2 7800   1.415   4.509   1.595
 2301SOL     OW 7801   4.046   3.666   1.743
 2301SOL    HW1 7802   4.035   3.610   1.661
 2301SOL    HW2 7803   4.046   3.607   1.823
 2302SOL     OW 7804   2.560   6.099   3.343
 2302SOL    HW1 7805   2.572   6.009   3.302
 2302SOL    HW2 7806   2.648   6.131   3.378
 2303SOL     OW 7807   0.623   3.209   5.038
 2303SOL    HW1 7808   0.711   3.234   5.079
 2303SOL    HW2 7809   0.559   3.187   5.111
 2304SOL     OW 7810   2.478   0.614   4.147
 2304SOL    HW1 7811   2.466   0.695   4.091
 2304SOL    HW2 7812   2.569   0.575   4.130
 2305SOL     OW 7813   3.690   5.141   1.620
 2305SOL    HW1 7814   3.601   5.146   1.574
 2305SOL    HW2 7815   3.739   5.060   1.588
 2306SOL     OW 7816   0.685   3.691   0.579
 2306SOL    HW1 7817   0.775   3.706   0.619
 2306SOL    HW2 7818   0.642   3.779   0.559
 2307SOL     OW 7819   0.109   1.928   2.749
 2307SOL    HW1 7820   0.124   1.901   2.654
 2307SOL    HW2 7821   0.197   1.927   2.797
 2308SOL     OW 7822   0.230   0.190   0.396
 2308SOL    HW1 7823   0.301   0.137   0.350
 2308SOL    HW2 7824   0.246   0.191   0.494
 2309SOL     OW 7825   3.560   5.253   5.914
 2309SOL    HW1 7826   3.573   5.258   6.013
 2309SOL    HW2 7827   3.499   5.177   5.892
 2310SOL     OW 7828   5.723   1.516   2.763
 2310SOL    HW1 7829   5.662   1.594   2.760
 2310SOL    HW2 7830   5.674   1.435   2.795
 2311SOL     OW 7831   2.768   0.214   2.848
 2311SOL    HW1 7832   2.797   0.267   2.768
 2311SOL    HW2 7833   2.682   0.251   2.883
 2312SOL     OW 7834   2.487   1.002   2.633
 2312SOL    HW1 7835   2.546   1.068   2.588
 2312SOL    HW2 7836   2.393   1.013   2.599
 2313SOL     OW 7837   5.391   4.295   1.498
 2313SOL    HW1 7838   5.435   4.345   1.572
 2313SOL    HW2 7839   5.430   4.203   1.492
 2314SOL     OW 7840   6.376   0.056   3.034
 2314SOL    HW1 7841   6.278   0.074   3.045
 2314SOL    HW2 7842   6.402   6.996   3.092
 2315SOL     OW 7843   4.165   5.844   5.463
 2315SOL    HW1 7844   4.074   5.859   5.426
 2315SOL    HW2 7845   4.205   5.762   5.422
 2316SOL     OW 7846   2.770   1.722   6.164
 2316SOL    HW1 7847   2.826   1.776   6.102
 2316SOL    HW2 7848   2.688   1.775   6.189
 2317SOL     OW 7849   6.812   5.788   3.511
 2317SOL    HW1 7850   6.751   5.736   3.570
 2317SOL    HW2 7851   6.820   5.881   3.545
 2318SOL     OW 7852   1.692   5.024   5.538
 2318SOL    HW1 7853   1.666   5.112   5.498
 2318SOL    HW2 7854   1.665   5.023   5.635
 2319SOL     OW 7855   2.386   4.816   3.765
 2319SOL    HW1 7856   2.386   4.718   3.786
 2319SOL    HW2 7857   2.299   4.856   3.793
 2320SOL     OW 7858   1.402   2.470   5.293
 2320SOL    HW1 7859   1.458   2.510   5.366
 2320SOL    HW2 7860   1.451   2.392   5.252
 2321SOL     OW 7861   2.654   4.858   5.785
 2321SOL    HW1 7862   2.616   4.821   5.700
 2321SOL    HW2 7863   2.661   4.784   5.852
 2322SOL     OW 7864   1.026   3.808   1.738
 2322SOL    HW1 7865   1.013   3.779   1.643
 2322SOL    HW2 7866   0.967   3.753   1.798
 2323SOL     OW 7867   2.273   5.133   1.566
 2323SOL    HW1 7868   2.215   5.090   1.635
 2323SOL    HW2 7869   2.358   5.163   1.608
 2324SOL     OW 7870   7.006   5.379   2.279
 2324SOL    HW1 7871   6.981   5.315   2.352
 2324SOL    HW2 7872   6.923   5.413   2.235
 2325SOL     OW 7873   0.099   5.189   1.580
 2325SOL    HW1 7874   0.018   5.172   1.524
 2325SOL    HW2 7875   0.110   5.288   1.594
 2326SOL     OW 7876   1.612   0.667   6.834
 2326SOL    HW1 7877   1.677   0.596   6.809
 2326SOL    HW2 7878   1.651   0.725   6.905
 2327SOL     OW 7879   0.267   0.430   2.489
 2327SOL    HW1 7880   0.350   0.394   2.448
 2327SOL    HW2 7881   0.189   0.411   2.429
 2328SOL     OW 7882   2.394   2.571   2.834
 2328SOL    HW1 7883   2.416   2.610   2.924
 2328SOL    HW2 7884   2.462   2.502   2.810
 2329SOL     OW 7885   0.525   4.919   3.274
 2329SOL    HW1 7886   0.516   4.842   3.212
 2329SOL    HW2 7887   0.615   4.961   3.262
 2330SOL     OW 7888   6.591   2.653   0.428
 2330SOL    HW1 7889   6.559   2.742   0.460
 2330SOL    HW2 7890   6.576   2.646   0.329
 2331SOL     OW 7891   4.009   6.403   0.665
 2331SOL    HW1 7892   3.937   6.344   0.701
 2331SOL    HW2 7893   4.033   6.472   0.733
 2332SOL     OW 7894   5.216   6.539   6.072
 2332SOL    HW1 7895   5.273   6.490   6.138
 2332SOL    HW2 7896   5.262   6.623   6.045
 2333SOL     OW 7897   0.218   4.527   2.598
 2333SOL    HW1 7898   0.222   4.430   2.622
 2333SOL    HW2 7899   0.138   4.569   2.640
 2334SOL     OW 7900   3.134   1.373   6.196
 2334SOL    HW1 7901   3.058   1.428   6.162
 2334SOL    HW2 7902   3.220   1.406   6.156
 2335SOL     OW 7903   6.446   1.321   3.295
 2335SOL    HW1 7904   6.370   1.320   3.360
 2335SOL    HW2 7905   6.522   1.373   3.333
 2336SOL     OW 7906   2.001   1.893   2.844
 2336SOL    HW1 7907   1.932   1.965   2.848
 2336SOL    HW2 7908   2.080   1.925   2.792
 2337SOL     OW 7909   4.528   1.912   1.161
 2337SOL    HW1 7910   4.603   1.929   1.226
 2337SOL    HW2 7911   4.452   1.868   1.209
 2338SOL     OW 7912   6.825   3.810   3.969
 2338SOL    HW1 7913   6.769   3.828   4.050
 2338SOL    HW2 7914   6.768   3.816   3.887
 2339SOL     OW 7915   3.869   2.967   2.696
 2339SOL    HW1 7916   3.932   3.025   2.644
 2339SOL    HW2 7917   3.799   2.930   2.634
 2340SOL     OW 7918   1.984   5.323   6.232
 2340SOL    HW1 7919   1.969   5.225   6.222
 2340SOL    HW2 7920   1.963   5.369   6.146
 2341SOL     OW 7921   2.413   4.440   3.576
 2341SOL    HW1 7922   2.446   4.488   3.495
 2341SOL    HW2 7923   2.445   4.486   3.659
 2342SOL     OW 7924   3.083   6.768   3.957
 2342SOL    HW1 7925   3.046   6.824   3.883
 2342SOL    HW2 7926   3.040   6.794   4.043
 2343SOL     OW 7927   1.422   6.862   2.061
 2343SOL    HW1 7928   1.339   6.901   2.102
 2343SOL    HW2 7929   1.500   6.920   2.083
 2344SOL     OW 7930   5.570   3.885   0.757
 2344SOL    HW1 7931   5.482   3.899   0.803
 2344SOL    HW2 7932   5.644   3.907   0.821
 2345SOL     OW 7933   2.839   5.749   5.032
 2345SOL    HW1 7934   2.769   5.820   5.037
 2345SOL    HW2 7935   2.803   5.664   5.071
 2346SOL     OW 7936   4.052   4.147   6.695
 2346SOL    HW1 7937   4.079   4.234   6.653
 2346SOL    HW2 7938   4.006   4.164   6.782
 2347SOL     OW 7939   1.259   2.329   2.508
 2347SOL    HW1 7940   1.330   2.364   2.448
 2347SOL    HW2 7941   1.280   2.234   2.532
 2348SOL     OW 7942   0.223   5.061   2.683
 2348SOL    HW1 7943   0.232   5.075   2.584
 2348SOL    HW2 7944   0.178   5.141   2.724
 2349SOL     OW 7945   0.373   4.306   6.362
 2349SOL    HW1 7946   0.462   4.349   6.350
 2349SOL    HW2 7947   0.367   4.226   6.301
 2350SOL     OW 7948   5.935   3.645   6.788
 2350SOL    HW1 7949   5.996   3.568   6.768
 2350SOL    HW2 7950   5.841   3.611   6.796
 2351SOL     OW 7951   2.952   5.300   2.934
 2351SOL    HW1 7952   2.945   5.237   3.012
 2351SOL    HW2 7953   2.924   5.253   2.851
 2352SOL     OW 7954   0.123   2.974   3.855
 2352SOL    HW1 7955   0.173   3.040   3.800
 2352SOL    HW2 7956   0.174   2.888   3.858
 2353SOL     OW 7957   3.684   5.699   5.144
 2353SOL    HW1 7958   3.601   5.688   5.089
 2353SOL    HW2 7959   3.709   5.796   5.147
 2354SOL     OW 7960   2.038   2.094   3.692
 2354SOL    HW1 7961   2.077   2.006   3.718
 2354SOL    HW2 7962   2.040   2.156   3.771
 2355SOL     OW 7963   2.690   5.931   5.262
 2355SOL    HW1 7964   2.691   6.013   5.205
 2355SOL    HW2 7965   2.774   5.928   5.316
 2356SOL     OW 7966   6.987   3.400   0.116
 2356SOL    HW1 7967   6.965   3.497   0.123
 2356SOL    HW2 7968   0.057   3.382   0.162
 2357SOL     OW 7969   2.343   6.623   2.431
 2357SOL    HW1 7970   2.355   6.722   2.434
 2357SOL    HW2 7971   2.276   6.595   2.499
 2358SOL     OW 7972   3.489   4.659   6.531
 2358SOL    HW1 7973   3.535   4.746   6.516
 2358SOL    HW2 7974   3.414   4.672   6.596
 2359SOL     OW 7975   1.652   0.180   4.699
 2359SOL    HW1 7976   1.697   0.184   4.788
 2359SOL    HW2 7977   1.722   0.172   4.627
 2360SOL     OW 7978   6.453   3.752   0.266
 2360SOL    HW1 7979   6.495   3.841   0.282
 2360SOL    HW2 7980   6.358   3.765   0.236
 2361SOL     OW 7981   3.510   1.572   6.374
 2361SOL    HW1 7982   3.578   1.579   6.448
 2361SOL    HW2 7983   3.422   1.543   6.412
 2362SOL     OW 7984   3.594   5.546   3.646
 2362SOL    HW1 7985   3.675   5.605   3.644
 2362SOL    HW2 7986   3.528   5.577   3.578
 2363SOL     OW 7987   3.777   1.248   4.201
 2363SOL    HW1 7988   3.708   1.202   4.257
 2363SOL    HW2 7989   3.856   1.188   4.190
 2364SOL     OW 7990   1.074   2.615   1.143
 2364SOL    HW1 7991   1.131   2.533   1.144
 2364SOL    HW2 7992   1.107   2.679   1.073
 2365SOL     OW 7993   5.477   2.253   6.464
 2365SOL    HW1 7994   5.495   2.220   6.557
 2365SOL    HW2 7995   5.405   2.322   6.467
 2366SOL     OW 7996   3.784   5.146   0.594
 2366SOL    HW1 7997   3.849   5.203   0.644
 2366SOL    HW2 7998   3.788   5.052   0.629
 2367SOL     OW 7999   2.365   3.091   6.940
 2367SOL    HW1 8000   2.282   3.046   6.908
 2367SOL    HW2 8001   2.429   3.022   6.975
 2368SOL     OW 8002   6.401   5.725   2.900
 2368SOL    HW1 8003   6.437   5.632   2.900
 2368SOL    HW2 8004   6.467   5.786   2.856
 2369SOL     OW 8005   2.168   0.619   3.321
 2369SOL    HW1 8006   2.161   0.716   3.343
 2369SOL    HW2 8007   2.077   0.577   3.328
 2370SOL     OW 8008   5.487   2.162   6.730
 2370SOL    HW1 8009   5.531   2.139   6.816
 2370SOL    HW2 8010   5.475   2.080   6.675
 2371SOL     OW 8011   2.412   6.478   1.796
 2371SOL    HW1 8012   2.481   6.542   1.764
 2371SOL    HW2 8013   2.452   6.419   1.867
 2372SOL     OW 8014   6.493   3.362   2.384
 2372SOL    HW1 8015   6.407   3.407   2.408
 2372SOL    HW2 8016   6.543   3.419   2.319
 2373SOL     OW 8017   2.441   3.301   6.573
 2373SOL    HW1 8018   2.461   3.293   6.475
 2373SOL    HW2 8019   2.481   3.223   6.621
 2374SOL     OW 8020   6.198   2.633   4.652
 2374SOL    HW1 8021   6.246   2.713   4.615
 2374SOL    HW2 8022   6.100   2.642   4.633
 2375SOL     OW 8023   3.388   5.609   4.969
 2375SOL    HW1 8024   3.388   5.695   4.917
 2375SOL    HW2 8025   3.369   5.533   4.907
 2376SOL     OW 8026   6.369   3.290   4.601
 2376SOL    HW1 8027   6.410   3.321   4.687
 2376SOL    HW2 8028   6.315   3.364   4.562
 2377SOL     OW 8029   3.081   3.671   3.888
 2377SOL    HW1 8030   3.103   3.593   3.831
 2377SOL    HW2 8031   3.158   3.735   3.889
 2378SOL     OW 8032   5.355   2.382   6.808
 2378SOL    HW1 8033   5.406   2.296   6.802
 2378SOL    HW2 8034   5.317   2.404   6.718
 2379SOL     OW 8035   6.518   0.234   0.636
 2379SOL    HW1 8036   6.441   0.201   0.691
 2379SOL    HW2 8037   6.483   0.275   0.552
 2380SOL     OW 8038   6.009   1.994   1.511
 2380SOL    HW1 8039   6.042   1.970   1.419
 2380SOL    HW2 8040   6.078   1.971   1.579
 2381SOL     OW 8041   1.661   6.559   3.350
 2381SOL    HW1 8042   1.714   6.482   3.385
 2381SOL    HW2 8043   1.597   6.527   3.280
 2382SOL     OW 8044   2.179   3.357   5.028
 2382SOL    HW1 8045   2.122   3.392   5.102
 2382SOL    HW2 8046   2.195   3.259   5.042
 2383SOL     OW 8047   6.169   6.144   0.990
 2383SOL    HW1 8048   6.259   6.187   0.991
 2383SOL    HW2 8049   6.158   6.094   0.904
 2384SOL     OW 8050   4.657   1.581   1.755
 2384SOL    HW1 8051   4.694   1.646   1.821
 2384SOL    HW2 8052   4.562   1.559   1.779
 2385SOL     OW 8053   0.829   1.949   6.114
 2385SOL    HW1 8054   0.760   1.938   6.186
 2385SOL    HW2 8055   0.803   2.025   6.055
 2386SOL     OW 8056   5.291   5.608   4.319
 2386SOL    HW1 8057   5.277   5.701   4.286
 2386SOL    HW2 8058   5.384   5.598   4.353
 2387SOL     OW 8059   1.763   1.767   3.504
 2387SOL    HW1 8060   1.705   1.780   3.584
 2387SOL    HW2 8061   1.838   1.834   3.506
 2388SOL     OW 8062   6.135   2.210   4.346
 2388SOL    HW1 8063   6.184   2.292   4.316
 2388SOL    HW2 8064   6.127   2.210   4.446
 2389SOL     OW 8065   4.084   5.179   2.765
 2389SOL    HW1 8066   4.146   5.237   2.818
 2389SOL    HW2 8067   3.989   5.198   2.792
 2390SOL     OW 8068   3.443   4.091   1.817
 2390SOL    HW1 8069   3.397   4.017   1.768
 2390SOL    HW2 8070   3.463   4.062   1.910
 2391SOL     OW 8071   4.226   5.320   5.797
 2391SOL    HW1 8072   4.217   5.296   5.700
 2391SOL    HW2 8073   4.320   5.348   5.816
 2392SOL     OW 8074   3.864   0.774   6.532
 2392SOL    HW1 8075   3.898   0.827   6.455
 2392SOL    HW2 8076   3.928   0.780   6.609
 2393SOL     OW 8077   4.221   4.637   5.712
 2393SOL    HW1 8078   4.315   4.648   5.744
 2393SOL    HW2 8079   4.158   4.675   5.779
 2394SOL     OW 8080   0.563   4.193   4.867
 2394SOL    HW1 8081   0.542   4.291   4.864
 2394SOL    HW2 8082   0.654   4.180   4.907
 2395SOL     OW 8083   4.044   7.013   5.857
 2395SOL    HW1 8084   4.130   6.965   5.873
 2395SOL    HW2 8085   4.058   0.066   5.787
 2396SOL     OW 8086   4.292   4.524   0.697
 2396SOL    HW1 8087   4.233   4.558   0.624
 2396SOL    HW2 8088   4.365   4.468   0.658
 2397SOL     OW 8089   7.015   3.715   4.711
 2397SOL    HW1 8090   6.998   3.731   4.808
 2397SOL    HW2 8091   7.013   3.617   4.693
 2398SOL     OW 8092   4.037   4.400   5.748
 2398SOL    HW1 8093   4.063   4.348   5.829
 2398SOL    HW2 8094   4.119   4.439   5.706
 2399SOL     OW 8095   4.377   2.089   1.534
 2399SOL    HW1 8096   4.368   1.999   1.492
 2399SOL    HW2 8097   4.291   2.113   1.580
 2400SOL     OW 8098   2.498   5.538   1.518
 2400SOL    HW1 8099   2.531   5.447   1.493
 2400SOL    HW2 8100   2.573   5.592   1.557
 2401SOL     OW 8101   6.664   6.270   5.802
 2401SOL    HW1 8102   6.680   6.363   5.837
 2401SOL    HW2 8103   6.650   6.274   5.703
 2402SOL     OW 8104   6.922   6.814   4.497
 2402SOL    HW1 8105   7.014   6.847   4.471
 2402SOL    HW2 8106   6.916   6.716   4.481
 2403SOL     OW 8107   0.491   2.051   5.304
 2403SOL    HW1 8108   0.465   2.128   5.246
 2403SOL    HW2 8109   0.589   2.056   5.323
 2404SOL     OW 8110   0.975   0.191   0.435
 2404SOL    HW1 8111   0.970   0.290   0.419
 2404SOL    HW2 8112   0.935   0.170   0.524
 2405SOL     OW 8113   2.709   3.918   1.716
 2405SOL    HW1 8114   2.680   3.828   1.684
 2405SOL    HW2 8115   2.796   3.942   1.674
 2406SOL     OW 8116   4.775   1.318   0.806
 2406SOL    HW1 8117   4.868   1.292   0.831
 2406SOL    HW2 8118   4.731   1.242   0.756
 2407SOL     OW 8119   5.544   0.868   3.610
 2407SOL    HW1 8120   5.466   0.924   3.584
 2407SOL    HW2 8121   5.621   0.927   3.635
 2408SOL     OW 8122   4.681   4.275   2.219
 2408SOL    HW1 8123   4.640   4.327   2.294
 2408SOL    HW2 8124   4.633   4.294   2.134
 2409SOL     OW 8125   1.592   4.361   0.440
 2409SOL    HW1 8126   1.652   4.427   0.486
 2409SOL    HW2 8127   1.623   4.268   0.460
 2410SOL     OW 8128   3.931   3.137   2.461
 2410SOL    HW1 8129   3.855   3.073   2.452
 2410SOL    HW2 8130   3.990   3.131   2.379
 2411SOL     OW 8131   5.209   0.201   4.384
 2411SOL    HW1 8132   5.208   0.226   4.287
 2411SOL    HW2 8133   5.122   0.157   4.407
 2412SOL     OW 8134   4.222   3.192   0.918
 2412SOL    HW1 8135   4.297   3.257   0.925
 2412SOL    HW2 8136   4.218   3.156   0.825
 2413SOL     OW 8137   4.687   0.229   2.341
 2413SOL    HW1 8138   4.644   0.139   2.330
 2413SOL    HW2 8139   4.727   0.257   2.254
 2414SOL     OW 8140   5.413   3.379   4.204
 2414SOL    HW1 8141   5.456   3.323   4.275
 2414SOL    HW2 8142   5.317   3.353   4.196
 2415SOL     OW 8143   4.507   1.411   3.641
 2415SOL    HW1 8144   4.422   1.449   3.677
 2415SOL    HW2 8145   4.528   1.453   3.553
 2416SOL     OW 8146   4.680   1.954   5.901
 2416SOL    HW1 8147   4.698   1.993   5.991
 2416SOL    HW2 8148   4.608   2.007   5.856
 2417SOL     OW 8149   2.961   3.682   4.130
 2417SOL    HW1 8150   2.943   3.589   4.161
 2417SOL    HW2 8151   3.005   3.680   4.040
 2418SOL     OW 8152   3.494   2.896   3.367
 2418SOL    HW1 8153   3.399   2.889   3.398
 2418SOL    HW2 8154   3.499   2.875   3.270
 2419SOL     OW 8155   0.236   7.006   2.698
 2419SOL    HW1 8156   0.147   6.992   2.741
 2419SOL    HW2 8157   0.308   6.970   2.758
 2420SOL     OW 8158   2.326   0.088   2.014
 2420SOL    HW1 8159   2.375   0.068   1.929
 2420SOL    HW2 8160   2.315   0.004   2.067
 2421SOL     OW 8161   3.254   2.095   3.599
 2421SOL    HW1 8162   3.192   2.107   3.521
 2421SOL    HW2 8163   3.343   2.134   3.576
 2422SOL     OW 8164   4.553   1.543   0.924
 2422SOL    HW1 8165   4.516   1.457   0.889
 2422SOL    HW2 8166   4.520   1.618   0.866
 2423SOL     OW 8167   2.211   4.903   2.406
 2423SOL    HW1 8168   2.243   4.958   2.483
 2423SOL    HW2 8169   2.114   4.921   2.390
 2424SOL     OW 8170   5.987   0.218   0.980
 2424SOL    HW1 8171   6.058   0.288   0.987
 2424SOL    HW2 8172   5.898   0.259   0.999
 2425SOL     OW 8173   6.442   6.988   4.366
 2425SOL    HW1 8174   6.533   6.964   4.398
 2425SOL    HW2 8175   6.448   0.012   4.275
 2426SOL     OW 8176   2.585   5.179   4.156
 2426SOL    HW1 8177   2.667   5.134   4.189
 2426SOL    HW2 8178   2.584   5.178   4.056
 2427SOL     OW 8179   6.097   0.043   5.473
 2427SOL    HW1 8180   6.131   0.036   5.566
 2427SOL    HW2 8181   6.056   6.973   5.446
 2428SOL     OW 8182   6.211   0.337   0.282
 2428SOL    HW1 8183   6.255   0.400   0.347
 2428SOL    HW2 8184   6.178   0.389   0.203
 2429SOL     OW 8185   4.857   5.336   2.173
 2429SOL    HW1 8186   4.945   5.380   2.155
 2429SOL    HW2 8187   4.798   5.401   2.222
 2430SOL     OW 8188   5.565   0.871   2.796
 2430SOL    HW1 8189   5.498   0.808   2.835
 2430SOL    HW2 8190   5.528   0.910   2.711
 2431SOL     OW 8191   4.389   0.228   2.222
 2431SOL    HW1 8192   4.402   0.327   2.236
 2431SOL    HW2 8193   4.468   0.179   2.258
 2432SOL     OW 8194   2.397   6.249   2.741
 2432SOL    HW1 8195   2.413   6.257   2.643
 2432SOL    HW2 8196   2.448   6.171   2.777
 2433SOL     OW 8197   3.904   0.440   0.665
 2433SOL    HW1 8198   3.993   0.467   0.628
 2433SOL    HW2 8199   3.852   0.392   0.595
 2434SOL     OW 8200   3.580   3.551   5.711
 2434SOL    HW1 8201   3.592   3.498   5.627
 2434SOL    HW2 8202   3.616   3.499   5.789
 2435SOL     OW 8203   6.088   6.085   5.356
 2435SOL    HW1 8204   6.064   6.009   5.296
 2435SOL    HW2 8205   6.112   6.049   5.446
 2436SOL     OW 8206   2.943   5.206   0.559
 2436SOL    HW1 8207   2.895   5.293   0.560
 2436SOL    HW2 8208   2.952   5.172   0.653
 2437SOL     OW 8209   6.682   0.357   6.018
 2437SOL    HW1 8210   6.616   0.294   6.059
 2437SOL    HW2 8211   6.640   0.447   6.008
 2438SOL     OW 8212   2.705   2.871   1.167
 2438SOL    HW1 8213   2.642   2.897   1.093
 2438SOL    HW2 8214   2.653   2.856   1.251
 2439SOL     OW 8215   5.892   4.249   5.177
 2439SOL    HW1 8216   5.799   4.284   5.175
 2439SOL    HW2 8217   5.892   4.153   5.149
 2440SOL     OW 8218   5.997   5.030   5.857
 2440SOL    HW1 8219   5.975   5.049   5.953
 2440SOL    HW2 8220   6.089   4.991   5.852
 2441SOL     OW 8221   6.399   1.917   0.698
 2441SOL    HW1 8222   6.346   1.833   0.710
 2441SOL    HW2 8223   6.390   1.974   0.780
 2442SOL     OW 8224   6.811   3.123   5.618
 2442SOL    HW1 8225   6.861   3.200   5.658
 2442SOL    HW2 8226   6.836   3.114   5.522
 2443SOL     OW 8227   2.638   5.120   5.478
 2443SOL    HW1 8228   2.702   5.139   5.552
 2443SOL    HW2 8229   2.657   5.030   5.439
 2444SOL     OW 8230   3.420   2.851   5.553
 2444SOL    HW1 8231   3.363   2.865   5.633
 2444SOL    HW2 8232   3.396   2.765   5.508
 2445SOL     OW 8233   0.489   0.007   0.499
 2445SOL    HW1 8234   0.431   6.943   0.500
 2445SOL    HW2 8235   0.484   0.052   0.589
 2446SOL     OW 8236   5.481   3.548   6.225
 2446SOL    HW1 8237   5.577   3.520   6.228
 2446SOL    HW2 8238   5.424   3.474   6.261
 2447SOL     OW 8239   0.707   2.719   6.806
 2447SOL    HW1 8240   0.673   2.791   6.746
 2447SOL    HW2 8241   0.677   2.630   6.772
 2448SOL     OW 8242   0.198   0.378   4.456
 2448SOL    HW1 8243   0.124   0.355   4.519
 2448SOL    HW2 8244   0.201   0.311   4.382
 2449SOL     OW 8245   0.728   3.055   4.717
 2449SOL    HW1 8246   0.736   2.960   4.687
 2449SOL    HW2 8247   0.636   3.089   4.695
 2450SOL     OW 8248   1.446   3.248   1.721
 2450SOL    HW1 8249   1.478   3.335   1.760
 2450SOL    HW2 8250   1.370   3.267   1.657
 2451SOL     OW 8251   2.674   6.579   4.537
 2451SOL    HW1 8252   2.706   6.484   4.541
 2451SOL    HW2 8253   2.610   6.590   4.461
 2452SOL     OW 8254   2.223   2.386   4.295
 2452SOL    HW1 8255   2.206   2.330   4.377
 2452SOL    HW2 8256   2.311   2.432   4.303
 2453SOL     OW 8257   0.443   3.348   1.770
 2453SOL    HW1 8258   0.509   3.279   1.742
 2453SOL    HW2 8259   0.370   3.305   1.824
 2454SOL     OW 8260   2.430   6.982   1.530
 2454SOL    HW1 8261   2.529   6.975   1.544
 2454SOL    HW2 8262   2.410   0.046   1.476
 2455SOL     OW 8263   5.135   3.593   1.281
 2455SOL    HW1 8264   5.177   3.571   1.193
 2455SOL    HW2 8265   5.153   3.519   1.346
 2456SOL     OW 8266   2.858   6.871   0.998
 2456SOL    HW1 8267   2.779   6.827   1.039
 2456SOL    HW2 8268   2.858   6.854   0.899
 2457SOL     OW 8269   5.935   5.805   1.208
 2457SOL    HW1 8270   5.982   5.892   1.225
 2457SOL    HW2 8271   5.888   5.777   1.292
 2458SOL     OW 8272   0.479   5.654   2.715
 2458SOL    HW1 8273   0.404   5.617   2.660
 2458SOL    HW2 8274   0.450   5.663   2.810
 2459SOL     OW 8275   0.562   1.278   0.340
 2459SOL    HW1 8276   0.531   1.367   0.373
 2459SOL    HW2 8277   0.507   1.251   0.261
 2460SOL     OW 8278   3.005   4.845   1.447
 2460SOL    HW1 8279   2.988   4.940   1.474
 2460SOL    HW2 8280   3.104   4.829   1.442
 2461SOL     OW 8281   4.936   1.343   3.143
 2461SOL    HW1 8282   4.915   1.294   3.228
 2461SOL    HW2 8283   5.013   1.405   3.158
 2462SOL     OW 8284   2.681   3.923   6.343
 2462SOL    HW1 8285   2.659   4.020   6.337
 2462SOL    HW2 8286   2.666   3.890   6.436
 2463SOL     OW 8287   0.605   2.401   4.893
 2463SOL    HW1 8288   0.583   2.384   4.797
 2463SOL    HW2 8289   0.657   2.485   4.901
 2464SOL     OW 8290   1.511   4.139   0.671
 2464SOL    HW1 8291   1.492   4.065   0.735
 2464SOL    HW2 8292   1.465   4.121   0.584
 2465SOL     OW 8293   6.025   5.160   2.318
 2465SOL    HW1 8294   6.046   5.074   2.365
 2465SOL    HW2 8295   5.930   5.185   2.337
 2466SOL     OW 8296   3.528   1.417   1.654
 2466SOL    HW1 8297   3.501   1.491   1.593
 2466SOL    HW2 8298   3.448   1.388   1.708
 2467SOL     OW 8299   0.363   1.559   5.285
 2467SOL    HW1 8300   0.410   1.513   5.360
 2467SOL    HW2 8301   0.329   1.491   5.220
 2468SOL     OW 8302   6.729   4.476   0.431
 2468SOL    HW1 8303   6.659   4.490   0.501
 2468SOL    HW2 8304   6.815   4.449   0.475
 2469SOL     OW 8305   2.898   3.131   5.867
 2469SOL    HW1 8306   2.857   3.215   5.830
 2469SOL    HW2 8307   2.918   3.144   5.964
 2470SOL     OW 8308   5.749   2.621   0.615
 2470SOL    HW1 8309   5.837   2.622   0.663
 2470SOL    HW2 8310   5.676   2.600   0.680
 2471SOL     OW 8311   0.235   1.171   3.520
 2471SOL    HW1 8312   0.311   1.162   3.456
 2471SOL    HW2 8313   0.203   1.080   3.547
 2472SOL     OW 8314   5.443   1.468   3.671
 2472SOL    HW1 8315   5.495   1.545   3.707
 2472SOL    HW2 8316   5.464   1.455   3.574
 2473SOL     OW 8317   0.286   6.345   5.259
 2473SOL    HW1 8318   0.323   6.253   5.250
 2473SOL    HW2 8319   0.222   6.348   5.335
 2474SOL     OW 8320   6.158   6.877   4.356
 2474SOL    HW1 8321   6.124   6.916   4.441
 2474SOL    HW2 8322   6.257   6.894   4.349
 2475SOL     OW 8323   4.414   2.126   6.096
 2475SOL    HW1 8324   4.454   2.164   6.013
 2475SOL    HW2 8325   4.353   2.050   6.073
 2476SOL     OW 8326   0.332   1.546   3.819
 2476SOL    HW1 8327   0.427   1.577   3.812
 2476SOL    HW2 8328   0.303   1.506   3.732
 2477SOL     OW 8329   4.523   5.029   2.093
 2477SOL    HW1 8330   4.606   5.085   2.085
 2477SOL    HW2 8331   4.502   5.015   2.190
 2478SOL     OW 8332   0.133   6.758   2.994
 2478SOL    HW1 8333   0.084   6.732   3.077
 2478SOL    HW2 8334   0.226   6.723   2.998
 2479SOL     OW 8335   0.560   2.185   6.715
 2479SOL    HW1 8336   0.546   2.220   6.807
 2479SOL    HW2 8337   0.657   2.192   6.691
 2480SOL     OW 8338   0.121   5.381   1.816
 2480SOL    HW1 8339   0.050   5.414   1.877
 2480SOL    HW2 8340   0.206   5.366   1.867
 2481SOL     OW 8341   3.949   4.907   2.263
 2481SOL    HW1 8342   3.890   4.871   2.335
 2481SOL    HW2 8343   3.918   4.873   2.175
 2482SOL     OW 8344   5.361   2.825   4.505
 2482SOL    HW1 8345   5.295   2.775   4.560
 2482SOL    HW2 8346   5.454   2.806   4.539
 2483SOL     OW 8347   0.526   2.946   0.108
 2483SOL    HW1 8348   0.615   2.912   0.138
 2483SOL    HW2 8349   0.534   2.985   0.016
 2484SOL     OW 8350   3.973   3.919   6.128
 2484SOL    HW1 8351   3.953   3.868   6.212
 2484SOL    HW2 8352   3.895   3.977   6.104
 2485SOL     OW 8353   0.461   6.177   0.121
 2485SOL    HW1 8354   0.383   6.115   0.135
 2485SOL    HW2 8355   0.546   6.130   0.146
 2486SOL     OW 8356   0.987   5.031   3.771
 2486SOL    HW1 8357   1.058   4.964   3.794
 2486SOL    HW2 8358   0.968   5.087   3.851
 2487SOL     OW 8359   3.427   1.609   1.487
 2487SOL    HW1 8360   3.469   1.699   1.498
 2487SOL    HW2 8361   3.468   1.563   1.408
 2488SOL     OW 8362   2.750   6.035   6.423
 2488SOL    HW1 8363   2.829   6.051   6.482
 2488SOL    HW2 8364   2.756   5.944   6.384
 2489SOL     OW 8365   0.148   6.068   4.188
 2489SOL    HW1 8366   0.093   6.117   4.120
 2489SOL    HW2 8367   0.244   6.067   4.158
 2490SOL     OW 8368   5.479   3.129   1.932
 2490SOL    HW1 8369   5.545   3.126   2.008
 2490SOL    HW2 8370   5.388   3.104   1.966
 2491SOL     OW 8371   6.993   4.310   2.916
 2491SOL    HW1 8372   6.997   4.365   2.833
 2491SOL    HW2 8373   0.021   4.358   2.991
 2492SOL     OW 8374   3.828   1.242   6.066
 2492SOL    HW1 8375   3.801   1.160   6.018
 2492SOL    HW2 8376   3.881   1.301   6.005
 2493SOL     OW 8377   0.005   0.957   4.841
 2493SOL    HW1 8378   7.011   1.035   4.781
 2493SOL    HW2 8379   7.005   0.872   4.790
 2494SOL     OW 8380   4.324   5.061   0.699
 2494SOL    HW1 8381   4.288   5.064   0.606
 2494SOL    HW2 8382   4.423   5.067   0.697
 2495SOL     OW 8383   0.122   0.899   2.821
 2495SOL    HW1 8384   0.133   0.814   2.770
 2495SOL    HW2 8385   0.179   0.896   2.903
 2496SOL     OW 8386   1.544   5.524   0.129
 2496SOL    HW1 8387   1.577   5.440   0.086
 2496SOL    HW2 8388   1.448   5.538   0.104
 2497SOL     OW 8389   5.574   0.175   6.965
 2497SOL    HW1 8390   5.579   0.256   0.007
 2497SOL    HW2 8391   5.660   0.166   6.914
 2498SOL     OW 8392   1.258   3.239   4.992
 2498SOL    HW1 8393   1.201   3.301   5.047
 2498SOL    HW2 8394   1.200   3.182   4.934
 2499SOL     OW 8395   5.139   0.761   6.923
 2499SOL    HW1 8396   5.072   0.767   6.848
 2499SOL    HW2 8397   5.097   0.715   7.001
 2500SOL     OW 8398   4.267   4.088   6.497
 2500SOL    HW1 8399   4.364   4.063   6.503
 2500SOL    HW2 8400   4.230   4.104   6.588
 2501SOL     OW 8401   6.449   5.013   1.004
 2501SOL    HW1 8402   6.541   4.994   1.037
 2501SOL    HW2 8403   6.402   5.072   1.070
 2502SOL     OW 8404   0.473   0.007   3.614
 2502SOL    HW1 8405   0.505   0.062   3.692
 2502SOL    HW2 8406   0.426   0.066   3.549
 2503SOL     OW 8407   5.588   6.881   4.066
 2503SOL    HW1 8408   5.548   6.807   4.011
 2503SOL    HW2 8409   5.515   6.928   4.117
 2504SOL     OW 8410   2.051   4.377   3.296
 2504SOL    HW1 8411   2.103   4.451   3.252
 2504SOL    HW2 8412   2.099   4.290   3.282
 2505SOL     OW 8413   5.131   4.265   4.970
 2505SOL    HW1 8414   5.095   4.199   4.905
 2505SOL    HW2 8415   5.178   4.339   4.922
 2506SOL     OW 8416   0.292   0.930   0.686
 2506SOL    HW1 8417   0.324   1.019   0.718
 2506SOL    HW2 8418   0.270   0.936   0.588
 2507SOL     OW 8419   6.303   6.647   6.980
 2507SOL    HW1 8420   6.297   6.650   0.063
 2507SOL    HW2 8421   6.233   6.585   6.944
 2508SOL     OW 8422   1.889   2.225   1.698
 2508SOL    HW1 8423   1.833   2.282   1.637
 2508SOL    HW2 8424   1.970   2.277   1.726
 2509SOL     OW 8425   6.020   1.218   3.330
 2509SOL    HW1 8426   5.973   1.134   3.356
 2509SOL    HW2 8427   5.957   1.277   3.278
 2510SOL     OW 8428   3.735   5.947   2.222
 2510SOL    HW1 8429   3.804   5.915   2.287
 2510SOL    HW2 8430   3.705   5.870   2.166
 2511SOL     OW 8431   1.107   6.793   3.305
 2511SOL    HW1 8432   1.164   6.719   3.340
 2511SOL    HW2 8433   1.010   6.771   3.319
 2512SOL     OW 8434   5.879   3.786   4.504
 2512SOL    HW1 8435   5.792   3.837   4.502
 2512SOL    HW2 8436   5.887   3.731   4.421
 2513SOL     OW 8437   6.950   4.368   0.697
 2513SOL    HW1 8438   6.966   4.271   0.716
 2513SOL    HW2 8439   6.930   4.416   0.782
 2514SOL     OW 8440   0.157   2.555   3.653
 2514SOL    HW1 8441   0.136   2.607   3.736
 2514SOL    HW2 8442   0.120   2.463   3.661
 2515SOL     OW 8443   1.119   4.632   7.009
 2515SOL    HW1 8444   1.189   4.679   6.955
 2515SOL    HW2 8445   1.162   4.586   0.069
 2516SOL     OW 8446   5.534   6.559   3.718
 2516SOL    HW1 8447   5.586   6.525   3.639
 2516SOL    HW2 8448   5.442   6.519   3.716
 2517SOL     OW 8449   1.736   5.611   1.132
 2517SOL    HW1 8450   1.665   5.563   1.080
 2517SOL    HW2 8451   1.824   5.568   1.116
 2518SOL     OW 8452   2.178   2.894   6.900
 2518SOL    HW1 8453   2.088   2.917   6.861
 2518SOL    HW2 8454   2.167   2.868   6.996
 2519SOL     OW 8455   5.848   4.008   5.071
 2519SOL    HW1 8456   5.927   3.947   5.076
 2519SOL    HW2 8457   5.795   3.987   4.989
 2520SOL     OW 8458   3.526   5.449   2.030
 2520SOL    HW1 8459   3.494   5.441   1.936
 2520SOL    HW2 8460   3.458   5.411   2.092
 2521SOL     OW 8461   5.353   6.310   5.898
 2521SOL    HW1 8462   5.322   6.217   5.916
 2521SOL    HW2 8463   5.321   6.370   5.971
 2522SOL     OW 8464   2.490   4.727   4.710
 2522SOL    HW1 8465   2.551   4.779   4.771
 2522SOL    HW2 8466   2.408   4.700   4.760
 2523SOL     OW 8467   1.064   2.213   5.418
 2523SOL    HW1 8468   1.073   2.312   5.417
 2523SOL    HW2 8469   1.116   2.174   5.343
 2524SOL     OW 8470   1.647   6.908   4.348
 2524SOL    HW1 8471   1.591   6.897   4.266
 2524SOL    HW2 8472   1.720   6.974   4.330
 2525SOL     OW 8473   2.536   4.562   2.644
 2525SOL    HW1 8474   2.613   4.608   2.600
 2525SOL    HW2 8475   2.476   4.523   2.573
 2526SOL     OW 8476   1.688   2.449   4.588
 2526SOL    HW1 8477   1.721   2.514   4.656
 2526SOL    HW2 8478   1.713   2.482   4.496
 2527SOL     OW 8479   6.779   0.178   4.201
 2527SOL    HW1 8480   6.683   0.153   4.217
 2527SOL    HW2 8481   6.796   0.184   4.103
 2528SOL     OW 8482   5.758   5.574   0.025
 2528SOL    HW1 8483   5.773   5.478   0.049
 2528SOL    HW2 8484   5.667   5.601   0.054
 2529SOL     OW 8485   4.997   3.966   5.473
 2529SOL    HW1 8486   5.026   3.874   5.499
 2529SOL    HW2 8487   4.897   3.969   5.466
 2530SOL     OW 8488   0.901   6.234   3.280
 2530SOL    HW1 8489   0.851   6.321   3.274
 2530SOL    HW2 8490   0.874   6.186   3.364
 2531SOL     OW 8491   4.869   1.376   6.689
 2531SOL    HW1 8492   4.898   1.346   6.598
 2531SOL    HW2 8493   4.903   1.469   6.706
 2532SOL     OW 8494   0.768   4.593   5.609
 2532SOL    HW1 8495   0.859   4.606   5.648
 2532SOL    HW2 8496   0.727   4.510   5.645
 2533SOL     OW 8497   5.565   0.077   5.573
 2533SOL    HW1 8498   5.631   0.068   5.498
 2533SOL    HW2 8499   5.581   0.163   5.621
 2534SOL     OW 8500   6.837   1.841   3.254
 2534SOL    HW1 8501   6.772   1.911   3.285
 2534SOL    HW2 8502   6.792   1.782   3.187
 2535SOL     OW 8503   2.743   1.454   2.595
 2535SOL    HW1 8504   2.717   1.511   2.673
 2535SOL    HW2 8505   2.786   1.512   2.524
 2536SOL     OW 8506   6.719   0.681   4.451
 2536SOL    HW1 8507   6.763   0.694   4.363
 2536SOL    HW2 8508   6.635   0.735   4.456
 2537SOL     OW 8509   3.722   6.193   2.637
 2537SOL    HW1 8510   3.638   6.219   2.591
 2537SOL    HW2 8511   3.791   6.264   2.624
 2538SOL     OW 8512   0.441   4.680   5.011
 2538SOL    HW1 8513   0.471   4.775   5.017
 2538SOL    HW2 8514   0.346   4.673   5.038
 2539SOL     OW 8515   2.265   0.539   5.357
 2539SOL    HW1 8516   2.241   0.444   5.379
 2539SOL    HW2 8517   2.196   0.600   5.396
 2540SOL     OW 8518   4.849   1.949   2.078
 2540SOL    HW1 8519   4.893   1.887   2.143
 2540SOL    HW2 8520   4.790   2.013   2.126
 2541SOL     OW 8521   1.116   1.169   6.095
 2541SOL    HW1 8522   1.151   1.163   6.189
 2541SOL    HW2 8523   1.028   1.217   6.095
 2542SOL     OW 8524   3.869   2.162   3.833
 2542SOL    HW1 8525   3.774   2.158   3.865
 2542SOL    HW2 8526   3.871   2.201   3.741
 2543SOL     OW 8527   6.722   1.145   4.938
 2543SOL    HW1 8528   6.649   1.163   5.004
 2543SOL    HW2 8529   6.805   1.194   4.968
 2544SOL     OW 8530   0.245   6.385   1.718
 2544SOL    HW1 8531   0.343   6.368   1.711
 2544SOL    HW2 8532   0.215   6.441   1.641
 2545SOL     OW 8533   6.838   1.407   0.238
 2545SOL    HW1 8534   6.890   1.321   0.245
 2545SOL    HW2 8535   6.741   1.388   0.250
 2546SOL     OW 8536   6.214   3.444   2.358
 2546SOL    HW1 8537   6.197   3.455   2.456
 2546SOL    HW2 8538   6.128   3.428   2.311
 2547SOL     OW 8539   5.811   3.873   0.937
 2547SOL    HW1 8540   5.900   3.830   0.921
 2547SOL    HW2 8541   5.820   3.972   0.930
 2548SOL     OW 8542   6.378   0.784   5.572
 2548SOL    HW1 8543   6.427   0.843   5.508
 2548SOL    HW2 8544   6.439   0.713   5.606
 2549SOL     OW 8545   2.568   5.200   0.751
 2549SOL    HW1 8546   2.527   5.131   0.691
 2549SOL    HW2 8547   2.588   5.159   0.840
 2550SOL     OW 8548   3.824   6.578   1.048
 2550SOL    HW1 8549   3.857   6.612   1.136
 2550SOL    HW2 8550   3.900   6.577   0.983
 2551SOL     OW 8551   3.265   4.762   1.226
 2551SOL    HW1 8552   3.343   4.735   1.168
 2551SOL    HW2 8553   3.257   4.861   1.225
 2552SOL     OW 8554   2.142   4.462   1.576
 2552SOL    HW1 8555   2.126   4.443   1.673
 2552SOL    HW2 8556   2.056   4.455   1.525
 2553SOL     OW 8557   4.609   0.853   6.948
 2553SOL    HW1 8558   4.606   0.941   6.996
 2553SOL    HW2 8559   4.516   0.822   6.928
 2554SOL     OW 8560   0.814   5.491   1.248
 2554SOL    HW1 8561   0.812   5.392   1.261
 2554SOL    HW2 8562   0.907   5.520   1.223
 2555SOL     OW 8563   0.447   6.513   4.941
 2555SOL    HW1 8564   0.450   6.433   4.882
 2555SOL    HW2 8565   0.488   6.490   5.030
 2556SOL     OW 8566   4.479   0.178   1.370
 2556SOL    HW1 8567   4.519   0.104   1.315
 2556SOL    HW2 8568   4.379   0.176   1.359
 2557SOL     OW 8569   2.680   1.126   6.922
 2557SOL    HW1 8570   2.592   1.081   6.930
 2557SOL    HW2 8571   2.667   1.221   6.892
 2558SOL     OW 8572   5.275   1.843   1.066
 2558SOL    HW1 8573   5.187   1.805   1.039
 2558SOL    HW2 8574   5.297   1.922   1.008
 2559SOL     OW 8575   6.361   5.311   3.526
 2559SOL    HW1 8576   6.390   5.272   3.613
 2559SOL    HW2 8577   6.279   5.366   3.539
 2560SOL     OW 8578   4.784   2.459   2.072
 2560SOL    HW1 8579   4.688   2.458   2.100
 2560SOL    HW2 8580   4.824   2.549   2.091
 2561SOL     OW 8581   3.277   0.091   4.752
 2561SOL    HW1 8582   3.326   0.178   4.759
 2561SOL    HW2 8583   3.247   0.077   4.658
 2562SOL     OW 8584   1.687   6.433   5.012
 2562SOL    HW1 8585   1.693   6.396   5.105
 2562SOL    HW2 8586   1.693   6.358   4.946
 2563SOL     OW 8587   4.015   2.665   6.292
 2563SOL    HW1 8588   3.926   2.690   6.330
 2563SOL    HW2 8589   4.076   2.634   6.365
 2564SOL     OW 8590   1.252   1.346   0.396
 2564SOL    HW1 8591   1.160   1.385   0.400
 2564SOL    HW2 8592   1.260   1.270   0.460
 2565SOL     OW 8593   0.497   0.702   0.657
 2565SOL    HW1 8594   0.412   0.748   0.682
 2565SOL    HW2 8595   0.575   0.758   0.686
 2566SOL     OW 8596   3.027   0.720   0.807
 2566SOL    HW1 8597   3.005   0.627   0.780
 2566SOL    HW2 8598   2.946   0.778   0.794
 2567SOL     OW 8599   1.962   0.774   6.357
 2567SOL    HW1 8600   2.046   0.755   6.305
 2567SOL    HW2 8601   1.883   0.747   6.302
 2568SOL     OW 8602   1.598   5.472   1.369
 2568SOL    HW1 8603   1.556   5.393   1.324
 2568SOL    HW2 8604   1.685   5.493   1.325
 2569SOL     OW 8605   1.920   6.378   6.662
 2569SOL    HW1 8606   1.829   6.396   6.700
 2569SOL    HW2 8607   1.910   6.351   6.566
 2570SOL     OW 8608   0.937   6.415   4.030
 2570SOL    HW1 8609   0.844   6.447   4.014
 2570SOL    HW2 8610   0.979   6.470   4.102
 2571SOL     OW 8611   3.899   3.802   3.242
 2571SOL    HW1 8612   3.957   3.728   3.274
 2571SOL    HW2 8613   3.858   3.777   3.154
 2572SOL     OW 8614   2.851   5.581   2.699
 2572SOL    HW1 8615   2.771   5.595   2.759
 2572SOL    HW2 8616   2.868   5.483   2.689
 2573SOL     OW 8617   6.780   1.034   3.240
 2573SOL    HW1 8618   6.813   1.122   3.274
 2573SOL    HW2 8619   6.769   1.038   3.141
 2574SOL     OW 8620   0.196   3.098   2.127
 2574SOL    HW1 8621   0.133   3.024   2.100
 2574SOL    HW2 8622   0.262   3.062   2.193
 2575SOL     OW 8623   4.642   3.560   5.622
 2575SOL    HW1 8624   4.680   3.649   5.646
 2575SOL    HW2 8625   4.671   3.492   5.689
 2576SOL     OW 8626   0.683   0.595   3.236
 2576SOL    HW1 8627   0.647   0.514   3.189
 2576SOL    HW2 8628   0.644   0.601   3.328
 2577SOL     OW 8629   1.471   4.690   1.621
 2577SOL    HW1 8630   1.562   4.718   1.652
 2577SOL    HW2 8631   1.414   4.772   1.609
 2578SOL     OW 8632   4.558   2.606   5.012
 2578SOL    HW1 8633   4.520   2.586   4.922
 2578SOL    HW2 8634   4.655   2.628   5.003
 2579SOL     OW 8635   0.271   1.316   6.360
 2579SOL    HW1 8636   0.251   1.383   6.289
 2579SOL    HW2 8637   0.358   1.339   6.404
 2580SOL     OW 8638   1.849   1.305   5.471
 2580SOL    HW1 8639   1.789   1.350   5.405
 2580SOL    HW2 8640   1.944   1.318   5.444
 2581SOL     OW 8641   6.344   6.373   4.298
 2581SOL    HW1 8642   6.416   6.438   4.273
 2581SOL    HW2 8643   6.300   6.402   4.383
 2582SOL     OW 8644   0.023   4.689   2.975
 2582SOL    HW1 8645   0.093   4.641   3.027
 2582SOL    HW2 8646   6.954   4.691   3.027
 2583SOL     OW 8647   2.975   1.160   0.070
 2583SOL    HW1 8648   2.959   1.256   0.045
 2583SOL    HW2 8649   2.891   1.108   0.059
 2584SOL     OW 8650   4.334   0.802   3.494
 2584SOL    HW1 8651   4.385   0.886   3.513
 2584SOL    HW2 8652   4.288   0.810   3.405
 2585SOL     OW 8653   4.015   0.981   2.059
 2585SOL    HW1 8654   3.920   1.006   2.043
 2585SOL    HW2 8655   4.024   0.881   2.059
 2586SOL     OW 8656   0.189   1.365   4.355
 2586SOL    HW1 8657   0.253   1.340   4.282
 2586SOL    HW2 8658   0.166   1.283   4.408
 2587SOL     OW 8659   6.907   5.300   2.840
 2587SOL    HW1 8660   6.953   5.219   2.876
 2587SOL    HW2 8661   6.861   5.348   2.915
 2588SOL     OW 8662   4.612   6.860   2.664
 2588SOL    HW1 8663   4.553   6.780   2.664
 2588SOL    HW2 8664   4.558   6.941   2.690
 2589SOL     OW 8665   4.375   6.104   1.456
 2589SOL    HW1 8666   4.411   6.082   1.365
 2589SOL    HW2 8667   4.381   6.023   1.515
 2590SOL     OW 8668   3.716   6.278   3.672
 2590SOL    HW1 8669   3.692   6.196   3.722
 2590SOL    HW2 8670   3.802   6.263   3.623
 2591SOL     OW 8671   6.195   0.484   0.666
 2591SOL    HW1 8672   6.281   0.444   0.633
 2591SOL    HW2 8673   6.199   0.583   0.657
 2592SOL     OW 8674   2.876   4.746   1.700
 2592SOL    HW1 8675   2.888   4.654   1.738
 2592SOL    HW2 8676   2.927   4.755   1.615
 2593SOL     OW 8677   3.556   0.088   3.456
 2593SOL    HW1 8678   3.637   0.031   3.472
 2593SOL    HW2 8679   3.521   0.121   3.543
 2594SOL     OW 8680   1.005   5.907   6.369
 2594SOL    HW1 8681   1.030   5.996   6.408
 2594SOL    HW2 8682   1.033   5.904   6.273
 2595SOL     OW 8683   6.786   2.762   4.086
 2595SOL    HW1 8684   6.811   2.826   4.014
 2595SOL    HW2 8685   6.790   2.808   4.175
 2596SOL     OW 8686   3.810   2.064   0.937
 2596SOL    HW1 8687   3.827   1.995   1.008
 2596SOL    HW2 8688   3.864   2.146   0.957
 2597SOL     OW 8689   2.199   2.421   6.312
 2597SOL    HW1 8690   2.109   2.451   6.279
 2597SOL    HW2 8691   2.270   2.453   6.250
 2598SOL     OW 8692   7.014   0.576   2.967
 2598SOL    HW1 8693   0.046   0.628   3.037
 2598SOL    HW2 8694   6.940   0.523   3.009
 2599SOL     OW 8695   4.959   5.721   6.655
 2599SOL    HW1 8696   4.891   5.710   6.583
 2599SOL    HW2 8697   4.980   5.632   6.695
 2600SOL     OW 8698   0.497   2.360   4.612
 2600SOL    HW1 8699   0.432   2.434   4.592
 2600SOL    HW2 8700   0.564   2.354   4.538
 2601SOL     OW 8701   4.168   3.716   4.997
 2601SOL    HW1 8702   4.229   3.789   4.967
 2601SOL    HW2 8703   4.088   3.712   4.937
 2602SOL     OW 8704   6.006   6.336   6.200
 2602SOL    HW1 8705   6.004   6.411   6.267
 2602SOL    HW2 8706   6.099   6.321   6.169
 2603SOL     OW 8707   1.208   2.266   6.626
 2603SOL    HW1 8708   1.249   2.214   6.551
 2603SOL    HW2 8709   1.148   2.337   6.588
 2604SOL     OW 8710   5.860   1.807   0.819
 2604SOL    HW1 8711   5.932   1.821   0.887
 2604SOL    HW2 8712   5.773   1.841   0.855
 2605SOL     OW 8713   6.191   3.500   4.476
 2605SOL    HW1 8714   6.196   3.496   4.376
 2605SOL    HW2 8715   6.214   3.592   4.506
 2606SOL     OW 8716   6.781   4.269   1.033
 2606SOL    HW1 8717   6.762   4.246   1.128
 2606SOL    HW2 8718   6.868   4.228   1.006
 2607SOL     OW 8719   1.293   1.545   4.265
 2607SOL    HW1 8720   1.259   1.608   4.194
 2607SOL    HW2 8721   1.328   1.598   4.342
 2608SOL     OW 8722   5.115   6.876   0.617
 2608SOL    HW1 8723   5.059   6.808   0.664
 2608SOL    HW2 8724   5.109   6.963   0.666
 2609SOL     OW 8725   0.789   2.695   3.408
 2609SOL    HW1 8726   0.814   2.760   3.336
 2609SOL    HW2 8727   0.825   2.604   3.384
 2610SOL     OW 8728   5.676   6.146   4.350
 2610SOL    HW1 8729   5.616   6.181   4.422
 2610SOL    HW2 8730   5.626   6.143   4.263
 2611SOL     OW 8731   2.675   5.360   1.937
 2611SOL    HW1 8732   2.708   5.440   1.986
 2611SOL    HW2 8733   2.578   5.346   1.956
 2612SOL     OW 8734   0.505   6.798   5.260
 2612SOL    HW1 8735   0.568   6.875   5.268
 2612SOL    HW2 8736   0.413   6.833   5.239
 2613SOL     OW 8737   3.491   0.899   0.895
 2613SOL    HW1 8738   3.514   0.804   0.917
 2613SOL    HW2 8739   3.572   0.956   0.905
 2614SOL     OW 8740   6.419   6.355   6.374
 2614SOL    HW1 8741   6.501   6.407   6.397
 2614SOL    HW2 8742   6.357   6.354   6.452
 2615SOL     OW 8743   5.771   4.385   1.354
 2615SOL    HW1 8744   5.770   4.291   1.390
 2615SOL    HW2 8745   5.744   4.448   1.427
 2616SOL     OW 8746   3.969   3.387   2.164
 2616SOL    HW1 8747   3.999   3.292   2.164
 2616SOL    HW2 8748   4.024   3.440   2.229
 2617SOL     OW 8749   2.633   6.770   1.137
 2617SOL    HW1 8750   2.572   6.840   1.173
 2617SOL    HW2 8751   2.580   6.694   1.100
 2618SOL     OW 8752   0.704   6.806   0.188
 2618SOL    HW1 8753   0.696   6.885   0.248
 2618SOL    HW2 8754   0.741   6.729   0.239
 2619SOL     OW 8755   6.161   1.536   1.272
 2619SOL    HW1 8756   6.082   1.476   1.289
 2619SOL    HW2 8757   6.234   1.513   1.336
 2620SOL     OW 8758   1.401   5.650   3.985
 2620SOL    HW1 8759   1.421   5.681   4.078
 2620SOL    HW2 8760   1.303   5.661   3.967
 2621SOL     OW 8761   0.595   5.289   4.013
 2621SOL    HW1 8762   0.508   5.315   3.971
 2621SOL    HW2 8763   0.594   5.191   4.032
 2622SOL     OW 8764   2.469   2.318   5.250
 2622SOL    HW1 8765   2.483   2.404   5.201
 2622SOL    HW2 8766   2.459   2.336   5.348
 2623SOL     OW 8767   3.357   0.173   6.442
 2623SOL    HW1 8768   3.343   0.212   6.533
 2623SOL    HW2 8769   3.350   0.073   6.447
 2624SOL     OW 8770   6.611   2.075   3.962
 2624SOL    HW1 8771   6.593   2.171   3.941
 2624SOL    HW2 8772   6.578   2.054   4.054
 2625SOL     OW 8773   3.698   0.285   5.875
 2625SOL    HW1 8774   3.731   0.377   5.851
 2625SOL    HW2 8775   3.656   0.243   5.795
 2626SOL     OW 8776   1.937   0.254   2.817
 2626SOL    HW1 8777   1.981   0.184   2.872
 2626SOL    HW2 8778   1.947   0.343   2.861
 2627SOL     OW 8779   0.701   0.613   5.020
 2627SOL    HW1 8780   0.793   0.636   4.990
 2627SOL    HW2 8781   0.642   0.694   5.012
 2628SOL     OW 8782   3.477   6.287   0.025
 2628SOL    HW1 8783   3.469   6.385   0.041
 2628SOL    HW2 8784   3.408   6.238   0.078
 2629SOL     OW 8785   2.895   3.651   1.584
 2629SOL    HW1 8786   2.950   3.734   1.579
 2629SOL    HW2 8787   2.953   3.572   1.565
 2630SOL     OW 8788   2.598   2.416   2.687
 2630SOL    HW1 8789   2.696   2.418   2.666
 2630SOL    HW2 8790   2.581   2.353   2.763
 2631SOL     OW 8791   4.019   6.110   4.598
 2631SOL    HW1 8792   3.921   6.097   4.587
 2631SOL    HW2 8793   4.054   6.166   4.523
 2632SOL     OW 8794   4.586   1.042   1.022
 2632SOL    HW1 8795   4.557   0.958   1.069
 2632SOL    HW2 8796   4.673   1.025   0.976
 2633SOL     OW 8797   6.935   2.718   6.759
 2633SOL    HW1 8798   6.848   2.698   6.804
 2633SOL    HW2 8799   7.009   2.710   6.825
 2634SOL     OW 8800   3.281   5.166   0.974
 2634SOL    HW1 8801   3.262   5.172   0.876
 2634SOL    HW2 8802   3.365   5.113   0.989
 2635SOL     OW 8803   6.444   4.543   3.494
 2635SOL    HW1 8804   6.431   4.502   3.404
 2635SOL    HW2 8805   6.357   4.542   3.544
 2636SOL     OW 8806   5.804   6.087   5.286
 2636SOL    HW1 8807   5.881   6.032   5.254
 2636SOL    HW2 8808   5.836   6.180   5.306
 2637SOL     OW 8809   5.340   6.380   2.383
 2637SOL    HW1 8810   5.385   6.360   2.296
 2637SOL    HW2 8811   5.406   6.422   2.445
 2638SOL     OW 8812   5.243   5.839   1.024
 2638SOL    HW1 8813   5.190   5.777   0.966
 2638SOL    HW2 8814   5.213   5.933   1.009
 2639SOL     OW 8815   6.879   6.385   6.248
 2639SOL    HW1 8816   6.813   6.453   6.279
 2639SOL    HW2 8817   6.959   6.386   6.308
 2640SOL     OW 8818   6.401   6.833   6.569
 2640SOL    HW1 8819   6.403   6.818   6.668
 2640SOL    HW2 8820   6.428   6.928   6.550
 2641SOL     OW 8821   6.368   5.602   0.399
 2641SOL    HW1 8822   6.444   5.656   0.363
 2641SOL    HW2 8823   6.379   5.593   0.498
 2642SOL     OW 8824   6.462   0.534   3.898
 2642SOL    HW1 8825   6.391   0.511   3.966
 2642SOL    HW2 8826   6.540   0.472   3.910
 2643SOL     OW 8827   2.474   0.242   2.227
 2643SOL    HW1 8828   2.426   0.204   2.148
 2643SOL    HW2 8829   2.411   0.297   2.282
 2644SOL     OW 8830   6.836   5.740   5.324
 2644SOL    HW1 8831   6.764   5.774   5.384
 2644SOL    HW2 8832   6.842   5.798   5.242
 2645SOL     OW 8833   5.752   5.672   6.168
 2645SOL    HW1 8834   5.799   5.759   6.149
 2645SOL    HW2 8835   5.760   5.612   6.088
 2646SOL     OW 8836   5.915   6.067   6.777
 2646SOL    HW1 8837   5.955   6.055   6.686
 2646SOL    HW2 8838   5.914   5.980   6.826
 2647SOL     OW 8839   3.179   3.445   0.254
 2647SOL    HW1 8840   3.242   3.426   0.178
 2647SOL    HW2 8841   3.110   3.372   0.258
 2648SOL     OW 8842   4.068   1.239   3.584
 2648SOL    HW1 8843   4.098   1.334   3.585
 2648SOL    HW2 8844   4.107   1.192   3.505
 2649SOL     OW 8845   3.075   3.340   5.466
 2649SOL    HW1 8846   2.978   3.326   5.487
 2649SOL    HW2 8847   3.127   3.259   5.494
 2650SOL     OW 8848   6.795   6.648   3.011
 2650SOL    HW1 8849   6.776   6.590   2.932
 2650SOL    HW2 8850   6.713   6.702   3.033
 2651SOL     OW 8851   0.930   0.084   3.648
 2651SOL    HW1 8852   1.006   0.143   3.619
 2651SOL    HW2 8853   0.850   0.141   3.668
 2652SOL     OW 8854   2.998   3.098   2.848
 2652SOL    HW1 8855   2.997   3.105   2.947
 2652SOL    HW2 8856   2.910   3.064   2.816
 2653SOL     OW 8857   7.017   6.199   0.225
 2653SOL    HW1 8858   6.959   6.280   0.224
 2653SOL    HW2 8859   0.084   6.219   0.275
 2654SOL     OW 8860   6.281   1.355   5.918
 2654SOL    HW1 8861   6.344   1.379   5.845
 2654SOL    HW2 8862   6.328   1.300   5.987
 2655SOL     OW 8863   5.406   5.151   4.799
 2655SOL    HW1 8864   5.340   5.181   4.868
 2655SOL    HW2 8865   5.491   5.202   4.810
 2656SOL     OW 8866   5.628   3.511   5.278
 2656SOL    HW1 8867   5.577   3.597   5.271
 2656SOL    HW2 8868   5.579   3.448   5.339
 2657SOL     OW 8869   3.244   2.025   5.934
 2657SOL    HW1 8870   3.314   2.092   5.909
 2657SOL    HW2 8871   3.163   2.038   5.878
 2658SOL     OW 8872   6.260   4.192   5.111
 2658SOL    HW1 8873   6.254   4.219   5.207
 2658SOL    HW2 8874   6.211   4.258   5.054
 2659SOL     OW 8875   6.662   1.373   3.679
 2659SOL    HW1 8876   6.671   1.284   3.634
 2659SOL    HW2 8877   6.674   1.362   3.777
 2660SOL     OW 8878   6.926   2.310   3.129
 2660SOL    HW1 8879   7.009   2.365   3.137
 2660SOL    HW2 8880   6.948   2.223   3.085
 2661SOL     OW 8881   3.613   6.910   2.577
 2661SOL    HW1 8882   3.519   6.933   2.552
 2661SOL    HW2 8883   3.668   6.900   2.494
 2662SOL     OW 8884   3.677   1.001   3.866
 2662SOL    HW1 8885   3.583   1.002   3.834
 2662SOL    HW2 8886   3.738   1.027   3.790
 2663SOL     OW 8887   0.333   4.263   2.857
 2663SOL    HW1 8888   0.263   4.203   2.819
 2663SOL    HW2 8889   0.402   4.282   2.787
 2664SOL     OW 8890   4.198   4.073   1.679
 2664SOL    HW1 8891   4.124   4.140   1.670
 2664SOL    HW2 8892   4.274   4.114   1.730
 2665SOL     OW 8893   4.830   0.363   4.490
 2665SOL    HW1 8894   4.905   0.425   4.470
 2665SOL    HW2 8895   4.748   0.415   4.514
 2666SOL     OW 8896   4.928   6.435   1.793
 2666SOL    HW1 8897   5.007   6.451   1.853
 2666SOL    HW2 8898   4.949   6.360   1.730
 2667SOL     OW 8899   2.165   5.151   3.014
 2667SOL    HW1 8900   2.100   5.217   2.979
 2667SOL    HW2 8901   2.157   5.065   2.963
 2668SOL     OW 8902   6.674   2.415   5.699
 2668SOL    HW1 8903   6.662   2.408   5.600
 2668SOL    HW2 8904   6.763   2.377   5.725
 2669SOL     OW 8905   4.254   5.613   5.299
 2669SOL    HW1 8906   4.312   5.532   5.300
 2669SOL    HW2 8907   4.237   5.642   5.205
 2670SOL     OW 8908   2.593   0.171   5.004
 2670SOL    HW1 8909   2.692   0.187   5.006
 2670SOL    HW2 8910   2.550   0.239   4.944
 2671SOL     OW 8911   3.159   4.530   6.229
 2671SOL    HW1 8912   3.179   4.433   6.211
 2671SOL    HW2 8913   3.171   4.582   6.145
 2672SOL     OW 8914   1.142   4.090   0.330
 2672SOL    HW1 8915   1.166   4.021   0.262
 2672SOL    HW2 8916   1.080   4.050   0.398
 2673SOL     OW 8917   4.144   2.187   3.735
 2673SOL    HW1 8918   4.208   2.263   3.743
 2673SOL    HW2 8919   4.059   2.209   3.784
 2674SOL     OW 8920   6.229   5.782   5.378
 2674SOL    HW1 8921   6.145   5.780   5.323
 2674SOL    HW2 8922   6.208   5.815   5.470
 2675SOL     OW 8923   0.664   4.336   5.170
 2675SOL    HW1 8924   0.668   4.237   5.155
 2675SOL    HW2 8925   0.576   4.360   5.211
 2676SOL     OW 8926   4.620   0.087   1.925
 2676SOL    HW1 8927   4.704   0.142   1.926
 2676SOL    HW2 8928   4.578   0.094   1.834
 2677SOL     OW 8929   2.416   4.477   2.401
 2677SOL    HW1 8930   2.337   4.532   2.430
 2677SOL    HW2 8931   2.440   4.501   2.307
 2678SOL     OW 8932   6.661   6.527   6.345
 2678SOL    HW1 8933   6.581   6.587   6.346
 2678SOL    HW2 8934   6.712   6.538   6.431
 2679SOL     OW 8935   2.564   5.277   1.440
 2679SOL    HW1 8936   2.584   5.189   1.483
 2679SOL    HW2 8937   2.578   5.270   1.341
 2680SOL     OW 8938   1.583   2.619   1.511
 2680SOL    HW1 8939   1.613   2.663   1.426
 2680SOL    HW2 8940   1.558   2.524   1.492
 2681SOL     OW 8941   1.860   1.754   2.133
 2681SOL    HW1 8942   1.818   1.788   2.217
 2681SOL    HW2 8943   1.860   1.826   2.064
 2682SOL     OW 8944   6.215   2.551   4.002
 2682SOL    HW1 8945   6.136   2.588   3.954
 2682SOL    HW2 8946   6.250   2.471   3.953
 2683SOL     OW 8947   1.374   0.314   0.505
 2683SOL    HW1 8948   1.297   0.371   0.478
 2683SOL    HW2 8949   1.345   0.249   0.576
 2684SOL     OW 8950   2.439   5.455   3.222
 2684SOL    HW1 8951   2.535   5.462   3.250
 2684SOL    HW2 8952   2.417   5.530   3.159
 2685SOL     OW 8953   5.292   5.914   5.244
 2685SOL    HW1 8954   5.202   5.955   5.232
 2685SOL    HW2 8955   5.363   5.980   5.218
 2686SOL     OW 8956   1.200   3.118   4.497
 2686SOL    HW1 8957   1.151   3.200   4.528
 2686SOL    HW2 8958   1.156   3.083   4.414
 2687SOL     OW 8959   4.769   4.450   3.448
 2687SOL    HW1 8960   4.671   4.437   3.457
 2687SOL    HW2 8961   4.792   4.546   3.463
 2688SOL     OW 8962   3.839   4.847   5.923
 2688SOL    HW1 8963   3.782   4.926   5.942
 2688SOL    HW2 8964   3.800   4.795   5.847
 2689SOL     OW 8965   0.117   3.126   4.061
 2689SOL    HW1 8966   0.063   3.087   4.136
 2689SOL    HW2 8967   0.109   3.067   3.980
 2690SOL     OW 8968   3.246   2.963   2.998
 2690SOL    HW1 8969   3.181   3.032   3.030
 2690SOL    HW2 8970   3.232   2.947   2.900
 2691SOL     OW 8971   1.137   6.037   1.910
 2691SOL    HW1 8972   1.187   6.103   1.854
 2691SOL    HW2 8973   1.092   5.970   1.851
 2692SOL     OW 8974   0.206   5.317   3.143
 2692SOL    HW1 8975   0.283   5.271   3.099
 2692SOL    HW2 8976   0.168   5.385   3.081
 2693SOL     OW 8977   1.674   3.453   3.079
 2693SOL    HW1 8978   1.598   3.433   3.141
 2693SOL    HW2 8979   1.721   3.536   3.110
 2694SOL     OW 8980   2.691   0.949   3.159
 2694SOL    HW1 8981   2.742   1.019   3.108
 2694SOL    HW2 8982   2.624   0.994   3.219
 2695SOL     OW 8983   4.158   2.306   2.490
 2695SOL    HW1 8984   4.153   2.313   2.590
 2695SOL    HW2 8985   4.091   2.239   2.458
 2696SOL     OW 8986   4.212   3.873   5.240
 2696SOL    HW1 8987   4.177   3.815   5.167
 2696SOL    HW2 8988   4.149   3.950   5.256
 2697SOL     OW 8989   2.836   1.767   4.625
 2697SOL    HW1 8990   2.887   1.696   4.674
 2697SOL    HW2 8991   2.803   1.835   4.690
 2698SOL     OW 8992   1.948   3.151   6.362
 2698SOL    HW1 8993   1.935   3.181   6.268
 2698SOL    HW2 8994   1.873   3.092   6.389
 2699SOL     OW 8995   2.570   6.044   2.839
 2699SOL    HW1 8996   2.616   5.997   2.915
 2699SOL    HW2 8997   2.577   5.989   2.756
 2700SOL     OW 8998   1.710   4.145   2.999
 2700SOL    HW1 8999   1.658   4.159   2.914
 2700SOL    HW2 9000   1.659   4.083   3.059
 2701SOL     OW 9001   3.644   0.371   5.316
 2701SOL    HW1 9002   3.663   0.438   5.244
 2701SOL    HW2 9003   3.620   0.419   5.401
 2702SOL     OW 9004   6.875   6.287   2.775
 2702SOL    HW1 9005   6.821   6.330   2.847
 2702SOL    HW2 9006   6.889   6.352   2.700
 2703SOL     OW 9007   1.542   1.869   3.322
 2703SOL    HW1 9008   1.619   1.835   3.377
 2703SOL    HW2 9009   1.569   1.874   3.226
 2704SOL     OW 9010   1.367   6.399   6.998
 2704SOL    HW1 9011   1.352   6.325   6.932
 2704SOL    HW2 9012   1.315   6.480   6.969
 2705SOL     OW 9013   0.207   4.006   2.839
 2705SOL    HW1 9014   0.241   3.977   2.749
 2705SOL    HW2 9015   0.107   4.000   2.839
 2706SOL     OW 9016   6.673   2.260   2.554
 2706SOL    HW1 9017   6.727   2.279   2.637
 2706SOL    HW2 9018   6.647   2.346   2.511
 2707SOL     OW 9019   2.403   1.436   5.839
 2707SOL    HW1 9020   2.430   1.344   5.809
 2707SOL    HW2 9021   2.317   1.430   5.890
 2708SOL     OW 9022   1.497   4.418   0.823
 2708SOL    HW1 9023   1.452   4.478   0.757
 2708SOL    HW2 9024   1.511   4.328   0.781
 2709SOL     OW 9025   4.234   6.727   1.523
 2709SOL    HW1 9026   4.155   6.676   1.556
 2709SOL    HW2 9027   4.317   6.692   1.568
 2710SOL     OW 9028   6.405   3.867   2.658
 2710SOL    HW1 9029   6.453   3.796   2.605
 2710SOL    HW2 9030   6.393   3.948   2.601
 2711SOL     OW 9031   1.233   6.891   2.337
 2711SOL    HW1 9032   1.330   6.888   2.360
 2711SOL    HW2 9033   1.215   6.967   2.275
 2712SOL     OW 9034   3.830   5.337   2.770
 2712SOL    HW1 9035   3.797   5.412   2.827
 2712SOL    HW2 9036   3.753   5.298   2.719
 2713SOL     OW 9037   2.224   2.424   5.055
 2713SOL    HW1 9038   2.215   2.460   5.148
 2713SOL    HW2 9039   2.313   2.450   5.018
 2714SOL     OW 9040   5.366   0.196   6.033
 2714SOL    HW1 9041   5.313   0.187   6.117
 2714SOL    HW2 9042   5.372   0.293   6.008
 2715SOL     OW 9043   5.899   7.000   0.373
 2715SOL    HW1 9044   5.832   6.926   0.371
 2715SOL    HW2 9045   5.876   0.050   0.303
 2716SOL     OW 9046   6.890   6.499   2.595
 2716SOL    HW1 9047   6.909   6.472   2.501
 2716SOL    HW2 9048   6.908   6.597   2.606
 2717SOL     OW 9049   0.513   0.097   3.337
 2717SOL    HW1 9050   0.599   0.063   3.375
 2717SOL    HW2 9051   0.492   0.048   3.252
 2718SOL     OW 9052   0.720   4.614   3.222
 2718SOL    HW1 9053   0.689   4.553   3.149
 2718SOL    HW2 9054   0.819   4.624   3.217
 2719SOL     OW 9055   4.312   4.668   2.784
 2719SOL    HW1 9056   4.288   4.648   2.879
 2719SOL    HW2 9057   4.410   4.659   2.771
 2720SOL     OW 9058   0.663   6.099   4.006
 2720SOL    HW1 9059   0.750   6.116   3.960
 2720SOL    HW2 9060   0.675   6.111   4.105
 2721SOL     OW 9061   5.179   6.612   3.927
 2721SOL    HW1 9062   5.266   6.652   3.956
 2721SOL    HW2 9063   5.182   6.513   3.940
 2722SOL     OW 9064   1.281   6.027   1.164
 2722SOL    HW1 9065   1.321   6.031   1.073
 2722SOL    HW2 9066   1.291   5.935   1.202
 2723SOL     OW 9067   2.348   1.750   4.570
 2723SOL    HW1 9068   2.296   1.778   4.650
 2723SOL    HW2 9069   2.315   1.799   4.489
 2724SOL     OW 9070   3.466   6.089   6.527
 2724SOL    HW1 9071   3.466   6.116   6.623
 2724SOL    HW2 9072   3.506   6.163   6.472
 2725SOL     OW 9073   2.543   4.776   3.535
 2725SOL    HW1 9074   2.478   4.801   3.607
 2725SOL    HW2 9075   2.493   4.739   3.457
 2726SOL     OW 9076   4.772   6.470   2.675
 2726SOL    HW1 9077   4.811   6.446   2.763
 2726SOL    HW2 9078   4.795   6.400   2.607
 2727SOL     OW 9079   1.983   5.505   3.376
 2727SOL    HW1 9080   1.890   5.467   3.386
 2727SOL    HW2 9081   2.041   5.471   3.450
 2728SOL     OW 9082   3.570   6.779   5.138
 2728SOL    HW1 9083   3.499   6.811   5.201
 2728SOL    HW2 9084   3.527   6.726   5.064
 2729SOL     OW 9085   6.937   4.742   2.500
 2729SOL    HW1 9086   6.990   4.804   2.442
 2729SOL    HW2 9087   6.880   4.795   2.562
 2730SOL     OW 9088   1.119   4.639   1.812
 2730SOL    HW1 9089   1.183   4.663   1.885
 2730SOL    HW2 9090   1.026   4.648   1.845
 2731SOL     OW 9091   3.101   3.633   1.070
 2731SOL    HW1 9092   3.017   3.653   1.021
 2731SOL    HW2 9093   3.080   3.610   1.165
 2732SOL     OW 9094   5.545   3.238   4.396
 2732SOL    HW1 9095   5.463   3.191   4.428
 2732SOL    HW2 9096   5.608   3.252   4.472
 2733SOL     OW 9097   2.282   0.476   5.931
 2733SOL    HW1 9098   2.381   0.465   5.921
 2733SOL    HW2 9099   2.255   0.452   6.025
 2734SOL     OW 9100   2.666   0.068   4.048
 2734SOL    HW1 9101   2.597   0.132   4.079
 2734SOL    HW2 9102   2.651   0.046   3.951
 2735SOL     OW 9103   1.269   5.137   1.112
 2735SOL    HW1 9104   1.203   5.209   1.092
 2735SOL    HW2 9105   1.352   5.178   1.151
 2736SOL     OW 9106   3.303   6.918   6.466
 2736SOL    HW1 9107   3.402   6.906   6.462
 2736SOL    HW2 9108   3.264   6.893   6.378
 2737SOL     OW 9109   4.339   3.238   5.673
 2737SOL    HW1 9110   4.326   3.303   5.599
 2737SOL    HW2 9111   4.316   3.281   5.760
 2738SOL     OW 9112   5.755   4.406   4.329
 2738SOL    HW1 9113   5.800   4.318   4.317
 2738SOL    HW2 9114   5.818   4.472   4.370
 2739SOL     OW 9115   4.949   4.162   0.267
 2739SOL    HW1 9116   4.994   4.105   0.335
 2739SOL    HW2 9117   4.870   4.113   0.229
 2740SOL     OW 9118   6.311   2.424   3.468
 2740SOL    HW1 9119   6.372   2.384   3.536
 2740SOL    HW2 9120   6.228   2.457   3.512
 2741SOL     OW 9121   1.681   2.988   4.700
 2741SOL    HW1 9122   1.752   3.008   4.767
 2741SOL    HW2 9123   1.626   3.070   4.684
 2742SOL     OW 9124   3.090   6.182   5.627
 2742SOL    HW1 9125   3.020   6.215   5.563
 2742SOL    HW2 9126   3.075   6.085   5.645
 2743SOL     OW 9127   6.127   4.570   0.447
 2743SOL    HW1 9128   6.083   4.613   0.368
 2743SOL    HW2 9129   6.066   4.500   0.484
 2744SOL     OW 9130   4.272   0.717   0.702
 2744SOL    HW1 9131   4.338   0.645   0.677
 2744SOL    HW2 9132   4.196   0.676   0.753
 2745SOL     OW 9133   1.999   5.775   1.162
 2745SOL    HW1 9134   1.901   5.762   1.178
 2745SOL    HW2 9135   2.020   5.873   1.163
 2746SOL     OW 9136   1.000   2.364   6.186
 2746SOL    HW1 9137   1.060   2.397   6.114
 2746SOL    HW2 9138   0.963   2.442   6.237
 2747SOL     OW 9139   5.466   5.659   3.968
 2747SOL    HW1 9140   5.487   5.738   4.026
 2747SOL    HW2 9141   5.528   5.659   3.889
 2748SOL     OW 9142   4.909   0.774   4.520
 2748SOL    HW1 9143   4.949   0.686   4.494
 2748SOL    HW2 9144   4.928   0.791   4.617
 2749SOL     OW 9145   5.012   4.381   3.724
 2749SOL    HW1 9146   4.938   4.370   3.790
 2749SOL    HW2 9147   5.020   4.299   3.668
 2750SOL     OW 9148   0.743   6.527   0.775
 2750SOL    HW1 9149   0.754   6.595   0.847
 2750SOL    HW2 9150   0.799   6.552   0.696
 2751SOL     OW 9151   1.951   0.331   6.883
 2751SOL    HW1 9152   2.046   0.360   6.871
 2751SOL    HW2 9153   1.928   0.334   6.981
 2752SOL     OW 9154   6.747   6.544   5.750
 2752SOL    HW1 9155   6.829   6.572   5.800
 2752SOL    HW2 9156   6.773   6.514   5.658
 2753SOL     OW 9157   3.460   5.144   5.360
 2753SOL    HW1 9158   3.451   5.073   5.290
 2753SOL    HW2 9159   3.556   5.157   5.382
 2754SOL     OW 9160   0.947   5.938   4.107
 2754SOL    HW1 9161   0.867   5.878   4.116
 2754SOL    HW2 9162   0.921   6.032   4.131
 2755SOL     OW 9163   4.547   5.613   2.647
 2755SOL    HW1 9164   4.453   5.637   2.625
 2755SOL    HW2 9165   4.610   5.660   2.585
 2756SOL     OW 9166   0.687   2.869   5.469
 2756SOL    HW1 9167   0.689   2.769   5.472
 2756SOL    HW2 9168   0.689   2.905   5.562
 2757SOL     OW 9169   4.769   3.930   6.846
 2757SOL    HW1 9170   4.730   3.995   6.781
 2757SOL    HW2 9171   4.696   3.869   6.879
 2758SOL     OW 9172   6.936   6.758   2.026
 2758SOL    HW1 9173   6.972   6.809   1.948
 2758SOL    HW2 9174   7.012   6.721   2.079
 2759SOL     OW 9175   3.240   3.506   5.313
 2759SOL    HW1 9176   3.179   3.447   5.367
 2759SOL    HW2 9177   3.261   3.588   5.365
 2760SOL     OW 9178   5.748   5.469   2.475
 2760SOL    HW1 9179   5.652   5.483   2.452
 2760SOL    HW2 9180   5.801   5.551   2.453
 2761SOL     OW 9181   1.589   3.352   3.413
 2761SOL    HW1 9182   1.672   3.404   3.433
 2761SOL    HW2 9183   1.559   3.304   3.496
 2762SOL     OW 9184   3.795   1.751   1.054
 2762SOL    HW1 9185   3.848   1.667   1.044
 2762SOL    HW2 9186   3.698   1.730   1.043
 2763SOL     OW 9187   5.895   1.539   3.693
 2763SOL    HW1 9188   5.955   1.613   3.724
 2763SOL    HW2 9189   5.807   1.544   3.741
 2764SOL     OW 9190   0.211   2.915   3.610
 2764SOL    HW1 9191   0.297   2.883   3.650
 2764SOL    HW2 9192   0.217   2.910   3.510
 2765SOL     OW 9193   6.273   6.153   5.629
 2765SOL    HW1 9194   6.236   6.228   5.684
 2765SOL    HW2 9195   6.361   6.125   5.666
 2766SOL     OW 9196   4.408   0.515   0.515
 2766SOL    HW1 9197   4.339   0.445   0.496
 2766SOL    HW2 9198   4.495   0.487   0.474
 2767SOL     OW 9199   0.570   5.506   6.331
 2767SOL    HW1 9200   0.510   5.475   6.258
 2767SOL    HW2 9201   0.578   5.434   6.401
 2768SOL     OW 9202   3.499   6.254   1.554
 2768SOL    HW1 9203   3.526   6.179   1.492
 2768SOL    HW2 9204   3.428   6.309   1.511
 2769SOL     OW 9205   0.367   4.477   5.472
 2769SOL    HW1 9206   0.411   4.391   5.494
 2769SOL    HW2 9207   0.388   4.545   5.542
 2770SOL     OW 9208   2.101   0.301   0.691
 2770SOL    HW1 9209   2.058   0.218   0.727
 2770SOL    HW2 9210   2.034   0.352   0.636
 2771SOL     OW 9211   4.628   6.650   5.547
 2771SOL    HW1 9212   4.561   6.614   5.482
 2771SOL    HW2 9213   4.718   6.656   5.503
 2772SOL     OW 9214   5.183   1.426   3.149
 2772SOL    HW1 9215   5.254   1.484   3.187
 2772SOL    HW2 9216   5.175   1.342   3.204
 2773SOL     OW 9217   5.920   2.357   5.609
 2773SOL    HW1 9218   5.842   2.319   5.659
 2773SOL    HW2 9219   5.977   2.282   5.574
 2774SOL     OW 9220   6.349   0.420   3.664
 2774SOL    HW1 9221   6.271   0.482   3.662
 2774SOL    HW2 9222   6.413   0.450   3.735
 2775SOL     OW 9223   0.061   2.392   4.712
 2775SOL    HW1 9224   0.124   2.353   4.645
 2775SOL    HW2 9225   0.035   2.484   4.683
 2776SOL     OW 9226   4.732   4.308   6.247
 2776SOL    HW1 9227   4.709   4.398   6.285
 2776SOL    HW2 9228   4.832   4.301   6.236
 2777SOL     OW 9229   2.094   2.440   6.600
 2777SOL    HW1 9230   2.013   2.481   6.643
 2777SOL    HW2 9231   2.066   2.390   6.519
 2778SOL     OW 9232   3.428   0.467   6.214
 2778SOL    HW1 9233   3.340   0.420   6.211
 2778SOL    HW2 9234   3.427   0.533   6.289
 2779SOL     OW 9235   5.119   1.133   1.811
 2779SOL    HW1 9236   5.128   1.107   1.907
 2779SOL    HW2 9237   5.029   1.105   1.777
 2780SOL     OW 9238   0.107   1.004   5.114
 2780SOL    HW1 9239   0.206   1.010   5.128
 2780SOL    HW2 9240   0.087   1.011   5.016
 2781SOL     OW 9241   6.939   0.300   3.284
 2781SOL    HW1 9242   6.914   0.325   3.378
 2781SOL    HW2 9243   0.014   0.335   3.264
 2782SOL     OW 9244   5.320   0.356   5.554
 2782SOL    HW1 9245   5.246   0.292   5.531
 2782SOL    HW2 9246   5.372   0.377   5.471
 2783SOL     OW 9247   5.579   2.937   1.707
 2783SOL    HW1 9248   5.561   2.960   1.803
 2783SOL    HW2 9249   5.548   3.012   1.649
 2784SOL     OW 9250   0.175   2.901   1.767
 2784SOL    HW1 9251   0.219   2.944   1.688
 2784SOL    HW2 9252   0.077   2.923   1.766
 2785SOL     OW 9253   5.114   3.746   2.850
 2785SOL    HW1 9254   5.137   3.773   2.757
 2785SOL    HW2 9255   5.016   3.756   2.864
 2786SOL     OW 9256   0.750   5.888   0.551
 2786SOL    HW1 9257   0.767   5.846   0.641
 2786SOL    HW2 9258   0.816   5.852   0.485
 2787SOL     OW 9259   0.389   5.789   6.065
 2787SOL    HW1 9260   0.345   5.865   6.018
 2787SOL    HW2 9261   0.414   5.718   5.999
 2788SOL     OW 9262   2.809   6.692   0.095
 2788SOL    HW1 9263   2.898   6.649   0.106
 2788SOL    HW2 9264   2.816   6.789   0.119
 2789SOL     OW 9265   1.623   2.138   4.299
 2789SOL    HW1 9266   1.612   2.225   4.250
 2789SOL    HW2 9267   1.629   2.063   4.233
 2790SOL     OW 9268   0.057   5.459   1.490
 2790SOL    HW1 9269   0.077   5.511   1.573
 2790SOL    HW2 9270   7.002   5.505   1.438
 2791SOL     OW 9271   0.698   3.483   5.016
 2791SOL    HW1 9272   0.651   3.396   5.000
 2791SOL    HW2 9273   0.723   3.524   4.928
 2792SOL     OW 9274   3.050   1.761   6.481
 2792SOL    HW1 9275   3.096   1.765   6.392
 2792SOL    HW2 9276   3.107   1.710   6.545
 2793SOL     OW 9277   3.354   3.660   6.696
 2793SOL    HW1 9278   3.313   3.721   6.764
 2793SOL    HW2 9279   3.426   3.709   6.647
 2794SOL     OW 9280   1.867   1.846   6.863
 2794SOL    HW1 9281   1.835   1.842   6.768
 2794SOL    HW2 9282   1.941   1.780   6.876
 2795SOL     OW 9283   1.329   6.616   1.046
 2795SOL    HW1 9284   1.310   6.519   1.034
 2795SOL    HW2 9285   1.291   6.667   0.968
 2796SOL     OW 9286   2.092   5.987   6.705
 2796SOL    HW1 9287   2.112   5.895   6.740
 2796SOL    HW2 9288   1.996   5.993   6.680
 2797SOL     OW 9289   4.839   4.003   4.098
 2797SOL    HW1 9290   4.930   4.032   4.070
 2797SOL    HW2 9291   4.804   4.065   4.169
 2798SOL     OW 9292   5.089   2.068   1.912
 2798SOL    HW1 9293   5.033   2.128   1.855
 2798SOL    HW2 9294   5.030   2.014   1.972
 2799SOL     OW 9295   3.505   6.408   5.335
 2799SOL    HW1 9296   3.515   6.439   5.240
 2799SOL    HW2 9297   3.472   6.484   5.391
 2800SOL     OW 9298   4.674   0.514   6.487
 2800SOL    HW1 9299   4.620   0.442   6.445
 2800SOL    HW2 9300   4.624   0.552   6.565
 2801SOL     OW 9301   0.484   4.440   3.566
 2801SOL    HW1 9302   0.515   4.469   3.656
 2801SOL    HW2 9303   0.386   4.460   3.557
 2802SOL     OW 9304   1.242   4.998   4.764
 2802SOL    HW1 9305   1.214   5.075   4.706
 2802SOL    HW2 9306   1.248   4.915   4.708
 2803SOL     OW 9307   3.677   2.153   6.597
 2803SOL    HW1 9308   3.752   2.182   6.538
 2803SOL    HW2 9309   3.680   2.204   6.683
 2804SOL     OW 9310   6.374   2.675   3.669
 2804SOL    HW1 9311   6.333   2.590   3.702
 2804SOL    HW2 9312   6.468   2.657   3.639
 2805SOL     OW 9313   4.069   4.568   0.535
 2805SOL    HW1 9314   4.083   4.611   0.446
 2805SOL    HW2 9315   3.997   4.499   0.528
 2806SOL     OW 9316   0.165   3.312   5.409
 2806SOL    HW1 9317   0.067   3.304   5.395
 2806SOL    HW2 9318   0.212   3.306   5.321
 2807SOL     OW 9319   4.758   1.373   4.004
 2807SOL    HW1 9320   4.717   1.412   4.086
 2807SOL    HW2 9321   4.706   1.292   3.976
 2808SOL     OW 9322   1.087   6.081   5.452
 2808SOL    HW1 9323   1.003   6.027   5.445
 2808SOL    HW2 9324   1.162   6.031   5.409
 2809SOL     OW 9325   0.747   5.958   1.200
 2809SOL    HW1 9326   0.731   6.012   1.118
 2809SOL    HW2 9327   0.846   5.943   1.212
 2810SOL     OW 9328   0.806   6.017   2.949
 2810SOL    HW1 9329   0.871   5.969   2.889
 2810SOL    HW2 9330   0.833   6.113   2.957
 2811SOL     OW 9331   0.506   1.149   0.812
 2811SOL    HW1 9332   0.574   1.210   0.772
 2811SOL    HW2 9333   0.488   1.177   0.907
 2812SOL     OW 9334   1.497   1.397   0.897
 2812SOL    HW1 9335   1.590   1.363   0.906
 2812SOL    HW2 9336   1.498   1.487   0.854
 2813SOL     OW 9337   0.010   2.406   0.955
 2813SOL    HW1 9338   6.958   2.438   1.019
 2813SOL    HW2 9339   0.099   2.403   1.000
 2814SOL     OW 9340   2.923   4.462   6.706
 2814SOL    HW1 9341   2.988   4.474   6.631
 2814SOL    HW2 9342   2.852   4.533   6.701
 2815SOL     OW 9343   6.941   5.288   4.426
 2815SOL    HW1 9344   6.931   5.195   4.389
 2815SOL    HW2 9345   0.020   5.306   4.444
 2816SOL     OW 9346   1.111   5.060   5.057
 2816SOL    HW1 9347   1.155   5.110   4.983
 2816SOL    HW2 9348   1.031   5.012   5.021
 2817SOL     OW 9349   2.615   0.865   2.318
 2817SOL    HW1 9350   2.652   0.880   2.409
 2817SOL    HW2 9351   2.643   0.775   2.285
 2818SOL     OW 9352   1.432   1.063   0.052
 2818SOL    HW1 9353   1.365   1.009   0.101
 2818SOL    HW2 9354   1.443   1.152   0.097
 2819SOL     OW 9355   0.529   0.253   6.758
 2819SOL    HW1 9356   0.581   0.310   6.695
 2819SOL    HW2 9357   0.587   0.225   6.835
 2820SOL     OW 9358   2.194   1.911   6.644
 2820SOL    HW1 9359   2.135   1.832   6.663
 2820SOL    HW2 9360   2.196   1.928   6.545
 2821SOL     OW 9361   3.156   2.607   5.903
 2821SOL    HW1 9362   3.142   2.521   5.855
 2821SOL    HW2 9363   3.073   2.631   5.954
 2822SOL     OW 9364   4.199   2.758   0.655
 2822SOL    HW1 9365   4.204   2.697   0.733
 2822SOL    HW2 9366   4.255   2.722   0.581
 2823SOL     OW 9367   5.589   3.771   1.882
 2823SOL    HW1 9368   5.618   3.739   1.973
 2823SOL    HW2 9369   5.601   3.698   1.815
 2824SOL     OW 9370   0.734   4.295   5.524
 2824SOL    HW1 9371   0.648   4.338   5.550
 2824SOL    HW2 9372   0.720   4.197   5.509
 2825SOL     OW 9373   5.331   2.148   5.871
 2825SOL    HW1 9374   5.292   2.167   5.781
 2825SOL    HW2 9375   5.299   2.217   5.936
 2826SOL     OW 9376   2.626   3.585   6.805
 2826SOL    HW1 9377   2.668   3.495   6.796
 2826SOL    HW2 9378   2.529   3.579   6.780
 2827SOL     OW 9379   5.614   1.690   6.853
 2827SOL    HW1 9380   5.558   1.645   6.923
 2827SOL    HW2 9381   5.668   1.621   6.805
 2828SOL     OW 9382   1.032   4.401   1.096
 2828SOL    HW1 9383   1.125   4.425   1.069
 2828SOL    HW2 9384   0.980   4.484   1.117
 2829SOL     OW 9385   3.471   3.596   1.872
 2829SOL    HW1 9386   3.561   3.557   1.850
 2829SOL    HW2 9387   3.484   3.681   1.922
 2830SOL     OW 9388   3.302   5.799   4.751
 2830SOL    HW1 9389   3.258   5.742   4.681
 2830SOL    HW2 9390   3.370   5.858   4.707
 2831SOL     OW 9391   6.654   1.657   2.100
 2831SOL    HW1 9392   6.608   1.576   2.064
 2831SOL    HW2 9393   6.674   1.643   2.197
 2832SOL     OW 9394   1.281   3.476   2.130
 2832SOL    HW1 9395   1.323   3.408   2.190
 2832SOL    HW2 9396   1.334   3.483   2.045
 2833SOL     OW 9397   6.785   2.695   2.804
 2833SOL    HW1 9398   6.775   2.766   2.734
 2833SOL    HW2 9399   6.841   2.620   2.767
 2834SOL     OW 9400   3.804   0.475   4.335
 2834SOL    HW1 9401   3.769   0.569   4.328
 2834SOL    HW2 9402   3.895   0.477   4.376
 2835SOL     OW 9403   6.865   1.152   6.820
 2835SOL    HW1 9404   6.956   1.159   6.861
 2835SOL    HW2 9405   6.808   1.091   6.875
 2836SOL     OW 9406   2.929   5.560   2.293
 2836SOL    HW1 9407   2.968   5.609   2.371
 2836SOL    HW2 9408   2.996   5.557   2.219
 2837SOL     OW 9409   5.436   4.263   2.009
 2837SOL    HW1 9410   5.435   4.281   2.107
 2837SOL    HW2 9411   5.395   4.174   1.990
 2838SOL     OW 9412   6.994   3.550   6.142
 2838SOL    HW1 9413   6.960   3.456   6.153
 2838SOL    HW2 9414   6.918   3.610   6.116
 2839SOL     OW 9415   6.047   2.758   6.349
 2839SOL    HW1 9416   6.065   2.829   6.281
 2839SOL    HW2 9417   5.961   2.778   6.396
 2840SOL     OW 9418   5.790   6.435   4.875
 2840SOL    HW1 9419   5.704   6.406   4.917
 2840SOL    HW2 9420   5.776   6.455   4.779
 2841SOL     OW 9421   5.543   3.942   2.746
 2841SOL    HW1 9422   5.497   3.985   2.668
 2841SOL    HW2 9423   5.480   3.881   2.793
 2842SOL     OW 9424   0.851   6.797   3.296
 2842SOL    HW1 9425   0.830   6.862   3.369
 2842SOL    HW2 9426   0.780   6.801   3.226
 2843SOL     OW 9427   2.332   2.797   4.312
 2843SOL    HW1 9428   2.339   2.793   4.411
 2843SOL    HW2 9429   2.384   2.721   4.271
 2844SOL     OW 9430   5.229   3.684   0.564
 2844SOL    HW1 9431   5.314   3.633   0.559
 2844SOL    HW2 9432   5.203   3.696   0.660
 2845SOL     OW 9433   3.029   1.797   1.603
 2845SOL    HW1 9434   3.002   1.882   1.648
 2845SOL    HW2 9435   3.081   1.740   1.668
 2846SOL     OW 9436   5.377   6.661   6.780
 2846SOL    HW1 9437   5.385   6.686   6.684
 2846SOL    HW2 9438   5.421   6.731   6.836
 2847SOL     OW 9439   5.141   5.181   1.150
 2847SOL    HW1 9440   5.074   5.254   1.152
 2847SOL    HW2 9441   5.209   5.194   1.222
 2848SOL     OW 9442   0.711   3.790   6.609
 2848SOL    HW1 9443   0.717   3.706   6.554
 2848SOL    HW2 9444   0.758   3.864   6.561
 2849SOL     OW 9445   5.317   0.567   1.497
 2849SOL    HW1 9446   5.326   0.537   1.592
 2849SOL    HW2 9447   5.238   0.522   1.456
 2850SOL     OW 9448   0.864   1.091   1.611
 2850SOL    HW1 9449   0.907   1.048   1.691
 2850SOL    HW2 9450   0.917   1.172   1.584
 2851SOL     OW 9451   3.659   3.022   1.739
 2851SOL    HW1 9452   3.611   3.065   1.662
 2851SOL    HW2 9453   3.754   3.005   1.712
 2852SOL     OW 9454   0.334   5.144   5.470
 2852SOL    HW1 9455   0.434   5.153   5.475
 2852SOL    HW2 9456   0.295   5.229   5.435
 2853SOL     OW 9457   0.251   4.295   4.922
 2853SOL    HW1 9458   0.337   4.338   4.895
 2853SOL    HW2 9459   0.185   4.300   4.846
 2854SOL     OW 9460   2.933   0.428   6.287
 2854SOL    HW1 9461   2.838   0.456   6.272
 2854SOL    HW2 9462   2.995   0.500   6.253
 2855SOL     OW 9463   2.079   1.587   4.027
 2855SOL    HW1 9464   2.175   1.567   4.003
 2855SOL    HW2 9465   2.077   1.647   4.106
 2856SOL     OW 9466   1.004   5.497   4.539
 2856SOL    HW1 9467   0.992   5.594   4.559
 2856SOL    HW2 9468   1.060   5.486   4.456
 2857SOL     OW 9469   6.637   4.094   0.836
 2857SOL    HW1 9470   6.650   3.999   0.864
 2857SOL    HW2 9471   6.658   4.155   0.913
 2858SOL     OW 9472   5.907   4.556   3.392
 2858SOL    HW1 9473   5.897   4.457   3.398
 2858SOL    HW2 9474   5.847   4.592   3.321
 2859SOL     OW 9475   5.978   4.944   1.297
 2859SOL    HW1 9476   6.042   5.015   1.327
 2859SOL    HW2 9477   6.028   4.869   1.254
 2860SOL     OW 9478   1.080   6.952   3.065
 2860SOL    HW1 9479   1.081   6.873   3.127
 2860SOL    HW2 9480   1.147   0.002   3.097
 2861SOL     OW 9481   5.240   4.128   5.665
 2861SOL    HW1 9482   5.214   4.141   5.570
 2861SOL    HW2 9483   5.179   4.062   5.708
 2862SOL     OW 9484   4.315   0.987   0.779
 2862SOL    HW1 9485   4.410   1.017   0.782
 2862SOL    HW2 9486   4.309   0.896   0.739
 2863SOL     OW 9487   5.822   2.464   5.370
 2863SOL    HW1 9488   5.892   2.442   5.439
 2863SOL    HW2 9489   5.787   2.556   5.387
 2864SOL     OW 9490   4.182   4.183   1.104
 2864SOL    HW1 9491   4.187   4.083   1.100
 2864SOL    HW2 9492   4.094   4.214   1.069
 2865SOL     OW 9493   5.421   5.205   5.829
 2865SOL    HW1 9494   5.520   5.207   5.844
 2865SOL    HW2 9495   5.391   5.292   5.790
 2866SOL     OW 9496   3.529   4.733   1.126
 2866SOL    HW1 9497   3.529   4.635   1.149
 2866SOL    HW2 9498   3.578   4.747   1.040
 2867SOL     OW 9499   6.813   5.989   2.713
 2867SOL    HW1 9500   6.903   5.946   2.708
 2867SOL    HW2 9501   6.822   6.088   2.703
 2868SOL     OW 9502   0.261   6.917   5.199
 2868SOL    HW1 9503   0.267   6.941   5.102
 2868SOL    HW2 9504   0.214   6.990   5.248
 2869SOL     OW 9505   5.944   4.587   4.886
 2869SOL    HW1 9506   5.920   4.565   4.791
 2869SOL    HW2 9507   5.870   4.639   4.928
 2870SOL     OW 9508   1.034   1.311   1.557
 2870SOL    HW1 9509   1.058   1.399   1.597
 2870SOL    HW2 9510   1.035   1.318   1.457
 2871SOL     OW 9511   4.656   1.268   3.357
 2871SOL    HW1 9512   4.639   1.345   3.295
 2871SOL    HW2 9513   4.753   1.265   3.380
 2872SOL     OW 9514   3.025   1.919   2.317
 2872SOL    HW1 9515   2.967   1.845   2.282
 2872SOL    HW2 9516   3.035   1.990   2.247
 2873SOL     OW 9517   0.944   0.154   2.342
 2873SOL    HW1 9518   1.020   0.111   2.390
 2873SOL    HW2 9519   0.864   0.156   2.402
 2874SOL     OW 9520   2.071   1.560   3.468
 2874SOL    HW1 9521   2.156   1.606   3.442
 2874SOL    HW2 9522   2.001   1.579   3.398
 2875SOL     OW 9523   2.449   7.011   3.492
 2875SOL    HW1 9524   2.478   0.015   3.585
 2875SOL    HW2 9525   2.349   7.001   3.490
 2876SOL     OW 9526   1.190   6.376   0.983
 2876SOL    HW1 9527   1.259   6.354   0.914
 2876SOL    HW2 9528   1.108   6.321   0.967
 2877SOL     OW 9529   1.861   3.018   4.920
 2877SOL    HW1 9530   1.951   2.983   4.894
 2877SOL    HW2 9531   1.839   2.986   5.012
 2878SOL     OW 9532   3.737   2.913   4.870
 2878SOL    HW1 9533   3.777   3.001   4.898
 2878SOL    HW2 9534   3.641   2.909   4.898
 2879SOL     OW 9535   5.130   5.161   6.916
 2879SOL    HW1 9536   5.097   5.245   6.960
 2879SOL    HW2 9537   5.195   5.186   6.843
 2880SOL     OW 9538   1.336   2.133   3.346
 2880SOL    HW1 9539   1.310   2.044   3.308
 2880SOL    HW2 9540   1.254   2.179   3.381
 2881SOL     OW 9541   5.304   5.151   0.805
 2881SOL    HW1 9542   5.262   5.086   0.867
 2881SOL    HW2 9543   5.298   5.243   0.844
 2882SOL     OW 9544   4.151   6.661   6.900
 2882SOL    HW1 9545   4.209   6.737   6.869
 2882SOL    HW2 9546   4.129   6.673   6.997
 2883SOL     OW 9547   5.671   6.267   3.509
 2883SOL    HW1 9548   5.748   6.331   3.511
 2883SOL    HW2 9549   5.585   6.317   3.516
 2884SOL     OW 9550   6.002   5.518   3.707
 2884SOL    HW1 9551   6.024   5.505   3.611
 2884SOL    HW2 9552   6.052   5.451   3.762
 2885SOL     OW 9553   0.476   2.889   3.691
 2885SOL    HW1 9554   0.483   2.796   3.728
 2885SOL    HW2 9555   0.568   2.923   3.670
 2886SOL     OW 9556   2.391   4.502   5.107
 2886SOL    HW1 9557   2.354   4.477   5.017
 2886SOL    HW2 9558   2.349   4.445   5.178
 2887SOL     OW 9559   6.771   5.461   2.677
 2887SOL    HW1 9560   6.821   5.393   2.730
 2887SOL    HW2 9561   6.675   5.463   2.706
 2888SOL     OW 9562   5.111   6.713   6.844
 2888SOL    HW1 9563   5.088   6.721   6.941
 2888SOL    HW2 9564   5.210   6.704   6.833
 2889SOL     OW 9565   4.785   6.490   4.489
 2889SOL    HW1 9566   4.879   6.526   4.490
 2889SOL    HW2 9567   4.786   6.393   4.514
 2890SOL     OW 9568   1.247   2.373   0.346
 2890SOL    HW1 9569   1.240   2.286   0.396
 2890SOL    HW2 9570   1.271   2.446   0.410
 2891SOL     OW 9571   0.877   1.224   5.385
 2891SOL    HW1 9572   0.797   1.284   5.379
 2891SOL    HW2 9573   0.952   1.271   5.430
 2892SOL     OW 9574   5.686   4.651   2.126
 2892SOL    HW1 9575   5.684   4.600   2.040
 2892SOL    HW2 9576   5.713   4.745   2.108
 2893SOL     OW 9577   6.718   5.309   4.826
 2893SOL    HW1 9578   6.710   5.218   4.867
 2893SOL    HW2 9579   6.713   5.301   4.727
 2894SOL     OW 9580   1.534   5.470   0.960
 2894SOL    HW1 9581   1.530   5.446   0.863
 2894SOL    HW2 9582   1.503   5.393   1.015
 2895SOL     OW 9583   4.740   6.517   6.085
 2895SOL    HW1 9584   4.823   6.572   6.071
 2895SOL    HW2 9585   4.681   6.562   6.152
 2896SOL     OW 9586   6.330   0.391   4.953
 2896SOL    HW1 9587   6.235   0.387   4.922
 2896SOL    HW2 9588   6.363   0.298   4.973
 2897SOL     OW 9589   3.486   5.542   3.390
 2897SOL    HW1 9590   3.438   5.461   3.422
 2897SOL    HW2 9591   3.453   5.567   3.299
 2898SOL     OW 9592   5.351   2.946   3.366
 2898SOL    HW1 9593   5.423   3.009   3.337
 2898SOL    HW2 9594   5.331   2.882   3.292
 2899SOL     OW 9595   6.366   3.246   0.925
 2899SOL    HW1 9596   6.305   3.186   0.872
 2899SOL    HW2 9597   6.310   3.311   0.977
 2900SOL     OW 9598   2.636   2.664   5.781
 2900SOL    HW1 9599   2.698   2.742   5.794
 2900SOL    HW2 9600   2.611   2.659   5.684
 2901SOL     OW 9601   1.197   3.857   2.501
 2901SOL    HW1 9602   1.171   3.788   2.433
 2901SOL    HW2 9603   1.117   3.913   2.523
 2902SOL     OW 9604   5.794   6.060   3.605
 2902SOL    HW1 9605   5.748   6.133   3.555
 2902SOL    HW2 9606   5.742   6.038   3.688
 2903SOL     OW 9607   6.784   5.003   0.272
 2903SOL    HW1 9608   6.833   5.090   0.271
 2903SOL    HW2 9609   6.841   4.933   0.316
 2904SOL     OW 9610   2.617   4.889   4.913
 2904SOL    HW1 9611   2.538   4.931   4.957
 2904SOL    HW2 9612   2.694   4.890   4.977
 2905SOL     OW 9613   0.811   5.218   1.474
 2905SOL    HW1 9614   0.906   5.201   1.447
 2905SOL    HW2 9615   0.790   5.167   1.557
 2906SOL     OW 9616   0.119   6.132   5.776
 2906SOL    HW1 9617   0.041   6.134   5.839
 2906SOL    HW2 9618   0.098   6.188   5.696
 2907SOL     OW 9619   0.173   0.856   5.525
 2907SOL    HW1 9620   0.270   0.831   5.529
 2907SOL    HW2 9621   0.117   0.778   5.555
 2908SOL     OW 9622   4.905   6.773   3.944
 2908SOL    HW1 9623   4.900   6.677   3.969
 2908SOL    HW2 9624   4.816   6.816   3.958
 2909SOL     OW 9625   6.888   0.149   1.867
 2909SOL    HW1 9626   6.948   0.229   1.873
 2909SOL    HW2 9627   6.828   0.147   1.947
 2910SOL     OW 9628   1.135   0.865   4.446
 2910SOL    HW1 9629   1.209   0.802   4.421
 2910SOL    HW2 9630   1.136   0.944   4.385
 2911SOL     OW 9631   0.225   3.774   5.425
 2911SOL    HW1 9632   0.233   3.793   5.327
 2911SOL    HW2 9633   0.300   3.714   5.453
 2912SOL     OW 9634   0.784   1.940   2.267
 2912SOL    HW1 9635   0.699   1.965   2.221
 2912SOL    HW2 9636   0.861   1.955   2.205
 2913SOL     OW 9637   1.077   6.566   2.705
 2913SOL    HW1 9638   1.064   6.510   2.623
 2913SOL    HW2 9639   1.134   6.646   2.682
 2914SOL     OW 9640   3.900   4.397   1.266
 2914SOL    HW1 9641   3.942   4.332   1.330
 2914SOL    HW2 9642   3.815   4.433   1.306
 2915SOL     OW 9643   2.223   0.562   3.869
 2915SOL    HW1 9644   2.309   0.536   3.913
 2915SOL    HW2 9645   2.214   0.661   3.867
 2916SOL     OW 9646   0.874   5.485   6.807
 2916SOL    HW1 9647   0.820   5.420   6.859
 2916SOL    HW2 9648   0.907   5.442   6.723
 2917SOL     OW 9649   2.638   0.054   3.299
 2917SOL    HW1 9650   2.654   0.150   3.278
 2917SOL    HW2 9651   2.566   0.046   3.368
 2918SOL     OW 9652   4.976   2.515   1.555
 2918SOL    HW1 9653   4.900   2.577   1.541
 2918SOL    HW2 9654   5.010   2.525   1.649
 2919SOL     OW 9655   0.570   6.119   4.994
 2919SOL    HW1 9656   0.624   6.201   5.013
 2919SOL    HW2 9657   0.616   6.064   4.925
 2920SOL     OW 9658   2.906   2.031   1.700
 2920SOL    HW1 9659   2.974   2.101   1.719
 2920SOL    HW2 9660   2.869   2.043   1.608
 2921SOL     OW 9661   0.969   6.578   3.516
 2921SOL    HW1 9662   0.977   6.671   3.553
 2921SOL    HW2 9663   1.052   6.556   3.465
 2922SOL     OW 9664   3.923   4.928   3.817
 2922SOL    HW1 9665   3.826   4.909   3.804
 2922SOL    HW2 9666   3.936   4.990   3.895
 2923SOL     OW 9667   1.166   5.451   4.327
 2923SOL    HW1 9668   1.163   5.373   4.265
 2923SOL    HW2 9669   1.244   5.443   4.388
 2924SOL     OW 9670   5.240   1.558   6.186
 2924SOL    HW1 9671   5.160   1.603   6.147
 2924SOL    HW2 9672   5.271   1.609   6.267
 2925SOL     OW 9673   5.448   6.734   4.638
 2925SOL    HW1 9674   5.456   6.777   4.728
 2925SOL    HW2 9675   5.520   6.768   4.578
 2926SOL     OW 9676   6.740   2.573   4.461
 2926SOL    HW1 9677   6.789   2.659   4.443
 2926SOL    HW2 9678   6.771   2.535   4.548
 2927SOL     OW 9679   1.056   1.726   2.437
 2927SOL    HW1 9680   0.982   1.775   2.483
 2927SOL    HW2 9681   1.092   1.656   2.498
 2928SOL     OW 9682   5.349   3.146   0.534
 2928SOL    HW1 9683   5.388   3.167   0.624
 2928SOL    HW2 9684   5.293   3.223   0.503
 2929SOL     OW 9685   2.613   1.315   3.181
 2929SOL    HW1 9686   2.590   1.409   3.156
 2929SOL    HW2 9687   2.538   1.254   3.158
 2930SOL     OW 9688   0.334   3.475   4.167
 2930SOL    HW1 9689   0.308   3.424   4.249
 2930SOL    HW2 9690   0.295   3.567   4.172
 2931SOL     OW 9691   5.984   4.679   5.884
 2931SOL    HW1 9692   5.909   4.689   5.948
 2931SOL    HW2 9693   5.958   4.613   5.813
 2932SOL     OW 9694   6.320   5.540   1.224
 2932SOL    HW1 9695   6.274   5.613   1.173
 2932SOL    HW2 9696   6.360   5.475   1.160
 2933SOL     OW 9697   0.985   0.299   6.953
 2933SOL    HW1 9698   1.034   0.377   6.914
 2933SOL    HW2 9699   0.914   0.332   7.015
 2934SOL     OW 9700   5.173   5.288   1.767
 2934SOL    HW1 9701   5.270   5.264   1.768
 2934SOL    HW2 9702   5.151   5.338   1.851
 2935SOL     OW 9703   0.714   3.413   5.581
 2935SOL    HW1 9704   0.799   3.376   5.542
 2935SOL    HW2 9705   0.636   3.366   5.541
 2936SOL     OW 9706   4.507   6.669   2.345
 2936SOL    HW1 9707   4.600   6.670   2.309
 2936SOL    HW2 9708   4.445   6.632   2.275
 2937SOL     OW 9709   6.077   3.746   3.233
 2937SOL    HW1 9710   6.175   3.750   3.254
 2937SOL    HW2 9711   6.065   3.733   3.134
 2938SOL     OW 9712   0.367   4.971   0.075
 2938SOL    HW1 9713   0.389   4.874   0.064
 2938SOL    HW2 9714   0.277   4.981   0.118
 2939SOL     OW 9715   6.854   6.070   1.693
 2939SOL    HW1 9716   6.778   6.056   1.756
 2939SOL    HW2 9717   6.897   5.982   1.674
 2940SOL     OW 9718   4.561   6.422   4.317
 2940SOL    HW1 9719   4.639   6.451   4.372
 2940SOL    HW2 9720   4.564   6.467   4.228
 2941SOL     OW 9721   2.791   4.871   3.138
 2941SOL    HW1 9722   2.694   4.858   3.115
 2941SOL    HW2 9723   2.810   4.831   3.227
 2942SOL     OW 9724   3.425   2.087   1.911
 2942SOL    HW1 9725   3.506   2.134   1.945
 2942SOL    HW2 9726   3.436   2.069   1.813
 2943SOL     OW 9727   6.642   3.477   3.704
 2943SOL    HW1 9728   6.570   3.426   3.658
 2943SOL    HW2 9729   6.706   3.414   3.747
 2944SOL     OW 9730   1.679   6.168   2.993
 2944SOL    HW1 9731   1.598   6.142   2.941
 2944SOL    HW2 9732   1.743   6.216   2.933
 2945SOL     OW 9733   5.713   3.617   1.613
 2945SOL    HW1 9734   5.674   3.559   1.685
 2945SOL    HW2 9735   5.725   3.564   1.530
 2946SOL     OW 9736   3.348   2.882   4.652
 2946SOL    HW1 9737   3.285   2.957   4.670
 2946SOL    HW2 9738   3.297   2.800   4.627
 2947SOL     OW 9739   6.279   5.215   0.411
 2947SOL    HW1 9740   6.374   5.220   0.379
 2947SOL    HW2 9741   6.268   5.273   0.491
 2948SOL     OW 9742   6.752   4.142   1.286
 2948SOL    HW1 9743   6.688   4.065   1.278
 2948SOL    HW2 9744   6.846   4.108   1.282
 2949SOL     OW 9745   1.353   6.671   0.736
 2949SOL    HW1 9746   1.381   6.727   0.658
 2949SOL    HW2 9747   1.287   6.721   0.792
 2950SOL     OW 9748   5.918   5.778   2.586
 2950SOL    HW1 9749   5.960   5.853   2.637
 2950SOL    HW2 9750   5.954   5.691   2.620
 2951SOL     OW 9751   0.817   2.487   0.991
 2951SOL    HW1 9752   0.759   2.419   0.945
 2951SOL    HW2 9753   0.901   2.443   1.023
 2952SOL     OW 9754   0.063   1.564   4.223
 2952SOL    HW1 9755   0.019   1.619   4.294
 2952SOL    HW2 9756   0.069   1.469   4.253
 2953SOL     OW 9757   1.911   6.425   3.357
 2953SOL    HW1 9758   1.898   6.442   3.455
 2953SOL    HW2 9759   1.997   6.464   3.328
 2954SOL     OW 9760   0.703   4.251   5.950
 2954SOL    HW1 9761   0.656   4.166   5.975
 2954SOL    HW2 9762   0.644   4.303   5.888
 2955SOL     OW 9763   1.701   4.741   6.606
 2955SOL    HW1 9764   1.767   4.671   6.631
 2955SOL    HW2 9765   1.698   4.811   6.678
 2956SOL     OW 9766   5.375   4.150   4.569
 2956SOL    HW1 9767   5.397   4.230   4.624
 2956SOL    HW2 9768   5.277   4.133   4.572
 2957SOL     OW 9769   2.317   5.560   1.727
 2957SOL    HW1 9770   2.365   5.528   1.646
 2957SOL    HW2 9771   2.226   5.594   1.702
 2958SOL     OW 9772   1.298   4.776   2.340
 2958SOL    HW1 9773   1.327   4.750   2.432
 2958SOL    HW2 9774   1.365   4.742   2.273
 2959SOL     OW 9775   0.201   4.192   3.947
 2959SOL    HW1 9776   0.268   4.185   4.021
 2959SOL    HW2 9777   0.149   4.277   3.957
 2960SOL     OW 9778   4.661   6.289   1.112
 2960SOL    HW1 9779   4.660   6.356   1.187
 2960SOL    HW2 9780   4.601   6.212   1.135
 2961SOL     OW 9781   5.298   2.828   1.834
 2961SOL    HW1 9782   5.323   2.837   1.930
 2961SOL    HW2 9783   5.381   2.835   1.777
 2962SOL     OW 9784   0.041   0.038   3.666
 2962SOL    HW1 9785   6.959   0.025   3.660
 2962SOL    HW2 9786   0.080   0.042   3.574
 2963SOL     OW 9787   1.796   0.723   4.973
 2963SOL    HW1 9788   1.785   0.628   5.004
 2963SOL    HW2 9789   1.893   0.746   4.970
 2964SOL     OW 9790   1.579   0.258   6.563
 2964SOL    HW1 9791   1.636   0.188   6.519
 2964SOL    HW2 9792   1.537   0.315   6.492
 2965SOL     OW 9793   5.918   0.501   5.933
 2965SOL    HW1 9794   5.845   0.482   5.999
 2965SOL    HW2 9795   5.938   0.599   5.932
 2966SOL     OW 9796   4.094   5.539   2.483
 2966SOL    HW1 9797   4.042   5.480   2.546
 2966SOL    HW2 9798   4.081   5.507   2.389
 2967SOL     OW 9799   5.620   0.071   4.958
 2967SOL    HW1 9800   5.664   0.094   4.871
 2967SOL    HW2 9801   5.559   7.010   4.944
 2968SOL     OW 9802   1.329   4.119   1.369
 2968SOL    HW1 9803   1.359   4.151   1.459
 2968SOL    HW2 9804   1.230   4.131   1.362
 2969SOL     OW 9805   4.732   2.886   4.450
 2969SOL    HW1 9806   4.729   2.794   4.409
 2969SOL    HW2 9807   4.682   2.886   4.537
 2970SOL     OW 9808   2.481   3.110   5.647
 2970SOL    HW1 9809   2.471   3.208   5.628
 2970SOL    HW2 9810   2.555   3.073   5.591
 2971SOL     OW 9811   4.583   3.775   6.987
 2971SOL    HW1 9812   4.569   3.736   0.061
 2971SOL    HW2 9813   4.495   3.808   6.952
 2972SOL     OW 9814   0.078   5.749   6.790
 2972SOL    HW1 9815   0.090   5.843   6.824
 2972SOL    HW2 9816   0.131   5.738   6.706
 2973SOL     OW 9817   5.574   1.091   4.131
 2973SOL    HW1 9818   5.518   1.017   4.168
 2973SOL    HW2 9819   5.516   1.170   4.110
 2974SOL     OW 9820   5.651   6.324   1.761
 2974SOL    HW1 9821   5.713   6.396   1.793
 2974SOL    HW2 9822   5.556   6.354   1.773
 2975SOL     OW 9823   6.983   3.408   4.921
 2975SOL    HW1 9824   6.920   3.359   4.862
 2975SOL    HW2 9825   0.058   3.370   4.912
 2976SOL     OW 9826   3.539   0.805   1.780
 2976SOL    HW1 9827   3.439   0.802   1.769
 2976SOL    HW2 9828   3.571   0.718   1.815
 2977SOL     OW 9829   1.690   1.579   1.826
 2977SOL    HW1 9830   1.630   1.610   1.900
 2977SOL    HW2 9831   1.635   1.561   1.744
 2978SOL     OW 9832   3.115   5.526   0.303
 2978SOL    HW1 9833   3.102   5.454   0.235
 2978SOL    HW2 9834   3.192   5.503   0.363
 2979SOL     OW 9835   2.939   0.865   5.515
 2979SOL    HW1 9836   2.897   0.954   5.494
 2979SOL    HW2 9837   2.894   0.794   5.461
 2980SOL     OW 9838   3.413   2.998   4.346
 2980SOL    HW1 9839   3.394   3.013   4.443
 2980SOL    HW2 9840   3.478   3.067   4.313
 2981SOL     OW 9841   3.132   1.849   1.985
 2981SOL    HW1 9842   3.039   1.814   1.987
 2981SOL    HW2 9843   3.135   1.937   1.937
 2982SOL     OW 9844   1.706   0.974   0.725
 2982SOL    HW1 9845   1.642   1.041   0.763
 2982SOL    HW2 9846   1.705   0.979   0.625
 2983SOL     OW 9847   6.513   2.825   6.282
 2983SOL    HW1 9848   6.509   2.858   6.187
 2983SOL    HW2 9849   6.524   2.902   6.344
 2984SOL     OW 9850   0.552   6.180   1.310
 2984SOL    HW1 9851   0.595   6.231   1.236
 2984SOL    HW2 9852   0.621   6.123   1.355
 2985SOL     OW 9853   6.581   0.609   6.075
 2985SOL    HW1 9854   6.573   0.572   6.168
 2985SOL    HW2 9855   6.529   0.694   6.069
 2986SOL     OW 9856   3.323   3.153   2.113
 2986SOL    HW1 9857   3.402   3.205   2.082
 2986SOL    HW2 9858   3.239   3.201   2.086
 2987SOL     OW 9859   2.303   5.552   4.755
 2987SOL    HW1 9860   2.300   5.631   4.816
 2987SOL    HW2 9861   2.233   5.486   4.781
 2988SOL     OW 9862   6.907   2.227   6.012
 2988SOL    HW1 9863   6.987   2.171   5.987
 2988SOL    HW2 9864   6.922   2.268   6.102
 2989SOL     OW 9865   5.496   3.385   5.489
 2989SOL    HW1 9866   5.421   3.418   5.546
 2989SOL    HW2 9867   5.555   3.324   5.542
 2990SOL     OW 9868   5.831   1.369   5.736
 2990SOL    HW1 9869   5.794   1.431   5.667
 2990SOL    HW2 9870   5.912   1.411   5.778
 2991SOL     OW 9871   6.804   3.761   0.239
 2991SOL    HW1 9872   6.740   3.719   0.174
 2991SOL    HW2 9873   6.838   3.691   0.302
 2992SOL     OW 9874   0.433   3.632   5.457
 2992SOL    HW1 9875   0.526   3.669   5.468
 2992SOL    HW2 9876   0.434   3.534   5.479
 2993SOL     OW 9877   2.830   4.721   0.776
 2993SOL    HW1 9878   2.753   4.775   0.744
 2993SOL    HW2 9879   2.913   4.777   0.775
 2994SOL     OW 9880   2.794   4.839   4.653
 2994SOL    HW1 9881   2.711   4.890   4.631
 2994SOL    HW2 9882   2.825   4.865   4.745
 2995SOL     OW 9883   4.966   0.683   1.697
 2995SOL    HW1 9884   4.925   0.650   1.612
 2995SOL    HW2 9885   4.897   0.684   1.770
 2996SOL     OW 9886   6.486   0.909   4.119
 2996SOL    HW1 9887   6.521   0.967   4.045
 2996SOL    HW2 9888   6.399   0.869   4.092
 2997SOL     OW 9889   4.984   5.767   4.488
 2997SOL    HW1 9890   4.894   5.797   4.456
 2997SOL    HW2 9891   5.007   5.679   4.446
 2998SOL     OW 9892   2.540   0.715   1.688
 2998SOL    HW1 9893   2.531   0.791   1.623
 2998SOL    HW2 9894   2.623   0.664   1.668
 2999SOL     OW 9895   1.242   4.707   0.408
 2999SOL    HW1 9896   1.152   4.733   0.442
 2999SOL    HW2 9897   1.306   4.783   0.421
 3000SOL     OW 9898   2.145   3.847   5.156
 3000SOL    HW1 9899   2.122   3.805   5.068
 3000SOL    HW2 9900   2.234   3.892   5.148
 3001SOL     OW 9901   4.433   0.664   6.276
 3001SOL    HW1 9902   4.419   0.682   6.178
 3001SOL    HW2 9903   4.501   0.728   6.312
 3002SOL     OW 9904   1.253   2.277   2.180
 3002SOL    HW1 9905   1.344   2.266   2.219
 3002SOL    HW2 9906   1.184   2.247   2.246
 3003SOL     OW 9907   1.089   5.911   0.524
 3003SOL    HW1 9908   1.012   5.908   0.461
 3003SOL    HW2 9909   1.171   5.943   0.477
 3004SOL     OW 9910   3.347   6.725   3.939
 3004SOL    HW1 9911   3.370   6.631   3.917
 3004SOL    HW2 9912   3.247   6.736   3.939
 3005SOL     OW 9913   2.673   1.666   0.488
 3005SOL    HW1 9914   2.674   1.690   0.391
 3005SOL    HW2 9915   2.655   1.568   0.498
 3006SOL     OW 9916   5.821   1.118   5.792
 3006SOL    HW1 9917   5.822   1.115   5.892
 3006SOL    HW2 9918   5.803   1.212   5.761
 3007SOL     OW 9919   6.105   5.742   5.855
 3007SOL    HW1 9920   6.033   5.803   5.886
 3007SOL    HW2 9921   6.097   5.654   5.902
 3008SOL     OW 9922   4.754   4.188   5.766
 3008SOL    HW1 9923   4.735   4.245   5.846
 3008SOL    HW2 9924   4.853   4.171   5.760
 3009SOL     OW 9925   5.640   3.147   2.181
 3009SOL    HW1 9926   5.706   3.190   2.243
 3009SOL    HW2 9927   5.682   3.068   2.137
 3010SOL     OW 9928   4.661   5.393   1.730
 3010SOL    HW1 9929   4.713   5.311   1.704
 3010SOL    HW2 9930   4.592   5.413   1.661
 3011SOL     OW 9931   5.420   6.919   0.623
 3011SOL    HW1 9932   5.460   6.883   0.707
 3011SOL    HW2 9933   5.323   6.897   0.620
 3012SOL     OW 9934   2.363   1.073   4.474
 3012SOL    HW1 9935   2.298   0.998   4.487
 3012SOL    HW2 9936   2.455   1.035   4.463
 3013SOL     OW 9937   1.032   5.053   5.621
 3013SOL    HW1 9938   1.032   5.148   5.592
 3013SOL    HW2 9939   0.980   5.044   5.706
 3014SOL     OW 9940   3.882   0.325   6.930
 3014SOL    HW1 9941   3.936   0.382   6.868
 3014SOL    HW2 9942   3.868   0.235   6.890
 3015SOL     OW 9943   2.756   6.954   6.103
 3015SOL    HW1 9944   2.794   6.926   6.015
 3015SOL    HW2 9945   2.805   0.017   6.136
 3016SOL     OW 9946   2.715   0.490   4.129
 3016SOL    HW1 9947   2.754   0.408   4.087
 3016SOL    HW2 9948   2.758   0.505   4.218
 3017SOL     OW 9949   0.817   6.109   0.121
 3017SOL    HW1 9950   0.739   6.063   0.165
 3017SOL    HW2 9951   0.851   6.052   0.046
 3018SOL     OW 9952   3.184   2.070   1.819
 3018SOL    HW1 9953   3.272   2.086   1.862
 3018SOL    HW2 9954   3.125   2.150   1.832
 3019SOL     OW 9955   1.271   0.437   5.400
 3019SOL    HW1 9956   1.206   0.362   5.391
 3019SOL    HW2 9957   1.221   0.521   5.425
 3020SOL     OW 9958   4.877   5.072   6.825
 3020SOL    HW1 9959   4.872   4.982   6.869
 3020SOL    HW2 9960   4.957   5.122   6.859
 3021SOL     OW 9961   5.142   6.900   4.318
 3021SOL    HW1 9962   5.107   6.922   4.226
 3021SOL    HW2 9963   5.065   6.882   4.379
 3022SOL     OW 9964   4.562   6.669   4.540
 3022SOL    HW1 9965   4.627   6.739   4.512
 3022SOL    HW2 9966   4.609   6.581   4.551
 3023SOL     OW 9967   5.254   4.509   5.510
 3023SOL    HW1 9968   5.228   4.478   5.602
 3023SOL    HW2 9969   5.220   4.602   5.496
 3024SOL     OW 9970   6.804   0.991   0.599
 3024SOL    HW1 9971   6.722   0.955   0.554
 3024SOL    HW2 9972   6.801   0.971   0.697
 3025SOL     OW 9973   3.960   5.245   0.787
 3025SOL    HW1 9974   3.966   5.205   0.878
 3025SOL    HW2 9975   4.001   5.337   0.789
 3026SOL     OW 9976   0.259   0.652   2.135
 3026SOL    HW1 9977   0.204   0.581   2.090
 3026SOL    HW2 9978   0.200   0.706   2.196
 3027SOL     OW 9979   3.980   6.843   0.673
 3027SOL    HW1 9980   3.932   6.767   0.630
 3027SOL    HW2 9981   4.018   6.903   0.602
 3028SOL     OW 9982   3.666   3.265   4.630
 3028SOL    HW1 9983   3.689   3.334   4.562
 3028SOL    HW2 9984   3.748   3.212   4.653
 3029SOL     OW 9985   0.150   2.645   5.256
 3029SOL    HW1 9986   0.173   2.549   5.242
 3029SOL    HW2 9987   0.076   2.652   5.323
 3030SOL     OW 9988   1.363   2.892   6.487
 3030SOL    HW1 9989   1.360   2.841   6.400
 3030SOL    HW2 9990   1.335   2.832   6.561
 3031SOL     OW 9991   0.565   5.367   0.182
 3031SOL    HW1 9992   0.592   5.272   0.165
 3031SOL    HW2 9993   0.548   5.413   0.095
 3032SOL     OW 9994   3.082   6.923   3.692
 3032SOL    HW1 9995   3.060   6.941   3.596
 3032SOL    HW2 9996   3.004   6.948   3.750
 3033SOL     OW 9997   1.511   1.363   6.437
 3033SOL    HW1 9998   1.575   1.337   6.364
 3033SOL    HW2 9999   1.526   1.459   6.461
 3034SOL     OW10000   5.341   3.505   3.624
 3034SOL    HW110001   5.435   3.531   3.644
 3034SOL    HW210002   5.284   3.587   3.617
 3035SOL     OW10003   6.910   3.827   6.812
 3035SOL    HW110004   6.990   3.826   6.752
 3035SOL    HW210005   6.879   3.733   6.829
 3036SOL     OW10006   3.374   2.266   5.839
 3036SOL    HW110007   3.467   2.229   5.839
 3036SOL    HW210008   3.337   2.261   5.746
 3037SOL     OW10009   1.028   4.861   6.427
 3037SOL    HW110010   0.928   4.858   6.432
 3037SOL    HW210011   1.064   4.915   6.503
 3038SOL     OW10012   5.942   4.936   5.454
 3038SOL    HW110013   5.918   4.890   5.369
 3038SOL    HW210014   5.865   4.932   5.518
 3039SOL     OW10015   5.718   3.359   6.038
 3039SOL    HW110016   5.741   3.429   6.105
 3039SOL    HW210017   5.632   3.315   6.064
 3040SOL     OW10018   3.884   6.249   5.963
 3040SOL    HW110019   3.828   6.325   5.995
 3040SOL    HW210020   3.897   6.183   6.037
 3041SOL     OW10021   1.644   5.527   6.435
 3041SOL    HW110022   1.605   5.497   6.522
 3041SOL    HW210023   1.657   5.448   6.375
 3042SOL     OW10024   0.276   5.068   4.264
 3042SOL    HW110025   0.293   5.137   4.194
 3042SOL    HW210026   0.227   5.109   4.341
 3043SOL     OW10027   3.230   4.532   1.689
 3043SOL    HW110028   3.229   4.570   1.597
 3043SOL    HW210029   3.208   4.605   1.755
 3044SOL     OW10030   3.807   3.538   4.710
 3044SOL    HW110031   3.868   3.491   4.775
 3044SOL    HW210032   3.807   3.489   4.623
 3045SOL     OW10033   5.493   1.135   2.440
 3045SOL    HW110034   5.475   1.196   2.363
 3045SOL    HW210035   5.529   1.188   2.517
 3046SOL     OW10036   5.732   5.361   1.402
 3046SOL    HW110037   5.775   5.295   1.340
 3046SOL    HW210038   5.708   5.443   1.351
 3047SOL     OW10039   5.811   1.970   4.012
 3047SOL    HW110040   5.741   1.900   4.026
 3047SOL    HW210041   5.892   1.948   4.066
 3048SOL     OW10042   4.225   4.959   1.513
 3048SOL    HW110043   4.224   4.881   1.451
 3048SOL    HW210044   4.201   4.928   1.606
 3049SOL     OW10045   0.376   1.817   2.262
 3049SOL    HW110046   0.366   1.784   2.356
 3049SOL    HW210047   0.371   1.917   2.262
 3050SOL     OW10048   3.393   2.261   6.674
 3050SOL    HW110049   3.482   2.237   6.637
 3050SOL    HW210050   3.331   2.285   6.600
 3051SOL     OW10051   2.715   5.223   6.006
 3051SOL    HW110052   2.793   5.207   5.946
 3051SOL    HW210053   2.632   5.189   5.963
 3052SOL     OW10054   6.272   5.935   3.204
 3052SOL    HW110055   6.245   6.001   3.134
 3052SOL    HW210056   6.264   5.978   3.295
 3053SOL     OW10057   0.721   4.186   6.768
 3053SOL    HW110058   0.718   4.215   6.672
 3053SOL    HW210059   0.738   4.088   6.772
 3054SOL     OW10060   5.866   0.173   3.034
 3054SOL    HW110061   5.810   0.236   3.088
 3054SOL    HW210062   5.825   0.160   2.944
 3055SOL     OW10063   4.650   6.657   0.315
 3055SOL    HW110064   4.674   6.576   0.368
 3055SOL    HW210065   4.671   6.739   0.368
 3056SOL     OW10066   4.532   1.674   0.557
 3056SOL    HW110067   4.547   1.633   0.467
 3056SOL    HW210068   4.615   1.665   0.612
 3057SOL     OW10069   6.360   3.820   3.612
 3057SOL    HW110070   6.367   3.789   3.707
 3057SOL    HW210071   6.273   3.868   3.599
 3058SOL     OW10072   0.429   5.088   5.911
 3058SOL    HW110073   0.343   5.068   5.958
 3058SOL    HW210074   0.506   5.067   5.971
 3059SOL     OW10075   1.455   2.335   2.732
 3059SOL    HW110076   1.372   2.379   2.700
 3059SOL    HW210077   1.534   2.373   2.683
 3060SOL     OW10078   5.569   3.760   3.315
 3060SOL    HW110079   5.631   3.738   3.239
 3060SOL    HW210080   5.588   3.852   3.348
 3061SOL     OW10081   5.820   6.632   2.791
 3061SOL    HW110082   5.740   6.690   2.779
 3061SOL    HW210083   5.876   6.666   2.866
 3062SOL     OW10084   3.986   5.081   1.041
 3062SOL    HW110085   3.995   4.986   1.072
 3062SOL    HW210086   4.046   5.140   1.095
 3063SOL     OW10087   6.680   4.889   0.631
 3063SOL    HW110088   6.582   4.867   0.623
 3063SOL    HW210089   6.697   4.978   0.588
 3064SOL     OW10090   4.847   1.574   6.304
 3064SOL    HW110091   4.773   1.580   6.237
 3064SOL    HW210092   4.932   1.607   6.263
 3065SOL     OW10093   5.599   1.165   6.312
 3065SOL    HW110094   5.630   1.096   6.377
 3065SOL    HW210095   5.502   1.152   6.293
 3066SOL     OW10096   5.141   0.158   5.827
 3066SOL    HW110097   5.224   0.191   5.873
 3066SOL    HW210098   5.066   0.153   5.893
 3067SOL     OW10099   1.394   1.642   4.573
 3067SOL    HW110100   1.434   1.682   4.656
 3067SOL    HW210101   1.338   1.711   4.527
 3068SOL     OW10102   5.954   7.015   0.830
 3068SOL    HW110103   5.977   0.079   0.885
 3068SOL    HW210104   5.910   0.027   0.745
 3069SOL     OW10105   5.678   6.290   3.881
 3069SOL    HW110106   5.622   6.371   3.864
 3069SOL    HW210107   5.750   6.313   3.946
 3070SOL     OW10108   2.558   1.234   0.815
 3070SOL    HW110109   2.606   1.199   0.735
 3070SOL    HW210110   2.623   1.271   0.880
 3071SOL     OW10111   5.476   4.673   5.159
 3071SOL    HW110112   5.455   4.626   5.245
 3071SOL    HW210113   5.409   4.647   5.090
 3072SOL     OW10114   1.454   6.874   5.395
 3072SOL    HW110115   1.522   6.907   5.330
 3072SOL    HW210116   1.473   6.779   5.419
 3073SOL     OW10117   6.784   5.415   2.126
 3073SOL    HW110118   6.706   5.399   2.186
 3073SOL    HW210119   6.788   5.344   2.056
 3074SOL     OW10120   3.101   2.998   1.833
 3074SOL    HW110121   3.148   3.076   1.793
 3074SOL    HW210122   3.167   2.935   1.874
 3075SOL     OW10123   4.134   4.906   1.757
 3075SOL    HW110124   4.089   4.995   1.757
 3075SOL    HW210125   4.073   4.838   1.798
 3076SOL     OW10126   1.853   1.536   3.714
 3076SOL    HW110127   1.918   1.550   3.640
 3076SOL    HW210128   1.901   1.539   3.802
 3077SOL     OW10129   0.269   3.511   2.029
 3077SOL    HW110130   0.356   3.466   2.007
 3077SOL    HW210131   0.288   3.600   2.071
 3078SOL     OW10132   0.058   3.610   1.868
 3078SOL    HW110133   0.076   3.626   1.771
 3078SOL    HW210134   0.141   3.575   1.912
 3079SOL     OW10135   1.500   3.867   4.077
 3079SOL    HW110136   1.448   3.807   4.137
 3079SOL    HW210137   1.437   3.921   4.021
 3080SOL     OW10138   3.842   4.537   1.628
 3080SOL    HW110139   3.800   4.447   1.616
 3080SOL    HW210140   3.775   4.601   1.666
 3081SOL     OW10141   2.088   3.123   5.843
 3081SOL    HW110142   2.086   3.111   5.744
 3081SOL    HW210143   2.010   3.075   5.884
 3082SOL     OW10144   5.337   3.855   5.357
 3082SOL    HW110145   5.399   3.805   5.296
 3082SOL    HW210146   5.270   3.905   5.302
 3083SOL     OW10147   4.072   5.718   1.038
 3083SOL    HW110148   4.171   5.716   1.024
 3083SOL    HW210149   4.041   5.813   1.040
 3084SOL     OW10150   6.998   5.069   4.054
 3084SOL    HW110151   6.979   5.152   4.001
 3084SOL    HW210152   0.056   5.019   4.010
 3085SOL     OW10153   6.205   5.894   0.003
 3085SOL    HW110154   6.217   5.852   0.093
 3085SOL    HW210155   6.244   5.986   0.004
 3086SOL     OW10156   5.879   6.341   6.478
 3086SOL    HW110157   5.867   6.247   6.446
 3086SOL    HW210158   5.818   6.402   6.426
 3087SOL     OW10159   3.323   0.314   2.510
 3087SOL    HW110160   3.284   0.401   2.483
 3087SOL    HW210161   3.268   0.274   2.584
 3088SOL     OW10162   2.342   3.747   5.383
 3088SOL    HW110163   2.333   3.805   5.302
 3088SOL    HW210164   2.434   3.756   5.420
 3089SOL     OW10165   4.000   6.351   6.538
 3089SOL    HW110166   3.990   6.314   6.445
 3089SOL    HW210167   4.096   6.374   6.554
 3090SOL     OW10168   1.016   2.665   1.837
 3090SOL    HW110169   0.943   2.673   1.905
 3090SOL    HW210170   0.997   2.727   1.761
 3091SOL     OW10171   1.037   2.300   0.202
 3091SOL    HW110172   1.106   2.358   0.246
 3091SOL    HW210173   1.019   2.333   0.110
 3092SOL     OW10174   5.976   1.233   2.455
 3092SOL    HW110175   5.958   1.313   2.512
 3092SOL    HW210176   5.923   1.156   2.488
 3093SOL     OW10177   6.129   5.283   6.788
 3093SOL    HW110178   6.152   5.313   6.696
 3093SOL    HW210179   6.044   5.230   6.786
 3094SOL     OW10180   2.163   1.387   5.984
 3094SOL    HW110181   2.091   1.378   6.054
 3094SOL    HW210182   2.130   1.347   5.898
 3095SOL     OW10183   1.596   3.796   4.770
 3095SOL    HW110184   1.688   3.773   4.800
 3095SOL    HW210185   1.562   3.874   4.822
 3096SOL     OW10186   1.721   3.064   4.337
 3096SOL    HW110187   1.629   3.071   4.377
 3096SOL    HW210188   1.783   3.125   4.387
 3097SOL     OW10189   5.500   2.932   5.795
 3097SOL    HW110190   5.417   2.928   5.739
 3097SOL    HW210191   5.490   3.003   5.865
 3098SOL     OW10192   1.788   3.396   2.320
 3098SOL    HW110193   1.740   3.449   2.250
 3098SOL    HW210194   1.782   3.299   2.298
 3099SOL     OW10195   0.884   6.583   5.440
 3099SOL    HW110196   0.862   6.489   5.467
 3099SOL    HW210197   0.982   6.599   5.449
 3100SOL     OW10198   6.079   4.890   2.355
 3100SOL    HW110199   6.023   4.817   2.392
 3100SOL    HW210200   6.091   4.876   2.256
 3101SOL     OW10201   4.956   0.286   4.776
 3101SOL    HW110202   5.056   0.298   4.772
 3101SOL    HW210203   4.918   0.295   4.684
 3102SOL     OW10204   5.906   5.091   1.967
 3102SOL    HW110205   5.974   5.085   1.894
 3102SOL    HW210206   5.946   5.135   2.047
 3103SOL     OW10207   1.710   2.121   2.056
 3103SOL    HW110208   1.774   2.194   2.079
 3103SOL    HW210209   1.761   2.043   2.020
 3104SOL     OW10210   5.661   2.259   5.294
 3104SOL    HW110211   5.722   2.329   5.331
 3104SOL    HW210212   5.597   2.229   5.364
 3105SOL     OW10213   5.242   4.193   0.743
 3105SOL    HW110214   5.146   4.166   0.753
 3105SOL    HW210215   5.247   4.280   0.694
 3106SOL     OW10216   5.551   2.047   5.755
 3106SOL    HW110217   5.636   2.094   5.779
 3106SOL    HW210218   5.473   2.095   5.795
 3107SOL     OW10219   3.968   2.122   4.493
 3107SOL    HW110220   3.911   2.109   4.574
 3107SOL    HW210221   3.910   2.146   4.415
 3108SOL     OW10222   1.585   4.331   3.414
 3108SOL    HW110223   1.662   4.394   3.426
 3108SOL    HW210224   1.510   4.359   3.474
 3109SOL     OW10225   6.758   5.853   3.015
 3109SOL    HW110226   6.713   5.840   3.104
 3109SOL    HW210227   6.725   5.784   2.951
 3110SOL     OW10228   1.032   5.397   3.811
 3110SOL    HW110229   1.070   5.319   3.760
 3110SOL    HW210230   0.933   5.401   3.796
 3111SOL     OW10231   6.706   4.049   3.607
 3111SOL    HW110232   6.800   4.067   3.577
 3111SOL    HW210233   6.680   4.118   3.674
 3112SOL     OW10234   3.915   1.218   0.265
 3112SOL    HW110235   3.818   1.221   0.287
 3112SOL    HW210236   3.935   1.138   0.209
 3113SOL     OW10237   1.546   7.007   3.297
 3113SOL    HW110238   1.610   6.944   3.341
 3113SOL    HW210239   1.526   6.975   3.204
 3114SOL     OW10240   4.452   6.133   5.846
 3114SOL    HW110241   4.504   6.214   5.819
 3114SOL    HW210242   4.437   6.075   5.766
 3115SOL     OW10243   4.507   5.309   4.462
 3115SOL    HW110244   4.413   5.277   4.475
 3115SOL    HW210245   4.540   5.351   4.547
 3116SOL     OW10246   1.231   1.888   6.000
 3116SOL    HW110247   1.194   1.938   6.079
 3116SOL    HW210248   1.298   1.945   5.953
 3117SOL     OW10249   3.679   0.021   1.097
 3117SOL    HW110250   3.687   0.115   1.064
 3117SOL    HW210251   3.641   0.022   1.190
 3118SOL     OW10252   0.898   1.889   3.587
 3118SOL    HW110253   0.922   1.816   3.523
 3118SOL    HW210254   0.839   1.851   3.659
 3119SOL     OW10255   5.006   6.032   3.997
 3119SOL    HW110256   5.040   5.940   4.015
 3119SOL    HW210257   4.990   6.079   4.084
 3120SOL     OW10258   2.511   5.893   0.493
 3120SOL    HW110259   2.457   5.973   0.465
 3120SOL    HW210260   2.586   5.880   0.429
 3121SOL     OW10261   4.334   2.368   3.921
 3121SOL    HW110262   4.269   2.336   3.989
 3121SOL    HW210263   4.396   2.294   3.895
 3122SOL     OW10264   5.644   4.264   5.814
 3122SOL    HW110265   5.717   4.217   5.763
 3122SOL    HW210266   5.657   4.249   5.912
 3123SOL     OW10267   1.878   2.164   2.801
 3123SOL    HW110268   1.843   2.243   2.852
 3123SOL    HW210269   1.886   2.189   2.704
 3124SOL     OW10270   5.149   6.747   5.361
 3124SOL    HW110271   5.134   6.772   5.266
 3124SOL    HW210272   5.240   6.779   5.390
 3125SOL     OW10273   1.238   1.167   5.574
 3125SOL    HW110274   1.322   1.207   5.610
 3125SOL    HW210275   1.215   1.086   5.627
 3126SOL     OW10276   4.769   4.680   5.768
 3126SOL    HW110277   4.853   4.696   5.818
 3126SOL    HW210278   4.696   4.738   5.805
 3127SOL     OW10279   6.381   1.759   5.376
 3127SOL    HW110280   6.324   1.773   5.295
 3127SOL    HW210281   6.339   1.689   5.434
 3128SOL     OW10282   3.713   0.812   1.183
 3128SOL    HW110283   3.687   0.887   1.244
 3128SOL    HW210284   3.633   0.754   1.166
 3129SOL     OW10285   4.335   4.332   0.159
 3129SOL    HW110286   4.364   4.237   0.152
 3129SOL    HW210287   4.410   4.388   0.196
 3130SOL     OW10288   0.708   5.954   1.741
 3130SOL    HW110289   0.641   5.880   1.730
 3130SOL    HW210290   0.730   5.991   1.651
 3131SOL     OW10291   6.788   3.339   2.950
 3131SOL    HW110292   6.792   3.399   3.030
 3131SOL    HW210293   6.695   3.308   2.935
 3132SOL     OW10294   4.984   4.453   6.833
 3132SOL    HW110295   5.042   4.453   6.915
 3132SOL    HW210296   4.951   4.360   6.817
 3133SOL     OW10297   5.388   6.682   3.352
 3133SOL    HW110298   5.485   6.664   3.369
 3133SOL    HW210299   5.362   6.647   3.262
 3134SOL     OW10300   5.377   4.693   3.057
 3134SOL    HW110301   5.366   4.610   3.002
 3134SOL    HW210302   5.437   4.674   3.134
 3135SOL     OW10303   3.470   0.087   6.712
 3135SOL    HW110304   3.514   0.098   6.801
 3135SOL    HW210305   3.430   0.174   6.683
 3136SOL     OW10306   6.710   6.989   2.390
 3136SOL    HW110307   6.745   6.904   2.352
 3136SOL    HW210308   6.615   7.002   2.362
 3137SOL     OW10309   3.769   5.981   6.829
 3137SOL    HW110310   3.799   6.070   6.865
 3137SOL    HW210311   3.749   5.920   6.906
 3138SOL     OW10312   6.794   6.642   4.947
 3138SOL    HW110313   6.739   6.686   5.018
 3138SOL    HW210314   6.797   6.701   4.867
 3139SOL     OW10315   1.391   5.307   1.737
 3139SOL    HW110316   1.407   5.401   1.707
 3139SOL    HW210317   1.435   5.292   1.825
 3140SOL     OW10318   5.780   5.881   0.125
 3140SOL    HW110319   5.693   5.849   0.089
 3140SOL    HW210320   5.855   5.847   0.067
 3141SOL     OW10321   5.807   1.359   6.513
 3141SOL    HW110322   5.726   1.322   6.558
 3141SOL    HW210323   5.801   1.459   6.513
 3142SOL     OW10324   4.638   1.139   3.909
 3142SOL    HW110325   4.732   1.104   3.918
 3142SOL    HW210326   4.615   1.148   3.812
 3143SOL     OW10327   6.656   1.247   0.934
 3143SOL    HW110328   6.607   1.217   1.016
 3143SOL    HW210329   6.729   1.182   0.913
 3144SOL     OW10330   3.746   4.823   6.793
 3144SOL    HW110331   3.752   4.740   6.847
 3144SOL    HW210332   3.650   4.849   6.782
 3145SOL     OW10333   0.882   5.404   6.545
 3145SOL    HW110334   0.914   5.342   6.474
 3145SOL    HW210335   0.786   5.386   6.564
 3146SOL     OW10336   6.496   2.272   4.731
 3146SOL    HW110337   6.496   2.258   4.632
 3146SOL    HW210338   6.439   2.351   4.754
 3147SOL     OW10339   4.263   0.065   0.453
 3147SOL    HW110340   4.171   0.034   0.478
 3147SOL    HW210341   4.285   0.035   0.361
 3148SOL     OW10342   6.906   4.804   0.770
 3148SOL    HW110343   6.971   4.873   0.738
 3148SOL    HW210344   6.812   4.837   0.757
 3149SOL     OW10345   3.780   3.439   0.015
 3149SOL    HW110346   3.864   3.408   6.987
 3149SOL    HW210347   3.707   3.374   7.016
 3150SOL     OW10348   0.201   0.054   5.642
 3150SOL    HW110349   0.222   6.975   5.653
 3150SOL    HW210350   0.147   0.067   5.558
 3151SOL     OW10351   0.007   0.443   5.679
 3151SOL    HW110352   0.101   0.473   5.694
 3151SOL    HW210353   7.011   0.352   5.717
 3152SOL     OW10354   2.508   2.434   5.572
 3152SOL    HW110355   2.519   2.518   5.519
 3152SOL    HW210356   2.427   2.442   5.630
 3153SOL     OW10357   5.721   5.459   1.846
 3153SOL    HW110358   5.747   5.363   1.834
 3153SOL    HW210359   5.728   5.484   1.943
 3154SOL     OW10360   3.636   2.387   0.801
 3154SOL    HW110361   3.682   2.436   0.875
 3154SOL    HW210362   3.555   2.341   0.838
 3155SOL     OW10363   0.525   4.777   6.743
 3155SOL    HW110364   0.524   4.701   6.807
 3155SOL    HW210365   0.492   4.746   6.654
 3156SOL     OW10366   3.970   4.217   0.935
 3156SOL    HW110367   3.959   4.293   0.870
 3156SOL    HW210368   3.883   4.202   0.982
 3157SOL     OW10369   1.414   1.000   4.161
 3157SOL    HW110370   1.403   1.098   4.175
 3157SOL    HW210371   1.453   0.958   4.243
 3158SOL     OW10372   2.529   0.528   5.792
 3158SOL    HW110373   2.583   0.595   5.841
 3158SOL    HW210374   2.562   0.520   5.698
 3159SOL     OW10375   5.048   7.001   1.384
 3159SOL    HW110376   4.980   0.031   1.439
 3159SOL    HW210377   5.124   6.970   1.442
 3160SOL     OW10378   2.178   0.950   5.157
 3160SOL    HW110379   2.081   0.975   5.156
 3160SOL    HW210380   2.187   0.852   5.176
 3161SOL     OW10381   1.815   2.495   2.354
 3161SOL    HW110382   1.904   2.536   2.332
 3161SOL    HW210383   1.786   2.435   2.280
 3162SOL     OW10384   1.215   5.971   1.446
 3162SOL    HW110385   1.139   5.913   1.477
 3162SOL    HW210386   1.301   5.927   1.468
 3163SOL     OW10387   4.756   4.415   0.876
 3163SOL    HW110388   4.663   4.388   0.849
 3163SOL    HW210389   4.811   4.433   0.795
 3164SOL     OW10390   2.521   6.657   4.320
 3164SOL    HW110391   2.423   6.640   4.336
 3164SOL    HW210392   2.538   6.755   4.322
 3165SOL     OW10393   0.467   6.461   6.248
 3165SOL    HW110394   0.538   6.421   6.190
 3165SOL    HW210395   0.430   6.542   6.204
 3166SOL     OW10396   4.456   1.442   4.087
 3166SOL    HW110397   4.499   1.460   4.176
 3166SOL    HW210398   4.379   1.380   4.099
 3167SOL     OW10399   5.759   2.768   1.597
 3167SOL    HW110400   5.678   2.825   1.613
 3167SOL    HW210401   5.808   2.801   1.516
 3168SOL     OW10402   5.110   1.079   0.602
 3168SOL    HW110403   5.052   1.000   0.584
 3168SOL    HW210404   5.189   1.077   0.542
 3169SOL     OW10405   1.045   4.637   2.263
 3169SOL    HW110406   1.117   4.699   2.234
 3169SOL    HW210407   1.086   4.555   2.303
 3170SOL     OW10408   2.221   4.225   3.794
 3170SOL    HW110409   2.303   4.236   3.850
 3170SOL    HW210410   2.247   4.223   3.697
 3171SOL     OW10411   5.191   1.498   4.528
 3171SOL    HW110412   5.286   1.478   4.504
 3171SOL    HW210413   5.131   1.465   4.455
 3172SOL     OW10414   5.752   4.166   0.969
 3172SOL    HW110415   5.702   4.154   0.883
 3172SOL    HW210416   5.713   4.243   1.019
 3173SOL     OW10417   5.370   2.783   0.595
 3173SOL    HW110418   5.308   2.760   0.520
 3173SOL    HW210419   5.418   2.701   0.626
 3174SOL     OW10420   3.845   2.438   6.570
 3174SOL    HW110421   3.818   2.410   6.477
 3174SOL    HW210422   3.784   2.509   6.603
 3175SOL     OW10423   5.764   6.772   5.136
 3175SOL    HW110424   5.668   6.776   5.110
 3175SOL    HW210425   5.780   6.693   5.195
 3176SOL     OW10426   0.411   4.807   3.768
 3176SOL    HW110427   0.421   4.815   3.668
 3176SOL    HW210428   0.493   4.766   3.806
 3177SOL     OW10429   5.131   3.272   3.586
 3177SOL    HW110430   5.038   3.306   3.600
 3177SOL    HW210431   5.195   3.327   3.640
 3178SOL     OW10432   0.839   0.357   2.874
 3178SOL    HW110433   0.743   0.348   2.848
 3178SOL    HW210434   0.856   0.304   2.957
 3179SOL     OW10435   0.618   3.073   2.337
 3179SOL    HW110436   0.636   3.007   2.264
 3179SOL    HW210437   0.697   3.133   2.347
 3180SOL     OW10438   6.655   6.494   6.623
 3180SOL    HW110439   6.630   6.494   6.720
 3180SOL    HW210440   6.754   6.503   6.614
 3181SOL     OW10441   0.467   5.462   5.117
 3181SOL    HW110442   0.521   5.389   5.075
 3181SOL    HW210443   0.515   5.549   5.104
 3182SOL     OW10444   1.696   6.862   1.673
 3182SOL    HW110445   1.785   6.848   1.716
 3182SOL    HW210446   1.698   6.946   1.619
 3183SOL     OW10447   4.065   3.358   1.078
 3183SOL    HW110448   4.070   3.308   1.165
 3183SOL    HW210449   4.118   3.309   1.009
 3184SOL     OW10450   6.473   1.573   4.255
 3184SOL    HW110451   6.465   1.491   4.198
 3184SOL    HW210452   6.386   1.621   4.256
 3185SOL     OW10453   0.999   6.426   6.585
 3185SOL    HW110454   0.907   6.464   6.596
 3185SOL    HW210455   0.992   6.328   6.566
 3186SOL     OW10456   0.100   3.137   6.587
 3186SOL    HW110457   0.153   3.116   6.505
 3186SOL    HW210458   0.060   3.228   6.578
 3187SOL     OW10459   5.086   6.837   3.029
 3187SOL    HW110460   5.062   6.934   3.035
 3187SOL    HW210461   5.122   6.806   3.116
 3188SOL     OW10462   1.602   6.758   0.861
 3188SOL    HW110463   1.573   6.793   0.950
 3188SOL    HW210464   1.522   6.741   0.804
 3189SOL     OW10465   2.841   1.598   6.407
 3189SOL    HW110466   2.827   1.644   6.319
 3189SOL    HW210467   2.927   1.630   6.448
 3190SOL     OW10468   5.897   6.206   3.325
 3190SOL    HW110469   5.885   6.114   3.363
 3190SOL    HW210470   5.896   6.273   3.399
 3191SOL     OW10471   3.523   5.231   1.428
 3191SOL    HW110472   3.551   5.145   1.386
 3191SOL    HW210473   3.513   5.301   1.358
 3192SOL     OW10474   5.415   0.902   2.545
 3192SOL    HW110475   5.355   0.879   2.468
 3192SOL    HW210476   5.471   0.981   2.521
 3193SOL     OW10477   3.372   5.337   5.135
 3193SOL    HW110478   3.443   5.287   5.185
 3193SOL    HW210479   3.407   5.363   5.045
 3194SOL     OW10480   1.803   6.779   5.745
 3194SOL    HW110481   1.732   6.766   5.814
 3194SOL    HW210482   1.859   6.697   5.738
 3195SOL     OW10483   0.819   0.187   0.657
 3195SOL    HW110484   0.850   0.178   0.752
 3195SOL    HW210485   0.748   0.258   0.652
 3196SOL     OW10486   6.157   6.918   2.564
 3196SOL    HW110487   6.149   6.897   2.662
 3196SOL    HW210488   6.138   6.836   2.511
 3197SOL     OW10489   2.862   0.856   6.831
 3197SOL    HW110490   2.866   0.844   6.930
 3197SOL    HW210491   2.803   0.934   6.810
 3198SOL     OW10492   5.657   2.936   3.883
 3198SOL    HW110493   5.597   3.010   3.912
 3198SOL    HW210494   5.645   2.858   3.945
 3199SOL     OW10495   4.853   3.854   2.886
 3199SOL    HW110496   4.757   3.835   2.905
 3199SOL    HW210497   4.864   3.875   2.789
 3200SOL     OW10498   5.549   3.444   4.773
 3200SOL    HW110499   5.484   3.369   4.777
 3200SOL    HW210500   5.525   3.513   4.842
 3201SOL     OW10501   6.283   4.211   1.941
 3201SOL    HW110502   6.231   4.252   2.016
 3201SOL    HW210503   6.241   4.237   1.854
 3202SOL     OW10504   2.555   3.099   6.302
 3202SOL    HW110505   2.609   3.182   6.312
 3202SOL    HW210506   2.458   3.120   6.313
 3203SOL     OW10507   3.181   6.696   1.727
 3203SOL    HW110508   3.267   6.732   1.763
 3203SOL    HW210509   3.110   6.767   1.735
 3204SOL     OW10510   4.023   0.603   4.211
 3204SOL    HW110511   4.010   0.647   4.122
 3204SOL    HW210512   4.090   0.656   4.265
 3205SOL     OW10513   4.910   3.273   5.720
 3205SOL    HW110514   4.843   3.247   5.650
 3205SOL    HW210515   4.882   3.360   5.761
 3206SOL     OW10516   2.629   4.191   1.259
 3206SOL    HW110517   2.666   4.284   1.254
 3206SOL    HW210518   2.648   4.152   1.349
 3207SOL     OW10519   2.288   6.047   4.153
 3207SOL    HW110520   2.339   6.127   4.185
 3207SOL    HW210521   2.308   5.969   4.212
 3208SOL     OW10522   6.844   4.790   6.131
 3208SOL    HW110523   6.921   4.740   6.169
 3208SOL    HW210524   6.759   4.742   6.152
 3209SOL     OW10525   5.410   6.327   6.533
 3209SOL    HW110526   5.349   6.368   6.600
 3209SOL    HW210527   5.438   6.236   6.565
 3210SOL     OW10528   5.083   5.717   1.506
 3210SOL    HW110529   4.997   5.665   1.508
 3210SOL    HW210530   5.159   5.657   1.526
 3211SOL     OW10531   1.842   6.291   6.396
 3211SOL    HW110532   1.886   6.275   6.307
 3211SOL    HW210533   1.782   6.214   6.418
 3212SOL     OW10534   3.542   6.813   3.738
 3212SOL    HW110535   3.636   6.780   3.732
 3212SOL    HW210536   3.507   6.796   3.830
 3213SOL     OW10537   1.434   0.188   5.743
 3213SOL    HW110538   1.515   0.246   5.730
 3213SOL    HW210539   1.352   0.244   5.740
 3214SOL     OW10540   4.038   0.507   2.680
 3214SOL    HW110541   3.943   0.495   2.711
 3214SOL    HW210542   4.048   0.597   2.639
 3215SOL     OW10543   2.190   3.058   1.923
 3215SOL    HW110544   2.157   3.143   1.964
 3215SOL    HW210545   2.225   2.998   1.995
 3216SOL     OW10546   6.187   5.194   0.838
 3216SOL    HW110547   6.098   5.149   0.837
 3216SOL    HW210548   6.218   5.205   0.932
 3217SOL     OW10549   7.005   5.182   3.653
 3217SOL    HW110550   6.932   5.114   3.661
 3217SOL    HW210551   0.065   5.154   3.711
 3218SOL     OW10552   5.773   1.701   3.193
 3218SOL    HW110553   5.852   1.717   3.252
 3218SOL    HW210554   5.799   1.719   3.098
 3219SOL     OW10555   5.724   1.728   5.122
 3219SOL    HW110556   5.784   1.808   5.126
 3219SOL    HW210557   5.778   1.644   5.133
 3220SOL     OW10558   0.107   3.653   5.679
 3220SOL    HW110559   0.165   3.580   5.714
 3220SOL    HW210560   0.151   3.696   5.600
 3221SOL     OW10561   3.710   1.483   2.085
 3221SOL    HW110562   3.733   1.494   1.988
 3221SOL    HW210563   3.715   1.572   2.130
 3222SOL     OW10564   3.634   1.310   3.173
 3222SOL    HW110565   3.560   1.338   3.233
 3222SOL    HW210566   3.695   1.388   3.156
 3223SOL     OW10567   1.505   5.369   0.710
 3223SOL    HW110568   1.426   5.309   0.724
 3223SOL    HW210569   1.528   5.372   0.613
 3224SOL     OW10570   4.663   2.354   4.440
 3224SOL    HW110571   4.567   2.357   4.413
 3224SOL    HW210572   4.677   2.278   4.504
 3225SOL     OW10573   4.425   1.071   4.944
 3225SOL    HW110574   4.487   1.114   5.010
 3225SOL    HW210575   4.361   1.139   4.909
 3226SOL     OW10576   5.907   0.821   0.730
 3226SOL    HW110577   5.917   0.774   0.642
 3226SOL    HW210578   5.991   0.811   0.783
 3227SOL     OW10579   5.877   3.811   5.544
 3227SOL    HW110580   5.853   3.890   5.487
 3227SOL    HW210581   5.958   3.833   5.598
 3228SOL     OW10582   2.210   4.336   0.368
 3228SOL    HW110583   2.113   4.360   0.364
 3228SOL    HW210584   2.240   4.333   0.464
 3229SOL     OW10585   1.701   2.100   0.694
 3229SOL    HW110586   1.777   2.047   0.657
 3229SOL    HW210587   1.736   2.172   0.754
 3230SOL     OW10588   3.370   6.013   5.148
 3230SOL    HW110589   3.323   6.041   5.064
 3230SOL    HW210590   3.467   6.035   5.141
 3231SOL     OW10591   1.991   2.533   2.665
 3231SOL    HW110592   2.075   2.501   2.707
 3231SOL    HW210593   1.965   2.621   2.704
 3232SOL     OW10594   3.225   4.976   3.550
 3232SOL    HW110595   3.148   4.924   3.513
 3232SOL    HW210596   3.290   4.996   3.477
 3233SOL     OW10597   2.212   6.838   6.962
 3233SOL    HW110598   2.131   6.857   0.001
 3233SOL    HW210599   2.218   6.740   6.945
 3234SOL     OW10600   2.992   3.453   0.769
 3234SOL    HW110601   2.962   3.377   0.712
 3234SOL    HW210602   3.063   3.422   0.832
 3235SOL     OW10603   0.280   1.161   3.161
 3235SOL    HW110604   0.350   1.166   3.090
 3235SOL    HW210605   0.224   1.079   3.147
 3236SOL     OW10606   4.545   6.978   1.071
 3236SOL    HW110607   4.480   7.001   0.998
 3236SOL    HW210608   4.519   6.892   1.114
 3237SOL     OW10609   6.056   1.190   5.360
 3237SOL    HW110610   6.062   1.131   5.279
 3237SOL    HW210611   6.106   1.148   5.436
 3238SOL     OW10612   6.027   4.381   1.640
 3238SOL    HW110613   5.933   4.379   1.674
 3238SOL    HW210614   6.080   4.308   1.684
 3239SOL     OW10615   6.025   0.751   5.032
 3239SOL    HW110616   5.928   0.749   5.058
 3239SOL    HW210617   6.072   0.824   5.082
 3240SOL     OW10618   0.040   1.201   0.206
 3240SOL    HW110619   0.109   1.214   0.276
 3240SOL    HW210620   0.068   1.248   0.122
 3241SOL     OW10621   6.911   3.282   5.347
 3241SOL    HW110622   6.823   3.331   5.348
 3241SOL    HW210623   6.944   3.275   5.253
 3242SOL     OW10624   0.046   4.083   4.862
 3242SOL    HW110625   6.993   4.014   4.877
 3242SOL    HW210626   0.040   4.153   4.933
 3243SOL     OW10627   5.899   5.199   3.972
 3243SOL    HW110628   5.996   5.218   3.988
 3243SOL    HW210629   5.867   5.256   3.896
 3244SOL     OW10630   4.709   6.888   0.511
 3244SOL    HW110631   4.643   6.961   0.529
 3244SOL    HW210632   4.775   6.919   0.443
 3245SOL     OW10633   3.588   6.803   4.394
 3245SOL    HW110634   3.507   6.856   4.419
 3245SOL    HW210635   3.564   6.706   4.389
 3246SOL     OW10636   6.503   6.174   2.958
 3246SOL    HW110637   6.596   6.167   2.993
 3246SOL    HW210638   6.481   6.093   2.904
 3247SOL     OW10639   1.509   4.245   3.834
 3247SOL    HW110640   1.470   4.280   3.919
 3247SOL    HW210641   1.518   4.320   3.769
 3248SOL     OW10642   5.721   2.864   3.368
 3248SOL    HW110643   5.718   2.881   3.466
 3248SOL    HW210644   5.636   2.818   3.340
 3249SOL     OW10645   2.907   3.396   3.404
 3249SOL    HW110646   2.920   3.495   3.405
 3249SOL    HW210647   2.870   3.369   3.315
 3250SOL     OW10648   4.414   5.628   3.240
 3250SOL    HW110649   4.489   5.602   3.179
 3250SOL    HW210650   4.449   5.691   3.310
 3251SOL     OW10651   2.843   2.244   2.727
 3251SOL    HW110652   2.926   2.214   2.773
 3251SOL    HW210653   2.836   2.200   2.638
 3252SOL     OW10654   2.333   1.443   3.349
 3252SOL    HW110655   2.426   1.462   3.381
 3252SOL    HW210656   2.335   1.424   3.251
 3253SOL     OW10657   6.652   3.606   0.039
 3253SOL    HW110658   6.719   3.607   6.982
 3253SOL    HW210659   6.572   3.660   0.012
 3254SOL     OW10660   6.387   6.640   1.244
 3254SOL    HW110661   6.412   6.603   1.333
 3254SOL    HW210662   6.451   6.713   1.219
 3255SOL     OW10663   3.832   5.787   1.930
 3255SOL    HW110664   3.767   5.756   1.999
 3255SOL    HW210665   3.832   5.725   1.852
 3256SOL     OW10666   5.309   2.552   1.188
 3256SOL    HW110667   5.276   2.464   1.221
 3256SOL    HW210668   5.384   2.583   1.247
 3257SOL     OW10669   3.043   1.411   3.061
 3257SOL    HW110670   3.073   1.395   3.155
 3257SOL    HW210671   2.973   1.482   3.059
 3258SOL     OW10672   1.887   5.399   3.996
 3258SOL    HW110673   1.896   5.482   3.942
 3258SOL    HW210674   1.805   5.349   3.968
 3259SOL     OW10675   5.516   4.127   4.329
 3259SOL    HW110676   5.553   4.193   4.264
 3259SOL    HW210677   5.445   4.170   4.385
 3260SOL     OW10678   1.673   4.880   3.119
 3260SOL    HW110679   1.652   4.876   3.021
 3260SOL    HW210680   1.656   4.791   3.160
 3261SOL     OW10681   5.761   0.305   4.286
 3261SOL    HW110682   5.818   0.292   4.205
 3261SOL    HW210683   5.779   0.394   4.326
 3262SOL     OW10684   3.239   1.542   3.514
 3262SOL    HW110685   3.299   1.510   3.587
 3262SOL    HW210686   3.156   1.580   3.553
 3263SOL     OW10687   0.142   1.167   1.557
 3263SOL    HW110688   0.220   1.133   1.610
 3263SOL    HW210689   0.060   1.165   1.614
 3264SOL     OW10690   1.638   4.883   6.829
 3264SOL    HW110691   1.579   4.939   6.887
 3264SOL    HW210692   1.627   4.787   6.853
 3265SOL     OW10693   0.333   5.261   6.400
 3265SOL    HW110694   0.273   5.333   6.434
 3265SOL    HW210695   0.290   5.172   6.416
 3266SOL     OW10696   3.709   4.992   6.246
 3266SOL    HW110697   3.690   4.908   6.194
 3266SOL    HW210698   3.800   5.026   6.222
 3267SOL     OW10699   3.413   6.479   0.773
 3267SOL    HW110700   3.496   6.535   0.779
 3267SOL    HW210701   3.344   6.527   0.719
 3268SOL     OW10702   5.576   5.234   2.127
 3268SOL    HW110703   5.648   5.214   2.060
 3268SOL    HW210704   5.504   5.165   2.120
 3269SOL     OW10705   1.683   5.126   1.841
 3269SOL    HW110706   1.633   5.200   1.886
 3269SOL    HW210707   1.769   5.109   1.890
 3270SOL     OW10708   1.293   2.653   5.737
 3270SOL    HW110709   1.202   2.612   5.731
 3270SOL    HW210710   1.337   2.626   5.822
 3271SOL     OW10711   1.302   3.530   1.438
 3271SOL    HW110712   1.343   3.550   1.350
 3271SOL    HW210713   1.360   3.567   1.511
 3272SOL     OW10714   3.988   6.413   1.322
 3272SOL    HW110715   4.049   6.483   1.286
 3272SOL    HW210716   3.902   6.455   1.352
 3273SOL     OW10717   3.795   4.047   6.628
 3273SOL    HW110718   3.728   4.077   6.696
 3273SOL    HW210719   3.879   4.101   6.637
 3274SOL     OW10720   5.014   6.634   2.387
 3274SOL    HW110721   4.939   6.689   2.425
 3274SOL    HW210722   5.079   6.613   2.460
 3275SOL     OW10723   4.975   0.684   1.287
 3275SOL    HW110724   4.898   0.682   1.223
 3275SOL    HW210725   4.963   0.759   1.352
 3276SOL     OW10726   5.952   5.828   6.923
 3276SOL    HW110727   5.958   5.732   6.893
 3276SOL    HW210728   6.039   5.856   6.963
 3277SOL     OW10729   3.318   2.085   2.173
 3277SOL    HW110730   3.345   2.091   2.077
 3277SOL    HW210731   3.242   2.148   2.190
 3278SOL     OW10732   5.142   1.082   6.467
 3278SOL    HW110733   5.131   0.991   6.508
 3278SOL    HW210734   5.164   1.148   6.539
 3279SOL     OW10735   4.021   6.797   2.180
 3279SOL    HW110736   4.027   6.786   2.080
 3279SOL    HW210737   4.077   6.726   2.224
 3280SOL     OW10738   6.832   3.263   4.077
 3280SOL    HW110739   6.917   3.242   4.030
 3280SOL    HW210740   6.801   3.354   4.052
 3281SOL     OW10741   6.104   1.696   1.507
 3281SOL    HW110742   6.119   1.675   1.410
 3281SOL    HW210743   6.005   1.698   1.526
 3282SOL     OW10744   0.181   4.550   5.049
 3282SOL    HW110745   0.130   4.489   4.988
 3282SOL    HW210746   0.167   4.523   5.144
 3283SOL     OW10747   2.833   1.893   0.193
 3283SOL    HW110748   2.833   1.806   0.144
 3283SOL    HW210749   2.829   1.968   0.127
 3284SOL     OW10750   2.130   6.876   4.930
 3284SOL    HW110751   2.165   6.864   5.022
 3284SOL    HW210752   2.031   6.858   4.929
 3285SOL     OW10753   4.208   2.277   4.433
 3285SOL    HW110754   4.121   2.239   4.463
 3285SOL    HW210755   4.254   2.321   4.511
 3286SOL     OW10756   1.828   3.232   3.140
 3286SOL    HW110757   1.779   3.307   3.097
 3286SOL    HW210758   1.897   3.197   3.077
 3287SOL     OW10759   2.693   0.705   1.013
 3287SOL    HW110760   2.700   0.702   0.913
 3287SOL    HW210761   2.616   0.763   1.039
 3288SOL     OW10762   2.711   5.723   2.046
 3288SOL    HW110763   2.643   5.722   1.972
 3288SOL    HW210764   2.802   5.732   2.007
 3289SOL     OW10765   3.956   0.847   6.794
 3289SOL    HW110766   3.863   0.870   6.764
 3289SOL    HW210767   4.011   0.930   6.801
 3290SOL     OW10768   0.601   5.749   0.030
 3290SOL    HW110769   0.532   5.810   0.068
 3290SOL    HW210770   0.629   5.783   6.957
 3291SOL     OW10771   5.076   6.623   4.912
 3291SOL    HW110772   5.170   6.625   4.878
 3291SOL    HW210773   5.062   6.697   4.977
 3292SOL     OW10774   0.220   2.311   0.182
 3292SOL    HW110775   0.212   2.218   0.217
 3292SOL    HW210776   0.197   2.312   0.084
 3293SOL     OW10777   6.738   5.003   3.375
 3293SOL    HW110778   6.812   4.972   3.315
 3293SOL    HW210779   6.717   5.099   3.355
 3294SOL     OW10780   4.611   2.831   5.864
 3294SOL    HW110781   4.599   2.902   5.795
 3294SOL    HW210782   4.522   2.791   5.887
 3295SOL     OW10783   1.240   2.518   2.940
 3295SOL    HW110784   1.289   2.578   2.877
 3295SOL    HW210785   1.229   2.564   3.028
 3296SOL     OW10786   2.467   0.623   6.331
 3296SOL    HW110787   2.484   0.672   6.417
 3296SOL    HW210788   2.554   0.588   6.295
 3297SOL     OW10789   4.125   1.622   5.126
 3297SOL    HW110790   4.053   1.620   5.056
 3297SOL    HW210791   4.214   1.629   5.082
 3298SOL     OW10792   3.441   4.093   5.614
 3298SOL    HW110793   3.409   4.156   5.543
 3298SOL    HW210794   3.372   4.022   5.627
 3299SOL     OW10795   2.705   6.021   3.955
 3299SOL    HW110796   2.715   6.106   3.903
 3299SOL    HW210797   2.696   5.944   3.892
 3300SOL     OW10798   2.026   0.880   3.951
 3300SOL    HW110799   1.984   0.790   3.964
 3300SOL    HW210800   2.007   0.912   3.858
 3301SOL     OW10801   1.021   1.001   3.220
 3301SOL    HW110802   1.051   1.090   3.253
 3301SOL    HW210803   1.092   0.933   3.236
 3302SOL     OW10804   1.124   5.257   5.258
 3302SOL    HW110805   1.048   5.314   5.227
 3302SOL    HW210806   1.126   5.172   5.206
 3303SOL     OW10807   3.870   3.722   6.676
 3303SOL    HW110808   3.887   3.626   6.696
 3303SOL    HW210809   3.774   3.735   6.653
 3304SOL     OW10810   1.970   4.061   0.175
 3304SOL    HW110811   2.063   4.079   0.209
 3304SOL    HW210812   1.935   3.978   0.219
 3305SOL     OW10813   3.174   2.419   0.329
 3305SOL    HW110814   3.108   2.492   0.349
 3305SOL    HW210815   3.153   2.339   0.386
 3306SOL     OW10816   2.353   0.461   0.075
 3306SOL    HW110817   2.299   0.471   7.009
 3306SOL    HW210818   2.437   0.514   0.068
 3307SOL     OW10819   1.956   5.959   4.746
 3307SOL    HW110820   2.010   6.006   4.816
 3307SOL    HW210821   2.015   5.896   4.695
 3308SOL     OW10822   4.294   4.785   1.327
 3308SOL    HW110823   4.293   4.814   1.231
 3308SOL    HW210824   4.378   4.736   1.346
 3309SOL     OW10825   5.268   3.815   3.223
 3309SOL    HW110826   5.335   3.836   3.294
 3309SOL    HW210827   5.200   3.751   3.259
 3310SOL     OW10828   6.669   4.590   6.175
 3310SOL    HW110829   6.655   4.546   6.086
 3310SOL    HW210830   6.682   4.519   6.245
 3311SOL     OW10831   2.046   3.651   0.769
 3311SOL    HW110832   1.961   3.622   0.812
 3311SOL    HW210833   2.099   3.707   0.833
 3312SOL     OW10834   5.014   2.527   6.807
 3312SOL    HW110835   5.042   2.601   6.867
 3312SOL    HW210836   5.050   2.440   6.841
 3313SOL     OW10837   0.304   0.130   4.584
 3313SOL    HW110838   0.259   0.044   4.609
 3313SOL    HW210839   0.268   0.162   4.496
 3314SOL     OW10840   3.759   5.631   1.699
 3314SOL    HW110841   3.682   5.695   1.696
 3314SOL    HW210842   3.726   5.538   1.689
 3315SOL     OW10843   1.308   5.883   3.676
 3315SOL    HW110844   1.384   5.948   3.680
 3315SOL    HW210845   1.252   5.892   3.759
 3316SOL     OW10846   3.916   2.604   0.125
 3316SOL    HW110847   3.969   2.682   0.093
 3316SOL    HW210848   3.970   2.520   0.115
 3317SOL     OW10849   5.304   2.770   2.104
 3317SOL    HW110850   5.400   2.754   2.129
 3317SOL    HW210851   5.250   2.688   2.124
 3318SOL     OW10852   3.389   3.136   0.649
 3318SOL    HW110853   3.420   3.192   0.572
 3318SOL    HW210854   3.460   3.136   0.720
 3319SOL     OW10855   6.607   6.134   4.009
 3319SOL    HW110856   6.574   6.209   3.952
 3319SOL    HW210857   6.643   6.061   3.950
 3320SOL     OW10858   6.468   6.686   1.944
 3320SOL    HW110859   6.505   6.605   1.991
 3320SOL    HW210860   6.535   6.761   1.949
 3321SOL     OW10861   4.946   1.935   6.958
 3321SOL    HW110862   4.908   1.971   0.026
 3321SOL    HW210863   5.042   1.909   6.973
 3322SOL     OW10864   6.458   2.753   0.932
 3322SOL    HW110865   6.536   2.704   0.970
 3322SOL    HW210866   6.445   2.839   0.982
 3323SOL     OW10867   1.824   1.522   1.352
 3323SOL    HW110868   1.845   1.536   1.255
 3323SOL    HW210869   1.739   1.570   1.374
 3324SOL     OW10870   5.074   5.173   5.556
 3324SOL    HW110871   5.005   5.230   5.511
 3324SOL    HW210872   5.114   5.223   5.633
 3325SOL     OW10873   2.647   5.099   5.118
 3325SOL    HW110874   2.672   5.167   5.187
 3325SOL    HW210875   2.692   5.012   5.139
 3326SOL     OW10876   3.581   2.086   2.234
 3326SOL    HW110877   3.485   2.069   2.214
 3326SOL    HW210878   3.631   2.102   2.149
 3327SOL     OW10879   0.960   5.598   5.822
 3327SOL    HW110880   0.995   5.692   5.816
 3327SOL    HW210881   1.033   5.537   5.853
 3328SOL     OW10882   4.903   2.371   4.982
 3328SOL    HW110883   4.916   2.470   4.988
 3328SOL    HW210884   4.963   2.326   5.048
 3329SOL     OW10885   6.475   6.055   5.764
 3329SOL    HW110886   6.505   5.972   5.717
 3329SOL    HW210887   6.552   6.117   5.775
 3330SOL     OW10888   6.655   3.877   3.190
 3330SOL    HW110889   6.734   3.836   3.236
 3330SOL    HW210890   6.581   3.889   3.257
 3331SOL     OW10891   1.897   3.245   0.511
 3331SOL    HW110892   1.871   3.224   0.605
 3331SOL    HW210893   1.877   3.166   0.453
 3332SOL     OW10894   6.973   3.940   1.298
 3332SOL    HW110895   7.014   3.860   1.253
 3332SOL    HW210896   0.004   3.959   1.383
 3333SOL     OW10897   2.884   5.613   6.106
 3333SOL    HW110898   2.983   5.627   6.103
 3333SOL    HW210899   2.846   5.619   6.014
 3334SOL     OW10900   1.741   3.736   1.555
 3334SOL    HW110901   1.778   3.824   1.524
 3334SOL    HW210902   1.812   3.687   1.606
 3335SOL     OW10903   5.890   4.289   4.708
 3335SOL    HW110904   5.908   4.215   4.644
 3335SOL    HW210905   5.805   4.272   4.757
 3336SOL     OW10906   3.215   5.917   6.065
 3336SOL    HW110907   3.201   5.826   6.027
 3336SOL    HW210908   3.256   5.909   6.156
 3337SOL     OW10909   3.298   1.925   0.978
 3337SOL    HW110910   3.386   1.952   1.017
 3337SOL    HW210911   3.282   1.828   0.997
 3338SOL     OW10912   0.210   4.966   0.567
 3338SOL    HW110913   0.122   4.997   0.602
 3338SOL    HW210914   0.250   4.900   0.630
 3339SOL     OW10915   1.044   5.953   6.065
 3339SOL    HW110916   1.054   6.049   6.092
 3339SOL    HW210917   1.034   5.947   5.966
 3340SOL     OW10918   4.138   0.434   2.163
 3340SOL    HW110919   4.185   0.455   2.077
 3340SOL    HW210920   4.047   0.398   2.144
 3341SOL     OW10921   0.282   6.849   1.470
 3341SOL    HW110922   0.217   6.923   1.457
 3341SOL    HW210923   0.371   6.887   1.495
 3342SOL     OW10924   2.798   0.678   5.361
 3342SOL    HW110925   2.850   0.621   5.299
 3342SOL    HW210926   2.700   0.671   5.339
 3343SOL     OW10927   0.057   2.210   1.200
 3343SOL    HW110928   0.123   2.137   1.217
 3343SOL    HW210929   0.061   2.236   1.104
 3344SOL     OW10930   0.025   2.597   6.060
 3344SOL    HW110931   7.010   2.555   6.145
 3344SOL    HW210932   6.973   2.662   6.027
 3345SOL     OW10933   2.021   3.388   5.291
 3345SOL    HW110934   1.965   3.456   5.339
 3345SOL    HW210935   2.118   3.408   5.308
 3346SOL     OW10936   1.972   5.938   2.295
 3346SOL    HW110937   1.912   5.859   2.310
 3346SOL    HW210938   1.977   5.957   2.197
 3347SOL     OW10939   5.894   4.148   4.244
 3347SOL    HW110940   5.884   4.116   4.338
 3347SOL    HW210941   5.972   4.102   4.202
 3348SOL     OW10942   3.754   3.463   3.325
 3348SOL    HW110943   3.844   3.438   3.361
 3348SOL    HW210944   3.765   3.501   3.233
 3349SOL     OW10945   5.828   3.489   6.465
 3349SOL    HW110946   5.822   3.410   6.527
 3349SOL    HW210947   5.915   3.536   6.479
 3350SOL     OW10948   1.511   2.030   0.992
 3350SOL    HW110949   1.483   2.028   1.088
 3350SOL    HW210950   1.609   2.011   0.986
 3351SOL     OW10951   5.356   2.399   0.483
 3351SOL    HW110952   5.377   2.354   0.396
 3351SOL    HW210953   5.415   2.480   0.493
 3352SOL     OW10954   0.778   3.585   0.317
 3352SOL    HW110955   0.727   3.605   0.401
 3352SOL    HW210956   0.729   3.515   0.265
 3353SOL     OW10957   1.720   6.401   5.941
 3353SOL    HW110958   1.651   6.328   5.940
 3353SOL    HW210959   1.678   6.486   5.975
 3354SOL     OW10960   1.275   1.269   1.773
 3354SOL    HW110961   1.199   1.239   1.716
 3354SOL    HW210962   1.359   1.224   1.743
 3355SOL     OW10963   6.641   1.112   2.997
 3355SOL    HW110964   6.554   1.114   3.046
 3355SOL    HW210965   6.642   1.035   2.933
 3356SOL     OW10966   1.594   3.427   5.355
 3356SOL    HW110967   1.522   3.426   5.286
 3356SOL    HW210968   1.608   3.334   5.390
 3357SOL     OW10969   2.444   5.246   2.431
 3357SOL    HW110970   2.442   5.221   2.334
 3357SOL    HW210971   2.503   5.326   2.444
 3358SOL     OW10972   0.180   4.466   3.521
 3358SOL    HW110973   0.131   4.552   3.539
 3358SOL    HW210974   0.114   4.395   3.499
 3359SOL     OW10975   1.583   1.375   2.162
 3359SOL    HW110976   1.655   1.401   2.098
 3359SOL    HW210977   1.615   1.388   2.256
 3360SOL     OW10978   2.293   0.430   6.230
 3360SOL    HW110979   2.374   0.487   6.244
 3360SOL    HW210980   2.261   0.395   6.317
 3361SOL     OW10981   4.137   0.962   3.097
 3361SOL    HW110982   4.105   0.873   3.063
 3361SOL    HW210983   4.232   0.953   3.128
 3362SOL     OW10984   2.560   1.987   5.013
 3362SOL    HW110985   2.482   2.049   5.014
 3362SOL    HW210986   2.564   1.936   5.099
 3363SOL     OW10987   0.022   0.660   6.298
 3363SOL    HW110988   0.093   0.655   6.227
 3363SOL    HW210989   0.011   0.571   6.341
 3364SOL     OW10990   1.923   4.693   6.349
 3364SOL    HW110991   1.824   4.705   6.340
 3364SOL    HW210992   1.962   4.768   6.402
 3365SOL     OW10993   5.995   2.274   6.025
 3365SOL    HW110994   6.060   2.199   6.014
 3365SOL    HW210995   6.028   2.354   5.975
 3366SOL     OW10996   5.328   0.837   6.551
 3366SOL    HW110997   5.329   0.810   6.454
 3366SOL    HW210998   5.266   0.778   6.601
 3367SOL     OW10999   2.138   0.306   1.979
 3367SOL    HW111000   2.177   0.384   2.027
 3367SOL    HW211001   2.197   0.226   1.991
 3368SOL     OW11002   6.615   0.990   5.817
 3368SOL    HW111003   6.618   0.936   5.732
 3368SOL    HW211004   6.569   0.937   5.888
 3369SOL     OW11005   3.417   6.174   6.160
 3369SOL    HW111006   3.481   6.245   6.190
 3369SOL    HW211007   3.380   6.198   6.070
 3370SOL     OW11008   5.335   6.999   5.474
 3370SOL    HW111009   5.428   0.003   5.502
 3370SOL    HW211010   5.277   6.987   5.555
 3371SOL     OW11011   6.556   4.863   1.299
 3371SOL    HW111012   6.595   4.793   1.240
 3371SOL    HW211013   6.627   4.926   1.330
 3372SOL     OW11014   0.438   2.355   2.737
 3372SOL    HW111015   0.461   2.258   2.728
 3372SOL    HW211016   0.522   2.407   2.754
 3373SOL     OW11017   0.560   2.356   6.247
 3373SOL    HW111018   0.542   2.401   6.160
 3373SOL    HW211019   0.590   2.424   6.314
 3374SOL     OW11020   3.943   5.900   5.340
 3374SOL    HW111021   3.868   5.907   5.406
 3374SOL    HW211022   3.910   5.858   5.256
 3375SOL     OW11023   3.824   4.152   5.100
 3375SOL    HW111024   3.827   4.168   5.001
 3375SOL    HW211025   3.790   4.060   5.119
 3376SOL     OW11026   2.639   3.182   1.732
 3376SOL    HW111027   2.709   3.153   1.798
 3376SOL    HW211028   2.633   3.281   1.730
 3377SOL     OW11029   2.683   5.688   5.459
 3377SOL    HW111030   2.714   5.783   5.461
 3377SOL    HW211031   2.657   5.663   5.366
 3378SOL     OW11032   7.000   0.638   0.569
 3378SOL    HW111033   7.017   0.729   0.532
 3378SOL    HW211034   0.069   0.601   0.605
 3379SOL     OW11035   6.962   5.018   5.572
 3379SOL    HW111036   6.988   5.114   5.567
 3379SOL    HW211037   6.868   5.007   5.538
 3380SOL     OW11038   0.761   3.971   5.618
 3380SOL    HW111039   0.677   3.941   5.663
 3380SOL    HW211040   0.766   3.929   5.527
 3381SOL     OW11041   3.272   2.858   1.499
 3381SOL    HW111042   3.318   2.783   1.545
 3381SOL    HW211043   3.225   2.916   1.566
 3382SOL     OW11044   6.787   6.837   6.902
 3382SOL    HW111045   6.710   6.824   6.965
 3382SOL    HW211046   6.751   6.858   6.811
 3383SOL     OW11047   0.631   4.036   2.698
 3383SOL    HW111048   0.697   4.029   2.773
 3383SOL    HW211049   0.658   3.974   2.624
 3384SOL     OW11050   3.141   3.061   4.715
 3384SOL    HW111051   3.150   3.128   4.788
 3384SOL    HW211052   3.072   3.092   4.650
 3385SOL     OW11053   6.983   4.028   3.586
 3385SOL    HW111054   0.042   4.065   3.640
 3385SOL    HW211055   6.968   3.932   3.612
 3386SOL     OW11056   5.879   3.539   5.106
 3386SOL    HW111057   5.797   3.519   5.160
 3386SOL    HW211058   5.854   3.595   5.027
 3387SOL     OW11059   3.497   2.069   2.655
 3387SOL    HW111060   3.423   2.068   2.587
 3387SOL    HW211061   3.459   2.049   2.746
 3388SOL     OW11062   5.227   3.361   2.106
 3388SOL    HW111063   5.135   3.323   2.116
 3388SOL    HW211064   5.293   3.300   2.150
 3389SOL     OW11065   4.329   4.624   3.031
 3389SOL    HW111066   4.343   4.632   3.130
 3389SOL    HW211067   4.376   4.542   2.997
 3390SOL     OW11068   4.883   2.446   5.951
 3390SOL    HW111069   4.802   2.390   5.968
 3390SOL    HW211070   4.958   2.387   5.920
 3391SOL     OW11071   4.138   1.974   3.971
 3391SOL    HW111072   4.087   2.048   4.014
 3391SOL    HW211073   4.169   2.003   3.880
 3392SOL     OW11074   5.135   6.017   3.265
 3392SOL    HW111075   5.096   6.085   3.327
 3392SOL    HW211076   5.210   5.969   3.310
 3393SOL     OW11077   6.774   0.880   0.048
 3393SOL    HW111078   6.825   0.907   0.130
 3393SOL    HW211079   6.696   0.941   0.035
 3394SOL     OW11080   5.525   1.214   1.886
 3394SOL    HW111081   5.488   1.196   1.795
 3394SOL    HW211082   5.559   1.128   1.925
 3395SOL     OW11083   1.358   3.638   5.379
 3395SOL    HW111084   1.426   3.649   5.306
 3395SOL    HW211085   1.320   3.545   5.375
 3396SOL     OW11086   6.697   3.790   4.303
 3396SOL    HW111087   6.790   3.783   4.341
 3396SOL    HW211088   6.675   3.886   4.287
 3397SOL     OW11089   2.780   6.294   5.802
 3397SOL    HW111090   2.840   6.306   5.881
 3397SOL    HW211091   2.685   6.301   5.830
 3398SOL     OW11092   0.629   0.468   4.101
 3398SOL    HW111093   0.584   0.510   4.179
 3398SOL    HW211094   0.719   0.433   4.128
 3399SOL     OW11095   4.357   5.536   4.283
 3399SOL    HW111096   4.443   5.533   4.232
 3399SOL    HW211097   4.371   5.499   4.375
 3400SOL     OW11098   5.096   2.206   6.864
 3400SOL    HW111099   4.998   2.222   6.857
 3400SOL    HW211100   5.132   2.184   6.773
 3401SOL     OW11101   6.810   4.856   6.667
 3401SOL    HW111102   6.777   4.856   6.761
 3401SOL    HW211103   6.902   4.818   6.663
 3402SOL     OW11104   5.329   5.295   2.365
 3402SOL    HW111105   5.256   5.324   2.426
 3402SOL    HW211106   5.310   5.202   2.332
 3403SOL     OW11107   3.080   2.031   4.967
 3403SOL    HW111108   3.086   2.130   4.972
 3403SOL    HW211109   3.014   1.998   5.036
 3404SOL     OW11110   4.251   0.797   1.539
 3404SOL    HW111111   4.328   0.846   1.499
 3404SOL    HW211112   4.192   0.763   1.466
 3405SOL     OW11113   5.652   3.420   0.664
 3405SOL    HW111114   5.629   3.486   0.593
 3405SOL    HW211115   5.738   3.447   0.708
 3406SOL     OW11116   1.141   4.472   1.603
 3406SOL    HW111117   1.234   4.443   1.580
 3406SOL    HW211118   1.142   4.520   1.691
 3407SOL     OW11119   1.585   5.449   2.753
 3407SOL    HW111120   1.597   5.351   2.770
 3407SOL    HW211121   1.518   5.462   2.680
 3408SOL     OW11122   5.346   4.191   2.873
 3408SOL    HW111123   5.347   4.097   2.906
 3408SOL    HW211124   5.263   4.237   2.905
 3409SOL     OW11125   2.721   0.648   5.964
 3409SOL    HW111126   2.729   0.719   5.895
 3409SOL    HW211127   2.813   0.618   5.991
 3410SOL     OW11128   0.096   0.861   0.013
 3410SOL    HW111129   0.010   0.853   0.064
 3410SOL    HW211130   0.161   0.792   0.046
 3411SOL     OW11131   4.560   2.553   2.417
 3411SOL    HW111132   4.568   2.535   2.319
 3411SOL    HW211133   4.633   2.615   2.446
 3412SOL     OW11134   3.842   5.090   6.723
 3412SOL    HW111135   3.941   5.094   6.709
 3412SOL    HW211136   3.812   4.995   6.724
 3413SOL     OW11137   4.363   1.655   2.100
 3413SOL    HW111138   4.337   1.747   2.130
 3413SOL    HW211139   4.295   1.589   2.131
 3414SOL     OW11140   3.779   1.286   5.136
 3414SOL    HW111141   3.766   1.369   5.082
 3414SOL    HW211142   3.692   1.236   5.142
 3415SOL     OW11143   0.616   5.339   4.330
 3415SOL    HW111144   0.591   5.351   4.234
 3415SOL    HW211145   0.710   5.304   4.336
 3416SOL     OW11146   2.164   5.041   5.859
 3416SOL    HW111147   2.131   4.952   5.891
 3416SOL    HW211148   2.087   5.103   5.847
 3417SOL     OW11149   6.013   0.458   1.396
 3417SOL    HW111150   5.962   0.492   1.475
 3417SOL    HW211151   6.001   0.358   1.389
 3418SOL     OW11152   3.329   1.979   6.388
 3418SOL    HW111153   3.318   1.901   6.326
 3418SOL    HW211154   3.259   2.048   6.368
 3419SOL     OW11155   4.418   3.667   0.472
 3419SOL    HW111156   4.475   3.619   0.539
 3419SOL    HW211157   4.357   3.601   0.428
 3420SOL     OW11158   4.191   1.891   3.668
 3420SOL    HW111159   4.114   1.942   3.706
 3420SOL    HW211160   4.179   1.794   3.685
 3421SOL     OW11161   0.714   6.516   3.936
 3421SOL    HW111162   0.630   6.473   3.902
 3421SOL    HW211163   0.710   6.614   3.918
 3422SOL     OW11164   3.280   1.997   2.433
 3422SOL    HW111165   3.199   1.940   2.422
 3422SOL    HW211166   3.310   2.029   2.343
 3423SOL     OW11167   2.729   0.911   2.021
 3423SOL    HW111168   2.720   0.816   2.050
 3423SOL    HW211169   2.651   0.965   2.053
 3424SOL     OW11170   4.346   0.774   2.080
 3424SOL    HW111171   4.374   0.866   2.105
 3424SOL    HW211172   4.336   0.768   1.980
 3425SOL     OW11173   5.167   4.444   1.616
 3425SOL    HW111174   5.137   4.423   1.709
 3425SOL    HW211175   5.244   4.384   1.592
 3426SOL     OW11176   4.322   3.453   0.318
 3426SOL    HW111177   4.362   3.361   0.316
 3426SOL    HW211178   4.223   3.447   0.307
 3427SOL     OW11179   0.691   1.277   0.659
 3427SOL    HW111180   0.728   1.354   0.711
 3427SOL    HW211181   0.765   1.234   0.607
 3428SOL     OW11182   4.131   4.741   3.295
 3428SOL    HW111183   4.204   4.688   3.340
 3428SOL    HW211184   4.172   4.801   3.226
 3429SOL     OW11185   0.542   3.034   6.875
 3429SOL    HW111186   0.471   3.086   6.923
 3429SOL    HW211187   0.632   3.073   6.897
 3430SOL     OW11188   0.984   6.162   6.554
 3430SOL    HW111189   1.046   6.095   6.593
 3430SOL    HW211190   0.899   6.118   6.526
 3431SOL     OW11191   1.035   6.273   6.854
 3431SOL    HW111192   1.069   6.257   6.762
 3431SOL    HW211193   0.973   6.351   6.854
 3432SOL     OW11194   2.814   2.348   6.490
 3432SOL    HW111195   2.758   2.429   6.474
 3432SOL    HW211196   2.872   2.362   6.570
 3433SOL     OW11197   4.644   0.846   4.206
 3433SOL    HW111198   4.568   0.890   4.254
 3433SOL    HW211199   4.730   0.874   4.248
 3434SOL     OW11200   4.751   2.217   3.244
 3434SOL    HW111201   4.820   2.288   3.226
 3434SOL    HW211202   4.733   2.166   3.161
 3435SOL     OW11203   0.692   1.484   6.674
 3435SOL    HW111204   0.722   1.403   6.724
 3435SOL    HW211205   0.644   1.546   6.737
 3436SOL     OW11206   4.481   0.135   3.358
 3436SOL    HW111207   4.445   0.056   3.407
 3436SOL    HW211208   4.482   0.117   3.260
 3437SOL     OW11209   4.569   0.305   6.115
 3437SOL    HW111210   4.472   0.297   6.091
 3437SOL    HW211211   4.607   0.385   6.068
 3438SOL     OW11212   1.512   4.040   6.434
 3438SOL    HW111213   1.462   4.093   6.503
 3438SOL    HW211214   1.580   3.983   6.479
 3439SOL     OW11215   2.698   6.951   3.687
 3439SOL    HW111216   2.744   0.006   3.635
 3439SOL    HW211217   2.675   6.875   3.627
 3440SOL     OW11218   3.445   2.204   0.837
 3440SOL    HW111219   3.412   2.139   0.770
 3440SOL    HW211220   3.473   2.155   0.920
 3441SOL     OW11221   3.664   0.736   4.256
 3441SOL    HW111222   3.642   0.814   4.197
 3441SOL    HW211223   3.602   0.660   4.237
 3442SOL     OW11224   1.424   4.760   2.918
 3442SOL    HW111225   1.419   4.670   2.961
 3442SOL    HW211226   1.362   4.823   2.965
 3443SOL     OW11227   5.901   0.766   3.908
 3443SOL    HW111228   5.808   0.800   3.901
 3443SOL    HW211229   5.965   0.839   3.883
 3444SOL     OW11230   4.016   5.180   0.396
 3444SOL    HW111231   3.950   5.174   0.321
 3444SOL    HW211232   3.984   5.248   0.462
 3445SOL     OW11233   5.804   5.058   4.805
 3445SOL    HW111234   5.897   5.033   4.777
 3445SOL    HW211235   5.785   5.152   4.777
 3446SOL     OW11236   3.092   6.580   2.910
 3446SOL    HW111237   3.153   6.639   2.858
 3446SOL    HW211238   3.024   6.635   2.958
 3447SOL     OW11239   6.557   4.983   6.180
 3447SOL    HW111240   6.501   5.064   6.198
 3447SOL    HW211241   6.587   4.944   6.267
 3448SOL     OW11242   3.498   2.358   1.232
 3448SOL    HW111243   3.551   2.380   1.313
 3448SOL    HW211244   3.450   2.271   1.246
 3449SOL     OW11245   6.106   5.956   2.697
 3449SOL    HW111246   6.114   6.044   2.651
 3449SOL    HW211247   6.082   5.969   2.793
 3450SOL     OW11248   0.850   2.362   1.411
 3450SOL    HW111249   0.827   2.353   1.508
 3450SOL    HW211250   0.861   2.458   1.388
 3451SOL     OW11251   1.380   5.385   4.026
 3451SOL    HW111252   1.383   5.483   4.006
 3451SOL    HW211253   1.473   5.347   4.022
 3452SOL     OW11254   6.502   2.404   0.440
 3452SOL    HW111255   6.597   2.379   0.424
 3452SOL    HW211256   6.498   2.500   0.469
 3453SOL     OW11257   6.249   6.175   6.058
 3453SOL    HW111258   6.238   6.205   5.963
 3453SOL    HW211259   6.342   6.197   6.089
 3454SOL     OW11260   0.825   1.173   0.236
 3454SOL    HW111261   0.740   1.189   0.285
 3454SOL    HW211262   0.846   1.252   0.179
 3455SOL     OW11263   2.113   2.487   4.547
 3455SOL    HW111264   2.063   2.574   4.556
 3455SOL    HW211265   2.064   2.426   4.485
 3456SOL     OW11266   6.610   0.197   1.082
 3456SOL    HW111267   6.570   0.134   1.015
 3456SOL    HW211268   6.665   0.145   1.147
 3457SOL     OW11269   2.387   5.779   3.499
 3457SOL    HW111270   2.468   5.782   3.557
 3457SOL    HW211271   2.305   5.771   3.556
 3458SOL     OW11272   5.303   5.413   0.867
 3458SOL    HW111273   5.251   5.434   0.950
 3458SOL    HW211274   5.288   5.486   0.800
 3459SOL     OW11275   6.960   6.412   3.471
 3459SOL    HW111276   6.897   6.335   3.476
 3459SOL    HW211277   7.008   6.410   3.383
 3460SOL     OW11278   3.718   3.332   5.833
 3460SOL    HW111279   3.789   3.292   5.891
 3460SOL    HW211280   3.728   3.297   5.740
 3461SOL     OW11281   3.291   5.893   2.821
 3461SOL    HW111282   3.334   5.908   2.910
 3461SOL    HW211283   3.296   5.976   2.766
 3462SOL     OW11284   4.843   3.330   3.144
 3462SOL    HW111285   4.745   3.347   3.131
 3462SOL    HW211286   4.862   3.233   3.128
 3463SOL     OW11287   2.333   2.755   0.925
 3463SOL    HW111288   2.391   2.712   0.994
 3463SOL    HW211289   2.290   2.684   0.868
 3464SOL     OW11290   4.658   2.293   6.444
 3464SOL    HW111291   4.564   2.313   6.415
 3464SOL    HW211292   4.722   2.337   6.381
 3465SOL     OW11293   2.021   4.191   1.913
 3465SOL    HW111294   2.069   4.271   1.949
 3465SOL    HW211295   1.991   4.210   1.819
 3466SOL     OW11296   6.473   4.437   4.023
 3466SOL    HW111297   6.557   4.390   3.997
 3466SOL    HW211298   6.407   4.431   3.947
 3467SOL     OW11299   2.971   2.850   1.166
 3467SOL    HW111300   2.976   2.813   1.073
 3467SOL    HW211301   2.881   2.892   1.181
 3468SOL     OW11302   3.578   1.848   0.697
 3468SOL    HW111303   3.555   1.794   0.778
 3468SOL    HW211304   3.506   1.915   0.681
 3469SOL     OW11305   3.797   6.086   5.759
 3469SOL    HW111306   3.737   6.028   5.814
 3469SOL    HW211307   3.837   6.157   5.817
 3470SOL     OW11308   1.190   3.284   1.554
 3470SOL    HW111309   1.229   3.371   1.526
 3470SOL    HW211310   1.125   3.300   1.629
 3471SOL     OW11311   5.199   3.504   4.611
 3471SOL    HW111312   5.173   3.414   4.576
 3471SOL    HW211313   5.275   3.541   4.557
 3472SOL     OW11314   4.266   1.768   2.790
 3472SOL    HW111315   4.243   1.860   2.757
 3472SOL    HW211316   4.190   1.706   2.772
 3473SOL     OW11317   6.664   4.795   1.672
 3473SOL    HW111318   6.661   4.794   1.772
 3473SOL    HW211319   6.722   4.721   1.640
 3474SOL     OW11320   5.456   4.496   4.366
 3474SOL    HW111321   5.475   4.593   4.348
 3474SOL    HW211322   5.500   4.440   4.296
 3475SOL     OW11323   0.079   4.706   4.210
 3475SOL    HW111324   0.071   4.779   4.142
 3475SOL    HW211325   0.169   4.711   4.254
 3476SOL     OW11326   1.844   1.167   3.720
 3476SOL    HW111327   1.796   1.247   3.683
 3476SOL    HW211328   1.820   1.156   3.817
 3477SOL     OW11329   1.135   4.267   2.258
 3477SOL    HW111330   1.173   4.184   2.217
 3477SOL    HW211331   1.042   4.249   2.288
 3478SOL     OW11332   2.065   1.003   1.525
 3478SOL    HW111333   2.111   1.090   1.507
 3478SOL    HW211334   2.087   0.939   1.451
 3479SOL     OW11335   1.409   4.996   5.014
 3479SOL    HW111336   1.383   4.958   4.925
 3479SOL    HW211337   1.342   4.968   5.082
 3480SOL     OW11338   1.343   4.736   6.884
 3480SOL    HW111339   1.435   4.703   6.907
 3480SOL    HW211340   1.305   4.681   6.810
 3481SOL     OW11341   6.112   0.969   5.217
 3481SOL    HW111342   6.112   0.908   5.297
 3481SOL    HW211343   6.205   0.980   5.183
 3482SOL     OW11344   5.748   3.367   5.765
 3482SOL    HW111345   5.728   3.350   5.861
 3482SOL    HW211346   5.707   3.453   5.737
 3483SOL     OW11347   5.469   2.997   5.339
 3483SOL    HW111348   5.382   3.015   5.385
 3483SOL    HW211349   5.544   3.017   5.401
 3484SOL     OW11350   1.534   3.708   5.173
 3484SOL    HW111351   1.632   3.701   5.157
 3484SOL    HW211352   1.512   3.801   5.205
 3485SOL     OW11353   6.677   2.887   6.656
 3485SOL    HW111354   6.680   2.941   6.741
 3485SOL    HW211355   6.765   2.841   6.643
 3486SOL     OW11356   2.153   6.080   4.920
 3486SOL    HW111357   2.076   6.127   4.963
 3486SOL    HW211358   2.226   6.146   4.902
 3487SOL     OW11359   4.815   1.089   6.402
 3487SOL    HW111360   4.830   1.085   6.303
 3487SOL    HW211361   4.904   1.095   6.449
 3488SOL     OW11362   5.795   0.435   5.119
 3488SOL    HW111363   5.726   0.391   5.177
 3488SOL    HW211364   5.874   0.374   5.109
 3489SOL     OW11365   2.867   6.144   0.765
 3489SOL    HW111366   2.957   6.185   0.780
 3489SOL    HW211367   2.832   6.108   0.851
 3490SOL     OW11368   3.323   0.159   0.143
 3490SOL    HW111369   3.276   0.119   0.064
 3490SOL    HW211370   3.269   0.142   0.226
 3491SOL     OW11371   4.389   4.859   6.180
 3491SOL    HW111372   4.318   4.902   6.124
 3491SOL    HW211373   4.435   4.928   6.235
 3492SOL     OW11374   6.020   4.199   2.253
 3492SOL    HW111375   5.976   4.258   2.321
 3492SOL    HW211376   6.082   4.252   2.197
 3493SOL     OW11377   6.503   3.100   5.521
 3493SOL    HW111378   6.581   3.117   5.581
 3493SOL    HW211379   6.471   3.006   5.533
 3494SOL     OW11380   4.272   1.717   2.405
 3494SOL    HW111381   4.336   1.744   2.477
 3494SOL    HW211382   4.279   1.782   2.329
 3495SOL     OW11383   0.950   2.774   2.610
 3495SOL    HW111384   0.864   2.745   2.654
 3495SOL    HW211385   1.020   2.705   2.627
 3496SOL     OW11386   5.745   5.470   0.853
 3496SOL    HW111387   5.815   5.513   0.910
 3496SOL    HW211388   5.784   5.389   0.808
 3497SOL     OW11389   3.136   6.734   2.248
 3497SOL    HW111390   3.081   6.658   2.284
 3497SOL    HW211391   3.123   6.815   2.306
 3498SOL     OW11392   2.093   2.580   1.501
 3498SOL    HW111393   2.180   2.624   1.518
 3498SOL    HW211394   2.018   2.645   1.515
 3499SOL     OW11395   6.285   5.907   4.907
 3499SOL    HW111396   6.214   5.976   4.919
 3499SOL    HW211397   6.310   5.869   4.996
 3500SOL     OW11398   2.083   2.150   4.527
 3500SOL    HW111399   2.019   2.193   4.590
 3500SOL    HW211400   2.177   2.168   4.556
 3501SOL     OW11401   1.682   0.460   4.910
 3501SOL    HW111402   1.633   0.470   4.997
 3501SOL    HW211403   1.626   0.408   4.846
 3502SOL     OW11404   4.788   2.719   2.497
 3502SOL    HW111405   4.878   2.700   2.458
 3502SOL    HW211406   4.799   2.757   2.589
 3503SOL     OW11407   6.291   6.456   6.668
 3503SOL    HW111408   6.320   6.369   6.707
 3503SOL    HW211409   6.364   6.524   6.682
 3504SOL     OW11410   1.015   0.584   0.214
 3504SOL    HW111411   1.090   0.637   0.173
 3504SOL    HW211412   0.930   0.602   0.164
 3505SOL     OW11413   5.431   4.623   6.088
 3505SOL    HW111414   5.466   4.539   6.129
 3505SOL    HW211415   5.392   4.602   5.998
 3506SOL     OW11416   4.561   4.923   4.738
 3506SOL    HW111417   4.582   4.923   4.641
 3506SOL    HW211418   4.467   4.955   4.752
 3507SOL     OW11419   3.068   0.387   0.893
 3507SOL    HW111420   3.063   0.451   0.970
 3507SOL    HW211421   3.080   0.294   0.928
 3508SOL     OW11422   3.453   1.825   5.251
 3508SOL    HW111423   3.433   1.824   5.349
 3508SOL    HW211424   3.472   1.731   5.220
 3509SOL     OW11425   3.372   5.593   6.434
 3509SOL    HW111426   3.427   5.676   6.430
 3509SOL    HW211427   3.389   5.546   6.521
 3510SOL     OW11428   2.493   1.478   0.146
 3510SOL    HW111429   2.569   1.429   0.190
 3510SOL    HW211430   2.530   1.540   0.077
 3511SOL     OW11431   3.018   4.356   1.723
 3511SOL    HW111432   2.964   4.426   1.771
 3511SOL    HW211433   3.113   4.386   1.717
 3512SOL     OW11434   0.499   5.290   5.731
 3512SOL    HW111435   0.588   5.263   5.695
 3512SOL    HW211436   0.478   5.237   5.813
 3513SOL     OW11437   6.177   1.686   0.328
 3513SOL    HW111438   6.185   1.786   0.322
 3513SOL    HW211439   6.118   1.662   0.405
 3514SOL     OW11440   3.659   1.280   2.262
 3514SOL    HW111441   3.576   1.225   2.252
 3514SOL    HW211442   3.662   1.350   2.191
 3515SOL     OW11443   0.244   5.549   4.177
 3515SOL    HW111444   0.222   5.609   4.253
 3515SOL    HW211445   0.184   5.469   4.179
 3516SOL     OW11446   4.313   0.494   1.581
 3516SOL    HW111447   4.248   0.553   1.628
 3516SOL    HW211448   4.274   0.402   1.571
 3517SOL     OW11449   5.856   0.194   1.313
 3517SOL    HW111450   5.946   0.208   1.271
 3517SOL    HW211451   5.810   0.119   1.266
 3518SOL     OW11452   4.806   0.810   5.357
 3518SOL    HW111453   4.853   0.800   5.270
 3518SOL    HW211454   4.858   0.872   5.416
 3519SOL     OW11455   3.414   0.637   1.142
 3519SOL    HW111456   3.335   0.672   1.092
 3519SOL    HW211457   3.410   0.667   1.237
 3520SOL     OW11458   2.753   6.117   4.588
 3520SOL    HW111459   2.843   6.082   4.617
 3520SOL    HW211460   2.682   6.054   4.619
 3521SOL     OW11461   2.370   3.109   0.336
 3521SOL    HW111462   2.452   3.148   0.294
 3521SOL    HW211463   2.307   3.182   0.360
 3522SOL     OW11464   0.393   5.730   6.321
 3522SOL    HW111465   0.379   5.750   6.224
 3522SOL    HW211466   0.477   5.676   6.333
 3523SOL     OW11467   2.106   5.542   0.077
 3523SOL    HW111468   2.016   5.540   0.034
 3523SOL    HW211469   2.104   5.603   0.156
 3524SOL     OW11470   5.306   0.991   3.576
 3524SOL    HW111471   5.241   1.031   3.641
 3524SOL    HW211472   5.342   1.062   3.516
 3525SOL     OW11473   6.619   3.704   2.917
 3525SOL    HW111474   6.644   3.731   3.010
 3525SOL    HW211475   6.521   3.715   2.904
 3526SOL     OW11476   0.404   6.706   3.089
 3526SOL    HW111477   0.498   6.691   3.057
 3526SOL    HW211478   0.375   6.630   3.146
 3527SOL     OW11479   0.297   2.540   6.124
 3527SOL    HW111480   0.230   2.608   6.095
 3527SOL    HW211481   0.286   2.524   6.223
 3528SOL     OW11482   2.195   5.774   4.880
 3528SOL    HW111483   2.135   5.721   4.941
 3528SOL    HW211484   2.181   5.871   4.897
 3529SOL     OW11485   4.255   5.295   0.852
 3529SOL    HW111486   4.260   5.351   0.769
 3529SOL    HW211487   4.295   5.205   0.834
 3530SOL     OW11488   6.874   6.744   1.645
 3530SOL    HW111489   6.941   6.803   1.689
 3530SOL    HW211490   6.788   6.747   1.696
 3531SOL     OW11491   5.389   2.004   0.211
 3531SOL    HW111492   5.305   1.959   0.180
 3531SOL    HW211493   5.405   1.982   0.307
 3532SOL     OW11494   2.070   1.352   1.942
 3532SOL    HW111495   1.998   1.403   1.989
 3532SOL    HW211496   2.029   1.293   1.873
 3533SOL     OW11497   0.963   1.438   3.266
 3533SOL    HW111498   0.967   1.484   3.355
 3533SOL    HW211499   0.896   1.485   3.208
 3534SOL     OW11500   0.208   1.786   0.950
 3534SOL    HW111501   0.276   1.728   0.995
 3534SOL    HW211502   0.254   1.864   0.907
 3535SOL     OW11503   2.732   5.654   4.642
 3535SOL    HW111504   2.826   5.621   4.651
 3535SOL    HW211505   2.673   5.604   4.706
 3536SOL     OW11506   3.847   2.125   2.789
 3536SOL    HW111507   3.840   2.060   2.713
 3536SOL    HW211508   3.815   2.215   2.759
 3537SOL     OW11509   2.290   6.714   3.027
 3537SOL    HW111510   2.338   6.644   2.974
 3537SOL    HW211511   2.277   6.795   2.969
 3538SOL     OW11512   3.289   5.338   3.685
 3538SOL    HW111513   3.355   5.307   3.617
 3538SOL    HW211514   3.302   5.286   3.769
 3539SOL     OW11515   3.791   3.427   4.448
 3539SOL    HW111516   3.778   3.500   4.381
 3539SOL    HW211517   3.879   3.381   4.432
 3540SOL     OW11518   1.883   2.254   3.164
 3540SOL    HW111519   1.815   2.191   3.200
 3540SOL    HW211520   1.837   2.323   3.108
 3541SOL     OW11521   3.694   4.064   4.315
 3541SOL    HW111522   3.771   4.008   4.346
 3541SOL    HW211523   3.674   4.043   4.220
 3542SOL     OW11524   0.232   5.380   1.287
 3542SOL    HW111525   0.154   5.404   1.345
 3542SOL    HW211526   0.204   5.382   1.191
 3543SOL     OW11527   6.416   3.004   4.818
 3543SOL    HW111528   6.338   3.039   4.766
 3543SOL    HW211529   6.392   2.916   4.859
 3544SOL     OW11530   1.976   5.912   6.992
 3544SOL    HW111531   2.046   5.930   0.044
 3544SOL    HW211532   2.018   5.873   6.911
 3545SOL     OW11533   3.100   5.331   0.110
 3545SOL    HW111534   3.164   5.260   0.081
 3545SOL    HW211535   3.023   5.333   0.047
 3546SOL     OW11536   6.705   4.624   2.763
 3546SOL    HW111537   6.720   4.558   2.836
 3546SOL    HW211538   6.630   4.686   2.788
 3547SOL     OW11539   4.931   4.813   4.399
 3547SOL    HW111540   4.971   4.876   4.332
 3547SOL    HW211541   4.983   4.727   4.398
 3548SOL     OW11542   4.638   2.886   5.436
 3548SOL    HW111543   4.705   2.885   5.510
 3548SOL    HW211544   4.676   2.932   5.357
 3549SOL     OW11545   5.943   3.738   2.425
 3549SOL    HW111546   5.888   3.818   2.403
 3549SOL    HW211547   6.002   3.758   2.504
 3550SOL     OW11548   6.100   1.942   2.638
 3550SOL    HW111549   6.094   1.861   2.697
 3550SOL    HW211550   6.083   2.024   2.692
 3551SOL     OW11551   2.678   6.912   3.090
 3551SOL    HW111552   2.656   6.971   3.167
 3551SOL    HW211553   2.758   6.857   3.111
 3552SOL     OW11554   0.192   4.557   3.183
 3552SOL    HW111555   0.154   4.476   3.230
 3552SOL    HW211556   0.273   4.530   3.131
 3553SOL     OW11557   5.729   2.195   3.112
 3553SOL    HW111558   5.748   2.291   3.134
 3553SOL    HW211559   5.815   2.149   3.090
 3554SOL     OW11560   3.801   5.593   6.885
 3554SOL    HW111561   3.724   5.640   6.928
 3554SOL    HW211562   3.794   5.603   6.786
 3555SOL     OW11563   0.579   3.067   3.412
 3555SOL    HW111564   0.652   3.006   3.441
 3555SOL    HW211565   0.616   3.135   3.348
 3556SOL     OW11566   4.229   1.016   6.058
 3556SOL    HW111567   4.251   0.918   6.051
 3556SOL    HW211568   4.143   1.034   6.009
 3557SOL     OW11569   0.834   1.006   4.318
 3557SOL    HW111570   0.776   1.000   4.400
 3557SOL    HW211571   0.915   1.060   4.339
 3558SOL     OW11572   6.853   5.584   1.391
 3558SOL    HW111573   6.774   5.616   1.340
 3558SOL    HW211574   6.851   5.622   1.484
 3559SOL     OW11575   0.703   1.058   5.949
 3559SOL    HW111576   0.646   1.135   5.917
 3559SOL    HW211577   0.766   1.031   5.877
 3560SOL     OW11578   6.781   6.337   1.886
 3560SOL    HW111579   6.769   6.238   1.875
 3560SOL    HW211580   6.812   6.376   1.800
 3561SOL     OW11581   4.341   4.599   4.080
 3561SOL    HW111582   4.297   4.518   4.042
 3561SOL    HW211583   4.391   4.574   4.164
 3562SOL     OW11584   4.806   2.409   2.959
 3562SOL    HW111585   4.783   2.313   2.976
 3562SOL    HW211586   4.729   2.455   2.916
 3563SOL     OW11587   4.521   0.643   1.422
 3563SOL    HW111588   4.444   0.606   1.475
 3563SOL    HW211589   4.541   0.581   1.346
 3564SOL     OW11590   6.932   4.026   2.932
 3564SOL    HW111591   6.953   4.118   2.900
 3564SOL    HW211592   6.855   3.989   2.880
 3565SOL     OW11593   2.181   0.499   4.776
 3565SOL    HW111594   2.230   0.580   4.808
 3565SOL    HW211595   2.082   0.514   4.783
 3566SOL     OW11596   0.997   3.869   6.038
 3566SOL    HW111597   0.959   3.779   6.014
 3566SOL    HW211598   0.931   3.920   6.093
 3567SOL     OW11599   0.278   2.679   1.040
 3567SOL    HW111600   0.217   2.750   1.004
 3567SOL    HW211601   0.343   2.721   1.104
 3568SOL     OW11602   5.353   3.859   3.699
 3568SOL    HW111603   5.405   3.878   3.616
 3568SOL    HW211604   5.260   3.894   3.689
 3569SOL     OW11605   3.600   3.183   4.230
 3569SOL    HW111606   3.636   3.090   4.221
 3569SOL    HW211607   3.635   3.240   4.155
 3570SOL     OW11608   0.422   2.334   5.570
 3570SOL    HW111609   0.508   2.293   5.599
 3570SOL    HW211610   0.419   2.339   5.470
 3571SOL     OW11611   2.433   6.686   4.636
 3571SOL    HW111612   2.530   6.665   4.623
 3571SOL    HW211613   2.379   6.602   4.622
 3572SOL     OW11614   4.927   4.696   1.675
 3572SOL    HW111615   4.986   4.620   1.701
 3572SOL    HW211616   4.901   4.748   1.756
 3573SOL     OW11617   0.480   4.241   3.415
 3573SOL    HW111618   0.569   4.198   3.407
 3573SOL    HW211619   0.485   4.319   3.476
 3574SOL     OW11620   2.030   1.496   5.393
 3574SOL    HW111621   2.029   1.458   5.300
 3574SOL    HW211622   2.021   1.595   5.388
 3575SOL     OW11623   5.251   0.021   6.950
 3575SOL    HW111624   5.292   0.106   6.981
 3575SOL    HW211625   5.323   6.971   6.931
 3576SOL     OW11626   1.269   2.344   0.720
 3576SOL    HW111627   1.338   2.342   0.648
 3576SOL    HW211628   1.242   2.439   0.737
 3577SOL     OW11629   2.081   2.727   5.040
 3577SOL    HW111630   2.122   2.691   4.956
 3577SOL    HW211631   2.131   2.693   5.119
 3578SOL     OW11632   3.481   2.806   6.270
 3578SOL    HW111633   3.394   2.809   6.320
 3578SOL    HW211634   3.481   2.727   6.209
 3579SOL     OW11635   0.703   3.838   1.852
 3579SOL    HW111636   0.629   3.904   1.865
 3579SOL    HW211637   0.664   3.747   1.837
 3580SOL     OW11638   0.187   4.148   2.160
 3580SOL    HW111639   0.087   4.146   2.153
 3580SOL    HW211640   0.222   4.232   2.119
 3581SOL     OW11641   1.333   0.365   2.739
 3581SOL    HW111642   1.351   0.461   2.717
 3581SOL    HW211643   1.240   0.341   2.712
 3582SOL     OW11644   4.272   5.356   6.324
 3582SOL    HW111645   4.256   5.446   6.283
 3582SOL    HW211646   4.253   5.285   6.256
 3583SOL     OW11647   0.787   4.879   1.283
 3583SOL    HW111648   0.882   4.874   1.254
 3583SOL    HW211649   0.783   4.890   1.383
 3584SOL     OW11650   6.353   4.917   4.858
 3584SOL    HW111651   6.428   4.860   4.890
 3584SOL    HW211652   6.381   5.013   4.857
 3585SOL     OW11653   3.367   1.458   3.765
 3585SOL    HW111654   3.412   1.539   3.803
 3585SOL    HW211655   3.274   1.451   3.801
 3586SOL     OW11656   0.107   1.924   5.135
 3586SOL    HW111657   0.188   1.889   5.182
 3586SOL    HW211658   0.133   1.957   5.044
 3587SOL     OW11659   3.219   0.315   6.241
 3587SOL    HW111660   3.138   0.365   6.269
 3587SOL    HW211661   3.253   0.259   6.316
 3588SOL     OW11662   6.021   4.815   4.610
 3588SOL    HW111663   6.083   4.738   4.595
 3588SOL    HW211664   5.927   4.781   4.614
 3589SOL     OW11665   0.693   0.340   6.007
 3589SOL    HW111666   0.613   0.283   5.986
 3589SOL    HW211667   0.758   0.286   6.060
 3590SOL     OW11668   0.134   5.572   6.219
 3590SOL    HW111669   0.190   5.527   6.150
 3590SOL    HW211670   0.121   5.512   6.298
 3591SOL     OW11671   5.864   1.093   6.761
 3591SOL    HW111672   5.798   1.167   6.770
 3591SOL    HW211673   5.957   1.130   6.765
 3592SOL     OW11674   1.359   6.472   1.344
 3592SOL    HW111675   1.303   6.492   1.425
 3592SOL    HW211676   1.369   6.554   1.289
 3593SOL     OW11677   4.167   2.850   5.501
 3593SOL    HW111678   4.115   2.935   5.505
 3593SOL    HW211679   4.249   2.864   5.445
 3594SOL     OW11680   4.840   4.612   5.245
 3594SOL    HW111681   4.923   4.610   5.190
 3594SOL    HW211682   4.843   4.538   5.313
 3595SOL     OW11683   5.703   6.389   4.610
 3595SOL    HW111684   5.606   6.396   4.586
 3595SOL    HW211685   5.722   6.297   4.645
 3596SOL     OW11686   4.235   1.991   3.373
 3596SOL    HW111687   4.289   2.075   3.371
 3596SOL    HW211688   4.245   1.948   3.463
 3597SOL     OW11689   3.376   3.665   5.505
 3597SOL    HW111690   3.433   3.694   5.428
 3597SOL    HW211691   3.357   3.743   5.564
 3598SOL     OW11692   0.176   5.456   4.825
 3598SOL    HW111693   0.205   5.478   4.918
 3598SOL    HW211694   0.108   5.382   4.828
 3599SOL     OW11695   2.870   1.257   5.194
 3599SOL    HW111696   2.816   1.213   5.122
 3599SOL    HW211697   2.867   1.356   5.182
 3600SOL     OW11698   3.075   3.943   7.001
 3600SOL    HW111699   3.041   3.881   0.055
 3600SOL    HW211700   2.998   3.987   6.954
 3601SOL     OW11701   4.591   0.939   5.221
 3601SOL    HW111702   4.669   0.904   5.274
 3601SOL    HW211703   4.553   0.864   5.166
 3602SOL     OW11704   1.642   2.082   1.410
 3602SOL    HW111705   1.739   2.095   1.430
 3602SOL    HW211706   1.595   2.051   1.493
 3603SOL     OW11707   2.515   0.417   5.349
 3603SOL    HW111708   2.575   0.428   5.428
 3603SOL    HW211709   2.429   0.465   5.365
 3604SOL     OW11710   0.114   0.410   3.794
 3604SOL    HW111711   0.022   0.450   3.783
 3604SOL    HW211712   0.172   0.475   3.843
 3605SOL     OW11713   1.279   6.652   4.707
 3605SOL    HW111714   1.191   6.607   4.694
 3605SOL    HW211715   1.274   6.746   4.673
 3606SOL     OW11716   2.053   0.332   2.282
 3606SOL    HW111717   1.959   0.336   2.316
 3606SOL    HW211718   2.053   0.307   2.185
 3607SOL     OW11719   6.260   1.711   3.204
 3607SOL    HW111720   6.237   1.793   3.257
 3607SOL    HW211721   6.359   1.698   3.204
 3608SOL     OW11722   3.011   1.788   5.982
 3608SOL    HW111723   3.080   1.860   5.985
 3608SOL    HW211724   2.951   1.802   5.903
 3609SOL     OW11725   3.605   0.805   5.069
 3609SOL    HW111726   3.555   0.778   5.152
 3609SOL    HW211727   3.675   0.737   5.048
 3610SOL     OW11728   1.625   0.389   5.679
 3610SOL    HW111729   1.598   0.432   5.593
 3610SOL    HW211730   1.704   0.438   5.717
 3611SOL     OW11731   5.871   4.494   2.778
 3611SOL    HW111732   5.802   4.556   2.741
 3611SOL    HW211733   5.957   4.544   2.792
 3612SOL     OW11734   5.383   1.329   0.012
 3612SOL    HW111735   5.423   1.239   7.017
 3612SOL    HW211736   5.403   1.363   0.104
 3613SOL     OW11737   4.087   6.434   2.903
 3613SOL    HW111738   3.992   6.448   2.873
 3613SOL    HW211739   4.148   6.488   2.845
 3614SOL     OW11740   3.583   5.722   6.975
 3614SOL    HW111741   3.546   5.802   6.928
 3614SOL    HW211742   3.508   5.673   0.003
 3615SOL     OW11743   5.604   2.395   5.654
 3615SOL    HW111744   5.550   2.479   5.651
 3615SOL    HW211745   5.594   2.345   5.568
 3616SOL     OW11746   1.506   2.321   0.562
 3616SOL    HW111747   1.575   2.272   0.615
 3616SOL    HW211748   1.551   2.375   0.491
 3617SOL     OW11749   4.050   5.890   5.885
 3617SOL    HW111750   4.018   5.809   5.935
 3617SOL    HW211751   3.986   5.913   5.813
 3618SOL     OW11752   0.883   5.237   4.339
 3618SOL    HW111753   0.951   5.277   4.401
 3618SOL    HW211754   0.908   5.143   4.319
 3619SOL     OW11755   5.825   2.625   1.977
 3619SOL    HW111756   5.832   2.670   2.066
 3619SOL    HW211757   5.755   2.554   1.981
 3620SOL     OW11758   5.697   6.144   4.772
 3620SOL    HW111759   5.645   6.210   4.826
 3620SOL    HW211760   5.635   6.074   4.737
 3621SOL     OW11761   3.647   3.144   3.943
 3621SOL    HW111762   3.742   3.134   3.916
 3621SOL    HW211763   3.616   3.238   3.925
 3622SOL     OW11764   1.515   6.019   6.258
 3622SOL    HW111765   1.491   6.110   6.225
 3622SOL    HW211766   1.614   6.006   6.251
 3623SOL     OW11767   1.046   5.921   5.812
 3623SOL    HW111768   0.962   5.971   5.795
 3623SOL    HW211769   1.122   5.965   5.763
 3624SOL     OW11770   2.453   2.263   2.136
 3624SOL    HW111771   2.535   2.279   2.190
 3624SOL    HW211772   2.432   2.165   2.134
 3625SOL     OW11773   6.773   2.346   0.651
 3625SOL    HW111774   6.813   2.272   0.705
 3625SOL    HW211775   6.796   2.434   0.692
 3626SOL     OW11776   1.625   3.122   5.667
 3626SOL    HW111777   1.658   3.031   5.644
 3626SOL    HW211778   1.701   3.180   5.695
 3627SOL     OW11779   3.412   1.794   2.190
 3627SOL    HW111780   3.434   1.810   2.286
 3627SOL    HW211781   3.326   1.839   2.167
 3628SOL     OW11782   6.117   1.665   1.905
 3628SOL    HW111783   6.191   1.652   1.839
 3628SOL    HW211784   6.148   1.726   1.978
 3629SOL     OW11785   1.607   1.502   4.468
 3629SOL    HW111786   1.660   1.509   4.552
 3629SOL    HW211787   1.518   1.547   4.481
 3630SOL     OW11788   6.763   1.972   2.163
 3630SOL    HW111789   6.802   1.880   2.152
 3630SOL    HW211790   6.729   1.983   2.256
 3631SOL     OW11791   2.128   6.272   2.457
 3631SOL    HW111792   2.095   6.205   2.524
 3631SOL    HW211793   2.059   6.343   2.445
 3632SOL     OW11794   4.848   3.630   2.041
 3632SOL    HW111795   4.756   3.591   2.053
 3632SOL    HW211796   4.841   3.727   2.020
 3633SOL     OW11797   4.122   4.375   7.015
 3633SOL    HW111798   4.064   4.440   0.047
 3633SOL    HW211799   4.199   4.348   0.056
 3634SOL     OW11800   2.901   5.110   6.577
 3634SOL    HW111801   2.879   5.032   6.518
 3634SOL    HW211802   2.840   5.186   6.555
 3635SOL     OW11803   0.974   6.750   1.902
 3635SOL    HW111804   0.894   6.712   1.854
 3635SOL    HW211805   1.012   6.680   1.963
 3636SOL     OW11806   0.525   5.374   6.091
 3636SOL    HW111807   0.434   5.355   6.055
 3636SOL    HW211808   0.557   5.462   6.055
 3637SOL     OW11809   5.776   2.880   0.231
 3637SOL    HW111810   5.778   2.799   0.172
 3637SOL    HW211811   5.714   2.948   0.191
 3638SOL     OW11812   6.754   3.324   3.424
 3638SOL    HW111813   6.738   3.264   3.346
 3638SOL    HW211814   6.814   3.278   3.490
 3639SOL     OW11815   4.092   3.183   4.149
 3639SOL    HW111816   4.064   3.167   4.054
 3639SOL    HW211817   4.042   3.121   4.210
 3640SOL     OW11818   4.140   2.190   1.695
 3640SOL    HW111819   4.214   2.242   1.738
 3640SOL    HW211820   4.064   2.251   1.676
 3641SOL     OW11821   6.120   3.717   2.192
 3641SOL    HW111822   6.076   3.702   2.281
 3641SOL    HW211823   6.217   3.691   2.198
 3642SOL     OW11824   5.086   3.460   6.635
 3642SOL    HW111825   5.072   3.479   6.538
 3642SOL    HW211826   4.998   3.442   6.678
 3643SOL     OW11827   4.135   6.062   5.272
 3643SOL    HW111828   4.202   6.028   5.338
 3643SOL    HW211829   4.050   6.009   5.279
 3644SOL     OW11830   3.005   0.427   1.863
 3644SOL    HW111831   3.000   0.527   1.864
 3644SOL    HW211832   2.931   0.390   1.807
 3645SOL     OW11833   1.389   3.929   3.321
 3645SOL    HW111834   1.322   3.984   3.371
 3645SOL    HW211835   1.437   3.869   3.385
 3646SOL     OW11836   1.574   5.141   6.180
 3646SOL    HW111837   1.508   5.215   6.196
 3646SOL    HW211838   1.623   5.122   6.266
 3647SOL     OW11839   3.081   6.812   0.000
 3647SOL    HW111840   3.175   6.787   0.022
 3647SOL    HW211841   3.047   6.752   6.945
 3648SOL     OW11842   4.714   4.998   3.177
 3648SOL    HW111843   4.773   5.064   3.224
 3648SOL    HW211844   4.710   5.020   3.080
 3649SOL     OW11845   5.661   2.250   0.475
 3649SOL    HW111846   5.659   2.350   0.464
 3649SOL    HW211847   5.573   2.218   0.509
 3650SOL     OW11848   5.045   5.701   6.122
 3650SOL    HW111849   5.116   5.635   6.098
 3650SOL    HW211850   4.995   5.668   6.201
 3651SOL     OW11851   1.056   2.058   5.849
 3651SOL    HW111852   1.111   1.994   5.904
 3651SOL    HW211853   0.987   2.006   5.798
 3652SOL     OW11854   4.287   1.913   2.206
 3652SOL    HW111855   4.204   1.959   2.174
 3652SOL    HW211856   4.358   1.981   2.224
 3653SOL     OW11857   1.846   1.518   0.724
 3653SOL    HW111858   1.915   1.454   0.760
 3653SOL    HW211859   1.887   1.574   0.653
 3654SOL     OW11860   4.598   6.840   1.873
 3654SOL    HW111861   4.601   6.933   1.908
 3654SOL    HW211862   4.667   6.784   1.919
 3655SOL     OW11863   0.982   0.429   3.865
 3655SOL    HW111864   0.962   0.514   3.816
 3655SOL    HW211865   0.910   0.362   3.845
 3656SOL     OW11866   0.117   0.064   1.416
 3656SOL    HW111867   0.107   0.051   1.317
 3656SOL    HW211868   0.026   0.068   1.458
 3657SOL     OW11869   5.634   5.207   6.100
 3657SOL    HW111870   5.647   5.117   6.140
 3657SOL    HW211871   5.659   5.205   6.003
 3658SOL     OW11872   1.724   4.752   5.585
 3658SOL    HW111873   1.690   4.841   5.557
 3658SOL    HW211874   1.802   4.726   5.527
 3659SOL     OW11875   0.577   2.902   6.648
 3659SOL    HW111876   0.548   2.941   6.561
 3659SOL    HW211877   0.562   2.968   6.722
 3660SOL     OW11878   4.457   5.286   5.554
 3660SOL    HW111879   4.412   5.318   5.470
 3660SOL    HW211880   4.502   5.363   5.599
 3661SOL     OW11881   0.127   1.587   4.598
 3661SOL    HW111882   0.180   1.592   4.683
 3661SOL    HW211883   0.188   1.600   4.520
 3662SOL     OW11884   3.081   1.739   5.567
 3662SOL    HW111885   3.007   1.756   5.632
 3662SOL    HW211886   3.077   1.807   5.494
 3663SOL     OW11887   2.320   2.829   6.670
 3663SOL    HW111888   2.263   2.816   6.589
 3663SOL    HW211889   2.264   2.863   6.745
 3664SOL     OW11890   3.031   1.695   0.965
 3664SOL    HW111891   2.991   1.741   1.044
 3664SOL    HW211892   3.038   1.760   0.889
 3665SOL     OW11893   0.003   5.315   5.549
 3665SOL    HW111894   7.005   5.349   5.641
 3665SOL    HW211895   0.084   5.358   5.510
 3666SOL     OW11896   2.102   3.597   4.215
 3666SOL    HW111897   2.156   3.599   4.300
 3666SOL    HW211898   2.116   3.509   4.170
 3667SOL     OW11899   1.726   0.016   0.795
 3667SOL    HW111900   1.697   7.008   0.887
 3667SOL    HW211901   1.729   0.116   0.787
 3668SOL     OW11902   5.889   1.133   0.864
 3668SOL    HW111903   5.988   1.144   0.854
 3668SOL    HW211904   5.843   1.174   0.785
 3669SOL     OW11905   0.442   0.862   2.815
 3669SOL    HW111906   0.428   0.792   2.744
 3669SOL    HW211907   0.421   0.823   2.904
 3670SOL     OW11908   2.314   6.831   1.747
 3670SOL    HW111909   2.360   6.843   1.836
 3670SOL    HW211910   2.373   6.864   1.674
 3671SOL     OW11911   0.037   0.655   4.705
 3671SOL    HW111912   0.063   0.597   4.627
 3671SOL    HW211913   0.058   0.608   4.790
 3672SOL     OW11914   4.004   6.862   3.632
 3672SOL    HW111915   4.040   6.784   3.581
 3672SOL    HW211916   4.073   6.896   3.695
 3673SOL     OW11917   3.290   0.737   1.778
 3673SOL    HW111918   3.232   0.784   1.712
 3673SOL    HW211919   3.248   0.650   1.804
 3674SOL     OW11920   0.636   4.381   6.239
 3674SOL    HW111921   0.664   4.311   6.173
 3674SOL    HW211922   0.695   4.461   6.230
 3675SOL     OW11923   0.271   0.824   4.261
 3675SOL    HW111924   0.222   0.843   4.347
 3675SOL    HW211925   0.242   0.890   4.191
 3676SOL     OW11926   3.496   0.739   5.325
 3676SOL    HW111927   3.461   0.794   5.400
 3676SOL    HW211928   3.476   0.642   5.343
 3677SOL     OW11929   1.694   1.325   4.292
 3677SOL    HW111930   1.770   1.270   4.329
 3677SOL    HW211931   1.667   1.394   4.359
 3678SOL     OW11932   1.934   1.086   3.399
 3678SOL    HW111933   2.023   1.132   3.400
 3678SOL    HW211934   1.877   1.122   3.473
 3679SOL     OW11935   3.387   0.166   2.759
 3679SOL    HW111936   3.397   0.264   2.745
 3679SOL    HW211937   3.408   0.143   2.854
 3680SOL     OW11938   3.202   2.188   4.523
 3680SOL    HW111939   3.288   2.204   4.571
 3680SOL    HW211940   3.217   2.197   4.425
 3681SOL     OW11941   1.039   6.601   4.214
 3681SOL    HW111942   1.000   6.610   4.306
 3681SOL    HW211943   1.037   6.690   4.168
 3682SOL     OW11944   5.270   2.286   0.933
 3682SOL    HW111945   5.181   2.313   0.971
 3682SOL    HW211946   5.262   2.272   0.835
 3683SOL     OW11947   6.590   1.438   0.786
 3683SOL    HW111948   6.608   1.371   0.858
 3683SOL    HW211949   6.675   1.459   0.737
 3684SOL     OW11950   2.789   6.126   5.596
 3684SOL    HW111951   2.807   6.050   5.658
 3684SOL    HW211952   2.784   6.211   5.648
 3685SOL     OW11953   2.070   5.968   3.965
 3685SOL    HW111954   2.141   6.002   4.027
 3685SOL    HW211955   2.112   5.936   3.881
 3686SOL     OW11956   0.017   3.956   0.333
 3686SOL    HW111957   6.946   3.978   0.290
 3686SOL    HW211958   0.005   3.882   0.398
 3687SOL     OW11959   5.942   4.606   4.382
 3687SOL    HW111960   5.973   4.530   4.325
 3687SOL    HW211961   5.981   4.691   4.349
 3688SOL     OW11962   6.667   2.910   1.504
 3688SOL    HW111963   6.639   2.920   1.600
 3688SOL    HW211964   6.738   2.839   1.497
 3689SOL     OW11965   1.021   0.904   5.976
 3689SOL    HW111966   1.076   0.967   6.031
 3689SOL    HW211967   1.082   0.840   5.929
 3690SOL     OW11968   5.773   4.824   1.775
 3690SOL    HW111969   5.873   4.827   1.776
 3690SOL    HW211970   5.740   4.873   1.694
 3691SOL     OW11971   1.679   2.544   0.755
 3691SOL    HW111972   1.683   2.459   0.808
 3691SOL    HW211973   1.674   2.522   0.657
 3692SOL     OW11974   0.967   3.256   5.565
 3692SOL    HW111975   1.065   3.274   5.575
 3692SOL    HW211976   0.936   3.198   5.641
 3693SOL     OW11977   0.086   1.497   2.701
 3693SOL    HW111978   0.144   1.460   2.774
 3693SOL    HW211979   0.008   1.436   2.687
 3694SOL     OW11980   6.839   6.766   2.292
 3694SOL    HW111981   6.883   6.780   2.204
 3694SOL    HW211982   6.862   6.675   2.328
 3695SOL     OW11983   5.941   3.771   3.527
 3695SOL    HW111984   5.900   3.765   3.618
 3695SOL    HW211985   6.029   3.818   3.533
 3696SOL     OW11986   4.561   0.492   4.457
 3696SOL    HW111987   4.612   0.550   4.393
 3696SOL    HW211988   4.578   0.524   4.550
 3697SOL     OW11989   6.525   5.466   2.730
 3697SOL    HW111990   6.441   5.474   2.784
 3697SOL    HW211991   6.539   5.370   2.705
 3698SOL     OW11992   2.013   7.009   3.935
 3698SOL    HW111993   2.036   0.073   3.881
 3698SOL    HW211994   2.098   6.967   3.968
 3699SOL     OW11995   2.526   2.524   3.454
 3699SOL    HW111996   2.428   2.542   3.453
 3699SOL    HW211997   2.557   2.504   3.361
 3700SOL     OW11998   0.814   4.833   5.032
 3700SOL    HW111999   0.845   4.848   5.126
 3700SOL    HW212000   0.847   4.743   5.001
 3701SOL     OW12001   0.498   1.270   2.486
 3701SOL    HW112002   0.481   1.286   2.583
 3701SOL    HW212003   0.556   1.189   2.475
 3702SOL     OW12004   6.788   4.391   3.573
 3702SOL    HW112005   6.729   4.349   3.504
 3702SOL    HW212006   6.883   4.388   3.541
 3703SOL     OW12007   1.376   1.607   3.477
 3703SOL    HW112008   1.429   1.559   3.407
 3703SOL    HW212009   1.438   1.660   3.535
 3704SOL     OW12010   6.308   0.172   0.794
 3704SOL    HW112011   6.229   0.225   0.827
 3704SOL    HW212012   6.280   0.078   0.777
 3705SOL     OW12013   6.069   4.132   3.729
 3705SOL    HW112014   6.119   4.073   3.794
 3705SOL    HW212015   6.053   4.221   3.771
 3706SOL     OW12016   0.959   5.183   6.355
 3706SOL    HW112017   0.914   5.097   6.331
 3706SOL    HW212018   1.044   5.191   6.302
 3707SOL     OW12019   1.011   4.672   3.196
 3707SOL    HW112020   0.964   4.752   3.234
 3707SOL    HW212021   1.110   4.681   3.212
 3708SOL     OW12022   1.418   6.330   0.455
 3708SOL    HW112023   1.512   6.339   0.486
 3708SOL    HW212024   1.385   6.238   0.475
 3709SOL     OW12025   0.996   1.517   2.267
 3709SOL    HW112026   1.034   1.592   2.321
 3709SOL    HW212027   0.963   1.552   2.180
 3710SOL     OW12028   1.847   3.774   4.896
 3710SOL    HW112029   1.945   3.757   4.886
 3710SOL    HW212030   1.813   3.729   4.978
 3711SOL     OW12031   1.788   5.507   4.882
 3711SOL    HW112032   1.701   5.557   4.882
 3711SOL    HW212033   1.775   5.418   4.926
 3712SOL     OW12034   2.946   5.436   4.345
 3712SOL    HW112035   2.973   5.342   4.330
 3712SOL    HW212036   2.953   5.457   4.443
 3713SOL     OW12037   6.012   0.229   5.092
 3713SOL    HW112038   6.060   0.263   5.174
 3713SOL    HW212039   5.964   0.144   5.114
 3714SOL     OW12040   0.231   4.192   6.963
 3714SOL    HW112041   0.137   4.158   6.965
 3714SOL    HW212042   0.264   4.193   6.868
 3715SOL     OW12043   6.268   4.460   3.841
 3715SOL    HW112044   6.261   4.559   3.856
 3715SOL    HW212045   6.222   4.436   3.756
 3716SOL     OW12046   5.560   5.655   5.610
 3716SOL    HW112047   5.589   5.692   5.698
 3716SOL    HW212048   5.605   5.705   5.536
 3717SOL     OW12049   4.302   0.585   1.018
 3717SOL    HW112050   4.294   0.670   1.070
 3717SOL    HW212051   4.233   0.583   0.945
 3718SOL     OW12052   5.744   6.540   6.356
 3718SOL    HW112053   5.764   6.613   6.422
 3718SOL    HW212054   5.665   6.564   6.301
 3719SOL     OW12055   3.020   4.285   0.468
 3719SOL    HW112056   3.119   4.296   0.468
 3719SOL    HW212057   2.983   4.315   0.556
 3720SOL     OW12058   6.954   2.750   1.218
 3720SOL    HW112059   6.857   2.753   1.195
 3720SOL    HW212060   6.974   2.820   1.286
 3721SOL     OW12061   6.129   0.276   5.330
 3721SOL    HW112062   6.111   0.348   5.397
 3721SOL    HW212063   6.119   0.186   5.374
 3722SOL     OW12064   5.816   6.531   1.795
 3722SOL    HW112065   5.788   6.561   1.887
 3722SOL    HW212066   5.895   6.583   1.765
 3723SOL     OW12067   4.926   4.027   6.475
 3723SOL    HW112068   4.999   4.083   6.514
 3723SOL    HW212069   4.889   4.072   6.394
 3724SOL     OW12070   0.161   4.332   4.425
 3724SOL    HW112071   0.105   4.413   4.442
 3724SOL    HW212072   0.246   4.359   4.379
 3725SOL     OW12073   1.271   5.592   0.083
 3725SOL    HW112074   1.176   5.590   0.051
 3725SOL    HW212075   1.278   5.650   0.164
 3726SOL     OW12076   6.315   3.631   5.691
 3726SOL    HW112077   6.372   3.699   5.736
 3726SOL    HW212078   6.226   3.628   5.736
 3727SOL     OW12079   6.587   2.321   3.849
 3727SOL    HW112080   6.638   2.304   3.764
 3727SOL    HW212081   6.634   2.392   3.902
 3728SOL     OW12082   2.156   4.248   0.884
 3728SOL    HW112083   2.206   4.334   0.890
 3728SOL    HW212084   2.220   4.172   0.894
 3729SOL     OW12085   0.322   6.826   5.707
 3729SOL    HW112086   0.298   6.853   5.800
 3729SOL    HW212087   0.420   6.806   5.703
 3730SOL     OW12088   4.951   5.023   4.824
 3730SOL    HW112089   4.891   4.954   4.782
 3730SOL    HW212090   4.981   4.990   4.914
 3731SOL     OW12091   0.190   2.427   0.600
 3731SOL    HW112092   0.118   2.474   0.651
 3731SOL    HW212093   0.149   2.359   0.539
 3732SOL     OW12094   3.849   3.110   6.726
 3732SOL    HW112095   3.885   3.082   6.637
 3732SOL    HW212096   3.755   3.142   6.716
 3733SOL     OW12097   1.280   0.742   3.517
 3733SOL    HW112098   1.363   0.785   3.484
 3733SOL    HW212099   1.264   0.770   3.612
 3734SOL     OW12100   3.742   6.935   1.548
 3734SOL    HW112101   3.736   0.001   1.604
 3734SOL    HW212102   3.677   6.941   1.473
 3735SOL     OW12103   4.653   0.577   2.927
 3735SOL    HW112104   4.610   0.542   3.010
 3735SOL    HW212105   4.611   0.534   2.847
 3736SOL     OW12106   0.229   1.359   0.345
 3736SOL    HW112107   0.192   1.451   0.336
 3736SOL    HW212108   0.296   1.357   0.420
 3737SOL     OW12109   5.966   2.067   3.079
 3737SOL    HW112110   6.001   1.974   3.090
 3737SOL    HW212111   6.011   2.112   3.002
 3738SOL     OW12112   0.395   0.538   0.888
 3738SOL    HW112113   0.476   0.551   0.830
 3738SOL    HW212114   0.408   0.586   0.975
 3739SOL     OW12115   2.955   4.140   6.837
 3739SOL    HW112116   2.859   4.117   6.855
 3739SOL    HW212117   2.970   4.236   6.857
 3740SOL     OW12118   5.509   5.828   6.612
 3740SOL    HW112119   5.600   5.803   6.580
 3740SOL    HW212120   5.441   5.767   6.573
 3741SOL     OW12121   5.198   3.706   0.257
 3741SOL    HW112122   5.146   3.623   0.238
 3741SOL    HW212123   5.206   3.719   0.356
 3742SOL     OW12124   4.610   5.624   0.939
 3742SOL    HW112125   4.651   5.616   0.849
 3742SOL    HW212126   4.602   5.720   0.964
 3743SOL     OW12127   2.903   4.081   0.852
 3743SOL    HW112128   2.811   4.106   0.823
 3743SOL    HW212129   2.898   4.019   0.930
 3744SOL     OW12130   6.638   5.991   2.511
 3744SOL    HW112131   6.554   5.973   2.562
 3744SOL    HW212132   6.716   5.992   2.573
 3745SOL     OW12133   4.958   2.550   2.790
 3745SOL    HW112134   4.916   2.491   2.859
 3745SOL    HW212135   4.943   2.510   2.699
 3746SOL     OW12136   5.451   0.255   4.629
 3746SOL    HW112137   5.399   0.170   4.639
 3746SOL    HW212138   5.538   0.235   4.583
 3747SOL     OW12139   3.201   5.883   5.381
 3747SOL    HW112140   3.216   5.967   5.434
 3747SOL    HW212141   3.258   5.884   5.299
 3748SOL     OW12142   5.106   2.433   3.910
 3748SOL    HW112143   5.172   2.415   3.838
 3748SOL    HW212144   5.088   2.349   3.961
 3749SOL     OW12145   6.599   6.549   2.289
 3749SOL    HW112146   6.661   6.627   2.295
 3749SOL    HW212147   6.607   6.507   2.199
 3750SOL     OW12148   5.740   3.998   1.229
 3750SOL    HW112149   5.749   4.049   1.143
 3750SOL    HW212150   5.757   4.060   1.305
 3751SOL     OW12151   1.014   4.359   2.009
 3751SOL    HW112152   1.072   4.348   2.089
 3751SOL    HW212153   0.940   4.423   2.030
 3752SOL     OW12154   0.618   6.804   6.072
 3752SOL    HW112155   0.550   6.866   6.111
 3752SOL    HW212156   0.703   6.812   6.124
 3753SOL     OW12157   0.094   0.507   4.949
 3753SOL    HW112158   0.078   0.527   5.045
 3753SOL    HW212159   0.169   0.441   4.941
 3754SOL     OW12160   6.567   6.110   1.494
 3754SOL    HW112161   6.649   6.166   1.512
 3754SOL    HW212162   6.542   6.119   1.397
 3755SOL     OW12163   4.877   2.869   2.731
 3755SOL    HW112164   4.877   2.961   2.692
 3755SOL    HW212165   4.968   2.848   2.766
 3756SOL     OW12166   3.205   0.058   6.922
 3756SOL    HW112167   3.137   0.028   6.989
 3756SOL    HW212168   3.199   0.001   6.840
 3757SOL     OW12169   3.887   4.674   6.568
 3757SOL    HW112170   3.846   4.725   6.643
 3757SOL    HW212171   3.814   4.643   6.506
 3758SOL     OW12172   0.028   0.400   2.386
 3758SOL    HW112173   0.072   0.370   2.302
 3758SOL    HW212174   6.971   0.336   2.410
 3759SOL     OW12175   4.793   5.303   0.976
 3759SOL    HW112176   4.743   5.347   1.051
 3759SOL    HW212177   4.766   5.206   0.971
 3760SOL     OW12178   2.103   1.978   5.569
 3760SOL    HW112179   2.063   2.036   5.640
 3760SOL    HW212180   2.170   1.916   5.611
 3761SOL     OW12181   6.935   6.534   4.520
 3761SOL    HW112182   6.948   6.496   4.612
 3761SOL    HW212183   7.007   6.501   4.460
 3762SOL     OW12184   0.837   3.143   0.299
 3762SOL    HW112185   0.857   3.146   0.397
 3762SOL    HW212186   0.786   3.225   0.273
 3763SOL     OW12187   6.667   3.743   5.608
 3763SOL    HW112188   6.750   3.782   5.648
 3763SOL    HW212189   6.592   3.750   5.674
 3764SOL     OW12190   2.995   6.782   4.213
 3764SOL    HW112191   2.978   6.683   4.212
 3764SOL    HW212192   2.976   6.818   4.305
 3765SOL     OW12193   5.810   1.476   3.431
 3765SOL    HW112194   5.822   1.507   3.525
 3765SOL    HW212195   5.888   1.507   3.376
 3766SOL     OW12196   1.893   0.491   4.747
 3766SOL    HW112197   1.813   0.481   4.806
 3766SOL    HW212198   1.898   0.585   4.712
 3767SOL     OW12199   0.645   4.446   0.242
 3767SOL    HW112200   0.699   4.379   0.293
 3767SOL    HW212201   0.624   4.410   0.151
 3768SOL     OW12202   4.196   6.871   1.298
 3768SOL    HW112203   4.184   6.969   1.314
 3768SOL    HW212204   4.197   6.823   1.386
 3769SOL     OW12205   4.617   6.989   4.978
 3769SOL    HW112206   4.585   6.913   4.921
 3769SOL    HW212207   4.598   6.968   5.074
 3770SOL     OW12208   2.351   2.338   0.713
 3770SOL    HW112209   2.269   2.389   0.690
 3770SOL    HW212210   2.430   2.380   0.668
 3771SOL     OW12211   4.497   1.940   5.373
 3771SOL    HW112212   4.560   1.990   5.432
 3771SOL    HW212213   4.452   1.868   5.426
 3772SOL     OW12214   4.917   0.495   2.392
 3772SOL    HW112215   4.882   0.588   2.386
 3772SOL    HW212216   4.863   0.435   2.332
 3773SOL     OW12217   6.663   1.950   0.560
 3773SOL    HW112218   6.690   1.859   0.592
 3773SOL    HW212219   6.599   1.991   0.624
 3774SOL     OW12220   0.997   2.159   2.298
 3774SOL    HW112221   0.967   2.176   2.205
 3774SOL    HW212222   0.920   2.168   2.361
 3775SOL     OW12223   5.691   3.332   3.588
 3775SOL    HW112224   5.741   3.417   3.573
 3775SOL    HW212225   5.754   3.259   3.612
 3776SOL     OW12226   2.866   2.826   6.534
 3776SOL    HW112227   2.771   2.825   6.564
 3776SOL    HW212228   2.905   2.917   6.550
 3777SOL     OW12229   1.018   3.966   3.101
 3777SOL    HW112230   1.116   3.988   3.100
 3777SOL    HW212231   1.006   3.867   3.107
 3778SOL     OW12232   2.699   6.465   1.738
 3778SOL    HW112233   2.665   6.525   1.665
 3778SOL    HW212234   2.670   6.371   1.720
 3779SOL     OW12235   1.908   4.728   0.142
 3779SOL    HW112236   1.915   4.732   0.241
 3779SOL    HW212237   1.848   4.653   0.115
 3780SOL     OW12238   2.862   0.207   4.163
 3780SOL    HW112239   2.946   0.153   4.163
 3780SOL    HW212240   2.788   0.155   4.120
 3781SOL     OW12241   2.598   5.612   5.141
 3781SOL    HW112242   2.530   5.684   5.157
 3781SOL    HW212243   2.570   5.529   5.190
 3782SOL     OW12244   2.580   1.212   2.862
 3782SOL    HW112245   2.536   1.197   2.774
 3782SOL    HW212246   2.588   1.125   2.910
 3783SOL     OW12247   4.958   5.696   5.330
 3783SOL    HW112248   5.032   5.736   5.383
 3783SOL    HW212249   4.926   5.763   5.262
 3784SOL     OW12250   5.079   2.296   4.157
 3784SOL    HW112251   4.980   2.289   4.156
 3784SOL    HW212252   5.107   2.358   4.231
 3785SOL     OW12253   1.229   1.937   2.065
 3785SOL    HW112254   1.320   1.979   2.069
 3785SOL    HW212255   1.203   1.906   2.156
 3786SOL     OW12256   3.309   6.454   2.545
 3786SOL    HW112257   3.216   6.424   2.564
 3786SOL    HW212258   3.307   6.541   2.497
 3787SOL     OW12259   4.361   1.237   3.864
 3787SOL    HW112260   4.308   1.232   3.948
 3787SOL    HW212261   4.450   1.193   3.877
 3788SOL     OW12262   6.349   3.411   2.117
 3788SOL    HW112263   6.293   3.391   2.198
 3788SOL    HW212264   6.418   3.480   2.140
 3789SOL     OW12265   1.571   5.560   2.336
 3789SOL    HW112266   1.595   5.481   2.279
 3789SOL    HW212267   1.505   5.531   2.406
 3790SOL     OW12268   2.088   3.233   3.034
 3790SOL    HW112269   2.114   3.158   2.974
 3790SOL    HW212270   2.074   3.316   2.980
 3791SOL     OW12271   6.381   0.813   2.386
 3791SOL    HW112272   6.424   0.839   2.300
 3791SOL    HW212273   6.295   0.862   2.397
 3792SOL     OW12274   0.470   6.996   6.175
 3792SOL    HW112275   0.379   6.957   6.163
 3792SOL    HW212276   0.464   0.079   6.170
 3793SOL     OW12277   1.278   6.466   2.980
 3793SOL    HW112278   1.274   6.403   2.903
 3793SOL    HW212279   1.221   6.431   3.054
 3794SOL     OW12280   4.091   6.713   3.415
 3794SOL    HW112281   4.134   6.695   3.327
 3794SOL    HW212282   3.992   6.697   3.409
 3795SOL     OW12283   5.638   0.117   0.930
 3795SOL    HW112284   5.686   0.163   0.856
 3795SOL    HW212285   5.701   0.102   1.006
 3796SOL     OW12286   1.274   3.181   0.876
 3796SOL    HW112287   1.369   3.151   0.869
 3796SOL    HW212288   1.226   3.126   0.944
 3797SOL     OW12289   0.165   5.453   2.093
 3797SOL    HW112290   0.092   5.478   2.156
 3797SOL    HW212291   0.188   5.533   2.036
 3798SOL     OW12292   0.732   3.934   1.199
 3798SOL    HW112293   0.789   3.907   1.121
 3798SOL    HW212294   0.791   3.950   1.278
 3799SOL     OW12295   1.313   0.438   5.038
 3799SOL    HW112296   1.257   0.406   5.114
 3799SOL    HW212297   1.327   0.537   5.047
 3800SOL     OW12298   5.288   2.464   5.341
 3800SOL    HW112299   5.308   2.366   5.343
 3800SOL    HW212300   5.371   2.515   5.360
 3801SOL     OW12301   6.974   6.978   6.648
 3801SOL    HW112302   6.896   6.970   6.585
 3801SOL    HW212303   0.001   0.049   6.633
 3802SOL     OW12304   1.472   2.225   5.188
 3802SOL    HW112305   1.426   2.165   5.254
 3802SOL    HW212306   1.563   2.189   5.169
 3803SOL     OW12307   3.935   1.280   1.411
 3803SOL    HW112308   3.961   1.291   1.507
 3803SOL    HW212309   4.010   1.239   1.360
 3804SOL     OW12310   4.916   2.937   4.977
 3804SOL    HW112311   4.889   2.994   5.054
 3804SOL    HW212312   5.015   2.944   4.963
 3805SOL     OW12313   1.826   3.639   1.872
 3805SOL    HW112314   1.923   3.649   1.890
 3805SOL    HW212315   1.785   3.728   1.854
 3806SOL     OW12316   3.586   1.378   0.816
 3806SOL    HW112317   3.669   1.348   0.861
 3806SOL    HW212318   3.511   1.315   0.838
 3807SOL     OW12319   1.648   0.126   3.071
 3807SOL    HW112320   1.687   0.218   3.074
 3807SOL    HW212321   1.561   0.128   3.022
 3808SOL     OW12322   2.861   0.510   0.693
 3808SOL    HW112323   2.869   0.450   0.773
 3808SOL    HW212324   2.879   0.457   0.610
 3809SOL     OW12325   4.030   0.368   6.657
 3809SOL    HW112326   4.055   0.271   6.660
 3809SOL    HW212327   4.113   0.423   6.655
 3810SOL     OW12328   2.249   3.459   6.201
 3810SOL    HW112329   2.249   3.559   6.197
 3810SOL    HW212330   2.339   3.424   6.178
 3811SOL     OW12331   1.227   0.748   5.869
 3811SOL    HW112332   1.314   0.794   5.853
 3811SOL    HW212333   1.243   0.651   5.885
 3812SOL     OW12334   5.380   1.061   5.758
 3812SOL    HW112335   5.422   1.024   5.675
 3812SOL    HW212336   5.409   1.006   5.837
 3813SOL     OW12337   3.895   4.819   2.003
 3813SOL    HW112338   3.796   4.804   2.011
 3813SOL    HW212339   3.939   4.734   1.973
 3814SOL     OW12340   1.860   0.561   2.085
 3814SOL    HW112341   1.761   0.554   2.080
 3814SOL    HW212342   1.896   0.592   1.997
 3815SOL     OW12343   5.645   1.982   1.483
 3815SOL    HW112344   5.660   2.047   1.558
 3815SOL    HW212345   5.565   1.926   1.503
 3816SOL     OW12346   0.132   6.527   1.246
 3816SOL    HW112347   0.075   6.455   1.206
 3816SOL    HW212348   0.224   6.490   1.264
 3817SOL     OW12349   4.796   1.278   5.664
 3817SOL    HW112350   4.720   1.331   5.702
 3817SOL    HW212351   4.878   1.293   5.720
 3818SOL     OW12352   4.613   5.525   3.080
 3818SOL    HW112353   4.625   5.478   2.993
 3818SOL    HW212354   4.701   5.558   3.114
 3819SOL     OW12355   6.160   4.450   6.227
 3819SOL    HW112356   6.235   4.407   6.176
 3819SOL    HW212357   6.180   4.547   6.241
 3820SOL     OW12358   5.042   6.232   3.437
 3820SOL    HW112359   5.084   6.307   3.489
 3820SOL    HW212360   4.959   6.202   3.484
 3821SOL     OW12361   0.017   4.417   1.402
 3821SOL    HW112362   0.022   4.362   1.486
 3821SOL    HW212363   6.969   4.376   1.339
 3822SOL     OW12364   0.758   4.711   1.626
 3822SOL    HW112365   0.825   4.731   1.555
 3822SOL    HW212366   0.694   4.642   1.593
 3823SOL     OW12367   2.405   3.375   5.531
 3823SOL    HW112368   2.468   3.437   5.577
 3823SOL    HW212369   2.434   3.363   5.436
 3824SOL     OW12370   6.953   2.273   6.303
 3824SOL    HW112371   0.012   2.249   6.364
 3824SOL    HW212372   6.883   2.201   6.309
 3825SOL     OW12373   6.227   6.345   5.831
 3825SOL    HW112374   6.289   6.411   5.874
 3825SOL    HW212375   6.137   6.388   5.817
 3826SOL     OW12376   6.735   1.941   0.896
 3826SOL    HW112377   6.663   1.872   0.890
 3826SOL    HW212378   6.824   1.896   0.890
 3827SOL     OW12379   5.528   2.310   1.085
 3827SOL    HW112380   5.558   2.354   1.169
 3827SOL    HW212381   5.428   2.316   1.078
 3828SOL     OW12382   4.369   1.304   1.500
 3828SOL    HW112383   4.438   1.360   1.453
 3828SOL    HW212384   4.278   1.342   1.482
 3829SOL     OW12385   1.108   4.834   3.514
 3829SOL    HW112386   1.096   4.931   3.534
 3829SOL    HW212387   1.059   4.812   3.429
 3830SOL     OW12388   3.156   0.386   5.463
 3830SOL    HW112389   3.178   0.289   5.459
 3830SOL    HW212390   3.110   0.414   5.379
 3831SOL     OW12391   4.647   1.592   2.097
 3831SOL    HW112392   4.557   1.635   2.103
 3831SOL    HW212393   4.714   1.649   2.144
 3832SOL     OW12394   5.475   0.032   2.495
 3832SOL    HW112395   5.424   0.051   2.412
 3832SOL    HW212396   5.474   6.951   2.514
 3833SOL     OW12397   1.626   6.480   1.644
 3833SOL    HW112398   1.725   6.492   1.640
 3833SOL    HW212399   1.581   6.567   1.622
 3834SOL     OW12400   2.717   2.656   0.716
 3834SOL    HW112401   2.755   2.564   0.703
 3834SOL    HW212402   2.770   2.722   0.663
 3835SOL     OW12403   3.554   5.679   3.980
 3835SOL    HW112404   3.560   5.587   3.941
 3835SOL    HW212405   3.566   5.747   3.908
 3836SOL     OW12406   1.314   3.053   5.409
 3836SOL    HW112407   1.331   3.026   5.504
 3836SOL    HW212408   1.399   3.085   5.368
 3837SOL     OW12409   3.216   3.324   6.769
 3837SOL    HW112410   3.201   3.423   6.776
 3837SOL    HW212411   3.206   3.283   6.860
 3838SOL     OW12412   5.881   3.065   5.055
 3838SOL    HW112413   5.873   3.135   5.126
 3838SOL    HW212414   5.950   3.092   4.988
 3839SOL     OW12415   0.206   6.143   6.201
 3839SOL    HW112416   0.249   6.163   6.290
 3839SOL    HW212417   0.107   6.138   6.213
 3840SOL     OW12418   2.404   0.786   3.603
 3840SOL    HW112419   2.305   0.799   3.601
 3840SOL    HW212420   2.437   0.797   3.697
 3841SOL     OW12421   0.992   3.747   4.791
 3841SOL    HW112422   0.935   3.779   4.715
 3841SOL    HW212423   1.085   3.782   4.780
 3842SOL     OW12424   1.671   5.281   0.035
 3842SOL    HW112425   1.730   5.318   6.980
 3842SOL    HW212426   1.722   5.214   0.089
 3843SOL     OW12427   5.673   3.995   0.466
 3843SOL    HW112428   5.591   3.938   0.466
 3843SOL    HW212429   5.664   4.066   0.396
 3844SOL     OW12430   2.577   4.296   5.898
 3844SOL    HW112431   2.512   4.337   5.962
 3844SOL    HW212432   2.547   4.315   5.804
 3845SOL     OW12433   3.319   3.342   3.425
 3845SOL    HW112434   3.347   3.263   3.370
 3845SOL    HW212435   3.393   3.367   3.488
 3846SOL     OW12436   6.817   4.347   4.025
 3846SOL    HW112437   6.849   4.273   4.085
 3846SOL    HW212438   6.873   4.429   4.040
 3847SOL     OW12439   0.887   6.880   0.757
 3847SOL    HW112440   0.953   6.924   0.696
 3847SOL    HW212441   0.829   6.950   0.801
 3848SOL     OW12442   2.812   5.532   1.469
 3848SOL    HW112443   2.828   5.502   1.563
 3848SOL    HW212444   2.865   5.615   1.452
 3849SOL     OW12445   2.505   1.604   6.045
 3849SOL    HW112446   2.482   1.532   5.980
 3849SOL    HW212447   2.570   1.569   6.112
 3850SOL     OW12448   2.072   3.809   1.470
 3850SOL    HW112449   2.095   3.718   1.504
 3850SOL    HW212450   2.097   3.878   1.539
 3851SOL     OW12451   2.689   2.608   0.988
 3851SOL    HW112452   2.699   2.576   0.894
 3851SOL    HW212453   2.690   2.708   0.990
 3852SOL     OW12454   4.220   1.247   5.069
 3852SOL    HW112455   4.281   1.282   4.999
 3852SOL    HW212456   4.128   1.237   5.031
 3853SOL     OW12457   1.381   3.064   1.923
 3853SOL    HW112458   1.361   2.982   1.868
 3853SOL    HW212459   1.413   3.137   1.862
 3854SOL     OW12460   1.483   3.114   4.449
 3854SOL    HW112461   1.502   3.158   4.536
 3854SOL    HW212462   1.386   3.089   4.445
 3855SOL     OW12463   6.902   1.471   5.167
 3855SOL    HW112464   6.863   1.481   5.075
 3855SOL    HW212465   6.942   1.380   5.177
 3856SOL     OW12466   0.794   6.340   5.609
 3856SOL    HW112467   0.694   6.347   5.615
 3856SOL    HW212468   0.835   6.386   5.688
 3857SOL     OW12469   0.924   0.409   6.625
 3857SOL    HW112470   0.954   0.325   6.578
 3857SOL    HW212471   0.977   0.420   6.709
 3858SOL     OW12472   2.579   5.394   0.031
 3858SOL    HW112473   2.622   5.391   0.121
 3858SOL    HW212474   2.524   5.312   0.018
 3859SOL     OW12475   6.131   2.631   2.084
 3859SOL    HW112476   6.047   2.673   2.117
 3859SOL    HW212477   6.110   2.543   2.041
 3860SOL     OW12478   2.344   6.224   5.208
 3860SOL    HW112479   2.359   6.213   5.109
 3860SOL    HW212480   2.301   6.141   5.244
 3861SOL     OW12481   4.101   4.310   0.278
 3861SOL    HW112482   4.084   4.303   0.376
 3861SOL    HW212483   4.199   4.319   0.261
 3862SOL     OW12484   0.500   5.465   5.400
 3862SOL    HW112485   0.597   5.485   5.407
 3862SOL    HW212486   0.470   5.478   5.306
 3863SOL     OW12487   2.958   3.793   0.574
 3863SOL    HW112488   2.995   3.886   0.584
 3863SOL    HW212489   3.033   3.729   0.561
 3864SOL     OW12490   2.875   1.498   0.748
 3864SOL    HW112491   2.812   1.473   0.674
 3864SOL    HW212492   2.851   1.590   0.781
 3865SOL     OW12493   4.094   0.718   2.158
 3865SOL    HW112494   4.095   0.623   2.191
 3865SOL    HW212495   4.182   0.740   2.117
 3866SOL     OW12496   2.808   6.444   6.537
 3866SOL    HW112497   2.820   6.458   6.439
 3866SOL    HW212498   2.711   6.429   6.556
 3867SOL     OW12499   1.629   4.608   3.220
 3867SOL    HW112500   1.682   4.585   3.302
 3867SOL    HW212501   1.636   4.534   3.153
 3868SOL     OW12502   2.775   5.848   2.777
 3868SOL    HW112503   2.744   5.853   2.872
 3868SOL    HW212504   2.849   5.782   2.770
 3869SOL     OW12505   0.160   1.350   3.987
 3869SOL    HW112506   0.251   1.350   4.027
 3869SOL    HW212507   0.144   1.435   3.938
 3870SOL     OW12508   3.831   4.414   0.473
 3870SOL    HW112509   3.756   4.367   0.519
 3870SOL    HW212510   3.800   4.448   0.384
 3871SOL     OW12511   3.147   1.283   5.219
 3871SOL    HW112512   3.048   1.271   5.220
 3871SOL    HW212513   3.170   1.372   5.258
 3872SOL     OW12514   4.405   3.634   1.004
 3872SOL    HW112515   4.373   3.728   0.988
 3872SOL    HW212516   4.419   3.621   1.102
 3873SOL     OW12517   5.708   4.911   2.017
 3873SOL    HW112518   5.711   4.874   1.925
 3873SOL    HW212519   5.777   4.983   2.027
 3874SOL     OW12520   4.529   5.519   5.745
 3874SOL    HW112521   4.582   5.570   5.678
 3874SOL    HW212522   4.455   5.575   5.780
 3875SOL     OW12523   2.237   4.096   0.258
 3875SOL    HW112524   2.243   4.033   0.336
 3875SOL    HW212525   2.245   4.190   0.290
 3876SOL     OW12526   5.752   3.601   2.186
 3876SOL    HW112527   5.676   3.665   2.196
 3876SOL    HW212528   5.781   3.568   2.276
 3877SOL     OW12529   4.768   1.872   1.815
 3877SOL    HW112530   4.735   1.946   1.756
 3877SOL    HW212531   4.779   1.907   1.908
 3878SOL     OW12532   4.747   5.885   4.759
 3878SOL    HW112533   4.777   5.956   4.823
 3878SOL    HW212534   4.684   5.925   4.692
 3879SOL     OW12535   2.884   6.048   1.032
 3879SOL    HW112536   2.963   6.049   1.093
 3879SOL    HW212537   2.877   5.958   0.988
 3880SOL     OW12538   6.063   2.102   4.109
 3880SOL    HW112539   5.986   2.154   4.070
 3880SOL    HW212540   6.094   2.147   4.192
 3881SOL     OW12541   0.333   5.845   6.944
 3881SOL    HW112542   0.262   5.914   6.933
 3881SOL    HW212543   0.304   5.778   7.013
 3882SOL     OW12544   0.075   6.328   6.424
 3882SOL    HW112545   0.174   6.319   6.430
 3882SOL    HW212546   0.032   6.242   6.452
 3883SOL     OW12547   3.892   1.901   6.767
 3883SOL    HW112548   3.798   1.902   6.733
 3883SOL    HW212549   3.945   1.832   6.718
 3884SOL     OW12550   1.947   5.193   5.863
 3884SOL    HW112551   1.972   5.287   5.886
 3884SOL    HW212552   1.849   5.180   5.880
 3885SOL     OW12553   6.970   1.147   4.655
 3885SOL    HW112554   6.883   1.115   4.619
 3885SOL    HW212555   6.959   1.239   4.694
 3886SOL     OW12556   0.233   5.872   5.095
 3886SOL    HW112557   0.282   5.798   5.049
 3886SOL    HW212558   0.178   5.834   5.169
 3887SOL     OW12559   5.736   2.782   4.855
 3887SOL    HW112560   5.693   2.696   4.830
 3887SOL    HW212561   5.681   2.828   4.925
 3888SOL     OW12562   5.547   1.665   2.410
 3888SOL    HW112563   5.465   1.707   2.449
 3888SOL    HW212564   5.537   1.566   2.411
 3889SOL     OW12565   6.205   5.863   6.755
 3889SOL    HW112566   6.171   5.769   6.747
 3889SOL    HW212567   6.188   5.897   6.847
 3890SOL     OW12568   6.514   3.327   3.155
 3890SOL    HW112569   6.467   3.330   3.067
 3890SOL    HW212570   6.598   3.273   3.146
 3891SOL     OW12571   4.681   5.043   5.849
 3891SOL    HW112572   4.660   5.029   5.752
 3891SOL    HW212573   4.665   5.138   5.874
 3892SOL     OW12574   5.861   5.632   4.237
 3892SOL    HW112575   5.913   5.547   4.247
 3892SOL    HW212576   5.826   5.639   4.144
 3893SOL     OW12577   2.956   6.171   4.846
 3893SOL    HW112578   2.955   6.147   4.943
 3893SOL    HW212579   2.988   6.092   4.793
 3894SOL     OW12580   5.490   5.071   6.834
 3894SOL    HW112581   5.576   5.123   6.832
 3894SOL    HW212582   5.417   5.127   6.794
 3895SOL     OW12583   1.814   1.796   5.750
 3895SOL    HW112584   1.877   1.721   5.728
 3895SOL    HW212585   1.841   1.837   5.837
 3896SOL     OW12586   6.061   3.615   0.614
 3896SOL    HW112587   6.082   3.711   0.599
 3896SOL    HW212588   6.053   3.568   0.526
 3897SOL     OW12589   3.557   6.760   3.464
 3897SOL    HW112590   3.473   6.787   3.416
 3897SOL    HW212591   3.541   6.759   3.562
 3898SOL     OW12592   3.331   3.377   4.125
 3898SOL    HW112593   3.246   3.367   4.074
 3898SOL    HW212594   3.312   3.371   4.223
 3899SOL     OW12595   4.226   1.888   6.086
 3899SOL    HW112596   4.218   1.794   6.054
 3899SOL    HW212597   4.144   1.939   6.061
 3900SOL     OW12598   0.789   2.646   4.035
 3900SOL    HW112599   0.836   2.621   4.120
 3900SOL    HW212600   0.842   2.614   3.957
 3901SOL     OW12601   3.335   5.633   5.817
 3901SOL    HW112602   3.359   5.721   5.776
 3901SOL    HW212603   3.349   5.560   5.750
 3902SOL     OW12604   3.707   5.512   2.962
 3902SOL    HW112605   3.682   5.446   3.033
 3902SOL    HW212606   3.792   5.558   2.988
 3903SOL     OW12607   3.724   3.742   5.976
 3903SOL    HW112608   3.735   3.760   5.878
 3903SOL    HW212609   3.705   3.827   6.024
 3904SOL     OW12610   2.083   6.538   6.811
 3904SOL    HW112611   2.134   6.580   6.735
 3904SOL    HW212612   2.021   6.469   6.776
 3905SOL     OW12613   4.637   7.012   5.850
 3905SOL    HW112614   4.659   6.969   5.937
 3905SOL    HW212615   4.574   6.954   5.798
 3906SOL     OW12616   6.837   5.759   4.622
 3906SOL    HW112617   6.854   5.792   4.715
 3906SOL    HW212618   6.773   5.682   4.625
 3907SOL     OW12619   0.505   1.710   4.625
 3907SOL    HW112620   0.602   1.725   4.611
 3907SOL    HW212621   0.463   1.674   4.542
 3908SOL     OW12622   2.069   0.611   4.216
 3908SOL    HW112623   2.097   0.527   4.170
 3908SOL    HW212624   1.992   0.652   4.167
 3909SOL     OW12625   5.369   3.982   1.962
 3909SOL    HW112626   5.272   3.960   1.951
 3909SOL    HW212627   5.424   3.899   1.952
 3910SOL     OW12628   2.503   2.792   1.366
 3910SOL    HW112629   2.578   2.770   1.428
 3910SOL    HW212630   2.457   2.875   1.397
 3911SOL     OW12631   0.112   1.333   1.136
 3911SOL    HW112632   0.065   1.398   1.196
 3911SOL    HW212633   0.112   1.368   1.042
 3912SOL     OW12634   4.366   4.156   0.531
 3912SOL    HW112635   4.430   4.231   0.548
 3912SOL    HW212636   4.389   4.079   0.591
 3913SOL     OW12637   4.193   5.252   1.143
 3913SOL    HW112638   4.215   5.344   1.109
 3913SOL    HW212639   4.156   5.258   1.236
 3914SOL     OW12640   6.917   1.086   1.021
 3914SOL    HW112641   6.963   1.175   1.028
 3914SOL    HW212642   6.937   1.032   1.102
 3915SOL     OW12643   5.631   0.369   5.334
 3915SOL    HW112644   5.701   0.361   5.406
 3915SOL    HW212645   5.598   0.463   5.330
 3916SOL     OW12646   1.783   2.156   2.348
 3916SOL    HW112647   1.827   2.163   2.438
 3916SOL    HW212648   1.826   2.220   2.285
 3917SOL     OW12649   4.467   5.432   2.219
 3917SOL    HW112650   4.454   5.395   2.127
 3917SOL    HW212651   4.450   5.531   2.218
 3918SOL     OW12652   4.462   6.730   1.195
 3918SOL    HW112653   4.453   6.633   1.217
 3918SOL    HW212654   4.398   6.783   1.251
 3919SOL     OW12655   5.163   5.609   3.350
 3919SOL    HW112656   5.181   5.653   3.263
 3919SOL    HW212657   5.162   5.509   3.337
 3920SOL     OW12658   3.878   1.835   5.872
 3920SOL    HW112659   3.970   1.850   5.836
 3920SOL    HW212660   3.838   1.923   5.899
 3921SOL     OW12661   1.511   2.854   5.984
 3921SOL    HW112662   1.514   2.935   6.042
 3921SOL    HW212663   1.463   2.780   6.032
 3922SOL     OW12664   5.148   2.608   4.130
 3922SOL    HW112665   5.196   2.577   4.211
 3922SOL    HW212666   5.161   2.542   4.056
 3923SOL     OW12667   5.600   0.671   1.147
 3923SOL    HW112668   5.600   0.572   1.159
 3923SOL    HW212669   5.565   0.715   1.229
 3924SOL     OW12670   5.232   4.733   4.102
 3924SOL    HW112671   5.259   4.806   4.165
 3924SOL    HW212672   5.140   4.752   4.067
 3925SOL     OW12673   3.589   5.397   1.706
 3925SOL    HW112674   3.610   5.308   1.664
 3925SOL    HW212675   3.508   5.436   1.664
 3926SOL     OW12676   1.545   5.911   5.601
 3926SOL    HW112677   1.548   5.974   5.523
 3926SOL    HW212678   1.639   5.883   5.624
 3927SOL     OW12679   5.797   0.078   5.419
 3927SOL    HW112680   5.809   0.080   5.320
 3927SOL    HW212681   5.885   0.057   5.463
 3928SOL     OW12682   4.525   5.852   2.839
 3928SOL    HW112683   4.482   5.886   2.922
 3928SOL    HW212684   4.475   5.772   2.806
 3929SOL     OW12685   1.654   0.980   5.489
 3929SOL    HW112686   1.617   0.887   5.486
 3929SOL    HW212687   1.619   1.028   5.570
 3930SOL     OW12688   2.126   5.833   4.592
 3930SOL    HW112689   2.206   5.789   4.633
 3930SOL    HW212690   2.121   5.810   4.495
 3931SOL     OW12691   0.612   2.449   0.150
 3931SOL    HW112692   0.694   2.499   0.122
 3931SOL    HW212693   0.596   2.463   0.247
 3932SOL     OW12694   2.154   3.905   2.906
 3932SOL    HW112695   2.224   3.936   2.842
 3932SOL    HW212696   2.133   3.979   2.970
 3933SOL     OW12697   1.875   6.595   1.571
 3933SOL    HW112698   1.940   6.550   1.632
 3933SOL    HW212699   1.921   6.669   1.523
 3934SOL     OW12700   1.795   6.682   1.993
 3934SOL    HW112701   1.860   6.707   1.921
 3934SOL    HW212702   1.839   6.616   2.055
 3935SOL     OW12703   0.613   2.055   4.936
 3935SOL    HW112704   0.534   2.077   4.879
 3935SOL    HW212705   0.621   2.122   5.010
 3936SOL     OW12706   6.482   4.130   3.853
 3936SOL    HW112707   6.542   4.190   3.801
 3936SOL    HW212708   6.525   4.107   3.940
 3937SOL     OW12709   1.258   6.857   0.124
 3937SOL    HW112710   1.223   6.948   0.143
 3937SOL    HW212711   1.253   6.801   0.207
 3938SOL     OW12712   0.764   3.932   6.856
 3938SOL    HW112713   0.711   3.873   6.795
 3938SOL    HW212714   0.762   3.895   6.949
 3939SOL     OW12715   1.992   6.360   4.008
 3939SOL    HW112716   2.040   6.379   3.922
 3939SOL    HW212717   1.994   6.261   4.026
 3940SOL     OW12718   2.337   5.980   6.279
 3940SOL    HW112719   2.302   5.974   6.186
 3940SOL    HW212720   2.283   5.920   6.339
 3941SOL     OW12721   5.501   5.497   2.419
 3941SOL    HW112722   5.429   5.435   2.388
 3941SOL    HW212723   5.459   5.576   2.463
 3942SOL     OW12724   6.440   6.705   6.321
 3942SOL    HW112725   6.357   6.691   6.268
 3942SOL    HW212726   6.416   6.714   6.418
 3943SOL     OW12727   1.589   4.351   0.185
 3943SOL    HW112728   1.596   4.365   0.284
 3943SOL    HW212729   1.509   4.294   0.165
 3944SOL     OW12730   4.727   3.354   6.975
 3944SOL    HW112731   4.721   3.297   0.040
 3944SOL    HW212732   4.644   3.343   6.921
 3945SOL     OW12733   7.000   0.848   3.268
 3945SOL    HW112734   6.931   0.915   3.241
 3945SOL    HW212735   6.964   0.789   3.340
 3946SOL     OW12736   6.164   2.356   0.955
 3946SOL    HW112737   6.107   2.408   1.019
 3946SOL    HW212738   6.176   2.409   0.871
 3947SOL     OW12739   5.593   6.604   2.383
 3947SOL    HW112740   5.641   6.641   2.303
 3947SOL    HW212741   5.641   6.522   2.415
 3948SOL     OW12742   2.296   1.197   4.708
 3948SOL    HW112743   2.256   1.128   4.769
 3948SOL    HW212744   2.331   1.153   4.626
 3949SOL     OW12745   6.087   6.916   2.150
 3949SOL    HW112746   6.037   6.869   2.223
 3949SOL    HW212747   6.037   6.998   2.123
 3950SOL     OW12748   2.671   4.975   1.367
 3950SOL    HW112749   2.757   5.023   1.388
 3950SOL    HW212750   2.687   4.876   1.367
 3951SOL     OW12751   6.647   2.670   3.614
 3951SOL    HW112752   6.614   2.741   3.552
 3951SOL    HW212753   6.746   2.676   3.622
 3952SOL     OW12754   5.956   4.305   6.895
 3952SOL    HW112755   6.034   4.360   6.864
 3952SOL    HW212756   5.930   4.240   6.823
 3953SOL     OW12757   3.398   3.728   5.826
 3953SOL    HW112758   3.385   3.703   5.922
 3953SOL    HW212759   3.432   3.650   5.775
 3954SOL     OW12760   1.275   3.369   5.334
 3954SOL    HW112761   1.224   3.285   5.317
 3954SOL    HW212762   1.312   3.368   5.427
 3955SOL     OW12763   5.905   3.502   0.111
 3955SOL    HW112764   5.884   3.599   0.114
 3955SOL    HW212765   5.823   3.449   0.133
 3956SOL     OW12766   0.003   2.689   5.022
 3956SOL    HW112767   6.989   2.783   5.012
 3956SOL    HW212768   0.056   2.680   5.107
 3957SOL     OW12769   0.814   2.690   1.994
 3957SOL    HW112770   0.847   2.687   2.088
 3957SOL    HW212771   0.719   2.658   1.991
 3958SOL     OW12772   5.659   5.865   1.281
 3958SOL    HW112773   5.632   5.825   1.193
 3958SOL    HW212774   5.708   5.796   1.334
 3959SOL     OW12775   2.880   5.189   1.804
 3959SOL    HW112776   2.814   5.233   1.865
 3959SOL    HW212777   2.885   5.092   1.825
 3960SOL     OW12778   6.110   2.653   0.447
 3960SOL    HW112779   6.146   2.691   0.362
 3960SOL    HW212780   6.110   2.553   0.440
 3961SOL     OW12781   0.039   1.021   1.258
 3961SOL    HW112782   0.132   1.030   1.222
 3961SOL    HW212783   0.036   1.054   1.352
 3962SOL     OW12784   6.949   0.413   6.086
 3962SOL    HW112785   6.863   0.381   6.046
 3962SOL    HW212786   6.994   0.475   6.021
 3963SOL     OW12787   5.133   4.053   4.124
 3963SOL    HW112788   5.224   4.033   4.159
 3963SOL    HW212789   5.139   4.081   4.028
 3964SOL     OW12790   5.653   4.773   0.308
 3964SOL    HW112791   5.590   4.850   0.322
 3964SOL    HW212792   5.695   4.748   0.395
 3965SOL     OW12793   3.298   3.867   0.951
 3965SOL    HW112794   3.376   3.821   0.994
 3965SOL    HW212795   3.247   3.917   1.019
 3966SOL     OW12796   6.575   3.382   5.807
 3966SOL    HW112797   6.477   3.403   5.813
 3966SOL    HW212798   6.599   3.362   5.712
 3967SOL     OW12799   2.311   6.605   0.171
 3967SOL    HW112800   2.287   6.633   0.264
 3967SOL    HW212801   2.255   6.527   0.144
 3968SOL     OW12802   4.673   2.097   0.479
 3968SOL    HW112803   4.622   2.040   0.543
 3968SOL    HW212804   4.662   2.060   0.386
 3969SOL     OW12805   0.035   6.368   0.882
 3969SOL    HW112806   6.962   6.385   0.921
 3969SOL    HW212807   0.092   6.449   0.892
 3970SOL     OW12808   5.759   4.538   3.977
 3970SOL    HW112809   5.787   4.633   3.967
 3970SOL    HW212810   5.660   4.531   3.966
 3971SOL     OW12811   0.709   5.894   3.642
 3971SOL    HW112812   0.807   5.914   3.644
 3971SOL    HW212813   0.661   5.967   3.593
 3972SOL     OW12814   1.349   0.489   5.907
 3972SOL    HW112815   1.289   0.458   5.834
 3972SOL    HW212816   1.333   0.435   5.989
 3973SOL     OW12817   3.919   3.384   2.616
 3973SOL    HW112818   3.860   3.438   2.557
 3973SOL    HW212819   3.922   3.290   2.584
 3974SOL     OW12820   5.108   0.693   6.587
 3974SOL    HW112821   5.028   0.751   6.604
 3974SOL    HW212822   5.078   0.600   6.566
 3975SOL     OW12823   0.222   6.781   4.388
 3975SOL    HW112824   0.318   6.799   4.410
 3975SOL    HW212825   0.214   6.757   4.291
 3976SOL     OW12826   1.013   2.688   5.907
 3976SOL    HW112827   1.000   2.739   5.992
 3976SOL    HW212828   0.982   2.743   5.829
 3977SOL     OW12829   3.257   5.031   5.518
 3977SOL    HW112830   3.258   4.932   5.533
 3977SOL    HW212831   3.344   5.060   5.478
 3978SOL     OW12832   5.564   3.072   6.601
 3978SOL    HW112833   5.521   3.093   6.689
 3978SOL    HW212834   5.584   2.974   6.596
 3979SOL     OW12835   1.093   5.978   3.157
 3979SOL    HW112836   1.118   5.917   3.082
 3979SOL    HW212837   1.000   5.957   3.187
 3980SOL     OW12838   5.113   4.038   4.531
 3980SOL    HW112839   5.130   3.947   4.493
 3980SOL    HW212840   5.110   4.104   4.456
 3981SOL     OW12841   6.929   1.291   6.369
 3981SOL    HW112842   6.841   1.250   6.393
 3981SOL    HW212843   6.927   1.388   6.392
 3982SOL     OW12844   2.166   3.151   4.592
 3982SOL    HW112845   2.149   3.089   4.669
 3982SOL    HW212846   2.205   3.236   4.625
 3983SOL     OW12847   3.227   0.828   3.939
 3983SOL    HW112848   3.207   0.777   3.855
 3983SOL    HW212849   3.242   0.764   4.014
 3984SOL     OW12850   1.822   5.661   2.197
 3984SOL    HW112851   1.888   5.587   2.213
 3984SOL    HW212852   1.740   5.646   2.252
 3985SOL     OW12853   1.984   2.434   1.310
 3985SOL    HW112854   2.047   2.388   1.248
 3985SOL    HW212855   2.036   2.486   1.378
 3986SOL     OW12856   0.003   2.323   2.521
 3986SOL    HW112857   6.959   2.374   2.583
 3986SOL    HW212858   7.000   2.225   2.529
 3987SOL     OW12859   1.058   4.317   5.052
 3987SOL    HW112860   1.005   4.385   5.102
 3987SOL    HW212861   1.152   4.315   5.087
 3988SOL     OW12862   5.000   6.786   2.045
 3988SOL    HW112863   4.924   6.724   2.023
 3988SOL    HW212864   4.963   6.873   2.079
 3989SOL     OW12865   4.167   1.234   5.740
 3989SOL    HW112866   4.130   1.296   5.671
 3989SOL    HW212867   4.235   1.174   5.698
 3990SOL     OW12868   5.930   1.085   3.996
 3990SOL    HW112869   5.918   1.039   4.084
 3990SOL    HW212870   6.026   1.112   3.985
 3991SOL     OW12871   0.100   1.970   3.286
 3991SOL    HW112872   0.018   1.913   3.291
 3991SOL    HW212873   0.095   2.041   3.357
 3992SOL     OW12874   5.415   3.781   6.467
 3992SOL    HW112875   5.460   3.717   6.406
 3992SOL    HW212876   5.392   3.735   6.553
 3993SOL     OW12877   1.513   0.655   3.710
 3993SOL    HW112878   1.581   0.610   3.651
 3993SOL    HW212879   1.559   0.717   3.773
 3994SOL     OW12880   3.294   1.815   3.494
 3994SOL    HW112881   3.298   1.910   3.524
 3994SOL    HW212882   3.385   1.774   3.502
 3995SOL     OW12883   1.572   3.524   2.507
 3995SOL    HW112884   1.487   3.479   2.478
 3995SOL    HW212885   1.650   3.476   2.467
 3996SOL     OW12886   6.491   6.451   4.884
 3996SOL    HW112887   6.571   6.407   4.927
 3996SOL    HW212888   6.475   6.539   4.928
 3997SOL     OW12889   5.640   3.921   4.510
 3997SOL    HW112890   5.614   3.995   4.448
 3997SOL    HW212891   5.569   3.908   4.579
 3998SOL     OW12892   5.246   2.089   3.743
 3998SOL    HW112893   5.160   2.132   3.717
 3998SOL    HW212894   5.294   2.147   3.809
 3999SOL     OW12895   5.028   2.714   0.901
 3999SOL    HW112896   4.957   2.645   0.914
 3999SOL    HW212897   5.057   2.750   0.990
 4000SOL     OW12898   2.273   4.846   3.300
 4000SOL    HW112899   2.195   4.828   3.239
 4000SOL    HW212900   2.274   4.943   3.324
 4001SOL     OW12901   0.482   5.997   4.385
 4001SOL    HW112902   0.499   5.898   4.383
 4001SOL    HW212903   0.440   6.022   4.472
 4002SOL     OW12904   3.961   3.751   4.814
 4002SOL    HW112905   3.966   3.818   4.740
 4002SOL    HW212906   3.903   3.674   4.785
 4003SOL     OW12907   2.642   1.019   4.655
 4003SOL    HW112908   2.728   1.000   4.608
 4003SOL    HW212909   2.619   1.115   4.646
 4004SOL     OW12910   2.039   4.349   4.762
 4004SOL    HW112911   2.076   4.257   4.747
 4004SOL    HW212912   1.977   4.348   4.840
 4005SOL     OW12913   5.037   2.599   0.579
 4005SOL    HW112914   5.117   2.615   0.521
 4005SOL    HW212915   4.976   2.679   0.575
 4006SOL     OW12916   6.824   5.445   1.787
 4006SOL    HW112917   6.881   5.526   1.775
 4006SOL    HW212918   6.829   5.389   1.704
 4007SOL     OW12919   0.787   1.386   1.910
 4007SOL    HW112920   0.822   1.463   1.963
 4007SOL    HW212921   0.687   1.385   1.914
 4008SOL     OW12922   3.586   0.981   1.354
 4008SOL    HW112923   3.601   1.004   1.450
 4008SOL    HW212924   3.499   1.021   1.324
 4009SOL     OW12925   3.661   2.500   1.063
 4009SOL    HW112926   3.743   2.444   1.071
 4009SOL    HW212927   3.590   2.463   1.124
 4010SOL     OW12928   1.882   4.654   1.206
 4010SOL    HW112929   1.862   4.693   1.116
 4010SOL    HW212930   1.864   4.722   1.276
 4011SOL     OW12931   6.107   0.110   5.935
 4011SOL    HW112932   6.166   0.053   5.877
 4011SOL    HW212933   6.050   0.168   5.877
 4012SOL     OW12934   5.966   5.424   2.076
 4012SOL    HW112935   5.888   5.473   2.115
 4012SOL    HW212936   6.030   5.399   2.149
 4013SOL     OW12937   6.900   1.739   6.991
 4013SOL    HW112938   6.804   1.713   7.000
 4013SOL    HW212939   6.943   1.682   6.921
 4014SOL     OW12940   3.517   5.866   2.636
 4014SOL    HW112941   3.420   5.850   2.654
 4014SOL    HW212942   3.562   5.895   2.720
 4015SOL     OW12943   4.617   6.092   6.131
 4015SOL    HW112944   4.571   6.096   6.042
 4015SOL    HW212945   4.711   6.127   6.121
 4016SOL     OW12946   5.082   5.094   4.576
 4016SOL    HW112947   5.020   5.055   4.644
 4016SOL    HW212948   5.177   5.074   4.601
 4017SOL     OW12949   1.809   6.070   5.792
 4017SOL    HW112950   1.854   5.988   5.829
 4017SOL    HW212951   1.876   6.123   5.739
 4018SOL     OW12952   4.336   5.541   0.985
 4018SOL    HW112953   4.429   5.570   0.963
 4018SOL    HW212954   4.321   5.448   0.952
 4019SOL     OW12955   6.883   3.583   2.038
 4019SOL    HW112956   6.883   3.493   2.082
 4019SOL    HW212957   6.966   3.593   1.983
 4020SOL     OW12958   6.811   5.714   4.271
 4020SOL    HW112959   6.804   5.710   4.370
 4020SOL    HW212960   6.720   5.707   4.231
 4021SOL     OW12961   4.460   5.034   6.476
 4021SOL    HW112962   4.496   5.030   6.570
 4021SOL    HW212963   4.513   5.101   6.424
 4022SOL     OW12964   3.361   6.480   1.040
 4022SOL    HW112965   3.264   6.480   1.017
 4022SOL    HW212966   3.415   6.482   0.955
 4023SOL     OW12967   0.677   1.993   4.460
 4023SOL    HW112968   0.588   1.969   4.420
 4023SOL    HW212969   0.721   1.910   4.493
 4024SOL     OW12970   0.131   6.584   5.562
 4024SOL    HW112971   0.117   6.622   5.470
 4024SOL    HW212972   0.158   6.488   5.555
 4025SOL     OW12973   0.176   4.833   3.934
 4025SOL    HW112974   0.108   4.791   3.875
 4025SOL    HW212975   0.268   4.803   3.906
 4026SOL     OW12976   0.342   6.383   4.131
 4026SOL    HW112977   0.400   6.427   4.200
 4026SOL    HW212978   0.388   6.386   4.042
 4027SOL     OW12979   3.713   5.094   5.049
 4027SOL    HW112980   3.745   5.047   5.132
 4027SOL    HW212981   3.660   5.031   4.993
 4028SOL     OW12982   5.158   1.483   4.055
 4028SOL    HW112983   5.133   1.523   3.967
 4028SOL    HW212984   5.183   1.556   4.119
 4029SOL     OW12985   1.170   6.778   0.899
 4029SOL    HW112986   1.175   6.853   0.965
 4029SOL    HW212987   1.079   6.773   0.859
 4030SOL     OW12988   0.664   1.828   1.908
 4030SOL    HW112989   0.612   1.802   1.827
 4030SOL    HW212990   0.616   1.902   1.956
 4031SOL     OW12991   5.616   5.875   0.372
 4031SOL    HW112992   5.655   5.946   0.431
 4031SOL    HW212993   5.648   5.890   0.278
 4032SOL     OW12994   5.215   1.273   2.746
 4032SOL    HW112995   5.282   1.348   2.745
 4032SOL    HW212996   5.263   1.185   2.747
 4033SOL     OW12997   2.144   3.028   2.878
 4033SOL    HW112998   2.080   3.081   2.822
 4033SOL    HW212999   2.207   2.979   2.818
 4034SOL     OW13000   1.662   2.526   5.008
 4034SOL    HW113001   1.715   2.441   4.999
 4034SOL    HW213002   1.566   2.508   4.987
 4035SOL     OW13003   4.479   2.119   1.947
 4035SOL    HW113004   4.422   2.136   1.867
 4035SOL    HW213005   4.431   2.151   2.029
 4036SOL     OW13006   3.474   6.148   3.400
 4036SOL    HW113007   3.495   6.231   3.348
 4036SOL    HW213008   3.497   6.162   3.496
 4037SOL     OW13009   1.942   2.125   6.408
 4037SOL    HW113010   1.959   2.026   6.403
 4037SOL    HW213011   1.862   2.142   6.466
 4038SOL     OW13012   3.152   4.781   5.977
 4038SOL    HW113013   3.222   4.744   5.916
 4038SOL    HW213014   3.195   4.824   6.056
 4039SOL     OW13015   5.985   4.596   1.455
 4039SOL    HW113016   5.996   4.562   1.362
 4039SOL    HW213017   6.017   4.526   1.520
 4040SOL     OW13018   3.373   0.661   4.958
 4040SOL    HW113019   3.437   0.735   4.978
 4040SOL    HW213020   3.392   0.583   5.018
 4041SOL     OW13021   1.509   5.268   1.992
 4041SOL    HW113022   1.570   5.262   2.071
 4041SOL    HW213023   1.465   5.358   1.991
 4042SOL     OW13024   0.034   1.669   3.124
 4042SOL    HW113025   0.036   1.730   3.044
 4042SOL    HW213026   6.981   1.701   3.188
 4043SOL     OW13027   4.776   2.488   6.259
 4043SOL    HW113028   4.800   2.583   6.279
 4043SOL    HW213029   4.741   2.481   6.166
 4044SOL     OW13030   4.764   4.342   3.077
 4044SOL    HW113031   4.777   4.290   3.162
 4044SOL    HW213032   4.790   4.285   2.999
 4045SOL     OW13033   4.431   1.582   5.151
 4045SOL    HW113034   4.497   1.515   5.119
 4045SOL    HW213035   4.383   1.547   5.231
 4046SOL     OW13036   5.517   1.753   4.022
 4046SOL    HW113037   5.538   1.820   4.093
 4046SOL    HW213038   5.425   1.770   3.986
 4047SOL     OW13039   3.301   2.619   6.632
 4047SOL    HW113040   3.272   2.536   6.585
 4047SOL    HW213041   3.368   2.596   6.703
 4048SOL     OW13042   5.098   1.853   2.673
 4048SOL    HW113043   5.056   1.898   2.594
 4048SOL    HW213044   5.042   1.870   2.754
 4049SOL     OW13045   4.137   3.890   1.064
 4049SOL    HW113046   4.120   3.793   1.082
 4049SOL    HW213047   4.080   3.920   0.987
 4050SOL     OW13048   0.033   4.944   2.360
 4050SOL    HW113049   7.009   5.016   2.416
 4050SOL    HW213050   0.092   4.985   2.291
 4051SOL     OW13051   5.317   0.437   5.163
 4051SOL    HW113052   5.361   0.348   5.150
 4051SOL    HW213053   5.386   0.505   5.189
 4052SOL     OW13054   5.252   1.834   3.919
 4052SOL    HW113055   5.214   1.874   4.003
 4052SOL    HW213056   5.286   1.907   3.860
 4053SOL     OW13057   0.989   4.666   3.974
 4053SOL    HW113058   1.073   4.718   3.956
 4053SOL    HW213059   0.961   4.619   3.890
 4054SOL     OW13060   4.539   3.804   1.404
 4054SOL    HW113061   4.504   3.897   1.398
 4054SOL    HW213062   4.601   3.797   1.482
 4055SOL     OW13063   0.110   4.616   0.329
 4055SOL    HW113064   0.205   4.586   0.322
 4055SOL    HW213065   0.082   4.619   0.425
 4056SOL     OW13066   5.357   3.118   6.837
 4056SOL    HW113067   5.261   3.093   6.844
 4056SOL    HW213068   5.414   3.040   6.862
 4057SOL     OW13069   0.076   3.895   0.053
 4057SOL    HW113070   0.093   3.949   0.136
 4057SOL    HW213071   0.000   3.832   0.069
 4058SOL     OW13072   3.125   0.411   4.554
 4058SOL    HW113073   3.150   0.465   4.474
 4058SOL    HW213074   3.185   0.434   4.630
 4059SOL     OW13075   0.614   1.543   3.697
 4059SOL    HW113076   0.709   1.556   3.668
 4059SOL    HW213077   0.572   1.472   3.641
 4060SOL     OW13078   0.108   5.998   4.443
 4060SOL    HW113079   0.126   6.018   4.346
 4060SOL    HW213080   0.020   6.038   4.469
 4061SOL     OW13081   0.796   4.994   1.654
 4061SOL    HW113082   0.796   4.895   1.668
 4061SOL    HW213083   0.841   5.039   1.731
 4062SOL     OW13084   1.751   3.840   0.901
 4062SOL    HW113085   1.673   3.885   0.858
 4062SOL    HW213086   1.834   3.857   0.848
 4063SOL     OW13087   3.857   0.438   0.943
 4063SOL    HW113088   3.843   0.432   0.844
 4063SOL    HW213089   3.794   0.375   0.989
 4064SOL     OW13090   1.997   1.056   5.660
 4064SOL    HW113091   1.986   1.056   5.561
 4064SOL    HW213092   1.946   0.978   5.698
 4065SOL     OW13093   2.171   0.616   1.215
 4065SOL    HW113094   2.258   0.650   1.179
 4065SOL    HW213095   2.170   0.516   1.210
 4066SOL     OW13096   0.441   3.741   3.927
 4066SOL    HW113097   0.535   3.773   3.941
 4066SOL    HW213098   0.442   3.661   3.868
 4067SOL     OW13099   5.714   5.044   0.567
 4067SOL    HW113100   5.637   5.028   0.504
 4067SOL    HW213101   5.769   4.961   0.574
 4068SOL     OW13102   2.364   2.745   5.231
 4068SOL    HW113103   2.379   2.828   5.178
 4068SOL    HW213104   2.364   2.767   5.328
 4069SOL     OW13105   4.934   5.933   6.430
 4069SOL    HW113106   4.942   5.960   6.526
 4069SOL    HW213107   4.971   6.006   6.372
 4070SOL     OW13108   1.426   3.606   4.214
 4070SOL    HW113109   1.399   3.618   4.119
 4070SOL    HW213110   1.439   3.509   4.233
 4071SOL     OW13111   1.585   1.081   4.997
 4071SOL    HW113112   1.534   1.001   4.966
 4071SOL    HW213113   1.626   1.127   4.918
 4072SOL     OW13114   3.049   6.398   2.466
 4072SOL    HW113115   3.001   6.439   2.389
 4072SOL    HW213116   2.984   6.378   2.539
 4073SOL     OW13117   4.110   5.084   6.693
 4073SOL    HW113118   4.144   5.027   6.618
 4073SOL    HW213119   4.133   5.179   6.676
 4074SOL     OW13120   1.993   5.799   2.880
 4074SOL    HW113121   1.911   5.855   2.889
 4074SOL    HW213122   1.988   5.721   2.942
 4075SOL     OW13123   6.334   0.777   0.102
 4075SOL    HW113124   6.309   0.868   0.135
 4075SOL    HW213125   6.324   0.775   0.002
 4076SOL     OW13126   2.235   5.690   3.741
 4076SOL    HW113127   2.167   5.763   3.729
 4076SOL    HW213128   2.243   5.666   3.838
 4077SOL     OW13129   2.966   0.705   1.860
 4077SOL    HW113130   2.907   0.776   1.821
 4077SOL    HW213131   3.012   0.742   1.941
 4078SOL     OW13132   3.608   4.970   2.137
 4078SOL    HW113133   3.654   5.039   2.081
 4078SOL    HW213134   3.608   4.883   2.089
 4079SOL     OW13135   0.006   2.331   3.643
 4079SOL    HW113136   0.014   2.248   3.699
 4079SOL    HW213137   0.002   2.305   3.546
 4080SOL     OW13138   6.796   2.026   5.229
 4080SOL    HW113139   6.840   1.938   5.213
 4080SOL    HW213140   6.806   2.051   5.326
 4081SOL     OW13141   0.769   3.457   3.915
 4081SOL    HW113142   0.689   3.485   3.968
 4081SOL    HW213143   0.826   3.537   3.895
 4082SOL     OW13144   0.447   3.846   0.480
 4082SOL    HW113145   0.501   3.894   0.410
 4082SOL    HW213146   0.396   3.913   0.534
 4083SOL     OW13147   6.746   2.680   5.116
 4083SOL    HW113148   6.717   2.712   5.026
 4083SOL    HW213149   6.812   2.606   5.105
 4084SOL     OW13150   6.366   1.113   4.231
 4084SOL    HW113151   6.406   1.027   4.199
 4084SOL    HW213152   6.428   1.158   4.294
 4085SOL     OW13153   2.418   6.431   0.610
 4085SOL    HW113154   2.486   6.363   0.637
 4085SOL    HW213155   2.353   6.389   0.546
 4086SOL     OW13156   1.087   4.134   1.031
 4086SOL    HW113157   1.058   4.229   1.025
 4086SOL    HW213158   1.036   4.078   0.966
 4087SOL     OW13159   2.364   1.719   2.589
 4087SOL    HW113160   2.420   1.690   2.512
 4087SOL    HW213161   2.417   1.782   2.647
 4088SOL     OW13162   6.467   1.596   0.487
 4088SOL    HW113163   6.396   1.646   0.437
 4088SOL    HW213164   6.428   1.513   0.526
 4089SOL     OW13165   1.124   1.355   5.428
 4089SOL    HW113166   1.150   1.295   5.504
 4089SOL    HW213167   1.146   1.311   5.341
 4090SOL     OW13168   2.548   4.713   6.200
 4090SOL    HW113169   2.483   4.781   6.165
 4090SOL    HW213170   2.606   4.681   6.124
 4091SOL     OW13171   4.154   6.869   0.890
 4091SOL    HW113172   4.188   6.961   0.910
 4091SOL    HW213173   4.093   6.872   0.812
 4092SOL     OW13174   6.957   1.735   4.397
 4092SOL    HW113175   6.929   1.689   4.481
 4092SOL    HW213176   0.000   1.812   4.419
 4093SOL     OW13177   5.649   6.880   4.498
 4093SOL    HW113178   5.624   6.971   4.466
 4093SOL    HW213179   5.735   6.886   4.550
 4094SOL     OW13180   3.106   4.270   5.233
 4094SOL    HW113181   3.069   4.363   5.241
 4094SOL    HW213182   3.065   4.224   5.154
 4095SOL     OW13183   1.858   3.307   5.678
 4095SOL    HW113184   1.839   3.380   5.613
 4095SOL    HW213185   1.946   3.325   5.723
 4096SOL     OW13186   4.292   4.790   2.317
 4096SOL    HW113187   4.223   4.791   2.389
 4096SOL    HW213188   4.258   4.737   2.239
 4097SOL     OW13189   3.238   3.970   3.733
 4097SOL    HW113190   3.184   4.037   3.785
 4097SOL    HW213191   3.266   3.896   3.794
 4098SOL     OW13192   0.513   3.278   2.483
 4098SOL    HW113193   0.554   3.203   2.431
 4098SOL    HW213194   0.449   3.241   2.550
 4099SOL     OW13195   2.609   6.191   1.634
 4099SOL    HW113196   2.552   6.188   1.716
 4099SOL    HW213197   2.551   6.196   1.553
 4100SOL     OW13198   3.853   6.400   3.383
 4100SOL    HW113199   3.892   6.381   3.474
 4100SOL    HW213200   3.919   6.372   3.313
 4101SOL     OW13201   4.447   1.150   6.824
 4101SOL    HW113202   4.429   1.074   6.761
 4101SOL    HW213203   4.518   1.209   6.785
 4102SOL     OW13204   5.361   1.041   0.509
 4102SOL    HW113205   5.387   1.070   0.601
 4102SOL    HW213206   5.417   0.963   0.481
 4103SOL     OW13207   0.176   0.336   2.165
 4103SOL    HW113208   0.175   0.236   2.171
 4103SOL    HW213209   0.264   0.366   2.127
 4104SOL     OW13210   1.855   4.770   2.542
 4104SOL    HW113211   1.819   4.685   2.580
 4104SOL    HW213212   1.910   4.748   2.461
 4105SOL     OW13213   5.496   4.980   0.410
 4105SOL    HW113214   5.445   4.932   0.481
 4105SOL    HW213215   5.434   5.044   0.362
 4106SOL     OW13216   0.011   3.694   5.006
 4106SOL    HW113217   6.994   3.601   5.018
 4106SOL    HW213218   0.095   3.706   5.058
 4107SOL     OW13219   6.520   0.610   0.671
 4107SOL    HW113220   6.611   0.651   0.681
 4107SOL    HW213221   6.505   0.544   0.745
 4108SOL     OW13222   6.764   2.809   5.361
 4108SOL    HW113223   6.769   2.776   5.266
 4108SOL    HW213224   6.822   2.889   5.372
 4109SOL     OW13225   2.924   6.613   3.614
 4109SOL    HW113226   2.882   6.655   3.694
 4109SOL    HW213227   3.011   6.659   3.595
 4110SOL     OW13228   4.208   3.434   5.484
 4110SOL    HW113229   4.170   3.450   5.393
 4110SOL    HW213230   4.273   3.507   5.507
 4111SOL     OW13231   4.090   3.598   6.455
 4111SOL    HW113232   4.129   3.686   6.480
 4111SOL    HW213233   4.162   3.537   6.421
 4112SOL     OW13234   3.676   0.727   4.525
 4112SOL    HW113235   3.674   0.814   4.575
 4112SOL    HW213236   3.670   0.744   4.427
 4113SOL     OW13237   4.117   5.505   4.856
 4113SOL    HW113238   4.141   5.560   4.776
 4113SOL    HW213239   4.169   5.420   4.855
 4114SOL     OW13240   3.704   2.128   2.478
 4114SOL    HW113241   3.627   2.123   2.542
 4114SOL    HW213242   3.670   2.117   2.384
 4115SOL     OW13243   5.638   4.759   2.417
 4115SOL    HW113244   5.706   4.747   2.490
 4115SOL    HW213245   5.677   4.727   2.330
 4116SOL     OW13246   3.459   1.096   2.663
 4116SOL    HW113247   3.541   1.097   2.720
 4116SOL    HW213248   3.412   1.184   2.672
 4117SOL     OW13249   0.462   5.627   1.953
 4117SOL    HW113250   0.499   5.534   1.959
 4117SOL    HW213251   0.500   5.673   1.873
 4118SOL     OW13252   2.576   0.005   0.712
 4118SOL    HW113253   2.504   6.998   0.776
 4118SOL    HW213254   2.605   6.940   0.662
 4119SOL     OW13255   4.640   0.929   3.281
 4119SOL    HW113256   4.697   0.955   3.202
 4119SOL    HW213257   4.685   0.855   3.331
 4120SOL     OW13258   4.054   0.961   2.359
 4120SOL    HW113259   4.061   0.875   2.309
 4120SOL    HW213260   4.064   1.038   2.295
 4121SOL     OW13261   6.895   2.456   4.964
 4121SOL    HW113262   6.882   2.415   5.055
 4121SOL    HW213263   6.954   2.536   4.972
 4122SOL     OW13264   1.842   5.621   6.675
 4122SOL    HW113265   1.745   5.639   6.692
 4122SOL    HW213266   1.866   5.652   6.583
 4123SOL     OW13267   4.712   4.321   5.974
 4123SOL    HW113268   4.738   4.307   6.070
 4123SOL    HW213269   4.620   4.358   5.970
 4124SOL     OW13270   4.764   6.652   3.598
 4124SOL    HW113271   4.790   6.742   3.633
 4124SOL    HW213272   4.666   6.637   3.615
 4125SOL     OW13273   5.244   0.734   0.844
 4125SOL    HW113274   5.233   0.826   0.881
 4125SOL    HW213275   5.229   0.736   0.745
 4126SOL     OW13276   2.076   4.858   4.569
 4126SOL    HW113277   2.129   4.784   4.528
 4126SOL    HW213278   2.126   4.945   4.556
 4127SOL     OW13279   6.105   3.904   5.078
 4127SOL    HW113280   6.158   3.823   5.054
 4127SOL    HW213281   6.166   3.977   5.108
 4128SOL     OW13282   0.900   2.287   2.065
 4128SOL    HW113283   0.845   2.361   2.104
 4128SOL    HW213284   0.849   2.241   1.993
 4129SOL     OW13285   5.768   2.292   6.490
 4129SOL    HW113286   5.690   2.243   6.452
 4129SOL    HW213287   5.853   2.261   6.447
 4130SOL     OW13288   6.186   3.199   1.251
 4130SOL    HW113289   6.183   3.178   1.349
 4130SOL    HW213290   6.168   3.297   1.238
 4131SOL     OW13291   6.950   3.909   3.305
 4131SOL    HW113292   6.957   3.904   3.405
 4131SOL    HW213293   6.995   3.992   3.273
 4132SOL     OW13294   4.752   2.110   4.591
 4132SOL    HW113295   4.794   2.177   4.653
 4132SOL    HW213296   4.823   2.063   4.539
 4133SOL     OW13297   2.777   2.324   1.359
 4133SOL    HW113298   2.822   2.405   1.397
 4133SOL    HW213299   2.806   2.243   1.410
 4134SOL     OW13300   1.681   1.948   0.036
 4134SOL    HW113301   1.754   1.916   6.992
 4134SOL    HW213302   1.710   1.941   0.131
 4135SOL     OW13303   1.403   0.804   0.887
 4135SOL    HW113304   1.352   0.873   0.836
 4135SOL    HW213305   1.430   0.730   0.826
 4136SOL     OW13306   1.023   1.759   3.358
 4136SOL    HW113307   1.064   1.677   3.398
 4136SOL    HW213308   1.094   1.822   3.329
 4137SOL     OW13309   3.953   3.654   5.557
 4137SOL    HW113310   3.985   3.576   5.610
 4137SOL    HW213311   3.948   3.629   5.460
 4138SOL     OW13312   4.281   5.714   2.596
 4138SOL    HW113313   4.240   5.778   2.662
 4138SOL    HW213314   4.212   5.647   2.568
 4139SOL     OW13315   2.471   0.907   6.988
 4139SOL    HW113316   2.388   0.922   6.936
 4139SOL    HW213317   2.509   0.817   6.965
 4140SOL     OW13318   4.306   2.045   5.162
 4140SOL    HW113319   4.352   2.089   5.084
 4140SOL    HW213320   4.372   2.033   5.236
 4141SOL     OW13321   5.170   5.328   0.415
 4141SOL    HW113322   5.252   5.372   0.452
 4141SOL    HW213323   5.188   5.232   0.397
 4142SOL     OW13324   6.671   2.479   1.389
 4142SOL    HW113325   6.720   2.454   1.305
 4142SOL    HW213326   6.574   2.494   1.368
 4143SOL     OW13327   0.558   2.559   1.683
 4143SOL    HW113328   0.581   2.552   1.780
 4143SOL    HW213329   0.640   2.578   1.630
 4144SOL     OW13330   4.782   0.379   2.128
 4144SOL    HW113331   4.819   0.330   2.048
 4144SOL    HW213332   4.727   0.456   2.097
 4145SOL     OW13333   3.678   6.991   2.837
 4145SOL    HW113334   3.655   6.958   2.745
 4145SOL    HW213335   3.604   0.033   2.870
 4146SOL     OW13336   4.817   5.621   0.240
 4146SOL    HW113337   4.747   5.576   0.185
 4146SOL    HW213338   4.855   5.556   0.306
 4147SOL     OW13339   2.889   2.306   5.730
 4147SOL    HW113340   2.828   2.275   5.657
 4147SOL    HW213341   2.839   2.364   5.794
 4148SOL     OW13342   6.115   0.367   3.021
 4148SOL    HW113343   6.044   0.427   2.983
 4148SOL    HW213344   6.092   0.272   3.000
 4149SOL     OW13345   5.147   4.556   1.372
 4149SOL    HW113346   5.127   4.508   1.458
 4149SOL    HW213347   5.185   4.646   1.394
 4150SOL     OW13348   4.886   0.445   5.941
 4150SOL    HW113349   4.961   0.389   5.978
 4150SOL    HW213350   4.864   0.414   5.848
 4151SOL     OW13351   0.438   5.520   0.598
 4151SOL    HW113352   0.359   5.563   0.641
 4151SOL    HW213353   0.406   5.455   0.528
 4152SOL     OW13354   3.690   4.302   1.449
 4152SOL    HW113355   3.750   4.231   1.486
 4152SOL    HW213356   3.602   4.299   1.497
 4153SOL     OW13357   5.826   5.467   5.984
 4153SOL    HW113358   5.925   5.466   5.989
 4153SOL    HW213359   5.797   5.457   5.888
 4154SOL     OW13360   4.530   2.419   5.806
 4154SOL    HW113361   4.541   2.450   5.712
 4154SOL    HW213362   4.442   2.450   5.841
 4155SOL     OW13363   1.558   3.136   0.884
 4155SOL    HW113364   1.598   3.179   0.803
 4155SOL    HW213365   1.562   3.199   0.961
 4156SOL     OW13366   6.322   0.058   5.222
 4156SOL    HW113367   6.279   7.006   5.281
 4156SOL    HW213368   6.286   0.148   5.245
 4157SOL     OW13369   3.133   1.016   4.094
 4157SOL    HW113370   3.121   0.961   4.011
 4157SOL    HW213371   3.230   1.023   4.116
 4158SOL     OW13372   0.771   0.306   3.738
 4158SOL    HW113373   0.745   0.402   3.729
 4158SOL    HW213374   0.711   0.261   3.804
 4159SOL     OW13375   0.693   3.541   5.309
 4159SOL    HW113376   0.783   3.554   5.350
 4159SOL    HW213377   0.704   3.505   5.216
 4160SOL     OW13378   1.194   0.861   0.689
 4160SOL    HW113379   1.218   0.767   0.713
 4160SOL    HW213380   1.180   0.867   0.590
 4161SOL     OW13381   6.340   1.921   0.403
 4161SOL    HW113382   6.421   1.897   0.457
 4161SOL    HW213383   6.367   1.975   0.324
 4162SOL     OW13384   0.358   6.698   4.755
 4162SOL    HW113385   0.389   6.629   4.820
 4162SOL    HW213386   0.363   6.661   4.662
 4163SOL     OW13387   6.374   0.848   4.781
 4163SOL    HW113388   6.345   0.770   4.836
 4163SOL    HW213389   6.472   0.863   4.792
 4164SOL     OW13390   2.561   6.862   6.273
 4164SOL    HW113391   2.496   6.921   6.321
 4164SOL    HW213392   2.614   6.916   6.208
 4165SOL     OW13393   2.781   6.032   2.584
 4165SOL    HW113394   2.764   5.978   2.502
 4165SOL    HW213395   2.791   5.972   2.663
 4166SOL     OW13396   6.059   2.533   1.164
 4166SOL    HW113397   5.964   2.553   1.189
 4166SOL    HW213398   6.096   2.609   1.111
 4167SOL     OW13399   2.123   3.036   1.374
 4167SOL    HW113400   2.048   2.973   1.352
 4167SOL    HW213401   2.089   3.107   1.435
 4168SOL     OW13402   1.301   4.450   1.021
 4168SOL    HW113403   1.372   4.423   0.956
 4168SOL    HW213404   1.340   4.455   1.113
 4169SOL     OW13405   6.287   3.688   4.801
 4169SOL    HW113406   6.330   3.742   4.873
 4169SOL    HW213407   6.225   3.622   4.843
 4170SOL     OW13408   4.031   2.078   5.182
 4170SOL    HW113409   3.979   2.003   5.221
 4170SOL    HW213410   4.124   2.047   5.161
 4171SOL     OW13411   5.561   3.564   1.293
 4171SOL    HW113412   5.550   3.646   1.237
 4171SOL    HW213413   5.496   3.566   1.369
 4172SOL     OW13414   2.311   1.286   6.937
 4172SOL    HW113415   2.392   1.340   6.918
 4172SOL    HW213416   2.289   1.292   0.018
 4173SOL     OW13417   5.322   3.491   5.973
 4173SOL    HW113418   5.345   3.487   6.070
 4173SOL    HW213419   5.329   3.585   5.940
 4174SOL     OW13420   5.121   1.002   4.402
 4174SOL    HW113421   5.155   0.909   4.414
 4174SOL    HW213422   5.128   1.028   4.306
 4175SOL     OW13423   3.036   1.730   3.568
 4175SOL    HW113424   3.116   1.786   3.547
 4175SOL    HW213425   2.958   1.762   3.514
 4176SOL     OW13426   6.105   5.230   3.041
 4176SOL    HW113427   6.063   5.184   3.119
 4176SOL    HW213428   6.165   5.166   2.994
 4177SOL     OW13429   6.613   4.849   3.203
 4177SOL    HW113430   6.572   4.918   3.144
 4177SOL    HW213431   6.630   4.889   3.294
 4178SOL     OW13432   3.897   3.278   6.043
 4178SOL    HW113433   3.980   3.223   6.052
 4178SOL    HW213434   3.864   3.303   6.134
 4179SOL     OW13435   6.525   2.662   6.628
 4179SOL    HW113436   6.572   2.751   6.627
 4179SOL    HW213437   6.457   2.660   6.555
 4180SOL     OW13438   4.428   3.665   1.716
 4180SOL    HW113439   4.515   3.713   1.705
 4180SOL    HW213440   4.354   3.720   1.676
 4181SOL     OW13441   6.618   0.848   0.462
 4181SOL    HW113442   6.534   0.822   0.509
 4181SOL    HW213443   6.678   0.769   0.453
 4182SOL     OW13444   5.297   0.919   3.889
 4182SOL    HW113445   5.211   0.949   3.847
 4182SOL    HW213446   5.372   0.974   3.853
 4183SOL     OW13447   2.217   1.542   1.330
 4183SOL    HW113448   2.125   1.504   1.326
 4183SOL    HW213449   2.250   1.541   1.425
 4184SOL     OW13450   4.383   5.047   6.993
 4184SOL    HW113451   4.359   5.129   6.940
 4184SOL    HW213452   4.476   5.056   0.011
 4185SOL     OW13453   0.006   6.626   4.237
 4185SOL    HW113454   6.929   6.639   4.268
 4185SOL    HW213455   0.008   6.561   4.161
 4186SOL     OW13456   3.710   4.247   1.762
 4186SOL    HW113457   3.624   4.298   1.753
 4186SOL    HW213458   3.690   4.154   1.793
 4187SOL     OW13459   4.167   4.950   6.432
 4187SOL    HW113460   4.265   4.970   6.419
 4187SOL    HW213461   4.150   4.854   6.411
 4188SOL     OW13462   5.272   6.129   4.295
 4188SOL    HW113463   5.331   6.155   4.219
 4188SOL    HW213464   5.181   6.170   4.281
 4189SOL     OW13465   1.822   3.488   3.485
 4189SOL    HW113466   1.837   3.568   3.543
 4189SOL    HW213467   1.900   3.474   3.425
 4190SOL     OW13468   2.705   6.923   1.559
 4190SOL    HW113469   2.717   6.844   1.499
 4190SOL    HW213470   2.784   6.985   1.548
 4191SOL     OW13471   0.744   2.473   2.498
 4191SOL    HW113472   0.770   2.517   2.585
 4191SOL    HW213473   0.681   2.398   2.516
 4192SOL     OW13474   6.177   0.839   2.775
 4192SOL    HW113475   6.113   0.832   2.852
 4192SOL    HW213476   6.204   0.747   2.746
 4193SOL     OW13477   2.152   6.556   2.630
 4193SOL    HW113478   2.083   6.550   2.557
 4193SOL    HW213479   2.138   6.480   2.694
 4194SOL     OW13480   5.982   1.167   3.673
 4194SOL    HW113481   6.007   1.260   3.646
 4194SOL    HW213482   6.045   1.134   3.743
 4195SOL     OW13483   5.371   1.000   3.016
 4195SOL    HW113484   5.352   0.997   2.918
 4195SOL    HW213485   5.373   1.095   3.046
 4196SOL     OW13486   4.496   2.501   3.737
 4196SOL    HW113487   4.533   2.578   3.788
 4196SOL    HW213488   4.438   2.446   3.797
 4197SOL     OW13489   5.080   4.030   4.841
 4197SOL    HW113490   5.007   3.977   4.885
 4197SOL    HW213491   5.107   3.986   4.756
 4198SOL     OW13492   5.912   3.902   6.131
 4198SOL    HW113493   5.985   3.934   6.191
 4198SOL    HW213494   5.941   3.911   6.035
 4199SOL     OW13495   3.200   4.071   5.389
 4199SOL    HW113496   3.131   4.002   5.409
 4199SOL    HW213497   3.165   4.134   5.320
 4200SOL     OW13498   2.547   0.264   6.178
 4200SOL    HW113499   2.546   0.188   6.113
 4200SOL    HW213500   2.453   0.290   6.200
 4201SOL     OW13501   5.915   6.851   4.591
 4201SOL    HW113502   5.984   6.813   4.652
 4201SOL    HW213503   5.942   6.944   4.564
 4202SOL     OW13504   5.228   3.548   5.241
 4202SOL    HW113505   5.132   3.540   5.213
 4202SOL    HW213506   5.286   3.503   5.173
 4203SOL     OW13507   4.596   5.222   3.906
 4203SOL    HW113508   4.533   5.218   3.984
 4203SOL    HW213509   4.649   5.307   3.910
 4204SOL     OW13510   1.905   4.287   0.815
 4204SOL    HW113511   1.987   4.261   0.865
 4204SOL    HW213512   1.856   4.359   0.865
 4205SOL     OW13513   2.782   6.250   3.468
 4205SOL    HW113514   2.848   6.311   3.423
 4205SOL    HW213515   2.824   6.161   3.483
 4206SOL     OW13516   5.531   6.179   4.129
 4206SOL    HW113517   5.535   6.258   4.068
 4206SOL    HW213518   5.547   6.095   4.077
 4207SOL     OW13519   0.710   0.795   0.129
 4207SOL    HW113520   0.640   0.841   0.183
 4207SOL    HW213521   0.791   0.854   0.122
 4208SOL     OW13522   1.187   2.638   0.724
 4208SOL    HW113523   1.097   2.666   0.758
 4208SOL    HW213524   1.188   2.644   0.624
 4209SOL     OW13525   2.985   0.972   5.144
 4209SOL    HW113526   2.991   0.926   5.233
 4209SOL    HW213527   3.076   0.976   5.103
 4210SOL     OW13528   4.520   2.529   0.226
 4210SOL    HW113529   4.573   2.464   0.171
 4210SOL    HW213530   4.564   2.541   0.315
 4211SOL     OW13531   5.355   3.666   4.377
 4211SOL    HW113532   5.360   3.598   4.304
 4211SOL    HW213533   5.442   3.672   4.425
 4212SOL     OW13534   6.345   6.252   2.316
 4212SOL    HW113535   6.321   6.343   2.282
 4212SOL    HW213536   6.434   6.256   2.362
 4213SOL     OW13537   0.807   6.855   1.203
 4213SOL    HW113538   0.831   6.769   1.248
 4213SOL    HW213539   0.848   6.931   1.254
 4214SOL     OW13540   3.013   5.068   5.097
 4214SOL    HW113541   2.946   5.030   5.161
 4214SOL    HW213542   3.074   5.130   5.145
 4215SOL     OW13543   0.912   5.862   5.466
 4215SOL    HW113544   0.964   5.777   5.475
 4215SOL    HW213545   0.840   5.865   5.535
 4216SOL     OW13546   2.796   3.234   5.232
 4216SOL    HW113547   2.712   3.179   5.227
 4216SOL    HW213548   2.874   3.176   5.208
 4217SOL     OW13549   6.986   1.061   3.701
 4217SOL    HW113550   6.913   1.036   3.637
 4217SOL    HW213551   0.057   1.037   3.662
 4218SOL     OW13552   3.467   6.438   2.256
 4218SOL    HW113553   3.542   6.497   2.227
 4218SOL    HW213554   3.483   6.407   2.349
 4219SOL     OW13555   5.218   6.866   3.271
 4219SOL    HW113556   5.191   6.927   3.346
 4219SOL    HW213557   5.266   6.786   3.309
 4220SOL     OW13558   0.695   3.941   3.290
 4220SOL    HW113559   0.626   3.869   3.301
 4220SOL    HW213560   0.682   3.985   3.201
 4221SOL     OW13561   5.539   6.029   5.690
 4221SOL    HW113562   5.453   6.027   5.638
 4221SOL    HW213563   5.551   5.941   5.737
 4222SOL     OW13564   3.110   2.952   0.024
 4222SOL    HW113565   3.092   3.021   6.971
 4222SOL    HW213566   3.050   2.968   0.103
 4223SOL     OW13567   2.953   3.799   2.685
 4223SOL    HW113568   2.889   3.725   2.664
 4223SOL    HW213569   2.990   3.836   2.599
 4224SOL     OW13570   4.103   2.334   5.929
 4224SOL    HW113571   4.120   2.399   5.855
 4224SOL    HW213572   4.030   2.370   5.988
 4225SOL     OW13573   5.223   0.722   4.454
 4225SOL    HW113574   5.290   0.731   4.380
 4225SOL    HW213575   5.229   0.630   4.492
 4226SOL     OW13576   1.488   1.510   3.203
 4226SOL    HW113577   1.415   1.570   3.171
 4226SOL    HW213578   1.547   1.484   3.127
 4227SOL     OW13579   5.286   3.866   6.736
 4227SOL    HW113580   5.202   3.914   6.712
 4227SOL    HW213581   5.364   3.927   6.722
 4228SOL     OW13582   5.204   5.277   3.332
 4228SOL    HW113583   5.189   5.279   3.233
 4228SOL    HW213584   5.302   5.265   3.351
 4229SOL     OW13585   4.500   4.822   5.390
 4229SOL    HW113586   4.454   4.734   5.398
 4229SOL    HW213587   4.432   4.894   5.375
 4230SOL     OW13588   3.328   0.585   5.505
 4230SOL    HW113589   3.309   0.638   5.588
 4230SOL    HW213590   3.254   0.520   5.489
 4231SOL     OW13591   3.777   6.695   6.110
 4231SOL    HW113592   3.874   6.692   6.134
 4231SOL    HW213593   3.762   6.764   6.039
 4232SOL     OW13594   2.390   4.339   1.445
 4232SOL    HW113595   2.319   4.371   1.509
 4232SOL    HW213596   2.453   4.414   1.426
 4233SOL     OW13597   5.611   6.332   1.099
 4233SOL    HW113598   5.636   6.367   1.190
 4233SOL    HW213599   5.644   6.239   1.089
 4234SOL     OW13600   3.776   3.903   5.437
 4234SOL    HW113601   3.701   3.842   5.464
 4234SOL    HW213602   3.859   3.878   5.487
 4235SOL     OW13603   0.326   4.007   4.957
 4235SOL    HW113604   0.307   3.970   4.866
 4235SOL    HW213605   0.291   4.100   4.964
 4236SOL     OW13606   0.717   3.775   5.133
 4236SOL    HW113607   0.798   3.760   5.077
 4236SOL    HW213608   0.689   3.688   5.175
 4237SOL     OW13609   6.151   4.163   5.496
 4237SOL    HW113610   6.238   4.199   5.464
 4237SOL    HW213611   6.121   4.213   5.577
 4238SOL     OW13612   4.776   4.419   4.509
 4238SOL    HW113613   4.763   4.324   4.539
 4238SOL    HW213614   4.703   4.476   4.546
 4239SOL     OW13615   5.139   5.753   5.523
 4239SOL    HW113616   5.081   5.810   5.582
 4239SOL    HW213617   5.189   5.687   5.579
 4240SOL     OW13618   2.530   5.006   6.474
 4240SOL    HW113619   2.570   4.991   6.384
 4240SOL    HW213620   2.543   5.101   6.501
 4241SOL     OW13621   4.476   1.939   0.641
 4241SOL    HW113622   4.473   1.937   0.741
 4241SOL    HW213623   4.497   1.848   0.606
 4242SOL     OW13624   1.606   0.491   2.093
 4242SOL    HW113625   1.590   0.393   2.100
 4242SOL    HW213626   1.526   0.536   2.055
 4243SOL     OW13627   1.346   2.676   2.776
 4243SOL    HW113628   1.383   2.768   2.768
 4243SOL    HW213629   1.299   2.651   2.692
 4244SOL     OW13630   3.297   0.465   0.726
 4244SOL    HW113631   3.242   0.433   0.803
 4244SOL    HW213632   3.319   0.561   0.738
 4245SOL     OW13633   6.814   1.594   1.086
 4245SOL    HW113634   6.725   1.636   1.069
 4245SOL    HW213635   6.815   1.502   1.047
 4246SOL     OW13636   4.839   2.725   3.610
 4246SOL    HW113637   4.813   2.682   3.523
 4246SOL    HW213638   4.908   2.668   3.655
 4247SOL     OW13639   1.870   5.191   6.548
 4247SOL    HW113640   1.932   5.260   6.511
 4247SOL    HW213641   1.899   5.166   6.640
 4248SOL     OW13642   2.124   0.869   3.530
 4248SOL    HW113643   2.137   0.961   3.569
 4248SOL    HW213644   2.051   0.823   3.580
 4249SOL     OW13645   5.624   0.390   5.928
 4249SOL    HW113646   5.544   0.370   5.873
 4249SOL    HW213647   5.633   0.489   5.940
 4250SOL     OW13648   0.221   5.599   5.039
 4250SOL    HW113649   0.159   5.580   5.116
 4250SOL    HW213650   0.315   5.584   5.068
 4251SOL     OW13651   4.675   2.094   5.513
 4251SOL    HW113652   4.660   2.145   5.429
 4251SOL    HW213653   4.732   2.147   5.576
 4252SOL     OW13654   0.059   0.213   6.699
 4252SOL    HW113655   0.085   0.237   6.793
 4252SOL    HW213656   6.983   0.246   6.681
 4253SOL     OW13657   4.492   6.458   2.887
 4253SOL    HW113658   4.415   6.487   2.830
 4253SOL    HW213659   4.552   6.399   2.834
 4254SOL     OW13660   1.386   2.060   5.839
 4254SOL    HW113661   1.448   2.137   5.856
 4254SOL    HW213662   1.326   2.082   5.762
 4255SOL     OW13663   0.847   2.870   3.212
 4255SOL    HW113664   0.916   2.929   3.254
 4255SOL    HW213665   0.835   2.896   3.117
 4256SOL     OW13666   6.077   6.053   1.229
 4256SOL    HW113667   6.125   6.081   1.147
 4256SOL    HW213668   6.123   6.091   1.310
 4257SOL     OW13669   6.469   0.953   3.309
 4257SOL    HW113670   6.566   0.937   3.287
 4257SOL    HW213671   6.430   1.015   3.242
 4258SOL     OW13672   3.277   5.912   0.835
 4258SOL    HW113673   3.332   5.929   0.754
 4258SOL    HW213674   3.224   5.995   0.857
 4259SOL     OW13675   1.075   6.955   0.559
 4259SOL    HW113676   1.099   6.868   0.517
 4259SOL    HW213677   1.056   0.006   0.488
 4260SOL     OW13678   6.091   0.334   4.826
 4260SOL    HW113679   6.047   0.273   4.892
 4260SOL    HW213680   6.039   0.418   4.818
 4261SOL     OW13681   2.524   6.333   3.503
 4261SOL    HW113682   2.489   6.243   3.528
 4261SOL    HW213683   2.622   6.327   3.484
 4262SOL     OW13684   1.954   5.054   5.173
 4262SOL    HW113685   1.855   5.049   5.186
 4262SOL    HW213686   1.975   5.067   5.076
 4263SOL     OW13687   2.850   1.587   3.013
 4263SOL    HW113688   2.769   1.533   2.991
 4263SOL    HW213689   2.833   1.639   3.097
 4264SOL     OW13690   4.867   1.902   6.503
 4264SOL    HW113691   4.780   1.903   6.453
 4264SOL    HW213692   4.855   1.850   6.588
 4265SOL     OW13693   2.934   6.179   6.606
 4265SOL    HW113694   2.897   6.272   6.600
 4265SOL    HW213695   3.027   6.182   6.643
 4266SOL     OW13696   0.940   5.204   1.824
 4266SOL    HW113697   1.009   5.201   1.752
 4266SOL    HW213698   0.913   5.299   1.840
 4267SOL     OW13699   0.920   3.643   4.115
 4267SOL    HW113700   0.961   3.692   4.192
 4267SOL    HW213701   0.896   3.550   4.144
 4268SOL     OW13702   1.141   4.434   6.080
 4268SOL    HW113703   1.081   4.398   6.009
 4268SOL    HW213704   1.157   4.363   6.149
 4269SOL     OW13705   2.790   1.263   3.939
 4269SOL    HW113706   2.843   1.311   4.009
 4269SOL    HW213707   2.698   1.302   3.934
 4270SOL     OW13708   4.427   3.915   0.938
 4270SOL    HW113709   4.497   3.891   1.005
 4270SOL    HW213710   4.356   3.969   0.982
 4271SOL     OW13711   6.679   0.857   1.393
 4271SOL    HW113712   6.664   0.807   1.308
 4271SOL    HW213713   6.651   0.952   1.381
 4272SOL     OW13714   6.898   1.649   5.790
 4272SOL    HW113715   6.889   1.603   5.702
 4272SOL    HW213716   6.994   1.670   5.808
 4273SOL     OW13717   3.065   6.244   3.942
 4273SOL    HW113718   3.058   6.294   3.855
 4273SOL    HW213719   3.123   6.295   4.005
 4274SOL     OW13720   0.645   1.181   1.732
 4274SOL    HW113721   0.621   1.254   1.668
 4274SOL    HW213722   0.734   1.143   1.708
 4275SOL     OW13723   6.721   2.294   3.622
 4275SOL    HW113724   6.817   2.317   3.635
 4275SOL    HW213725   6.693   2.321   3.530
 4276SOL     OW13726   1.500   6.564   2.658
 4276SOL    HW113727   1.586   6.516   2.680
 4276SOL    HW213728   1.472   6.618   2.737
 4277SOL     OW13729   6.664   5.283   3.362
 4277SOL    HW113730   6.706   5.374   3.358
 4277SOL    HW213731   6.569   5.292   3.393
 4278SOL     OW13732   0.003   6.758   1.239
 4278SOL    HW113733   0.064   6.686   1.273
 4278SOL    HW213734   6.934   6.754   1.288
 4279SOL     OW13735   1.002   2.229   3.289
 4279SOL    HW113736   0.977   2.150   3.232
 4279SOL    HW213737   1.085   2.271   3.254
 4280SOL     OW13738   1.887   6.769   6.412
 4280SOL    HW113739   1.817   6.709   6.374
 4280SOL    HW213740   1.859   6.798   6.504
 4281SOL     OW13741   6.148   5.725   2.925
 4281SOL    HW113742   6.247   5.717   2.914
 4281SOL    HW213743   6.123   5.821   2.937
 4282SOL     OW13744   5.438   5.199   1.762
 4282SOL    HW113745   5.396   5.108   1.768
 4282SOL    HW213746   5.532   5.194   1.794
 4283SOL     OW13747   6.029   1.244   4.709
 4283SOL    HW113748   5.986   1.298   4.636
 4283SOL    HW213749   6.093   1.179   4.669
 4284SOL     OW13750   4.475   6.224   6.573
 4284SOL    HW113751   4.507   6.262   6.486
 4284SOL    HW213752   4.553   6.188   6.624
 4285SOL     OW13753   3.050   1.479   6.667
 4285SOL    HW113754   3.023   1.390   6.704
 4285SOL    HW213755   2.968   1.535   6.654
 4286SOL     OW13756   5.065   6.578   0.220
 4286SOL    HW113757   4.997   6.638   0.179
 4286SOL    HW213758   5.046   6.565   0.317
 4287SOL     OW13759   3.243   0.805   1.335
 4287SOL    HW113760   3.326   0.777   1.383
 4287SOL    HW213761   3.166   0.807   1.398
 4288SOL     OW13762   6.763   5.688   2.174
 4288SOL    HW113763   6.778   5.609   2.115
 4288SOL    HW213764   6.797   5.771   2.129
 4289SOL     OW13765   0.391   4.410   5.188
 4289SOL    HW113766   0.380   4.450   5.098
 4289SOL    HW213767   0.317   4.441   5.248
 4290SOL     OW13768   6.857   1.658   3.466
 4290SOL    HW113769   6.894   1.650   3.558
 4290SOL    HW213770   6.825   1.751   3.450
 4291SOL     OW13771   4.093   4.835   6.739
 4291SOL    HW113772   4.087   4.934   6.743
 4291SOL    HW213773   4.114   4.799   6.830
 4292SOL     OW13774   6.429   0.731   1.730
 4292SOL    HW113775   6.418   0.632   1.717
 4292SOL    HW213776   6.393   0.779   1.650
 4293SOL     OW13777   3.700   2.656   6.679
 4293SOL    HW113778   3.654   2.592   6.742
 4293SOL    HW213779   3.678   2.750   6.706
 4294SOL     OW13780   3.022   1.873   6.899
 4294SOL    HW113781   3.039   1.911   6.808
 4294SOL    HW213782   2.947   1.923   6.942
 4295SOL     OW13783   4.610   6.186   2.735
 4295SOL    HW113784   4.599   6.120   2.809
 4295SOL    HW213785   4.525   6.237   2.722
 4296SOL     OW13786   2.318   5.558   2.388
 4296SOL    HW113787   2.274   5.495   2.324
 4296SOL    HW213788   2.400   5.596   2.346
 4297SOL     OW13789   4.419   5.344   0.330
 4297SOL    HW113790   4.507   5.326   0.374
 4297SOL    HW213791   4.370   5.258   0.314
 4298SOL     OW13792   1.573   0.157   0.423
 4298SOL    HW113793   1.559   0.088   0.493
 4298SOL    HW213794   1.499   0.224   0.425
 4299SOL     OW13795   0.810   3.048   6.289
 4299SOL    HW113796   0.779   3.121   6.228
 4299SOL    HW213797   0.732   3.016   6.343
 4300SOL     OW13798   2.932   0.393   2.144
 4300SOL    HW113799   2.988   0.476   2.151
 4300SOL    HW213800   2.943   0.339   2.228
 4301SOL     OW13801   1.986   6.275   5.266
 4301SOL    HW113802   1.907   6.223   5.233
 4301SOL    HW213803   2.025   6.327   5.190
 4302SOL     OW13804   3.517   5.130   6.635
 4302SOL    HW113805   3.588   5.199   6.646
 4302SOL    HW213806   3.447   5.164   6.572
 4303SOL     OW13807   4.691   5.210   3.548
 4303SOL    HW113808   4.618   5.201   3.615
 4303SOL    HW213809   4.711   5.120   3.509
 4304SOL     OW13810   2.992   4.095   1.790
 4304SOL    HW113811   2.995   4.194   1.771
 4304SOL    HW213812   2.901   4.070   1.821
 4305SOL     OW13813   0.555   6.412   5.672
 4305SOL    HW113814   0.547   6.498   5.622
 4305SOL    HW213815   0.479   6.352   5.648
 4306SOL     OW13816   5.806   3.262   5.234
 4306SOL    HW113817   5.720   3.306   5.208
 4306SOL    HW213818   5.860   3.325   5.290
 4307SOL     OW13819   6.928   1.482   5.567
 4307SOL    HW113820   6.982   1.543   5.508
 4307SOL    HW213821   6.876   1.418   5.510
 4308SOL     OW13822   4.108   5.715   6.341
 4308SOL    HW113823   4.205   5.716   6.317
 4308SOL    HW213824   4.094   5.655   6.420
 4309SOL     OW13825   2.550   1.917   0.689
 4309SOL    HW113826   2.610   1.997   0.692
 4309SOL    HW213827   2.599   1.837   0.723
 4310SOL     OW13828   6.097   2.197   3.568
 4310SOL    HW113829   6.065   2.114   3.615
 4310SOL    HW213830   6.025   2.231   3.508
 4311SOL     OW13831   0.471   6.652   1.319
 4311SOL    HW113832   0.473   6.692   1.228
 4311SOL    HW213833   0.404   6.699   1.375
 4312SOL     OW13834   0.158   3.674   2.266
 4312SOL    HW113835   0.135   3.671   2.363
 4312SOL    HW213836   0.075   3.678   2.212
 4313SOL     OW13837   0.946   3.726   0.695
 4313SOL    HW113838   1.028   3.745   0.749
 4313SOL    HW213839   0.971   3.674   0.613
 4314SOL     OW13840   1.483   1.623   5.450
 4314SOL    HW113841   1.410   1.674   5.495
 4314SOL    HW213842   1.557   1.685   5.425
 4315SOL     OW13843   2.701   2.223   5.545
 4315SOL    HW113844   2.748   2.220   5.457
 4315SOL    HW213845   2.624   2.287   5.540
 4316SOL     OW13846   4.463   5.358   1.970
 4316SOL    HW113847   4.471   5.427   1.899
 4316SOL    HW213848   4.551   5.312   1.982
 4317SOL     OW13849   4.756   0.614   4.918
 4317SOL    HW113850   4.842   0.653   4.885
 4317SOL    HW213851   4.734   0.654   5.007
 4318SOL     OW13852   1.853   5.812   3.659
 4318SOL    HW113853   1.767   5.782   3.701
 4318SOL    HW213854   1.834   5.875   3.584
 4319SOL     OW13855   1.651   4.954   2.502
 4319SOL    HW113856   1.564   4.913   2.525
 4319SOL    HW213857   1.725   4.889   2.520
 4320SOL     OW13858   3.356   0.377   1.164
 4320SOL    HW113859   3.367   0.473   1.138
 4320SOL    HW213860   3.386   0.365   1.258
 4321SOL     OW13861   6.670   5.759   2.760
 4321SOL    HW113862   6.639   5.693   2.691
 4321SOL    HW213863   6.717   5.834   2.715
 4322SOL     OW13864   2.490   2.437   3.704
 4322SOL    HW113865   2.482   2.338   3.711
 4322SOL    HW213866   2.535   2.461   3.618
 4323SOL     OW13867   4.655   4.763   1.055
 4323SOL    HW113868   4.622   4.838   0.998
 4323SOL    HW213869   4.748   4.738   1.027
 4324SOL     OW13870   0.173   4.373   6.112
 4324SOL    HW113871   0.124   4.383   6.025
 4324SOL    HW213872   0.256   4.428   6.111
 4325SOL     OW13873   1.454   0.249   1.070
 4325SOL    HW113874   1.526   0.309   1.035
 4325SOL    HW213875   1.490   0.156   1.081
 4326SOL     OW13876   4.687   2.655   2.833
 4326SOL    HW113877   4.785   2.656   2.852
 4326SOL    HW213878   4.666   2.726   2.766
 4327SOL     OW13879   2.789   6.689   3.825
 4327SOL    HW113880   2.758   6.668   3.919
 4327SOL    HW213881   2.771   6.785   3.805
 4328SOL     OW13882   6.102   0.036   3.087
 4328SOL    HW113883   6.020   0.090   3.105
 4328SOL    HW213884   6.099   6.968   3.139
 4329SOL     OW13885   5.873   3.772   0.154
 4329SOL    HW113886   5.890   3.806   0.247
 4329SOL    HW213887   5.923   3.828   0.088
 4330SOL     OW13888   2.560   5.015   4.618
 4330SOL    HW113889   2.517   4.925   4.627
 4330SOL    HW213890   2.534   5.055   4.530
 4331SOL     OW13891   5.666   1.464   2.231
 4331SOL    HW113892   5.669   1.527   2.153
 4331SOL    HW213893   5.759   1.437   2.256
 4332SOL     OW13894   6.581   5.647   1.256
 4332SOL    HW113895   6.510   5.585   1.224
 4332SOL    HW213896   6.635   5.679   1.177
 4333SOL     OW13897   3.748   2.702   6.410
 4333SOL    HW113898   3.719   2.678   6.502
 4333SOL    HW213899   3.668   2.706   6.349
 4334SOL     OW13900   0.291   2.749   3.968
 4334SOL    HW113901   0.385   2.728   3.941
 4334SOL    HW213902   0.262   2.685   4.039
 4335SOL     OW13903   2.598   4.188   1.738
 4335SOL    HW113904   2.634   4.095   1.752
 4335SOL    HW213905   2.498   4.186   1.739
 4336SOL     OW13906   2.803   5.247   5.285
 4336SOL    HW113907   2.854   5.206   5.361
 4336SOL    HW213908   2.862   5.312   5.236
 4337SOL     OW13909   0.021   4.701   3.534
 4337SOL    HW113910   6.965   4.656   3.482
 4337SOL    HW213911   0.066   4.769   3.477
 4338SOL     OW13912   3.190   2.206   6.301
 4338SOL    HW113913   3.225   2.250   6.219
 4338SOL    HW213914   3.094   2.181   6.288
 4339SOL     OW13915   4.285   4.668   5.422
 4339SOL    HW113916   4.304   4.610   5.343
 4339SOL    HW213917   4.290   4.614   5.506
 4340SOL     OW13918   7.002   4.103   0.738
 4340SOL    HW113919   6.964   4.083   0.828
 4340SOL    HW213920   0.058   4.038   0.717
 4341SOL     OW13921   6.052   5.385   1.299
 4341SOL    HW113922   6.090   5.476   1.313
 4341SOL    HW213923   5.962   5.379   1.343
 4342SOL     OW13924   5.269   3.185   2.783
 4342SOL    HW113925   5.314   3.212   2.698
 4342SOL    HW213926   5.172   3.168   2.765
 4343SOL     OW13927   3.760   0.319   6.578
 4343SOL    HW113928   3.752   0.219   6.578
 4343SOL    HW213929   3.853   0.345   6.602
 4344SOL     OW13930   0.964   4.004   2.484
 4344SOL    HW113931   0.925   4.072   2.422
 4344SOL    HW213932   0.892   3.942   2.515
 4345SOL     OW13933   3.842   3.517   3.047
 4345SOL    HW113934   3.824   3.602   2.997
 4345SOL    HW213935   3.834   3.439   2.984
 4346SOL     OW13936   0.698   3.419   2.650
 4346SOL    HW113937   0.734   3.507   2.618
 4346SOL    HW213938   0.633   3.384   2.583
 4347SOL     OW13939   6.157   5.359   0.625
 4347SOL    HW113940   6.234   5.422   0.638
 4347SOL    HW213941   6.155   5.293   0.701
 4348SOL     OW13942   6.086   4.276   5.754
 4348SOL    HW113943   6.038   4.362   5.739
 4348SOL    HW213944   6.147   4.285   5.833
 4349SOL     OW13945   0.853   3.923   4.338
 4349SOL    HW113946   0.930   3.860   4.339
 4349SOL    HW213947   0.886   4.017   4.348
 4350SOL     OW13948   4.459   0.787   3.931
 4350SOL    HW113949   4.491   0.839   4.010
 4350SOL    HW213950   4.513   0.812   3.850
 4351SOL     OW13951   0.153   5.668   1.136
 4351SOL    HW113952   0.201   5.716   1.062
 4351SOL    HW213953   0.217   5.652   1.211
 4352SOL     OW13954   3.496   4.994   1.815
 4352SOL    HW113955   3.489   4.948   1.904
 4352SOL    HW213956   3.591   4.994   1.785
 4353SOL     OW13957   2.482   3.935   0.654
 4353SOL    HW113958   2.509   3.839   0.648
 4353SOL    HW213959   2.414   3.955   0.584
 4354SOL     OW13960   5.758   5.241   2.303
 4354SOL    HW113961   5.773   5.323   2.357
 4354SOL    HW213962   5.677   5.254   2.245
 4355SOL     OW13963   2.362   5.241   3.382
 4355SOL    HW113964   2.433   5.206   3.443
 4355SOL    HW213965   2.391   5.328   3.343
 4356SOL     OW13966   6.071   2.723   5.453
 4356SOL    HW113967   6.034   2.716   5.546
 4356SOL    HW213968   6.024   2.796   5.404
 4357SOL     OW13969   5.555   6.101   2.099
 4357SOL    HW113970   5.516   6.193   2.092
 4357SOL    HW213971   5.481   6.034   2.104
 4358SOL     OW13972   2.574   0.941   0.578
 4358SOL    HW113973   2.626   1.026   0.580
 4358SOL    HW213974   2.606   0.879   0.650
 4359SOL     OW13975   2.468   2.076   1.840
 4359SOL    HW113976   2.564   2.088   1.861
 4359SOL    HW213977   2.414   2.146   1.886
 4360SOL     OW13978   2.405   5.910   3.807
 4360SOL    HW113979   2.479   5.900   3.873
 4360SOL    HW213980   2.363   5.821   3.790
 4361SOL     OW13981   1.045   1.741   0.254
 4361SOL    HW113982   1.138   1.769   0.276
 4361SOL    HW213983   1.038   1.721   0.156
 4362SOL     OW13984   0.943   5.240   2.954
 4362SOL    HW113985   0.954   5.245   2.855
 4362SOL    HW213986   1.001   5.310   2.997
 4363SOL     OW13987   3.791   0.890   2.251
 4363SOL    HW113988   3.840   0.949   2.316
 4363SOL    HW213989   3.696   0.881   2.279
 4364SOL     OW13990   3.317   4.023   2.849
 4364SOL    HW113991   3.398   4.082   2.848
 4364SOL    HW213992   3.260   4.043   2.770
 4365SOL     OW13993   2.187   0.986   0.659
 4365SOL    HW113994   2.253   0.977   0.734
 4365SOL    HW213995   2.143   1.076   0.664
 4366SOL     OW13996   5.165   5.709   4.692
 4366SOL    HW113997   5.115   5.635   4.735
 4366SOL    HW213998   5.121   5.735   4.606
 4367SOL     OW13999   2.758   6.290   2.139
 4367SOL    HW114000   2.847   6.245   2.140
 4367SOL    HW214001   2.719   6.290   2.231
 4368SOL     OW14002   4.911   3.754   4.177
 4368SOL    HW114003   4.886   3.848   4.153
 4368SOL    HW214004   4.998   3.754   4.225
 4369SOL     OW14005   5.833   4.244   3.584
 4369SOL    HW114006   5.872   4.279   3.669
 4369SOL    HW214007   5.739   4.275   3.575
 4370SOL     OW14008   3.891   4.878   0.417
 4370SOL    HW114009   3.921   4.973   0.408
 4370SOL    HW214010   3.856   4.863   0.509
 4371SOL     OW14011   3.725   1.336   2.805
 4371SOL    HW114012   3.667   1.413   2.831
 4371SOL    HW214013   3.709   1.259   2.868
 4372SOL     OW14014   1.889   4.537   4.634
 4372SOL    HW114015   1.962   4.479   4.671
 4372SOL    HW214016   1.896   4.540   4.534
 4373SOL     OW14017   4.230   0.706   0.432
 4373SOL    HW114018   4.209   0.748   0.521
 4373SOL    HW214019   4.286   0.625   0.446
 4374SOL     OW14020   2.568   6.803   0.426
 4374SOL    HW114021   2.531   6.710   0.434
 4374SOL    HW214022   2.552   6.838   0.334
 4375SOL     OW14023   3.765   1.522   5.537
 4375SOL    HW114024   3.754   1.560   5.445
 4375SOL    HW214025   3.854   1.478   5.545
 4376SOL     OW14026   2.135   5.947   0.190
 4376SOL    HW114027   2.232   5.951   0.167
 4376SOL    HW214028   2.114   6.014   0.261
 4377SOL     OW14029   4.942   5.851   6.909
 4377SOL    HW114030   4.947   5.831   6.811
 4377SOL    HW214031   4.846   5.846   6.939
 4378SOL     OW14032   3.197   4.855   2.735
 4378SOL    HW114033   3.245   4.844   2.823
 4378SOL    HW214034   3.211   4.949   2.702
 4379SOL     OW14035   0.192   6.589   0.853
 4379SOL    HW114036   0.249   6.612   0.773
 4379SOL    HW214037   0.247   6.595   0.936
 4380SOL     OW14038   1.888   5.720   4.320
 4380SOL    HW114039   1.868   5.816   4.304
 4380SOL    HW214040   1.812   5.664   4.287
 4381SOL     OW14041   4.565   5.627   5.144
 4381SOL    HW114042   4.521   5.707   5.184
 4381SOL    HW214043   4.510   5.592   5.068
 4382SOL     OW14044   5.558   4.387   2.916
 4382SOL    HW114045   5.520   4.479   2.917
 4382SOL    HW214046   5.484   4.320   2.906
 4383SOL     OW14047   0.935   1.148   0.521
 4383SOL    HW114048   0.903   1.165   0.428
 4383SOL    HW214049   1.034   1.156   0.524
 4384SOL     OW14050   3.820   6.986   1.984
 4384SOL    HW114051   3.900   6.946   2.028
 4384SOL    HW214052   3.749   6.916   1.973
 4385SOL     OW14053   6.029   2.236   2.561
 4385SOL    HW114054   6.119   2.206   2.593
 4385SOL    HW214055   6.015   2.206   2.467
 4386SOL     OW14056   1.984   4.270   7.007
 4386SOL    HW114057   1.980   4.201   0.062
 4386SOL    HW214058   1.998   4.226   6.919
 4387SOL     OW14059   6.355   2.518   1.845
 4387SOL    HW114060   6.276   2.473   1.805
 4387SOL    HW214061   6.330   2.610   1.875
 4388SOL     OW14062   3.354   1.676   5.526
 4388SOL    HW114063   3.389   1.643   5.614
 4388SOL    HW214064   3.255   1.687   5.531
 4389SOL     OW14065   6.299   2.127   2.516
 4389SOL    HW114066   6.336   2.069   2.588
 4389SOL    HW214067   6.344   2.107   2.429
 4390SOL     OW14068   4.132   2.957   1.005
 4390SOL    HW114069   4.041   2.931   0.975
 4390SOL    HW214070   4.166   3.032   0.947
 4391SOL     OW14071   0.471   6.531   0.221
 4391SOL    HW114072   0.416   6.459   0.265
 4391SOL    HW214073   0.502   6.499   0.132
 4392SOL     OW14074   5.080   4.333   5.218
 4392SOL    HW114075   5.103   4.430   5.220
 4392SOL    HW214076   5.100   4.295   5.128
 4393SOL     OW14077   5.326   6.188   3.155
 4393SOL    HW114078   5.270   6.106   3.161
 4393SOL    HW214079   5.271   6.264   3.120
 4394SOL     OW14080   4.417   0.556   2.215
 4394SOL    HW114081   4.452   0.595   2.301
 4394SOL    HW214082   4.369   0.627   2.163
 4395SOL     OW14083   4.988   1.703   1.106
 4395SOL    HW114084   5.012   1.607   1.117
 4395SOL    HW214085   4.889   1.714   1.119
 4396SOL     OW14086   1.437   1.187   3.714
 4396SOL    HW114087   1.483   1.146   3.793
 4396SOL    HW214088   1.504   1.233   3.657
 4397SOL     OW14089   5.312   6.990   6.256
 4397SOL    HW114090   5.387   6.932   6.222
 4397SOL    HW214091   5.333   0.002   6.350
 4398SOL     OW14092   0.388   5.420   4.464
 4398SOL    HW114093   0.469   5.377   4.425
 4398SOL    HW214094   0.340   5.472   4.393
 4399SOL     OW14095   3.143   1.274   2.583
 4399SOL    HW114096   3.151   1.304   2.678
 4399SOL    HW214097   3.213   1.319   2.528
 4400SOL     OW14098   3.896   5.647   3.527
 4400SOL    HW114099   3.990   5.612   3.535
 4400SOL    HW214100   3.849   5.599   3.453
 4401SOL     OW14101   5.880   5.966   4.889
 4401SOL    HW114102   5.883   5.885   4.831
 4401SOL    HW214103   5.802   6.023   4.864
 4402SOL     OW14104   6.584   6.332   2.462
 4402SOL    HW114105   6.651   6.275   2.415
 4402SOL    HW214106   6.574   6.418   2.411
 4403SOL     OW14107   0.377   0.921   2.512
 4403SOL    HW114108   0.345   0.968   2.594
 4403SOL    HW214109   0.416   0.987   2.448
 4404SOL     OW14110   2.323   4.798   2.700
 4404SOL    HW114111   2.393   4.727   2.710
 4404SOL    HW214112   2.361   4.874   2.648
 4405SOL     OW14113   2.727   3.787   5.737
 4405SOL    HW114114   2.707   3.864   5.798
 4405SOL    HW214115   2.715   3.701   5.787
 4406SOL     OW14116   6.026   3.266   1.962
 4406SOL    HW114117   6.008   3.168   1.971
 4406SOL    HW214118   6.090   3.280   1.886
 4407SOL     OW14119   0.085   1.178   6.968
 4407SOL    HW114120   0.167   1.235   6.966
 4407SOL    HW214121   0.112   1.082   6.983
 4408SOL     OW14122   3.918   6.268   1.041
 4408SOL    HW114123   3.822   6.243   1.027
 4408SOL    HW214124   3.923   6.359   1.082
 4409SOL     OW14125   2.708   1.750   2.625
 4409SOL    HW114126   2.694   1.849   2.622
 4409SOL    HW214127   2.741   1.719   2.536
 4410SOL     OW14128   1.860   5.692   1.389
 4410SOL    HW114129   1.949   5.729   1.364
 4410SOL    HW214130   1.867   5.592   1.395
 4411SOL     OW14131   4.155   3.509   2.726
 4411SOL    HW114132   4.215   3.438   2.762
 4411SOL    HW214133   4.068   3.468   2.698
 4412SOL     OW14134   3.389   1.773   5.994
 4412SOL    HW114135   3.363   1.869   5.979
 4412SOL    HW214136   3.462   1.769   6.063
 4413SOL     OW14137   4.366   5.299   3.525
 4413SOL    HW114138   4.288   5.321   3.468
 4413SOL    HW214139   4.368   5.200   3.544
 4414SOL     OW14140   3.222   5.188   1.481
 4414SOL    HW114141   3.140   5.226   1.438
 4414SOL    HW214142   3.283   5.263   1.507
 4415SOL     OW14143   4.588   1.332   1.121
 4415SOL    HW114144   4.602   1.254   1.060
 4415SOL    HW214145   4.602   1.417   1.070
 4416SOL     OW14146   2.341   2.264   4.592
 4416SOL    HW114147   2.433   2.300   4.606
 4416SOL    HW214148   2.287   2.279   4.675
 4417SOL     OW14149   6.036   6.902   1.128
 4417SOL    HW114150   6.135   6.896   1.134
 4417SOL    HW214151   6.009   6.988   1.085
 4418SOL     OW14152   4.950   0.961   3.386
 4418SOL    HW114153   4.956   0.877   3.440
 4418SOL    HW214154   4.861   0.965   3.341
 4419SOL     OW14155   6.190   5.355   6.274
 4419SOL    HW114156   6.254   5.280   6.289
 4419SOL    HW214157   6.119   5.325   6.210
 4420SOL     OW14158   3.950   0.987   0.084
 4420SOL    HW114159   4.042   1.013   0.056
 4420SOL    HW214160   3.955   0.912   0.150
 4421SOL     OW14161   0.555   1.843   3.542
 4421SOL    HW114162   0.472   1.789   3.534
 4421SOL    HW214163   0.621   1.813   3.473
 4422SOL     OW14164   1.617   4.718   5.840
 4422SOL    HW114165   1.615   4.666   5.925
 4422SOL    HW214166   1.652   4.660   5.766
 4423SOL     OW14167   6.915   1.571   6.330
 4423SOL    HW114168   6.860   1.637   6.280
 4423SOL    HW214169   6.997   1.548   6.276
 4424SOL     OW14170   0.980   5.927   3.673
 4424SOL    HW114171   1.030   5.979   3.604
 4424SOL    HW214172   1.015   5.950   3.764
 4425SOL     OW14173   5.161   4.536   0.949
 4425SOL    HW114174   5.187   4.486   1.031
 4425SOL    HW214175   5.197   4.488   0.868
 4426SOL     OW14176   0.946   0.489   5.648
 4426SOL    HW114177   0.940   0.589   5.645
 4426SOL    HW214178   0.886   0.450   5.578
 4427SOL     OW14179   1.337   6.161   3.126
 4427SOL    HW114180   1.370   6.142   3.034
 4427SOL    HW214181   1.280   6.085   3.158
 4428SOL     OW14182   2.051   0.024   2.967
 4428SOL    HW114183   2.085   6.991   3.047
 4428SOL    HW214184   2.129   0.063   2.917
 4429SOL     OW14185   3.372   0.300   3.152
 4429SOL    HW114186   3.340   0.394   3.156
 4429SOL    HW214187   3.294   0.238   3.157
 4430SOL     OW14188   1.235   0.905   1.963
 4430SOL    HW114189   1.316   0.963   1.971
 4430SOL    HW214190   1.237   0.858   1.874
 4431SOL     OW14191   2.704   2.101   3.416
 4431SOL    HW114192   2.788   2.154   3.432
 4431SOL    HW214193   2.625   2.152   3.450
 4432SOL     OW14194   2.982   3.295   3.656
 4432SOL    HW114195   2.942   3.318   3.568
 4432SOL    HW214196   3.022   3.377   3.697
 4433SOL     OW14197   6.544   0.289   3.052
 4433SOL    HW114198   6.505   0.210   3.005
 4433SOL    HW214199   6.478   0.365   3.051
 4434SOL     OW14200   5.210   2.578   4.594
 4434SOL    HW114201   5.115   2.565   4.621
 4434SOL    HW214202   5.263   2.496   4.615
 4435SOL     OW14203   3.756   3.064   2.007
 4435SOL    HW114204   3.707   2.994   2.059
 4435SOL    HW214205   3.753   3.041   1.910
 4436SOL     OW14206   5.116   0.081   0.793
 4436SOL    HW114207   5.062   0.150   0.841
 4436SOL    HW214208   5.201   0.065   0.842
 4437SOL     OW14209   3.337   0.410   5.093
 4437SOL    HW114210   3.240   0.387   5.089
 4437SOL    HW214211   3.376   0.373   5.177
 4438SOL     OW14212   3.887   3.483   6.314
 4438SOL    HW114213   3.821   3.555   6.294
 4438SOL    HW214214   3.973   3.523   6.346
 4439SOL     OW14215   2.186   4.630   2.485
 4439SOL    HW114216   2.198   4.726   2.462
 4439SOL    HW214217   2.150   4.622   2.578
 4440SOL     OW14218   6.055   1.087   0.499
 4440SOL    HW114219   6.023   0.993   0.512
 4440SOL    HW214220   6.014   1.126   0.417
 4441SOL     OW14221   5.915   0.975   3.487
 4441SOL    HW114222   5.971   1.048   3.528
 4441SOL    HW214223   5.975   0.904   3.450
 4442SOL     OW14224   1.886   5.978   1.753
 4442SOL    HW114225   1.963   5.982   1.816
 4442SOL    HW214226   1.809   6.028   1.792
 4443SOL     OW14227   2.466   1.569   6.784
 4443SOL    HW114228   2.529   1.603   6.715
 4443SOL    HW214229   2.397   1.638   6.803
 4444SOL     OW14230   4.693   1.139   2.827
 4444SOL    HW114231   4.702   1.234   2.857
 4444SOL    HW214232   4.643   1.137   2.740
 4445SOL     OW14233   0.869   0.665   6.253
 4445SOL    HW114234   0.830   0.642   6.164
 4445SOL    HW214235   0.809   0.730   6.300
 4446SOL     OW14236   5.421   4.799   3.858
 4446SOL    HW114237   5.369   4.748   3.789
 4446SOL    HW214238   5.473   4.734   3.914
 4447SOL     OW14239   5.067   3.017   5.267
 4447SOL    HW114240   5.104   2.977   5.183
 4447SOL    HW214241   4.980   2.974   5.289
 4448SOL     OW14242   2.109   3.502   6.790
 4448SOL    HW114243   2.113   3.445   6.708
 4448SOL    HW214244   2.026   3.479   6.842
 4449SOL     OW14245   0.485   1.170   5.384
 4449SOL    HW114246   0.437   1.145   5.300
 4449SOL    HW214247   0.560   1.233   5.362
 4450SOL     OW14248   3.398   3.682   2.293
 4450SOL    HW114249   3.482   3.642   2.329
 4450SOL    HW214250   3.421   3.764   2.240
 4451SOL     OW14251   0.233   3.712   0.923
 4451SOL    HW114252   0.311   3.708   0.984
 4451SOL    HW214253   0.252   3.659   0.840
 4452SOL     OW14254   6.626   3.469   6.280
 4452SOL    HW114255   6.558   3.399   6.301
 4452SOL    HW214256   6.714   3.425   6.262
 4453SOL     OW14257   4.733   1.496   0.479
 4453SOL    HW114258   4.773   1.557   0.410
 4453SOL    HW214259   4.774   1.515   0.568
 4454SOL     OW14260   4.868   2.916   1.684
 4454SOL    HW114261   4.771   2.941   1.689
 4454SOL    HW214262   4.885   2.839   1.746
 4455SOL     OW14263   4.307   2.189   2.148
 4455SOL    HW114264   4.340   2.241   2.227
 4455SOL    HW214265   4.208   2.194   2.143
 4456SOL     OW14266   1.219   5.618   2.694
 4456SOL    HW114267   1.183   5.633   2.786
 4456SOL    HW214268   1.147   5.636   2.627
 4457SOL     OW14269   4.474   1.455   6.964
 4457SOL    HW114270   4.530   1.439   6.883
 4457SOL    HW214271   4.383   1.487   6.936
 4458SOL     OW14272   4.143   1.843   0.708
 4458SOL    HW114273   4.063   1.792   0.737
 4458SOL    HW214274   4.138   1.936   0.745
 4459SOL     OW14275   5.505   6.700   5.087
 4459SOL    HW114276   5.495   6.690   5.186
 4459SOL    HW214277   5.538   6.615   5.048
 4460SOL     OW14278   1.117   1.534   6.656
 4460SOL    HW114279   1.033   1.545   6.603
 4460SOL    HW214280   1.181   1.476   6.606
 4461SOL     OW14281   1.957   6.511   2.428
 4461SOL    HW114282   1.859   6.501   2.442
 4461SOL    HW214283   1.974   6.569   2.348
 4462SOL     OW14284   6.837   4.772   0.425
 4462SOL    HW114285   6.766   4.810   0.484
 4462SOL    HW214286   6.892   4.707   0.477
 4463SOL     OW14287   1.329   3.996   6.243
 4463SOL    HW114288   1.359   3.956   6.156
 4463SOL    HW214289   1.409   4.030   6.293
 4464SOL     OW14290   6.567   2.803   0.172
 4464SOL    HW114291   6.501   2.797   0.097
 4464SOL    HW214292   6.570   2.896   0.206
 4465SOL     OW14293   0.431   5.757   0.433
 4465SOL    HW114294   0.389   5.742   0.343
 4465SOL    HW214295   0.452   5.668   0.475
 4466SOL     OW14296   6.775   2.821   3.332
 4466SOL    HW114297   6.848   2.827   3.400
 4466SOL    HW214298   6.813   2.821   3.240
 4467SOL     OW14299   1.301   0.065   3.165
 4467SOL    HW114300   1.357   0.038   3.244
 4467SOL    HW214301   1.354   0.126   3.106
 4468SOL     OW14302   1.828   2.303   0.879
 4468SOL    HW114303   1.926   2.283   0.870
 4468SOL    HW214304   1.798   2.281   0.971
 4469SOL     OW14305   4.530   0.112   0.460
 4469SOL    HW114306   4.433   0.106   0.485
 4469SOL    HW214307   4.538   0.108   0.360
 4470SOL     OW14308   4.645   5.133   1.242
 4470SOL    HW114309   4.569   5.069   1.235
 4470SOL    HW214310   4.731   5.082   1.250
 4471SOL     OW14311   6.368   2.505   0.799
 4471SOL    HW114312   6.432   2.429   0.811
 4471SOL    HW214313   6.410   2.589   0.833
 4472SOL     OW14314   1.770   4.820   1.421
 4472SOL    HW114315   1.773   4.735   1.473
 4472SOL    HW214316   1.784   4.898   1.482
 4473SOL     OW14317   6.985   0.696   6.608
 4473SOL    HW114318   6.902   0.750   6.598
 4473SOL    HW214319   6.969   0.603   6.575
 4474SOL     OW14320   6.107   0.786   4.367
 4474SOL    HW114321   6.026   0.831   4.329
 4474SOL    HW214322   6.088   0.762   4.463
 4475SOL     OW14323   1.789   4.170   0.603
 4475SOL    HW114324   1.704   4.180   0.655
 4475SOL    HW214325   1.865   4.208   0.654
 4476SOL     OW14326   5.147   6.636   2.641
 4476SOL    HW114327   5.108   6.616   2.731
 4476SOL    HW214328   5.244   6.613   2.641
 4477SOL     OW14329   1.271   1.710   0.928
 4477SOL    HW114330   1.211   1.786   0.952
 4477SOL    HW214331   1.223   1.648   0.867
 4478SOL     OW14332   1.289   4.748   2.027
 4478SOL    HW114333   1.332   4.830   1.989
 4478SOL    HW214334   1.357   4.693   2.074
 4479SOL     OW14335   1.189   0.132   6.125
 4479SOL    HW114336   1.228   0.203   6.184
 4479SOL    HW214337   1.261   0.069   6.095
 4480SOL     OW14338   7.011   4.265   3.454
 4480SOL    HW114339   7.003   4.201   3.531
 4480SOL    HW214340   0.066   4.233   3.392
 4481SOL     OW14341   0.679   0.731   4.032
 4481SOL    HW114342   0.775   0.738   4.059
 4481SOL    HW214343   0.646   0.639   4.051
 4482SOL     OW14344   1.303   3.935   3.054
 4482SOL    HW114345   1.304   3.843   3.015
 4482SOL    HW214346   1.335   3.932   3.149
 4483SOL     OW14347   5.901   2.933   1.389
 4483SOL    HW114348   5.876   3.025   1.420
 4483SOL    HW214349   5.831   2.899   1.327
 4484SOL     OW14350   3.428   3.649   6.110
 4484SOL    HW114351   3.478   3.581   6.055
 4484SOL    HW214352   3.493   3.698   6.168
 4485SOL     OW14353   4.436   0.297   0.095
 4485SOL    HW114354   4.452   0.389   0.131
 4485SOL    HW214355   4.337   0.279   0.095
 4486SOL     OW14356   5.829   3.220   3.926
 4486SOL    HW114357   5.808   3.154   3.855
 4486SOL    HW214358   5.784   3.193   4.011
 4487SOL     OW14359   3.048   2.925   5.609
 4487SOL    HW114360   2.970   2.984   5.630
 4487SOL    HW214361   3.099   2.905   5.693
 4488SOL     OW14362   6.455   1.425   6.406
 4488SOL    HW114363   6.477   1.492   6.335
 4488SOL    HW214364   6.526   1.355   6.410
 4489SOL     OW14365   0.400   1.223   2.759
 4489SOL    HW114366   0.446   1.154   2.815
 4489SOL    HW214367   0.343   1.281   2.817
 4490SOL     OW14368   6.564   2.070   3.637
 4490SOL    HW114369   6.599   2.156   3.674
 4490SOL    HW214370   6.484   2.089   3.579
 4491SOL     OW14371   2.101   3.655   2.549
 4491SOL    HW114372   2.067   3.591   2.480
 4491SOL    HW214373   2.158   3.724   2.505
 4492SOL     OW14374   4.995   4.644   5.896
 4492SOL    HW114375   5.087   4.609   5.877
 4492SOL    HW214376   5.002   4.726   5.953
 4493SOL     OW14377   5.898   4.745   3.828
 4493SOL    HW114378   5.989   4.784   3.813
 4493SOL    HW214379   5.840   4.812   3.874
 4494SOL     OW14380   5.826   2.830   3.116
 4494SOL    HW114381   5.825   2.730   3.115
 4494SOL    HW214382   5.810   2.863   3.209
 4495SOL     OW14383   4.821   6.161   2.045
 4495SOL    HW114384   4.805   6.134   1.951
 4495SOL    HW214385   4.863   6.086   2.095
 4496SOL     OW14386   5.724   4.228   6.080
 4496SOL    HW114387   5.707   4.136   6.114
 4496SOL    HW214388   5.807   4.265   6.124
 4497SOL     OW14389   6.437   5.451   1.004
 4497SOL    HW114390   6.360   5.484   0.949
 4497SOL    HW214391   6.520   5.500   0.976
 4498SOL     OW14392   1.033   3.941   6.889
 4498SOL    HW114393   1.044   3.892   6.976
 4498SOL    HW214394   0.936   3.953   6.870
 4499SOL     OW14395   5.086   3.084   6.816
 4499SOL    HW114396   5.083   3.184   6.823
 4499SOL    HW214397   5.002   3.051   6.773
 4500SOL     OW14398   3.501   4.076   3.399
 4500SOL    HW114399   3.485   4.141   3.325
 4500SOL    HW214400   3.594   4.039   3.391
 4501SOL     OW14401   1.536   4.776   4.683
 4501SOL    HW114402   1.546   4.719   4.764
 4501SOL    HW214403   1.546   4.872   4.708
 4502SOL     OW14404   6.293   2.953   6.932
 4502SOL    HW114405   6.325   2.859   6.924
 4502SOL    HW214406   6.199   2.954   6.965
 4503SOL     OW14407   1.768   3.384   2.846
 4503SOL    HW114408   1.720   3.404   2.931
 4503SOL    HW214409   1.772   3.466   2.790
 4504SOL     OW14410   4.635   2.495   4.087
 4504SOL    HW114411   4.604   2.537   4.002
 4504SOL    HW214412   4.558   2.486   4.150
 4505SOL     OW14413   1.473   5.113   6.908
 4505SOL    HW114414   1.516   5.177   6.972
 4505SOL    HW214415   1.436   5.163   6.830
 4506SOL     OW14416   4.251   6.838   4.913
 4506SOL    HW114417   4.246   6.935   4.935
 4506SOL    HW214418   4.176   6.812   4.853
 4507SOL     OW14419   6.080   3.133   2.223
 4507SOL    HW114420   6.168   3.094   2.193
 4507SOL    HW214421   6.005   3.088   2.175
 4508SOL     OW14422   2.145   3.879   7.006
 4508SOL    HW114423   2.242   3.902   0.000
 4508SOL    HW214424   2.090   3.962   7.014
 4509SOL     OW14425   0.184   1.833   3.702
 4509SOL    HW114426   0.241   1.767   3.652
 4509SOL    HW214427   0.241   1.883   3.768
 4510SOL     OW14428   3.553   6.435   5.876
 4510SOL    HW114429   3.583   6.391   5.791
 4510SOL    HW214430   3.484   6.504   5.855
 4511SOL     OW14431   6.468   2.105   6.640
 4511SOL    HW114432   6.442   2.086   6.545
 4511SOL    HW214433   6.449   2.024   6.696
 4512SOL     OW14434   2.569   4.476   6.864
 4512SOL    HW114435   2.589   4.525   6.949
 4512SOL    HW214436   2.644   4.413   6.843
 4513SOL     OW14437   5.849   1.154   2.235
 4513SOL    HW114438   5.778   1.097   2.277
 4513SOL    HW214439   5.908   1.191   2.306
 4514SOL     OW14440   3.557   0.979   5.977
 4514SOL    HW114441   3.643   1.017   5.943
 4514SOL    HW214442   3.500   1.052   6.015
 4515SOL     OW14443   6.367   4.774   0.682
 4515SOL    HW114444   6.338   4.836   0.610
 4515SOL    HW214445   6.288   4.745   0.736
 4516SOL     OW14446   0.743   6.914   4.022
 4516SOL    HW114447   0.831   6.960   4.025
 4516SOL    HW214448   0.748   6.836   3.959
 4517SOL     OW14449   3.945   0.436   6.275
 4517SOL    HW114450   4.015   0.434   6.346
 4517SOL    HW214451   3.862   0.479   6.311
 4518SOL     OW14452   1.496   0.176   3.488
 4518SOL    HW114453   1.402   0.176   3.521
 4518SOL    HW214454   1.511   0.097   3.429
 4519SOL     OW14455   6.295   2.809   4.991
 4519SOL    HW114456   6.356   2.754   5.047
 4519SOL    HW214457   6.208   2.760   4.978
 4520SOL     OW14458   0.105   3.970   2.455
 4520SOL    HW114459   0.056   3.884   2.467
 4520SOL    HW214460   0.195   3.964   2.499
 4521SOL     OW14461   5.154   1.627   6.501
 4521SOL    HW114462   5.112   1.680   6.427
 4521SOL    HW214463   5.251   1.649   6.506
 4522SOL     OW14464   5.681   0.340   3.171
 4522SOL    HW114465   5.595   0.296   3.197
 4522SOL    HW214466   5.733   0.363   3.253
 4523SOL     OW14467   4.833   2.758   6.256
 4523SOL    HW114468   4.765   2.788   6.323
 4523SOL    HW214469   4.917   2.730   6.304
 4524SOL     OW14470   5.910   0.560   4.813
 4524SOL    HW114471   5.912   0.627   4.887
 4524SOL    HW214472   5.820   0.517   4.808
 4525SOL     OW14473   6.232   2.064   5.303
 4525SOL    HW114474   6.305   2.099   5.363
 4525SOL    HW214475   6.266   1.983   5.255
 4526SOL     OW14476   3.350   1.089   1.330
 4526SOL    HW114477   3.292   1.011   1.306
 4526SOL    HW214478   3.331   1.118   1.424
 4527SOL     OW14479   4.505   6.591   3.589
 4527SOL    HW114480   4.426   6.559   3.642
 4527SOL    HW214481   4.482   6.676   3.542
 4528SOL     OW14482   4.890   6.831   5.712
 4528SOL    HW114483   4.977   6.823   5.761
 4528SOL    HW214484   4.815   6.834   5.778
 4529SOL     OW14485   3.731   0.430   3.789
 4529SOL    HW114486   3.687   0.515   3.759
 4529SOL    HW214487   3.749   0.435   3.887
 4530SOL     OW14488   0.462   3.075   5.251
 4530SOL    HW114489   0.456   2.975   5.243
 4530SOL    HW214490   0.372   3.115   5.234
 4531SOL     OW14491   0.322   3.906   3.557
 4531SOL    HW114492   0.290   3.845   3.630
 4531SOL    HW214493   0.276   3.994   3.564
 4532SOL     OW14494   6.928   1.650   0.369
 4532SOL    HW114495   6.884   1.581   0.311
 4532SOL    HW214496   0.008   1.658   0.344
 4533SOL     OW14497   3.255   5.901   2.473
 4533SOL    HW114498   3.189   5.960   2.519
 4533SOL    HW214499   3.314   5.956   2.414
 4534SOL     OW14500   0.088   4.519   5.630
 4534SOL    HW114501   0.186   4.537   5.637
 4534SOL    HW214502   0.044   4.591   5.576
 4535SOL     OW14503   5.033   2.848   3.179
 4535SOL    HW114504   5.042   2.916   3.107
 4535SOL    HW214505   4.937   2.841   3.207
 4536SOL     OW14506   6.770   0.412   4.515
 4536SOL    HW114507   6.854   0.386   4.468
 4536SOL    HW214508   6.752   0.510   4.500
 4537SOL     OW14509   4.751   3.287   6.518
 4537SOL    HW114510   4.782   3.229   6.594
 4537SOL    HW214511   4.775   3.243   6.432
 4538SOL     OW14512   3.347   2.006   1.582
 4538SOL    HW114513   3.385   2.095   1.608
 4538SOL    HW214514   3.250   2.003   1.606
 4539SOL     OW14515   2.213   2.262   2.578
 4539SOL    HW114516   2.303   2.282   2.540
 4539SOL    HW214517   2.193   2.324   2.653
 4540SOL     OW14518   3.317   3.294   5.095
 4540SOL    HW114519   3.281   3.332   5.180
 4540SOL    HW214520   3.241   3.270   5.035
 4541SOL     OW14521   5.929   1.063   1.775
 4541SOL    HW114522   5.994   1.076   1.850
 4541SOL    HW214523   5.886   1.150   1.752
 4542SOL     OW14524   4.756   6.950   3.136
 4542SOL    HW114525   4.853   6.964   3.115
 4542SOL    HW214526   4.702   6.969   3.054
 4543SOL     OW14527   5.849   1.768   1.571
 4543SOL    HW114528   5.753   1.766   1.543
 4543SOL    HW214529   5.890   1.855   1.543
 4544SOL     OW14530   4.606   5.022   6.704
 4544SOL    HW114531   4.568   4.994   6.793
 4544SOL    HW214532   4.671   4.954   6.673
 4545SOL     OW14533   4.163   3.859   5.937
 4545SOL    HW114534   4.139   3.886   5.843
 4545SOL    HW214535   4.082   3.862   5.995
 4546SOL     OW14536   0.161   6.534   0.202
 4546SOL    HW114537   0.182   6.488   0.289
 4546SOL    HW214538   0.166   6.467   0.128
 4547SOL     OW14539   4.417   1.505   1.889
 4547SOL    HW114540   4.448   1.426   1.942
 4547SOL    HW214541   4.395   1.581   1.950
 4548SOL     OW14542   0.730   3.775   3.940
 4548SOL    HW114543   0.787   3.727   4.007
 4548SOL    HW214544   0.756   3.747   3.848
 4549SOL     OW14545   4.507   1.397   2.357
 4549SOL    HW114546   4.485   1.357   2.446
 4549SOL    HW214547   4.425   1.399   2.300
 4550SOL     OW14548   1.664   5.706   4.512
 4550SOL    HW114549   1.684   5.718   4.414
 4550SOL    HW214550   1.743   5.664   4.557
 4551SOL     OW14551   6.657   3.013   6.892
 4551SOL    HW114552   6.726   3.050   6.954
 4551SOL    HW214553   6.607   2.940   6.937
 4552SOL     OW14554   6.447   3.145   4.384
 4552SOL    HW114555   6.428   3.191   4.470
 4552SOL    HW214556   6.531   3.182   4.344
 4553SOL     OW14557   5.288   5.114   0.276
 4553SOL    HW114558   5.316   5.194   0.223
 4553SOL    HW214559   5.288   5.033   0.216
 4554SOL     OW14560   5.954   0.010   3.637
 4554SOL    HW114561   6.009   0.037   3.559
 4554SOL    HW214562   5.917   6.935   3.622
 4555SOL     OW14563   4.227   3.022   6.384
 4555SOL    HW114564   4.316   3.036   6.341
 4555SOL    HW214565   4.156   3.024   6.313
 4556SOL     OW14566   4.764   0.544   5.411
 4556SOL    HW114567   4.857   0.512   5.397
 4556SOL    HW214568   4.761   0.644   5.403
 4557SOL     OW14569   5.204   0.680   4.945
 4557SOL    HW114570   5.243   0.741   5.013
 4557SOL    HW214571   5.227   0.585   4.968
 4558SOL     OW14572   6.004   3.071   5.824
 4558SOL    HW114573   6.021   2.972   5.827
 4558SOL    HW214574   6.055   3.111   5.748
 4559SOL     OW14575   1.087   6.265   1.287
 4559SOL    HW114576   1.146   6.309   1.220
 4559SOL    HW214577   1.085   6.166   1.269
 4560SOL     OW14578   5.627   2.287   2.478
 4560SOL    HW114579   5.639   2.294   2.577
 4560SOL    HW214580   5.571   2.207   2.457
 4561SOL     OW14581   3.485   0.658   6.435
 4561SOL    HW114582   3.450   0.738   6.386
 4561SOL    HW214583   3.478   0.674   6.534
 4562SOL     OW14584   2.291   4.487   5.631
 4562SOL    HW114585   2.278   4.532   5.719
 4562SOL    HW214586   2.304   4.556   5.560
 4563SOL     OW14587   5.338   2.544   6.530
 4563SOL    HW114588   5.291   2.632   6.532
 4563SOL    HW214589   5.436   2.559   6.545
 4564SOL     OW14590   0.797   5.195   6.950
 4564SOL    HW114591   0.827   5.107   6.911
 4564SOL    HW214592   0.698   5.194   6.963
 4565SOL     OW14593   2.448   0.782   3.866
 4565SOL    HW114594   2.543   0.781   3.896
 4565SOL    HW214595   2.389   0.811   3.941
 4566SOL     OW14596   1.727   1.082   0.475
 4566SOL    HW114597   1.804   1.113   0.420
 4566SOL    HW214598   1.678   1.161   0.512
 4567SOL     OW14599   5.752   1.290   1.053
 4567SOL    HW114600   5.722   1.229   1.125
 4567SOL    HW214601   5.786   1.236   0.975
 4568SOL     OW14602   3.981   4.970   4.212
 4568SOL    HW114603   4.056   4.904   4.213
 4568SOL    HW214604   3.988   5.028   4.130
 4569SOL     OW14605   0.361   2.039   3.215
 4569SOL    HW114606   0.421   1.963   3.190
 4569SOL    HW214607   0.273   2.003   3.246
 4570SOL     OW14608   5.917   5.755   4.478
 4570SOL    HW114609   5.892   5.731   4.384
 4570SOL    HW214610   5.928   5.854   4.486
 4571SOL     OW14611   3.617   2.928   4.520
 4571SOL    HW114612   3.699   2.948   4.574
 4571SOL    HW214613   3.543   2.899   4.581
 4572SOL     OW14614   1.991   5.193   1.886
 4572SOL    HW114615   1.978   5.160   1.980
 4572SOL    HW214616   2.031   5.120   1.831
 4573SOL     OW14617   5.045   0.327   0.942
 4573SOL    HW114618   5.073   0.419   0.966
 4573SOL    HW214619   5.061   0.265   1.019
 4574SOL     OW14620   0.179   4.049   1.507
 4574SOL    HW114621   0.183   4.081   1.412
 4574SOL    HW214622   0.105   4.096   1.555
 4575SOL     OW14623   0.002   6.340   2.096
 4575SOL    HW114624   0.088   6.360   2.049
 4575SOL    HW214625   6.943   6.367   2.037
 4576SOL     OW14626   3.814   6.270   4.005
 4576SOL    HW114627   3.775   6.359   4.027
 4576SOL    HW214628   3.740   6.206   3.984
 4577SOL     OW14629   1.328   2.823   4.136
 4577SOL    HW114630   1.330   2.922   4.119
 4577SOL    HW214631   1.273   2.805   4.218
 4578SOL     OW14632   0.612   5.012   4.001
 4578SOL    HW114633   0.594   5.020   4.099
 4578SOL    HW214634   0.647   4.921   3.981
 4579SOL     OW14635   5.543   1.787   4.801
 4579SOL    HW114636   5.535   1.717   4.872
 4579SOL    HW214637   5.466   1.779   4.738
 4580SOL     OW14638   0.044   5.592   7.011
 4580SOL    HW114639   0.043   5.497   6.981
 4580SOL    HW214640   0.056   5.652   6.932
 4581SOL     OW14641   3.317   6.478   3.804
 4581SOL    HW114642   3.237   6.422   3.824
 4581SOL    HW214643   3.360   6.447   3.719
 4582SOL     OW14644   5.041   6.480   3.239
 4582SOL    HW114645   4.946   6.512   3.240
 4582SOL    HW214646   5.044   6.382   3.255
 4583SOL     OW14647   3.813   1.277   5.384
 4583SOL    HW114648   3.733   1.337   5.394
 4583SOL    HW214649   3.826   1.255   5.287
 4584SOL     OW14650   1.067   5.260   6.082
 4584SOL    HW114651   1.071   5.165   6.050
 4584SOL    HW214652   1.103   5.321   6.011
 4585SOL     OW14653   3.056   6.447   1.972
 4585SOL    HW114654   3.146   6.489   1.971
 4585SOL    HW214655   3.049   6.386   2.051
 4586SOL     OW14656   2.837   6.037   1.639
 4586SOL    HW114657   2.752   6.090   1.630
 4586SOL    HW214658   2.902   6.069   1.570
 4587SOL     OW14659   3.137   4.907   0.614
 4587SOL    HW114660   3.217   4.957   0.647
 4587SOL    HW214661   3.054   4.960   0.634
 4588SOL     OW14662   3.852   4.341   5.321
 4588SOL    HW114663   3.950   4.362   5.318
 4588SOL    HW214664   3.827   4.284   5.243
 4589SOL     OW14665   0.994   1.752   2.969
 4589SOL    HW114666   0.965   1.839   2.928
 4589SOL    HW214667   0.958   1.676   2.915
 4590SOL     OW14668   4.422   6.390   3.153
 4590SOL    HW114669   4.457   6.401   3.060
 4590SOL    HW214670   4.343   6.329   3.152
 4591SOL     OW14671   6.187   6.775   5.194
 4591SOL    HW114672   6.204   6.794   5.097
 4591SOL    HW214673   6.271   6.743   5.237
 4592SOL     OW14674   3.348   1.506   6.105
 4592SOL    HW114675   3.441   1.479   6.132
 4592SOL    HW214676   3.354   1.579   6.037
 4593SOL     OW14677   4.660   6.330   1.802
 4593SOL    HW114678   4.694   6.235   1.804
 4593SOL    HW214679   4.734   6.392   1.828
 4594SOL     OW14680   3.682   1.752   2.223
 4594SOL    HW114681   3.713   1.734   2.317
 4594SOL    HW214682   3.582   1.757   2.222
 4595SOL     OW14683   5.014   3.527   6.354
 4595SOL    HW114684   5.074   3.605   6.337
 4595SOL    HW214685   4.918   3.557   6.349
 4596SOL     OW14686   5.403   0.401   2.406
 4596SOL    HW114687   5.313   0.390   2.446
 4596SOL    HW214688   5.473   0.399   2.478
 4597SOL     OW14689   6.537   4.465   5.948
 4597SOL    HW114690   6.477   4.405   6.000
 4597SOL    HW214691   6.500   4.558   5.949
 4598SOL     OW14692   3.338   3.877   0.674
 4598SOL    HW114693   3.343   3.854   0.771
 4598SOL    HW214694   3.243   3.900   0.650
 4599SOL     OW14695   2.317   5.382   0.591
 4599SOL    HW114696   2.260   5.456   0.628
 4599SOL    HW214697   2.411   5.413   0.582
 4600SOL     OW14698   3.561   4.577   1.453
 4600SOL    HW114699   3.559   4.552   1.549
 4600SOL    HW214700   3.640   4.635   1.435
 4601SOL     OW14701   1.631   5.593   4.253
 4601SOL    HW114702   1.540   5.586   4.293
 4601SOL    HW214703   1.636   5.673   4.194
 4602SOL     OW14704   1.494   1.079   0.926
 4602SOL    HW114705   1.516   1.130   1.009
 4602SOL    HW214706   1.464   0.987   0.950
 4603SOL     OW14707   3.063   1.466   1.741
 4603SOL    HW114708   3.156   1.503   1.747
 4603SOL    HW214709   3.057   1.383   1.796
 4604SOL     OW14710   1.431   0.939   2.305
 4604SOL    HW114711   1.371   0.860   2.311
 4604SOL    HW214712   1.462   0.950   2.210
 4605SOL     OW14713   4.978   6.336   5.804
 4605SOL    HW114714   5.015   6.429   5.802
 4605SOL    HW214715   5.018   6.283   5.729
 4606SOL     OW14716   6.848   6.085   5.088
 4606SOL    HW114717   6.832   6.156   5.019
 4606SOL    HW214718   6.877   6.000   5.043
 4607SOL     OW14719   2.881   2.549   1.477
 4607SOL    HW114720   2.827   2.633   1.484
 4607SOL    HW214721   2.967   2.569   1.429
 4608SOL     OW14722   1.735   3.450   4.981
 4608SOL    HW114723   1.644   3.414   5.001
 4608SOL    HW214724   1.767   3.412   4.895
 4609SOL     OW14725   3.321   0.481   0.275
 4609SOL    HW114726   3.258   0.445   0.343
 4609SOL    HW214727   3.271   0.507   0.193
 4610SOL     OW14728   0.032   3.067   0.018
 4610SOL    HW114729   0.091   3.113   6.969
 4610SOL    HW214730   0.023   2.971   7.010
 4611SOL     OW14731   1.344   3.564   6.937
 4611SOL    HW114732   1.401   3.646   6.928
 4611SOL    HW214733   1.327   3.546   0.017
 4612SOL     OW14734   2.495   0.112   6.628
 4612SOL    HW114735   2.583   0.095   6.584
 4612SOL    HW214736   2.500   0.089   6.725
 4613SOL     OW14737   3.316   4.958   1.619
 4613SOL    HW114738   3.377   4.984   1.693
 4613SOL    HW214739   3.287   5.039   1.569
 4614SOL     OW14740   2.187   4.798   0.145
 4614SOL    HW114741   2.100   4.750   0.151
 4614SOL    HW214742   2.192   4.869   0.216
 4615SOL     OW14743   6.817   3.150   0.091
 4615SOL    HW114744   6.899   3.094   0.078
 4615SOL    HW214745   6.843   3.246   0.092
 4616SOL     OW14746   5.923   0.376   0.659
 4616SOL    HW114747   5.934   0.278   0.643
 4616SOL    HW214748   6.012   0.418   0.677
 4617SOL     OW14749   0.018   3.890   1.913
 4617SOL    HW114750   0.103   3.926   1.952
 4617SOL    HW214751   0.014   3.791   1.926
 4618SOL     OW14752   0.564   2.989   6.373
 4618SOL    HW114753   0.531   3.067   6.321
 4618SOL    HW214754   0.555   2.906   6.318
 4619SOL     OW14755   3.552   0.570   3.967
 4619SOL    HW114756   3.501   0.518   3.899
 4619SOL    HW214757   3.641   0.526   3.982
 4620SOL     OW14758   2.269   5.773   6.428
 4620SOL    HW114759   2.263   5.740   6.522
 4620SOL    HW214760   2.358   5.747   6.390
 4621SOL     OW14761   0.433   0.251   6.195
 4621SOL    HW114762   0.390   0.341   6.186
 4621SOL    HW214763   0.518   0.260   6.245
 4622SOL     OW14764   2.215   3.482   1.157
 4622SOL    HW114765   2.267   3.487   1.242
 4622SOL    HW214766   2.278   3.472   1.080
 4623SOL     OW14767   5.473   5.037   2.729
 4623SOL    HW114768   5.439   5.102   2.797
 4623SOL    HW214769   5.504   5.088   2.649
 4624SOL     OW14770   4.577   6.953   5.245
 4624SOL    HW114771   4.482   6.980   5.262
 4624SOL    HW214772   4.596   6.867   5.291
 4625SOL     OW14773   1.414   3.873   6.018
 4625SOL    HW114774   1.512   3.887   6.028
 4625SOL    HW214775   1.396   3.777   5.997
 4626SOL     OW14776   5.696   5.509   2.147
 4626SOL    HW114777   5.648   5.454   2.215
 4626SOL    HW214778   5.673   5.605   2.160
 4627SOL     OW14779   1.738   0.026   5.697
 4627SOL    HW114780   1.649   0.061   5.669
 4627SOL    HW214781   1.739   6.944   5.688
 4628SOL     OW14782   6.984   2.746   2.150
 4628SOL    HW114783   6.970   2.683   2.073
 4628SOL    HW214784   6.899   2.756   2.201
 4629SOL     OW14785   4.216   4.784   4.460
 4629SOL    HW114786   4.284   4.781   4.533
 4629SOL    HW214787   4.136   4.834   4.491
 4630SOL     OW14788   1.676   6.731   2.433
 4630SOL    HW114789   1.746   6.778   2.487
 4630SOL    HW214790   1.676   6.634   2.456
 4631SOL     OW14791   1.945   0.500   2.945
 4631SOL    HW114792   2.034   0.485   2.988
 4631SOL    HW214793   1.953   0.575   2.878
 4632SOL     OW14794   6.163   5.758   4.079
 4632SOL    HW114795   6.181   5.814   4.160
 4632SOL    HW214796   6.086   5.697   4.097
 4633SOL     OW14797   5.264   2.273   5.623
 4633SOL    HW114798   5.177   2.276   5.574
 4633SOL    HW214799   5.272   2.353   5.682
 4634SOL     OW14800   3.383   4.510   0.905
 4634SOL    HW114801   3.384   4.509   0.805
 4634SOL    HW214802   3.288   4.501   0.937
 4635SOL     OW14803   5.302   3.286   1.767
 4635SOL    HW114804   5.345   3.374   1.787
 4635SOL    HW214805   5.353   3.212   1.812
 4636SOL     OW14806   1.027   5.744   1.503
 4636SOL    HW114807   0.970   5.669   1.535
 4636SOL    HW214808   1.014   5.756   1.405
 4637SOL     OW14809   1.316   0.649   4.412
 4637SOL    HW114810   1.399   0.604   4.445
 4637SOL    HW214811   1.255   0.580   4.373
 4638SOL     OW14812   4.397   4.548   6.256
 4638SOL    HW114813   4.330   4.478   6.280
 4638SOL    HW214814   4.383   4.577   6.161
 4639SOL     OW14815   0.251   2.325   4.923
 4639SOL    HW114816   0.164   2.353   4.882
 4639SOL    HW214817   0.281   2.239   4.882
 4640SOL     OW14818   6.408   4.483   2.559
 4640SOL    HW114819   6.380   4.415   2.627
 4640SOL    HW214820   6.500   4.515   2.580
 4641SOL     OW14821   2.916   3.477   5.663
 4641SOL    HW114822   2.926   3.561   5.610
 4641SOL    HW214823   3.004   3.453   5.705
 4642SOL     OW14824   6.607   5.908   3.848
 4642SOL    HW114825   6.523   5.859   3.871
 4642SOL    HW214826   6.685   5.847   3.858
 4643SOL     OW14827   3.945   2.750   0.604
 4643SOL    HW114828   3.888   2.831   0.596
 4643SOL    HW214829   4.037   2.777   0.633
 4644SOL     OW14830   3.334   4.724   5.230
 4644SOL    HW114831   3.387   4.644   5.258
 4644SOL    HW214832   3.240   4.715   5.261
 4645SOL     OW14833   1.583   6.294   4.786
 4645SOL    HW114834   1.507   6.246   4.744
 4645SOL    HW214835   1.581   6.391   4.759
 4646SOL     OW14836   3.725   0.724   1.573
 4646SOL    HW114837   3.687   0.710   1.665
 4646SOL    HW214838   3.741   0.822   1.559
 4647SOL     OW14839   6.804   0.572   5.138
 4647SOL    HW114840   6.719   0.595   5.186
 4647SOL    HW214841   6.819   0.637   5.064
 4648SOL     OW14842   1.931   4.997   2.692
 4648SOL    HW114843   1.868   4.931   2.650
 4648SOL    HW214844   1.878   5.072   2.731
 4649SOL     OW14845   5.827   6.340   5.954
 4649SOL    HW114846   5.880   6.310   6.033
 4649SOL    HW214847   5.734   6.361   5.983
 4650SOL     OW14848   6.808   4.557   1.599
 4650SOL    HW114849   6.769   4.484   1.543
 4650SOL    HW214850   6.832   4.521   1.689
 4651SOL     OW14851   5.977   2.155   2.309
 4651SOL    HW114852   5.916   2.081   2.281
 4651SOL    HW214853   6.071   2.121   2.313
 4652SOL     OW14854   7.013   6.096   5.466
 4652SOL    HW114855   0.065   6.070   5.400
 4652SOL    HW214856   6.980   6.015   5.514
 4653SOL     OW14857   0.541   5.680   6.621
 4653SOL    HW114858   0.481   5.717   6.550
 4653SOL    HW214859   0.579   5.756   6.675
 4654SOL     OW14860   0.966   1.836   6.418
 4654SOL    HW114861   0.948   1.740   6.436
 4654SOL    HW214862   1.053   1.845   6.370
 4655SOL     OW14863   0.348   5.288   3.374
 4655SOL    HW114864   0.320   5.313   3.281
 4655SOL    HW214865   0.439   5.323   3.392
 4656SOL     OW14866   2.467   6.687   3.255
 4656SOL    HW114867   2.550   6.648   3.216
 4656SOL    HW214868   2.412   6.728   3.183
 4657SOL     OW14869   6.247   0.506   6.413
 4657SOL    HW114870   6.196   0.526   6.497
 4657SOL    HW214871   6.187   0.458   6.349
 4658SOL     OW14872   4.838   0.949   3.748
 4658SOL    HW114873   4.824   0.856   3.783
 4658SOL    HW214874   4.753   0.982   3.708
 4659SOL     OW14875   1.996   2.737   4.573
 4659SOL    HW114876   2.059   2.814   4.582
 4659SOL    HW214877   1.922   2.747   4.639
 4660SOL     OW14878   6.642   1.501   5.320
 4660SOL    HW114879   6.738   1.498   5.290
 4660SOL    HW214880   6.626   1.584   5.374
 4661SOL     OW14881   4.016   3.092   3.363
 4661SOL    HW114882   3.939   3.049   3.317
 4661SOL    HW214883   4.026   3.052   3.455
 4662SOL     OW14884   5.657   0.244   3.605
 4662SOL    HW114885   5.622   0.177   3.670
 4662SOL    HW214886   5.696   0.322   3.655
 4663SOL     OW14887   0.900   2.360   1.691
 4663SOL    HW114888   0.924   2.456   1.703
 4663SOL    HW214889   0.984   2.305   1.692
 4664SOL     OW14890   3.662   4.051   0.385
 4664SOL    HW114891   3.571   4.089   0.399
 4664SOL    HW214892   3.661   3.954   0.408
 4665SOL     OW14893   5.393   0.349   6.857
 4665SOL    HW114894   5.395   0.413   6.934
 4665SOL    HW214895   5.444   0.267   6.881
 4666SOL     OW14896   2.022   1.854   0.223
 4666SOL    HW114897   2.016   1.954   0.222
 4666SOL    HW214898   2.096   1.826   0.284
 4667SOL     OW14899   0.514   5.192   4.607
 4667SOL    HW114900   0.423   5.156   4.630
 4667SOL    HW214901   0.526   5.282   4.649
 4668SOL     OW14902   5.115   1.123   5.693
 4668SOL    HW114903   5.108   1.223   5.690
 4668SOL    HW214904   5.206   1.097   5.724
 4669SOL     OW14905   2.837   0.599   1.424
 4669SOL    HW114906   2.876   0.629   1.337
 4669SOL    HW214907   2.908   0.555   1.480
 4670SOL     OW14908   2.531   1.652   4.787
 4670SOL    HW114909   2.496   1.618   4.874
 4670SOL    HW214910   2.455   1.673   4.726
 4671SOL     OW14911   5.436   2.307   1.424
 4671SOL    HW114912   5.423   2.366   1.504
 4671SOL    HW214913   5.401   2.216   1.445
 4672SOL     OW14914   2.868   2.889   5.329
 4672SOL    HW114915   2.918   2.903   5.414
 4672SOL    HW214916   2.919   2.929   5.253
 4673SOL     OW14917   4.492   0.750   2.432
 4673SOL    HW114918   4.582   0.726   2.469
 4673SOL    HW214919   4.500   0.834   2.378
 4674SOL     OW14920   5.149   6.284   5.133
 4674SOL    HW114921   5.224   6.335   5.176
 4674SOL    HW214922   5.145   6.192   5.171
 4675SOL     OW14923   1.133   4.209   6.265
 4675SOL    HW114924   1.200   4.142   6.231
 4675SOL    HW214925   1.079   4.168   6.338
 4676SOL     OW14926   0.680   4.756   3.890
 4676SOL    HW114927   0.758   4.705   3.854
 4676SOL    HW214928   0.634   4.702   3.961
 4677SOL     OW14929   1.590   3.403   0.601
 4677SOL    HW114930   1.669   3.391   0.661
 4677SOL    HW214931   1.535   3.480   0.635
 4678SOL     OW14932   0.844   4.551   2.074
 4678SOL    HW114933   0.905   4.597   2.139
 4678SOL    HW214934   0.821   4.615   2.001
 4679SOL     OW14935   4.317   6.780   1.864
 4679SOL    HW114936   4.403   6.755   1.819
 4679SOL    HW214937   4.336   6.834   1.945
 4680SOL     OW14938   2.203   0.425   6.815
 4680SOL    HW114939   2.213   0.371   6.732
 4680SOL    HW214940   2.212   0.522   6.792
 4681SOL     OW14941   5.223   5.605   2.319
 4681SOL    HW114942   5.262   5.660   2.393
 4681SOL    HW214943   5.280   5.613   2.238
 4682SOL     OW14944   3.591   3.891   6.236
 4682SOL    HW114945   3.503   3.904   6.190
 4682SOL    HW214946   3.615   3.974   6.285
 4683SOL     OW14947   6.172   4.550   3.577
 4683SOL    HW114948   6.153   4.633   3.628
 4683SOL    HW214949   6.092   4.524   3.524
 4684SOL     OW14950   5.284   6.018   6.430
 4684SOL    HW114951   5.255   5.954   6.501
 4684SOL    HW214952   5.382   6.010   6.415
 4685SOL     OW14953   3.432   4.200   4.173
 4685SOL    HW114954   3.526   4.226   4.154
 4685SOL    HW214955   3.422   4.178   4.270
 4686SOL     OW14956   1.548   6.789   0.100
 4686SOL    HW114957   1.598   6.865   0.140
 4686SOL    HW214958   1.450   6.800   0.120
 4687SOL     OW14959   2.407   0.253   2.674
 4687SOL    HW114960   2.361   0.341   2.688
 4687SOL    HW214961   2.347   0.179   2.703
 4688SOL     OW14962   5.193   2.416   6.066
 4688SOL    HW114963   5.112   2.439   6.120
 4688SOL    HW214964   5.273   2.457   6.108
 4689SOL     OW14965   6.802   1.132   1.360
 4689SOL    HW114966   6.871   1.089   1.301
 4689SOL    HW214967   6.791   1.228   1.333
 4690SOL     OW14968   2.906   2.441   1.088
 4690SOL    HW114969   2.876   2.377   1.158
 4690SOL    HW214970   2.840   2.515   1.078
 4691SOL     OW14971   6.443   3.704   1.924
 4691SOL    HW114972   6.367   3.640   1.917
 4691SOL    HW214973   6.409   3.794   1.951
 4692SOL     OW14974   5.098   2.990   2.935
 4692SOL    HW114975   5.121   2.907   2.883
 4692SOL    HW214976   5.181   3.038   2.960
 4693SOL     OW14977   0.922   0.768   2.428
 4693SOL    HW114978   0.999   0.728   2.476
 4693SOL    HW214979   0.955   0.827   2.354
 4694SOL     OW14980   2.082   0.311   6.409
 4694SOL    HW114981   2.130   0.281   6.491
 4694SOL    HW214982   2.045   0.232   6.360
 4695SOL     OW14983   2.313   5.069   2.588
 4695SOL    HW114984   2.283   5.100   2.678
 4695SOL    HW214985   2.386   5.129   2.554
 4696SOL     OW14986   1.205   6.212   6.012
 4696SOL    HW114987   1.107   6.228   6.029
 4696SOL    HW214988   1.215   6.152   5.932
 4697SOL     OW14989   4.317   5.684   1.204
 4697SOL    HW114990   4.323   5.628   1.122
 4697SOL    HW214991   4.381   5.760   1.198
 4698SOL     OW14992   5.718   1.171   4.799
 4698SOL    HW114993   5.683   1.096   4.855
 4698SOL    HW214994   5.804   1.143   4.756
 4699SOL     OW14995   1.681   0.972   2.859
 4699SOL    HW114996   1.756   1.036   2.846
 4699SOL    HW214997   1.612   1.013   2.918
 4700SOL     OW14998   6.123   1.730   2.830
 4700SOL    HW114999   6.034   1.720   2.874
 4700SOL    HW215000   6.146   1.645   2.782
 4701SOL     OW15001   3.108   2.632   1.755
 4701SOL    HW115002   3.038   2.574   1.797
 4701SOL    HW215003   3.148   2.691   1.826
 4702SOL     OW15004   5.900   5.111   6.838
 4702SOL    HW115005   5.830   5.161   6.786
 4702SOL    HW215006   5.872   5.107   6.934
 4703SOL     OW15007   0.850   5.024   3.064
 4703SOL    HW115008   0.788   5.066   3.130
 4703SOL    HW215009   0.892   5.095   3.007
 4704SOL     OW15010   1.143   5.016   4.392
 4704SOL    HW115011   1.103   4.969   4.314
 4704SOL    HW215012   1.112   4.974   4.477
 4705SOL     OW15013   3.547   1.831   1.764
 4705SOL    HW115014   3.620   1.899   1.769
 4705SOL    HW215015   3.489   1.850   1.684
 4706SOL     OW15016   2.431   0.454   1.202
 4706SOL    HW115017   2.456   0.489   1.111
 4706SOL    HW215018   2.361   0.383   1.192
 4707SOL     OW15019   1.660   5.323   2.219
 4707SOL    HW115020   1.749   5.305   2.178
 4707SOL    HW215021   1.659   5.289   2.313
 4708SOL     OW15022   1.567   3.068   5.210
 4708SOL    HW115023   1.651   3.118   5.190
 4708SOL    HW215024   1.573   2.976   5.171
 4709SOL     OW15025   5.872   4.106   5.698
 4709SOL    HW115026   5.945   4.146   5.753
 4709SOL    HW215027   5.865   4.153   5.610
 4710SOL     OW15028   5.996   5.897   5.165
 4710SOL    HW115029   5.938   5.819   5.145
 4710SOL    HW215030   6.018   5.946   5.080
 4711SOL     OW15031   4.908   4.435   2.163
 4711SOL    HW115032   4.833   4.371   2.151
 4711SOL    HW215033   4.994   4.390   2.138
 4712SOL     OW15034   4.538   3.998   5.799
 4712SOL    HW115035   4.605   4.052   5.748
 4712SOL    HW215036   4.490   4.057   5.863
 4713SOL     OW15037   5.326   3.940   0.887
 4713SOL    HW115038   5.272   4.009   0.839
 4713SOL    HW215039   5.296   3.934   0.982
 4714SOL     OW15040   4.250   2.361   6.516
 4714SOL    HW115041   4.301   2.328   6.437
 4714SOL    HW215042   4.171   2.302   6.532
 4715SOL     OW15043   6.620   1.469   1.519
 4715SOL    HW115044   6.698   1.529   1.540
 4715SOL    HW215045   6.598   1.414   1.599
 4716SOL     OW15046   3.777   4.440   5.843
 4716SOL    HW115047   3.863   4.390   5.834
 4716SOL    HW215048   3.776   4.518   5.780
 4717SOL     OW15049   1.950   4.778   5.762
 4717SOL    HW115050   1.860   4.786   5.717
 4717SOL    HW215051   1.947   4.704   5.828
 4718SOL     OW15052   4.550   4.650   1.304
 4718SOL    HW115053   4.586   4.695   1.223
 4718SOL    HW215054   4.624   4.634   1.369
 4719SOL     OW15055   6.683   4.284   3.791
 4719SOL    HW115056   6.740   4.291   3.873
 4719SOL    HW215057   6.725   4.336   3.717
 4720SOL     OW15058   2.429   3.340   0.081
 4720SOL    HW115059   2.528   3.340   0.066
 4720SOL    HW215060   2.384   3.297   0.002
 4721SOL     OW15061   0.531   2.643   3.368
 4721SOL    HW115062   0.617   2.693   3.382
 4721SOL    HW215063   0.496   2.610   3.455
 4722SOL     OW15064   0.866   5.740   6.773
 4722SOL    HW115065   0.849   5.761   6.677
 4722SOL    HW215066   0.853   5.642   6.788
 4723SOL     OW15067   3.110   4.471   6.512
 4723SOL    HW115068   3.078   4.394   6.457
 4723SOL    HW215069   3.141   4.544   6.451
 4724SOL     OW15070   0.907   0.252   4.489
 4724SOL    HW115071   0.907   0.280   4.585
 4724SOL    HW215072   0.994   0.206   4.468
 4725SOL     OW15073   5.801   5.142   1.242
 4725SOL    HW115074   5.718   5.111   1.195
 4725SOL    HW215075   5.846   5.064   1.285
 4726SOL     OW15076   2.107   2.676   5.547
 4726SOL    HW115077   2.009   2.669   5.565
 4726SOL    HW215078   2.144   2.755   5.595
 4727SOL     OW15079   6.665   4.675   1.152
 4727SOL    HW115080   6.616   4.667   1.065
 4727SOL    HW215081   6.648   4.594   1.208
 4728SOL     OW15082   5.896   1.749   4.378
 4728SOL    HW115083   5.933   1.821   4.435
 4728SOL    HW215084   5.796   1.748   4.385
 4729SOL     OW15085   5.773   1.284   1.752
 4729SOL    HW115086   5.814   1.372   1.772
 4729SOL    HW215087   5.686   1.275   1.801
 4730SOL     OW15088   3.906   0.397   3.483
 4730SOL    HW115089   4.001   0.415   3.458
 4730SOL    HW215090   3.888   0.433   3.575
 4731SOL     OW15091   3.054   6.447   0.969
 4731SOL    HW115092   2.958   6.431   0.991
 4731SOL    HW215093   3.078   6.541   0.993
 4732SOL     OW15094   0.087   4.933   4.575
 4732SOL    HW115095   0.120   5.026   4.564
 4732SOL    HW215096   0.065   4.916   4.671
 4733SOL     OW15097   1.861   4.176   2.497
 4733SOL    HW115098   1.896   4.194   2.405
 4733SOL    HW215099   1.812   4.089   2.497
 4734SOL     OW15100   4.731   4.284   7.004
 4734SOL    HW115101   4.806   4.220   6.988
 4734SOL    HW215102   4.683   4.301   6.918
 4735SOL     OW15103   0.600   0.257   5.133
 4735SOL    HW115104   0.511   0.281   5.095
 4735SOL    HW215105   0.614   0.158   5.125
 4736SOL     OW15106   6.334   1.601   3.953
 4736SOL    HW115107   6.389   1.627   3.874
 4736SOL    HW215108   6.377   1.524   3.999
 4737SOL     OW15109   1.726   4.951   0.177
 4737SOL    HW115110   1.795   4.878   0.180
 4737SOL    HW215111   1.648   4.919   0.123
 4738SOL     OW15112   0.739   5.720   3.857
 4738SOL    HW115113   0.732   5.796   3.791
 4738SOL    HW215114   0.770   5.755   3.945
 4739SOL     OW15115   5.925   3.242   3.075
 4739SOL    HW115116   5.845   3.282   3.119
 4739SOL    HW215117   5.910   3.236   2.976
 4740SOL     OW15118   1.269   0.075   0.736
 4740SOL    HW115119   1.246   0.097   0.831
 4740SOL    HW215120   1.195   0.021   0.695
 4741SOL     OW15121   5.599   4.665   1.026
 4741SOL    HW115122   5.668   4.736   1.034
 4741SOL    HW215123   5.637   4.578   1.055
 4742SOL     OW15124   2.689   5.465   2.279
 4742SOL    HW115125   2.628   5.543   2.263
 4742SOL    HW215126   2.784   5.497   2.279
 4743SOL     OW15127   2.591   3.705   0.571
 4743SOL    HW115128   2.540   3.634   0.522
 4743SOL    HW215129   2.653   3.750   0.508
 4744SOL     OW15130   2.540   1.878   5.306
 4744SOL    HW115131   2.452   1.858   5.348
 4744SOL    HW215132   2.613   1.834   5.359
 4745SOL     OW15133   4.266   4.965   5.072
 4745SOL    HW115134   4.337   5.035   5.067
 4745SOL    HW215135   4.307   4.874   5.061
 4746SOL     OW15136   5.818   1.175   1.477
 4746SOL    HW115137   5.916   1.192   1.466
 4746SOL    HW215138   5.791   1.196   1.571
 4747SOL     OW15139   0.514   2.779   1.935
 4747SOL    HW115140   0.419   2.804   1.955
 4747SOL    HW215141   0.520   2.680   1.925
 4748SOL     OW15142   1.929   0.640   1.078
 4748SOL    HW115143   1.947   0.661   0.982
 4748SOL    HW215144   2.015   0.644   1.129
 4749SOL     OW15145   2.744   0.040   6.519
 4749SOL    HW115146   2.817   0.062   6.585
 4749SOL    HW215147   2.756   0.095   6.437
 4750SOL     OW15148   0.918   1.661   4.274
 4750SOL    HW115149   1.013   1.679   4.249
 4750SOL    HW215150   0.891   1.571   4.240
 4751SOL     OW15151   1.138   3.626   5.596
 4751SOL    HW115152   1.212   3.694   5.594
 4751SOL    HW215153   1.177   3.536   5.617
 4752SOL     OW15154   1.852   6.038   1.256
 4752SOL    HW115155   1.941   6.044   1.299
 4752SOL    HW215156   1.858   6.070   1.161
 4753SOL     OW15157   0.570   6.734   5.810
 4753SOL    HW115158   0.598   6.736   5.906
 4753SOL    HW215159   0.620   6.663   5.761
 4754SOL     OW15160   1.016   0.872   6.361
 4754SOL    HW115161   0.964   0.956   6.341
 4754SOL    HW215162   0.969   0.794   6.320
 4755SOL     OW15163   3.131   0.514   1.529
 4755SOL    HW115164   3.117   0.419   1.499
 4755SOL    HW215165   3.222   0.544   1.501
 4756SOL     OW15166   5.129   2.905   1.617
 4756SOL    HW115167   5.030   2.906   1.628
 4756SOL    HW215168   5.172   2.870   1.700
 4757SOL     OW15169   2.563   1.433   1.244
 4757SOL    HW115170   2.495   1.497   1.278
 4757SOL    HW215171   2.581   1.452   1.147
 4758SOL     OW15172   5.280   3.484   5.667
 4758SOL    HW115173   5.305   3.579   5.646
 4758SOL    HW215174   5.264   3.475   5.765
 4759SOL     OW15175   6.093   4.038   6.310
 4759SOL    HW115176   6.182   4.051   6.354
 4759SOL    HW215177   6.029   3.997   6.376
 4760SOL     OW15178   1.864   2.903   0.658
 4760SOL    HW115179   1.901   2.942   0.743
 4760SOL    HW215180   1.939   2.860   0.607
 4761SOL     OW15181   1.596   5.783   5.842
 4761SOL    HW115182   1.558   5.836   5.766
 4761SOL    HW215183   1.549   5.809   5.927
 4762SOL     OW15184   4.135   6.640   2.511
 4762SOL    HW115185   4.039   6.663   2.494
 4762SOL    HW215186   4.173   6.593   2.432
 4763SOL     OW15187   5.703   5.237   5.020
 4763SOL    HW115188   5.765   5.162   4.999
 4763SOL    HW215189   5.756   5.319   5.041
 4764SOL     OW15190   3.749   3.748   3.970
 4764SOL    HW115191   3.755   3.652   3.998
 4764SOL    HW215192   3.698   3.755   3.884
 4765SOL     OW15193   6.409   5.065   5.869
 4765SOL    HW115194   6.363   5.149   5.897
 4765SOL    HW215195   6.375   4.989   5.924
 4766SOL     OW15196   3.614   0.661   3.672
 4766SOL    HW115197   3.567   0.742   3.707
 4766SOL    HW215198   3.550   0.605   3.618
 4767SOL     OW15199   3.806   6.805   6.833
 4767SOL    HW115200   3.752   6.821   6.750
 4767SOL    HW215201   3.882   6.744   6.811
 4768SOL     OW15202   1.365   0.961   5.250
 4768SOL    HW115203   1.425   1.040   5.265
 4768SOL    HW215204   1.278   0.977   5.297
 4769SOL     OW15205   3.638   1.016   1.602
 4769SOL    HW115206   3.577   0.966   1.665
 4769SOL    HW215207   3.658   1.106   1.640
 4770SOL     OW15208   1.824   0.399   4.056
 4770SOL    HW115209   1.826   0.403   3.956
 4770SOL    HW215210   1.785   0.312   4.085
 4771SOL     OW15211   4.115   4.403   5.314
 4771SOL    HW115212   4.184   4.415   5.242
 4771SOL    HW215213   4.161   4.385   5.401
 4772SOL     OW15214   1.875   3.462   6.893
 4772SOL    HW115215   1.860   3.377   6.943
 4772SOL    HW215216   1.797   3.524   6.909
 4773SOL     OW15217   0.120   5.314   4.216
 4773SOL    HW115218   0.191   5.298   4.147
 4773SOL    HW215219   0.030   5.308   4.173
 4774SOL     OW15220   1.472   4.450   6.823
 4774SOL    HW115221   1.378   4.478   6.838
 4774SOL    HW215222   1.474   4.358   6.783
 4775SOL     OW15223   2.065   1.642   2.300
 4775SOL    HW115224   2.119   1.576   2.248
 4775SOL    HW215225   1.989   1.674   2.243
 4776SOL     OW15226   4.191   4.664   2.084
 4776SOL    HW115227   4.248   4.673   2.003
 4776SOL    HW215228   4.197   4.570   2.119
 4777SOL     OW15229   2.942   3.931   1.556
 4777SOL    HW115230   3.034   3.961   1.530
 4777SOL    HW215231   2.875   3.995   1.519
 4778SOL     OW15232   5.296   3.923   2.970
 4778SOL    HW115233   5.315   3.865   3.049
 4778SOL    HW215234   5.224   3.880   2.914
 4779SOL     OW15235   4.903   0.789   2.801
 4779SOL    HW115236   4.925   0.886   2.797
 4779SOL    HW215237   4.966   0.743   2.865
 4780SOL     OW15238   1.795   0.301   5.180
 4780SOL    HW115239   1.803   0.377   5.245
 4780SOL    HW215240   1.698   0.280   5.165
 4781SOL     OW15241   2.726   5.958   3.050
 4781SOL    HW115242   2.679   5.936   3.135
 4781SOL    HW215243   2.825   5.961   3.066
 4782SOL     OW15244   5.752   5.697   0.536
 4782SOL    HW115245   5.836   5.737   0.500
 4782SOL    HW215246   5.680   5.703   0.467
 4783SOL     OW15247   6.217   3.993   2.331
 4783SOL    HW115248   6.222   3.966   2.235
 4783SOL    HW215249   6.128   4.035   2.349
 4784SOL     OW15250   5.413   4.410   5.293
 4784SOL    HW115251   5.391   4.333   5.233
 4784SOL    HW215252   5.335   4.429   5.353
 4785SOL     OW15253   5.736   6.624   0.598
 4785SOL    HW115254   5.676   6.688   0.646
 4785SOL    HW215255   5.728   6.533   0.641
 4786SOL     OW15256   1.191   3.036   2.138
 4786SOL    HW115257   1.264   3.063   2.074
 4786SOL    HW215258   1.223   2.960   2.195
 4787SOL     OW15259   4.706   2.138   2.979
 4787SOL    HW115260   4.719   2.050   2.933
 4787SOL    HW215261   4.611   2.167   2.971
 4788SOL     OW15262   2.034   6.612   5.239
 4788SOL    HW115263   2.129   6.594   5.264
 4788SOL    HW215264   2.014   6.570   5.151
 4789SOL     OW15265   5.381   6.643   0.516
 4789SOL    HW115266   5.329   6.654   0.431
 4789SOL    HW215267   5.404   6.734   0.552
 4790SOL     OW15268   5.436   0.271   6.607
 4790SOL    HW115269   5.532   0.247   6.596
 4790SOL    HW215270   5.425   0.327   6.689
 4791SOL     OW15271   4.573   1.455   3.201
 4791SOL    HW115272   4.621   1.534   3.162
 4791SOL    HW215273   4.525   1.482   3.284
 4792SOL     OW15274   3.210   2.449   1.281
 4792SOL    HW115275   3.238   2.457   1.186
 4792SOL    HW215276   3.161   2.532   1.309
 4793SOL     OW15277   0.681   0.503   6.947
 4793SOL    HW115278   0.590   0.528   6.980
 4793SOL    HW215279   0.678   0.489   6.848
 4794SOL     OW15280   4.850   1.117   1.763
 4794SOL    HW115281   4.766   1.104   1.709
 4794SOL    HW215282   4.868   1.215   1.772
 4795SOL     OW15283   5.722   3.036   4.560
 4795SOL    HW115284   5.754   3.128   4.583
 4795SOL    HW215285   5.757   3.009   4.470
 4796SOL     OW15286   5.687   3.680   0.578
 4796SOL    HW115287   5.647   3.750   0.638
 4796SOL    HW215288   5.785   3.697   0.567
 4797SOL     OW15289   0.570   4.967   4.765
 4797SOL    HW115290   0.626   5.010   4.835
 4797SOL    HW215291   0.559   5.030   4.688
 4798SOL     OW15292   6.756   4.801   5.495
 4798SOL    HW115293   6.696   4.881   5.487
 4798SOL    HW215294   6.724   4.743   5.570
 4799SOL     OW15295   4.286   0.924   4.713
 4799SOL    HW115296   4.213   0.865   4.746
 4799SOL    HW215297   4.339   0.959   4.790
 4800SOL     OW15298   2.148   2.435   3.754
 4800SOL    HW115299   2.068   2.387   3.788
 4800SOL    HW215300   2.173   2.509   3.818
 4801SOL     OW15301   0.925   2.660   0.816
 4801SOL    HW115302   0.868   2.596   0.867
 4801SOL    HW215303   0.894   2.753   0.834
 4802SOL     OW15304   1.944   0.117   1.883
 4802SOL    HW115305   2.002   0.187   1.925
 4802SOL    HW215306   1.854   0.155   1.864
 4803SOL     OW15307   0.617   0.130   1.113
 4803SOL    HW115308   0.582   0.223   1.126
 4803SOL    HW215309   0.662   0.100   1.197
 4804SOL     OW15310   3.963   5.373   6.923
 4804SOL    HW115311   3.894   5.445   6.921
 4804SOL    HW215312   3.924   5.289   6.961
 4805SOL     OW15313   0.223   0.778   1.208
 4805SOL    HW115314   0.132   0.791   1.249
 4805SOL    HW215315   0.251   0.862   1.162
 4806SOL     OW15316   6.918   2.673   3.590
 4806SOL    HW115317   7.002   2.624   3.613
 4806SOL    HW215318   6.937   2.771   3.584
 4807SOL     OW15319   0.672   6.653   1.883
 4807SOL    HW115320   0.656   6.563   1.841
 4807SOL    HW215321   0.611   6.720   1.842
 4808SOL     OW15322   5.395   2.855   1.005
 4808SOL    HW115323   5.335   2.797   1.060
 4808SOL    HW215324   5.353   2.871   0.916
 4809SOL     OW15325   3.837   0.067   6.809
 4809SOL    HW115326   3.837   6.985   6.809
 4809SOL    HW215327   3.760   0.101   6.863
 4810SOL     OW15328   1.195   0.190   0.971
 4810SOL    HW115329   1.155   0.278   0.948
 4810SOL    HW215330   1.288   0.203   1.006
 4811SOL     OW15331   5.553   5.088   3.133
 4811SOL    HW115332   5.518   5.142   3.210
 4811SOL    HW215333   5.592   5.002   3.168
 4812SOL     OW15334   6.389   5.188   4.221
 4812SOL    HW115335   6.452   5.165   4.295
 4812SOL    HW215336   6.440   5.228   4.145
 4813SOL     OW15337   5.663   3.382   3.152
 4813SOL    HW115338   5.594   3.381   3.080
 4813SOL    HW215339   5.637   3.317   3.224
 4814SOL     OW15340   6.461   3.701   1.507
 4814SOL    HW115341   6.399   3.639   1.555
 4814SOL    HW215342   6.496   3.768   1.573
 4815SOL     OW15343   4.455   0.618   3.218
 4815SOL    HW115344   4.379   0.555   3.201
 4815SOL    HW215345   4.529   0.569   3.265
 4816SOL     OW15346   5.262   4.678   3.505
 4816SOL    HW115347   5.210   4.615   3.447
 4816SOL    HW215348   5.264   4.643   3.598
 4817SOL     OW15349   0.166   1.675   0.001
 4817SOL    HW115350   0.105   1.743   6.978
 4817SOL    HW215351   0.140   1.584   6.986
 4818SOL     OW15352   0.512   6.141   3.760
 4818SOL    HW115353   0.579   6.110   3.827
 4818SOL    HW215354   0.441   6.071   3.749
 4819SOL     OW15355   2.036   3.270   0.911
 4819SOL    HW115356   2.081   3.352   0.946
 4819SOL    HW215357   2.078   3.188   0.950
 4820SOL     OW15358   0.361   2.715   2.966
 4820SOL    HW115359   0.421   2.777   2.916
 4820SOL    HW215360   0.281   2.694   2.909
 4821SOL     OW15361   0.745   5.314   3.609
 4821SOL    HW115362   0.751   5.393   3.671
 4821SOL    HW215363   0.712   5.235   3.661
 4822SOL     OW15364   2.420   4.520   4.256
 4822SOL    HW115365   2.510   4.509   4.297
 4822SOL    HW215366   2.367   4.585   4.311
 4823SOL     OW15367   2.237   3.009   0.949
 4823SOL    HW115368   2.275   2.920   0.924
 4823SOL    HW215369   2.273   3.036   1.038
 4824SOL     OW15370   6.058   1.436   0.215
 4824SOL    HW115371   6.112   1.406   0.137
 4824SOL    HW215372   6.112   1.500   0.270
 4825SOL     OW15373   1.460   6.891   3.632
 4825SOL    HW115374   1.553   6.927   3.624
 4825SOL    HW215375   1.448   6.848   3.721
 4826SOL     OW15376   3.666   6.227   1.010
 4826SOL    HW115377   3.598   6.239   0.937
 4826SOL    HW215378   3.666   6.132   1.041
 4827SOL     OW15379   0.001   1.464   1.357
 4827SOL    HW115380   6.936   1.506   1.319
 4827SOL    HW215381   0.004   1.481   1.456
 4828SOL     OW15382   5.147   1.390   5.757
 4828SOL    HW115383   5.090   1.449   5.813
 4828SOL    HW215384   5.233   1.371   5.805
 4829SOL     OW15385   4.297   6.338   5.383
 4829SOL    HW115386   4.276   6.348   5.285
 4829SOL    HW215387   4.214   6.313   5.433
 4830SOL     OW15388   1.834   6.444   3.631
 4830SOL    HW115389   1.787   6.496   3.703
 4830SOL    HW215390   1.849   6.351   3.663
 4831SOL     OW15391   3.246   4.768   5.555
 4831SOL    HW115392   3.338   4.741   5.582
 4831SOL    HW215393   3.202   4.694   5.504
 4832SOL     OW15394   4.107   3.466   4.620
 4832SOL    HW115395   4.124   3.424   4.531
 4832SOL    HW215396   4.074   3.560   4.608
 4833SOL     OW15397   6.276   2.529   5.600
 4833SOL    HW115398   6.320   2.440   5.610
 4833SOL    HW215399   6.299   2.568   5.510
 4834SOL     OW15400   0.850   5.525   1.585
 4834SOL    HW115401   0.887   5.457   1.522
 4834SOL    HW215402   0.766   5.563   1.547
 4835SOL     OW15403   0.494   3.289   6.698
 4835SOL    HW115404   0.539   3.360   6.753
 4835SOL    HW215405   0.472   3.211   6.757
 4836SOL     OW15406   4.247   2.144   5.565
 4836SOL    HW115407   4.268   2.240   5.550
 4836SOL    HW215408   4.213   2.104   5.480
 4837SOL     OW15409   1.065   3.745   4.317
 4837SOL    HW115410   1.126   3.824   4.311
 4837SOL    HW215411   1.103   3.679   4.382
 4838SOL     OW15412   1.668   3.957   6.088
 4838SOL    HW115413   1.691   4.047   6.126
 4838SOL    HW215414   1.753   3.906   6.070
 4839SOL     OW15415   2.881   0.944   1.313
 4839SOL    HW115416   2.856   0.849   1.329
 4839SOL    HW215417   2.918   0.983   1.397
 4840SOL     OW15418   5.133   3.236   5.136
 4840SOL    HW115419   5.114   3.178   5.215
 4840SOL    HW215420   5.092   3.327   5.150
 4841SOL     OW15421   2.909   6.723   3.084
 4841SOL    HW115422   2.846   6.650   3.111
 4841SOL    HW215423   2.988   6.724   3.145
 4842SOL     OW15424   3.698   5.832   3.573
 4842SOL    HW115425   3.773   5.768   3.559
 4842SOL    HW215426   3.686   5.889   3.491
 4843SOL     OW15427   6.117   1.433   0.772
 4843SOL    HW115428   6.099   1.336   0.792
 4843SOL    HW215429   6.118   1.485   0.857
 4844SOL     OW15430   1.344   5.696   6.600
 4844SOL    HW115431   1.267   5.661   6.547
 4844SOL    HW215432   1.310   5.740   6.683
 4845SOL     OW15433   4.880   3.872   5.187
 4845SOL    HW115434   4.968   3.839   5.154
 4845SOL    HW215435   4.814   3.798   5.186
 4846SOL     OW15436   6.689   3.703   4.976
 4846SOL    HW115437   6.679   3.683   4.879
 4846SOL    HW215438   6.604   3.743   5.011
 4847SOL     OW15439   2.997   6.922   0.235
 4847SOL    HW115440   3.034   7.015   0.233
 4847SOL    HW215441   3.037   6.867   0.162
 4848SOL     OW15442   4.712   1.567   3.485
 4848SOL    HW115443   4.727   1.539   3.580
 4848SOL    HW215444   4.800   1.591   3.443
 4849SOL     OW15445   2.183   6.559   1.624
 4849SOL    HW115446   2.250   6.493   1.659
 4849SOL    HW215447   2.229   6.621   1.560
 4850SOL     OW15448   3.440   6.711   1.901
 4850SOL    HW115449   3.529   6.717   1.945
 4850SOL    HW215450   3.387   6.637   1.943
 4851SOL     OW15451   4.142   4.722   6.985
 4851SOL    HW115452   4.084   4.643   7.004
 4851SOL    HW215453   4.131   4.790   0.040
 4852SOL     OW15454   4.919   4.909   6.010
 4852SOL    HW115455   5.016   4.928   5.993
 4852SOL    HW215456   4.864   4.961   5.945
 4853SOL     OW15457   4.208   0.485   3.160
 4853SOL    HW115458   4.180   0.390   3.169
 4853SOL    HW215459   4.222   0.507   3.063
 4854SOL     OW15460   4.534   6.585   2.607
 4854SOL    HW115461   4.537   6.628   2.517
 4854SOL    HW215462   4.625   6.551   2.631
 4855SOL     OW15463   4.796   5.361   5.588
 4855SOL    HW115464   4.788   5.262   5.595
 4855SOL    HW215465   4.762   5.391   5.499
 4856SOL     OW15466   0.199   2.882   3.338
 4856SOL    HW115467   0.120   2.940   3.320
 4856SOL    HW215468   0.272   2.904   3.274
 4857SOL     OW15469   1.790   2.271   4.931
 4857SOL    HW115470   1.863   2.268   4.999
 4857SOL    HW215471   1.830   2.273   4.839
 4858SOL     OW15472   1.534   5.639   4.899
 4858SOL    HW115473   1.590   5.697   4.838
 4858SOL    HW215474   1.469   5.697   4.948
 4859SOL     OW15475   6.662   5.830   3.271
 4859SOL    HW115476   6.572   5.867   3.292
 4859SOL    HW215477   6.709   5.805   3.356
 4860SOL     OW15478   3.551   5.795   1.624
 4860SOL    HW115479   3.523   5.745   1.542
 4860SOL    HW215480   3.539   5.893   1.608
 4861SOL     OW15481   7.005   4.899   5.815
 4861SOL    HW115482   7.010   4.954   5.731
 4861SOL    HW215483   6.909   4.881   5.837
 4862SOL     OW15484   1.849   6.001   4.331
 4862SOL    HW115485   1.942   6.036   4.336
 4862SOL    HW215486   1.802   6.018   4.418
 4863SOL     OW15487   5.908   1.523   1.804
 4863SOL    HW115488   5.972   1.568   1.865
 4863SOL    HW215489   5.857   1.592   1.752
 4864SOL     OW15490   2.497   2.088   1.091
 4864SOL    HW115491   2.418   2.084   1.030
 4864SOL    HW215492   2.498   2.175   1.140
 4865SOL     OW15493   3.937   6.470   4.875
 4865SOL    HW115494   3.993   6.396   4.839
 4865SOL    HW215495   3.875   6.435   4.945
 4866SOL     OW15496   0.576   5.562   1.471
 4866SOL    HW115497   0.591   5.464   1.460
 4866SOL    HW215498   0.479   5.583   1.461
 4867SOL     OW15499   5.423   4.728   4.838
 4867SOL    HW115500   5.491   4.793   4.872
 4867SOL    HW215501   5.460   4.681   4.757
 4868SOL     OW15502   1.754   5.548   1.743
 4868SOL    HW115503   1.673   5.576   1.691
 4868SOL    HW215504   1.761   5.603   1.826
 4869SOL     OW15505   6.531   1.134   1.956
 4869SOL    HW115506   6.462   1.084   1.904
 4869SOL    HW215507   6.493   1.166   2.042
 4870SOL     OW15508   5.810   0.926   1.054
 4870SOL    HW115509   5.728   0.954   1.103
 4870SOL    HW215510   5.826   0.988   0.977
 4871SOL     OW15511   1.649   3.643   4.393
 4871SOL    HW115512   1.723   3.588   4.352
 4871SOL    HW215513   1.565   3.628   4.342
 4872SOL     OW15514   1.402   1.372   3.953
 4872SOL    HW115515   1.495   1.340   3.939
 4872SOL    HW215516   1.368   1.341   4.042
 4873SOL     OW15517   1.181   6.692   5.359
 4873SOL    HW115518   1.226   6.668   5.273
 4873SOL    HW215519   1.248   6.692   5.433
 4874SOL     OW15520   6.226   2.302   3.233
 4874SOL    HW115521   6.262   2.328   3.322
 4874SOL    HW215522   6.270   2.357   3.162
 4875SOL     OW15523   0.321   2.788   6.537
 4875SOL    HW115524   0.336   2.711   6.474
 4875SOL    HW215525   0.305   2.871   6.484
 4876SOL     OW15526   7.000   1.531   6.817
 4876SOL    HW115527   0.027   1.484   6.741
 4876SOL    HW215528   6.906   1.498   6.827
 4877SOL     OW15529   5.569   1.700   1.449
 4877SOL    HW115530   5.489   1.739   1.403
 4877SOL    HW215531   5.633   1.665   1.380
 4878SOL     OW15532   0.792   3.056   1.428
 4878SOL    HW115533   0.853   3.013   1.494
 4878SOL    HW215534   0.804   3.155   1.431
 4879SOL     OW15535   4.530   5.827   3.359
 4879SOL    HW115536   4.622   5.802   3.390
 4879SOL    HW215537   4.509   5.921   3.388
 4880SOL     OW15538   5.815   1.830   5.476
 4880SOL    HW115539   5.824   1.907   5.413
 4880SOL    HW215540   5.861   1.749   5.438
 4881SOL     OW15541   2.891   5.949   5.781
 4881SOL    HW115542   2.980   5.918   5.748
 4881SOL    HW215543   2.837   5.870   5.810
 4882SOL     OW15544   5.037   6.138   0.056
 4882SOL    HW115545   5.103   6.213   0.057
 4882SOL    HW215546   5.076   6.059   0.009
 4883SOL     OW15547   6.432   5.202   6.617
 4883SOL    HW115548   6.484   5.231   6.697
 4883SOL    HW215549   6.373   5.125   6.642
 4884SOL     OW15550   3.983   6.491   2.004
 4884SOL    HW115551   3.960   6.441   1.920
 4884SOL    HW215552   3.996   6.588   1.982
 4885SOL     OW15553   1.608   0.038   2.072
 4885SOL    HW115554   1.686   7.005   2.110
 4885SOL    HW215555   1.561   0.087   2.145
 4886SOL     OW15556   5.653   0.655   5.570
 4886SOL    HW115557   5.696   0.566   5.551
 4886SOL    HW215558   5.681   0.687   5.660
 4887SOL     OW15559   0.653   1.600   5.141
 4887SOL    HW115560   0.720   1.674   5.145
 4887SOL    HW215561   0.561   1.638   5.154
 4888SOL     OW15562   3.455   6.243   2.047
 4888SOL    HW115563   3.441   6.306   2.123
 4888SOL    HW215564   3.368   6.205   2.017
 4889SOL     OW15565   1.205   3.343   6.867
 4889SOL    HW115566   1.243   3.430   6.897
 4889SOL    HW215567   1.209   3.337   6.767
 4890SOL     OW15568   0.319   0.564   4.259
 4890SOL    HW115569   0.291   0.514   4.341
 4890SOL    HW215570   0.314   0.662   4.277
 4891SOL     OW15571   0.983   4.293   0.647
 4891SOL    HW115572   1.082   4.281   0.643
 4891SOL    HW215573   0.961   4.389   0.662
 4892SOL     OW15574   2.374   5.186   2.143
 4892SOL    HW115575   2.356   5.266   2.085
 4892SOL    HW215576   2.337   5.104   2.099
 4893SOL     OW15577   0.418   3.843   6.633
 4893SOL    HW115578   0.510   3.803   6.631
 4893SOL    HW215579   0.372   3.814   6.717
 4894SOL     OW15580   0.693   6.902   2.805
 4894SOL    HW115581   0.671   6.882   2.710
 4894SOL    HW215582   0.793   6.906   2.816
 4895SOL     OW15583   5.904   4.162   6.685
 4895SOL    HW115584   5.907   4.073   6.640
 4895SOL    HW215585   5.846   4.224   6.633
 4896SOL     OW15586   4.585   6.492   4.042
 4896SOL    HW115587   4.588   6.588   4.015
 4896SOL    HW215588   4.495   6.453   4.018
 4897SOL     OW15589   2.549   6.108   6.609
 4897SOL    HW115590   2.468   6.118   6.551
 4897SOL    HW215591   2.629   6.090   6.552
 4898SOL     OW15592   5.789   1.837   4.673
 4898SOL    HW115593   5.832   1.919   4.636
 4898SOL    HW215594   5.700   1.860   4.712
 4899SOL     OW15595   5.097   4.592   4.310
 4899SOL    HW115596   5.153   4.633   4.238
 4899SOL    HW215597   5.155   4.568   4.388
 4900SOL     OW15598   0.866   6.251   4.656
 4900SOL    HW115599   0.800   6.320   4.626
 4900SOL    HW215600   0.922   6.287   4.731
 4901SOL     OW15601   0.096   6.402   3.240
 4901SOL    HW115602   0.146   6.322   3.206
 4901SOL    HW215603   0.019   6.421   3.180
 4902SOL     OW15604   3.529   4.427   1.193
 4902SOL    HW115605   3.515   4.464   1.285
 4902SOL    HW215606   3.483   4.339   1.184
 4903SOL     OW15607   5.187   5.205   5.995
 4903SOL    HW115608   5.287   5.206   6.000
 4903SOL    HW215609   5.156   5.274   5.928
 4904SOL     OW15610   2.840   0.113   3.553
 4904SOL    HW115611   2.869   0.082   3.463
 4904SOL    HW215612   2.876   0.205   3.571
 4905SOL     OW15613   6.322   2.975   3.315
 4905SOL    HW115614   6.311   3.071   3.338
 4905SOL    HW215615   6.340   2.966   3.217
 4906SOL     OW15616   5.161   0.579   1.048
 4906SOL    HW115617   5.209   0.639   0.985
 4906SOL    HW215618   5.075   0.621   1.076
 4907SOL     OW15619   2.866   1.779   1.844
 4907SOL    HW115620   2.824   1.716   1.779
 4907SOL    HW215621   2.869   1.871   1.804
 4908SOL     OW15622   4.181   6.279   0.482
 4908SOL    HW115623   4.147   6.313   0.570
 4908SOL    HW215624   4.107   6.232   0.434
 4909SOL     OW15625   6.590   6.991   5.018
 4909SOL    HW115626   6.674   0.000   4.969
 4909SOL    HW215627   6.588   0.021   5.107
 4910SOL     OW15628   5.582   6.358   6.033
 4910SOL    HW115629   5.526   6.386   6.111
 4910SOL    HW215630   5.522   6.335   5.956
 4911SOL     OW15631   0.853   4.016   6.491
 4911SOL    HW115632   0.952   4.008   6.493
 4911SOL    HW215633   0.818   3.977   6.405
 4912SOL     OW15634   2.353   2.382   1.443
 4912SOL    HW115635   2.296   2.431   1.377
 4912SOL    HW215636   2.365   2.438   1.525
 4913SOL     OW15637   2.506   2.964   1.692
 4913SOL    HW115638   2.557   3.044   1.722
 4913SOL    HW215639   2.477   2.977   1.597
 4914SOL     OW15640   1.486   6.924   2.414
 4914SOL    HW115641   1.543   6.843   2.433
 4914SOL    HW215642   1.484   6.983   2.495
 4915SOL     OW15643   2.958   6.489   3.389
 4915SOL    HW115644   3.057   6.481   3.383
 4915SOL    HW215645   2.933   6.519   3.481
 4916SOL     OW15646   1.752   1.880   2.327
 4916SOL    HW115647   1.789   1.973   2.332
 4916SOL    HW215648   1.656   1.880   2.354
 4917SOL     OW15649   2.003   4.201   6.120
 4917SOL    HW115650   1.967   4.108   6.118
 4917SOL    HW215651   1.933   4.265   6.090
 4918SOL     OW15652   2.051   0.172   3.698
 4918SOL    HW115653   2.118   0.110   3.658
 4918SOL    HW215654   2.079   0.266   3.682
 4919SOL     OW15655   2.327   3.269   1.665
 4919SOL    HW115656   2.362   3.339   1.727
 4919SOL    HW215657   2.339   3.178   1.707
 4920SOL     OW15658   3.514   0.874   0.223
 4920SOL    HW115659   3.539   0.879   0.320
 4920SOL    HW215660   3.584   0.822   0.174
 4921SOL     OW15661   6.942   4.811   1.493
 4921SOL    HW115662   7.000   4.796   1.413
 4921SOL    HW215663   6.907   4.723   1.526
 4922SOL     OW15664   1.260   2.714   6.285
 4922SOL    HW115665   1.230   2.797   6.238
 4922SOL    HW215666   1.213   2.707   6.373
 4923SOL     OW15667   2.619   2.577   6.717
 4923SOL    HW115668   2.581   2.615   6.802
 4923SOL    HW215669   2.715   2.555   6.730
 4924SOL     OW15670   0.006   3.520   4.355
 4924SOL    HW115671   6.956   3.488   4.422
 4924SOL    HW215672   6.975   3.564   4.279
 4925SOL     OW15673   4.896   5.539   5.806
 4925SOL    HW115674   4.859   5.474   5.739
 4925SOL    HW215675   4.875   5.507   5.898
 4926SOL     OW15676   4.206   3.027   0.702
 4926SOL    HW115677   4.189   3.063   0.610
 4926SOL    HW215678   4.190   2.928   0.702
 4927SOL     OW15679   2.854   3.583   2.256
 4927SOL    HW115680   2.790   3.658   2.267
 4927SOL    HW215681   2.910   3.598   2.174
 4928SOL     OW15682   0.562   0.300   0.430
 4928SOL    HW115683   0.518   0.213   0.454
 4928SOL    HW215684   0.523   0.334   0.345
 4929SOL     OW15685   1.262   4.643   4.373
 4929SOL    HW115686   1.198   4.576   4.334
 4929SOL    HW215687   1.291   4.707   4.303
 4930SOL     OW15688   0.298   3.032   0.561
 4930SOL    HW115689   0.231   3.018   0.488
 4930SOL    HW215690   0.337   2.944   0.588
 4931SOL     OW15691   6.185   6.460   1.248
 4931SOL    HW115692   6.253   6.531   1.259
 4931SOL    HW215693   6.139   6.470   1.160
 4932SOL     OW15694   3.521   1.640   0.892
 4932SOL    HW115695   3.569   1.552   0.890
 4932SOL    HW215696   3.463   1.644   0.974
 4933SOL     OW15697   2.890   0.341   4.774
 4933SOL    HW115698   2.821   0.276   4.742
 4933SOL    HW215699   2.962   0.350   4.706
 4934SOL     OW15700   2.199   5.613   5.259
 4934SOL    HW115701   2.237   5.521   5.265
 4934SOL    HW215702   2.274   5.679   5.250
 4935SOL     OW15703   1.999   2.106   0.374
 4935SOL    HW115704   1.934   2.155   0.316
 4935SOL    HW215705   2.000   2.147   0.465
 4936SOL     OW15706   5.545   5.099   1.154
 4936SOL    HW115707   5.556   5.174   1.089
 4936SOL    HW215708   5.477   5.123   1.223
 4937SOL     OW15709   0.722   3.564   4.763
 4937SOL    HW115710   0.653   3.571   4.692
 4937SOL    HW215711   0.802   3.619   4.738
 4938SOL     OW15712   3.524   4.455   1.697
 4938SOL    HW115713   3.426   4.478   1.694
 4938SOL    HW215714   3.574   4.529   1.742
 4939SOL     OW15715   1.011   1.594   1.216
 4939SOL    HW115716   1.009   1.681   1.168
 4939SOL    HW215717   0.984   1.608   1.312
 4940SOL     OW15718   1.048   1.961   5.526
 4940SOL    HW115719   0.997   1.901   5.464
 4940SOL    HW215720   1.043   2.055   5.492
 4941SOL     OW15721   3.922   2.693   5.315
 4941SOL    HW115722   4.005   2.653   5.277
 4941SOL    HW215723   3.845   2.631   5.300
 4942SOL     OW15724   0.035   1.384   3.108
 4942SOL    HW115725   6.958   1.359   3.085
 4942SOL    HW215726   0.041   1.483   3.120
 4943SOL     OW15727   4.604   2.409   6.728
 4943SOL    HW115728   4.702   2.421   6.747
 4943SOL    HW215729   4.578   2.314   6.746
 4944SOL     OW15730   0.991   4.807   0.462
 4944SOL    HW115731   0.953   4.766   0.379
 4944SOL    HW215732   0.925   4.871   0.501
 4945SOL     OW15733   2.689   0.273   5.817
 4945SOL    HW115734   2.766   0.220   5.854
 4945SOL    HW215735   2.665   0.345   5.882
 4946SOL     OW15736   2.687   5.655   0.143
 4946SOL    HW115737   2.654   5.612   0.059
 4946SOL    HW215738   2.733   5.587   0.199
 4947SOL     OW15739   0.602   0.276   0.860
 4947SOL    HW115740   0.639   0.295   0.950
 4947SOL    HW215741   0.563   0.184   0.857
 4948SOL     OW15742   1.781   2.393   1.889
 4948SOL    HW115743   1.792   2.311   1.833
 4948SOL    HW215744   1.702   2.445   1.856
 4949SOL     OW15745   6.699   4.655   5.709
 4949SOL    HW115746   6.673   4.717   5.783
 4949SOL    HW215747   6.777   4.600   5.738
 4950SOL     OW15748   3.986   4.183   5.562
 4950SOL    HW115749   3.890   4.199   5.583
 4950SOL    HW215750   4.042   4.254   5.604
 4951SOL     OW15751   4.982   5.259   2.873
 4951SOL    HW115752   4.948   5.352   2.858
 4951SOL    HW215753   5.062   5.262   2.933
 4952SOL     OW15754   0.961   0.876   6.834
 4952SOL    HW115755   0.946   0.912   6.926
 4952SOL    HW215756   1.053   0.900   6.802
 4953SOL     OW15757   1.377   2.285   4.932
 4953SOL    HW115758   1.400   2.377   4.900
 4953SOL    HW215759   1.423   2.267   5.019
 4954SOL     OW15760   2.820   3.649   5.205
 4954SOL    HW115761   2.769   3.732   5.228
 4954SOL    HW215762   2.762   3.587   5.152
 4955SOL     OW15763   3.825   5.850   6.587
 4955SOL    HW115764   3.817   5.891   6.677
 4955SOL    HW215765   3.900   5.894   6.536
 4956SOL     OW15766   2.554   0.351   4.647
 4956SOL    HW115767   2.595   0.270   4.606
 4956SOL    HW215768   2.460   0.330   4.674
 4957SOL     OW15769   5.856   5.282   0.066
 4957SOL    HW115770   5.944   5.326   0.081
 4957SOL    HW215771   5.857   5.191   0.108
 4958SOL     OW15772   3.346   5.343   0.331
 4958SOL    HW115773   3.288   5.278   0.379
 4958SOL    HW215774   3.336   5.330   0.232
 4959SOL     OW15775   6.885   2.424   2.756
 4959SOL    HW115776   6.952   2.358   2.791
 4959SOL    HW215777   6.797   2.408   2.800
 4960SOL     OW15778   5.306   4.414   3.839
 4960SOL    HW115779   5.404   4.427   3.850
 4960SOL    HW215780   5.262   4.503   3.822
 4961SOL     OW15781   3.279   2.813   1.944
 4961SOL    HW115782   3.364   2.795   1.895
 4961SOL    HW215783   3.298   2.834   2.039
 4962SOL     OW15784   1.609   2.604   0.262
 4962SOL    HW115785   1.574   2.527   0.209
 4962SOL    HW215786   1.620   2.684   0.203
 4963SOL     OW15787   0.881   4.134   6.133
 4963SOL    HW115788   0.969   4.180   6.135
 4963SOL    HW215789   0.823   4.175   6.062
 4964SOL     OW15790   2.088   5.306   4.481
 4964SOL    HW115791   2.106   5.334   4.386
 4964SOL    HW215792   1.994   5.328   4.505
 4965SOL     OW15793   2.444   6.975   2.936
 4965SOL    HW115794   2.456   6.892   2.883
 4965SOL    HW215795   2.515   6.980   3.006
 4966SOL     OW15796   4.027   0.213   5.333
 4966SOL    HW115797   4.091   0.190   5.406
 4966SOL    HW215798   4.078   0.233   5.249
 4967SOL     OW15799   4.220   4.824   4.206
 4967SOL    HW115800   4.228   4.792   4.301
 4967SOL    HW215801   4.255   4.753   4.145
 4968SOL     OW15802   6.851   2.925   3.881
 4968SOL    HW115803   6.828   2.945   3.786
 4968SOL    HW215804   6.905   3.000   3.919
 4969SOL     OW15805   0.414   6.019   4.119
 4969SOL    HW115806   0.426   6.025   4.218
 4969SOL    HW215807   0.489   6.069   4.074
 4970SOL     OW15808   1.859   1.808   1.618
 4970SOL    HW115809   1.940   1.750   1.607
 4970SOL    HW215810   1.868   1.888   1.559
 4971SOL     OW15811   0.039   5.920   1.505
 4971SOL    HW115812   6.963   5.930   1.470
 4971SOL    HW215813   0.080   6.011   1.515
 4972SOL     OW15814   0.364   4.511   0.319
 4972SOL    HW115815   0.455   4.518   0.278
 4972SOL    HW215816   0.310   4.445   0.267
 4973SOL     OW15817   5.820   1.286   0.420
 4973SOL    HW115818   5.882   1.352   0.380
 4973SOL    HW215819   5.804   1.309   0.516
 4974SOL     OW15820   3.501   6.920   4.843
 4974SOL    HW115821   3.600   6.929   4.855
 4974SOL    HW215822   3.460   7.011   4.841
 4975SOL     OW15823   4.903   4.627   0.963
 4975SOL    HW115824   4.871   4.549   0.909
 4975SOL    HW215825   5.001   4.639   0.949
 4976SOL     OW15826   0.760   6.758   3.814
 4976SOL    HW115827   0.834   6.787   3.754
 4976SOL    HW215828   0.677   6.744   3.759
 4977SOL     OW15829   1.610   3.812   5.540
 4977SOL    HW115830   1.564   3.832   5.453
 4977SOL    HW215831   1.584   3.881   5.608
 4978SOL     OW15832   6.172   4.360   4.747
 4978SOL    HW115833   6.155   4.394   4.839
 4978SOL    HW215834   6.085   4.334   4.704
 4979SOL     OW15835   2.418   6.839   6.711
 4979SOL    HW115836   2.506   6.795   6.694
 4979SOL    HW215837   2.430   6.915   6.774
 4980SOL     OW15838   5.841   2.810   4.304
 4980SOL    HW115839   5.922   2.752   4.310
 4980SOL    HW215840   5.869   2.904   4.287
 4981SOL     OW15841   3.276   5.985   3.328
 4981SOL    HW115842   3.256   5.937   3.413
 4981SOL    HW215843   3.351   6.049   3.343
 4982SOL     OW15844   3.910   2.130   4.868
 4982SOL    HW115845   3.836   2.197   4.863
 4982SOL    HW215846   3.933   2.113   4.964
 4983SOL     OW15847   5.944   4.331   2.525
 4983SOL    HW115848   5.849   4.351   2.548
 4983SOL    HW215849   5.982   4.267   2.592
 4984SOL     OW15850   4.959   3.756   4.888
 4984SOL    HW115851   4.927   3.755   4.793
 4984SOL    HW215852   4.897   3.700   4.944
 4985SOL     OW15853   5.710   0.450   2.306
 4985SOL    HW115854   5.629   0.416   2.258
 4985SOL    HW215855   5.732   0.388   2.382
 4986SOL     OW15856   0.606   5.251   1.136
 4986SOL    HW115857   0.583   5.286   1.226
 4986SOL    HW215858   0.569   5.311   1.066
 4987SOL     OW15859   1.541   1.896   3.036
 4987SOL    HW115860   1.442   1.898   3.044
 4987SOL    HW215861   1.569   1.947   2.954
 4988SOL     OW15862   6.288   5.444   4.058
 4988SOL    HW115863   6.378   5.402   4.045
 4988SOL    HW215864   6.285   5.488   4.148
 4989SOL     OW15865   5.959   0.236   3.800
 4989SOL    HW115866   5.915   0.316   3.760
 4989SOL    HW215867   5.941   0.156   3.743
 4990SOL     OW15868   4.619   1.983   6.337
 4990SOL    HW115869   4.676   2.015   6.262
 4990SOL    HW215870   4.554   1.915   6.303
 4991SOL     OW15871   1.909   5.782   6.133
 4991SOL    HW115872   1.936   5.817   6.043
 4991SOL    HW215873   1.984   5.728   6.171
 4992SOL     OW15874   1.428   3.843   4.484
 4992SOL    HW115875   1.361   3.813   4.552
 4992SOL    HW215876   1.513   3.791   4.496
 4993SOL     OW15877   1.936   6.182   3.728
 4993SOL    HW115878   2.022   6.231   3.740
 4993SOL    HW215879   1.943   6.091   3.769
 4994SOL     OW15880   4.110   5.137   5.254
 4994SOL    HW115881   4.146   5.063   5.197
 4994SOL    HW215882   4.013   5.149   5.235
 4995SOL     OW15883   0.252   0.655   6.142
 4995SOL    HW115884   0.337   0.616   6.177
 4995SOL    HW215885   0.269   0.696   6.053
 4996SOL     OW15886   0.102   0.862   3.989
 4996SOL    HW115887   0.163   0.940   4.005
 4996SOL    HW215888   0.011   0.883   4.024
 4997SOL     OW15889   3.916   1.512   0.987
 4997SOL    HW115890   3.916   1.474   0.895
 4997SOL    HW215891   4.008   1.544   1.010
 4998SOL     OW15892   0.899   3.816   3.440
 4998SOL    HW115893   0.821   3.866   3.402
 4998SOL    HW215894   0.961   3.791   3.365
 4999SOL     OW15895   0.977   2.645   3.611
 4999SOL    HW115896   1.031   2.728   3.628
 4999SOL    HW215897   0.921   2.659   3.530
 5000SOL     OW15898   2.603   6.718   3.485
 5000SOL    HW115899   2.635   6.673   3.402
 5000SOL    HW215900   2.509   6.749   3.473
 5001SOL     OW15901   0.271   5.654   3.189
 5001SOL    HW115902   0.338   5.660   3.263
 5001SOL    HW215903   0.184   5.692   3.220
 5002SOL     OW15904   1.235   4.801   4.120
 5002SOL    HW115905   1.229   4.796   4.021
 5002SOL    HW215906   1.331   4.796   4.148
 5003SOL     OW15907   3.622   0.683   2.555
 5003SOL    HW115908   3.691   0.677   2.627
 5003SOL    HW215909   3.624   0.775   2.515
 5004SOL     OW15910   3.647   6.128   0.215
 5004SOL    HW115911   3.591   6.196   0.168
 5004SOL    HW215912   3.734   6.117   0.165
 5005SOL     OW15913   3.107   2.776   0.928
 5005SOL    HW115914   3.192   2.747   0.885
 5005SOL    HW215915   3.078   2.864   0.888
 5006SOL     OW15916   5.367   0.992   2.200
 5006SOL    HW115917   5.450   1.017   2.250
 5006SOL    HW215918   5.316   0.925   2.253
 5007SOL     OW15919   6.174   5.697   1.935
 5007SOL    HW115920   6.151   5.606   1.901
 5007SOL    HW215921   6.148   5.704   2.031
 5008SOL     OW15922   5.483   0.611   3.586
 5008SOL    HW115923   5.560   0.558   3.549
 5008SOL    HW215924   5.509   0.707   3.594
 5009SOL     OW15925   0.113   2.003   0.705
 5009SOL    HW115926   0.182   1.934   0.683
 5009SOL    HW215927   0.030   1.985   0.653
 5010SOL     OW15928   4.507   3.547   1.319
 5010SOL    HW115929   4.436   3.510   1.378
 5010SOL    HW215930   4.512   3.646   1.330
 5011SOL     OW15931   1.860   2.773   6.179
 5011SOL    HW115932   1.891   2.831   6.104
 5011SOL    HW215933   1.788   2.711   6.146
 5012SOL     OW15934   6.119   1.120   6.201
 5012SOL    HW115935   6.188   1.085   6.137
 5012SOL    HW215936   6.052   1.175   6.151
 5013SOL     OW15937   5.234   6.957   5.719
 5013SOL    HW115938   5.182   0.009   5.769
 5013SOL    HW215939   5.319   6.937   5.767
 5014SOL     OW15940   5.512   3.138   1.552
 5014SOL    HW115941   5.447   3.124   1.476
 5014SOL    HW215942   5.511   3.234   1.579
 5015SOL     OW15943   6.317   5.498   4.334
 5015SOL    HW115944   6.395   5.559   4.349
 5015SOL    HW215945   6.314   5.430   4.407
 5016SOL     OW15946   1.645   3.249   6.311
 5016SOL    HW115947   1.705   3.329   6.315
 5016SOL    HW215948   1.613   3.225   6.403
 5017SOL     OW15949   0.249   2.512   2.055
 5017SOL    HW115950   0.296   2.598   2.076
 5017SOL    HW215951   0.160   2.531   2.013
 5018SOL     OW15952   1.340   0.706   6.851
 5018SOL    HW115953   1.338   0.805   6.840
 5018SOL    HW215954   1.435   0.674   6.852
 5019SOL     OW15955   1.672   4.467   4.232
 5019SOL    HW115956   1.623   4.426   4.155
 5019SOL    HW215957   1.668   4.567   4.224
 5020SOL     OW15958   2.050   0.157   4.316
 5020SOL    HW115959   2.071   0.205   4.232
 5020SOL    HW215960   2.058   0.219   4.394
 5021SOL     OW15961   2.316   0.985   1.120
 5021SOL    HW115962   2.260   1.067   1.136
 5021SOL    HW215963   2.346   0.983   1.025
 5022SOL     OW15964   6.705   2.829   1.116
 5022SOL    HW115965   6.713   2.915   1.065
 5022SOL    HW215966   6.614   2.823   1.157
 5023SOL     OW15967   0.511   4.300   2.629
 5023SOL    HW115968   0.540   4.204   2.637
 5023SOL    HW215969   0.494   4.321   2.532
 5024SOL     OW15970   4.716   3.698   0.671
 5024SOL    HW115971   4.770   3.621   0.638
 5024SOL    HW215972   4.626   3.665   0.700
 5025SOL     OW15973   4.501   1.751   4.589
 5025SOL    HW115974   4.406   1.746   4.620
 5025SOL    HW215975   4.561   1.718   4.661
 5026SOL     OW15976   5.317   6.525   4.369
 5026SOL    HW115977   5.350   6.589   4.439
 5026SOL    HW215978   5.225   6.551   4.341
 5027SOL     OW15979   5.169   6.449   0.890
 5027SOL    HW115980   5.161   6.354   0.918
 5027SOL    HW215981   5.219   6.454   0.803
 5028SOL     OW15982   5.801   1.999   2.213
 5028SOL    HW115983   5.826   1.902   2.212
 5028SOL    HW215984   5.750   2.019   2.296
 5029SOL     OW15985   5.271   1.813   2.088
 5029SOL    HW115986   5.197   1.767   2.039
 5029SOL    HW215987   5.343   1.746   2.109
 5030SOL     OW15988   0.628   3.623   6.887
 5030SOL    HW115989   0.607   3.669   6.973
 5030SOL    HW215990   0.542   3.591   6.845
 5031SOL     OW15991   6.306   0.317   5.867
 5031SOL    HW115992   6.301   0.405   5.913
 5031SOL    HW215993   6.277   0.245   5.929
 5032SOL     OW15994   2.587   3.615   5.937
 5032SOL    HW115995   2.538   3.535   5.972
 5032SOL    HW215996   2.619   3.671   6.013
 5033SOL     OW15997   2.306   0.049   6.138
 5033SOL    HW115998   2.324   0.014   6.230
 5033SOL    HW215999   2.367   0.005   6.072
 5034SOL     OW16000   4.198   6.324   4.730
 5034SOL    HW116001   4.281   6.361   4.687
 5034SOL    HW216002   4.160   6.252   4.672
 5035SOL     OW16003   1.813   3.695   4.085
 5035SOL    HW116004   1.908   3.685   4.114
 5035SOL    HW216005   1.775   3.779   4.123
 5036SOL     OW16006   1.418   2.556   4.873
 5036SOL    HW116007   1.461   2.583   4.788
 5036SOL    HW216008   1.319   2.551   4.861
 5037SOL     OW16009   4.668   3.900   1.098
 5037SOL    HW116010   4.702   3.816   1.139
 5037SOL    HW216011   4.684   3.977   1.160
 5038SOL     OW16012   3.168   3.513   3.237
 5038SOL    HW116013   3.108   3.573   3.291
 5038SOL    HW216014   3.230   3.464   3.298
 5039SOL     OW16015   1.240   3.755   0.487
 5039SOL    HW116016   1.180   3.678   0.508
 5039SOL    HW216017   1.301   3.731   0.411
 5040SOL     OW16018   0.288   1.569   5.804
 5040SOL    HW116019   0.349   1.574   5.883
 5040SOL    HW216020   0.332   1.613   5.726
 5041SOL     OW16021   6.664   1.995   1.300
 5041SOL    HW116022   6.630   2.029   1.212
 5041SOL    HW216023   6.760   1.968   1.290
 5042SOL     OW16024   1.154   2.471   5.967
 5042SOL    HW116025   1.140   2.399   5.898
 5042SOL    HW216026   1.101   2.552   5.942
 5043SOL     OW16027   3.986   6.598   1.622
 5043SOL    HW116028   4.053   6.529   1.597
 5043SOL    HW216029   3.903   6.585   1.568
 5044SOL     OW16030   6.654   5.594   6.992
 5044SOL    HW116031   6.714   5.675   6.990
 5044SOL    HW216032   6.682   5.535   0.051
 5045SOL     OW16033   5.667   2.650   0.151
 5045SOL    HW116034   5.597   2.722   0.151
 5045SOL    HW216035   5.684   2.621   0.057
 5046SOL     OW16036   3.746   3.278   2.289
 5046SOL    HW116037   3.728   3.184   2.317
 5046SOL    HW216038   3.830   3.282   2.234
 5047SOL     OW16039   1.838   3.882   3.844
 5047SOL    HW116040   1.921   3.937   3.849
 5047SOL    HW216041   1.832   3.824   3.925
 5048SOL     OW16042   2.815   0.582   6.789
 5048SOL    HW116043   2.879   0.657   6.801
 5048SOL    HW216044   2.861   0.505   6.745
 5049SOL     OW16045   4.518   1.857   7.000
 5049SOL    HW116046   4.575   1.776   6.984
 5049SOL    HW216047   4.422   1.833   6.983
 5050SOL     OW16048   1.651   0.462   0.580
 5050SOL    HW116049   1.568   0.444   0.527
 5050SOL    HW216050   1.661   0.560   0.594
 5051SOL     OW16051   4.905   5.012   1.223
 5051SOL    HW116052   4.931   4.917   1.204
 5051SOL    HW216053   4.971   5.073   1.180
 5052SOL     OW16054   2.170   2.355   4.790
 5052SOL    HW116055   2.179   2.417   4.868
 5052SOL    HW216056   2.154   2.408   4.707
 5053SOL     OW16057   0.568   1.325   1.454
 5053SOL    HW116058   0.512   1.358   1.378
 5053SOL    HW216059   0.641   1.392   1.472
 5054SOL     OW16060   3.972   5.785   3.994
 5054SOL    HW116061   3.929   5.720   3.931
 5054SOL    HW216062   4.063   5.809   3.960
 5055SOL     OW16063   0.195   3.816   6.062
 5055SOL    HW116064   0.154   3.891   6.115
 5055SOL    HW216065   0.162   3.729   6.098
 5056SOL     OW16066   5.818   3.891   3.746
 5056SOL    HW116067   5.730   3.918   3.785
 5056SOL    HW216068   5.864   3.972   3.709
 5057SOL     OW16069   0.359   5.517   2.262
 5057SOL    HW116070   0.428   5.590   2.258
 5057SOL    HW216071   0.298   5.525   2.183
 5058SOL     OW16072   2.780   5.094   5.711
 5058SOL    HW116073   2.755   5.001   5.738
 5058SOL    HW216074   2.849   5.130   5.775
 5059SOL     OW16075   6.752   0.435   2.228
 5059SOL    HW116076   6.706   0.394   2.307
 5059SOL    HW216077   6.805   0.515   2.258
 5060SOL     OW16078   6.892   2.527   6.276
 5060SOL    HW116079   6.933   2.437   6.270
 5060SOL    HW216080   6.793   2.519   6.284
 5061SOL     OW16081   5.148   4.365   1.165
 5061SOL    HW116082   5.067   4.319   1.127
 5061SOL    HW216083   5.121   4.423   1.241
 5062SOL     OW16084   6.495   0.405   0.860
 5062SOL    HW116085   6.442   0.320   0.857
 5062SOL    HW216086   6.532   0.418   0.952
 5063SOL     OW16087   1.454   6.074   2.176
 5063SOL    HW116088   1.508   6.071   2.260
 5063SOL    HW216089   1.378   6.010   2.184
 5064SOL     OW16090   5.120   3.446   0.214
 5064SOL    HW116091   5.028   3.475   0.187
 5064SOL    HW216092   5.163   3.397   0.138
 5065SOL     OW16093   2.754   6.477   5.532
 5065SOL    HW116094   2.785   6.445   5.621
 5065SOL    HW216095   2.681   6.545   5.545
 5066SOL     OW16096   4.946   5.371   1.261
 5066SOL    HW116097   4.850   5.386   1.236
 5066SOL    HW216098   4.950   5.325   1.350
 5067SOL     OW16099   5.235   1.166   6.728
 5067SOL    HW116100   5.233   1.119   6.817
 5067SOL    HW216101   5.327   1.198   6.710
 5068SOL     OW16102   3.567   4.906   1.340
 5068SOL    HW116103   3.536   4.849   1.264
 5068SOL    HW216104   3.528   4.871   1.425
 5069SOL     OW16105   6.929   5.186   2.461
 5069SOL    HW116106   6.949   5.211   2.556
 5069SOL    HW216107   6.835   5.156   2.454
 5070SOL     OW16108   4.867   3.463   4.259
 5070SOL    HW116109   4.836   3.547   4.216
 5070SOL    HW216110   4.882   3.479   4.357
 5071SOL     OW16111   4.179   1.223   6.865
 5071SOL    HW116112   4.277   1.201   6.864
 5071SOL    HW216113   4.137   1.186   6.948
 5072SOL     OW16114   1.065   4.145   1.347
 5072SOL    HW116115   1.034   4.173   1.256
 5072SOL    HW216116   1.025   4.206   1.415
 5073SOL     OW16117   4.377   2.016   4.389
 5073SOL    HW116118   4.450   2.042   4.325
 5073SOL    HW216119   4.408   2.029   4.483
 5074SOL     OW16120   4.022   4.821   5.028
 5074SOL    HW116121   4.096   4.885   5.045
 5074SOL    HW216122   4.010   4.761   5.107
 5075SOL     OW16123   6.531   6.777   3.935
 5075SOL    HW116124   6.625   6.808   3.949
 5075SOL    HW216125   6.473   6.815   4.007
 5076SOL     OW16126   3.997   0.710   1.404
 5076SOL    HW116127   3.981   0.623   1.357
 5076SOL    HW216128   3.997   0.696   1.503
 5077SOL     OW16129   6.779   2.681   2.491
 5077SOL    HW116130   6.862   2.634   2.461
 5077SOL    HW216131   6.804   2.766   2.538
 5078SOL     OW16132   6.945   1.151   3.958
 5078SOL    HW116133   7.016   1.220   3.970
 5078SOL    HW216134   6.943   1.122   3.862
 5079SOL     OW16135   4.502   4.787   5.006
 5079SOL    HW116136   4.553   4.809   4.923
 5079SOL    HW216137   4.444   4.708   4.990
 5080SOL     OW16138   5.737   0.210   5.759
 5080SOL    HW116139   5.699   0.274   5.826
 5080SOL    HW216140   5.832   0.236   5.739
 5081SOL     OW16141   3.486   3.860   3.036
 5081SOL    HW116142   3.515   3.770   3.005
 5081SOL    HW216143   3.446   3.911   2.960
 5082SOL     OW16144   6.767   0.159   5.843
 5082SOL    HW116145   6.860   0.167   5.879
 5082SOL    HW216146   6.708   0.225   5.889
 5083SOL     OW16147   1.459   5.851   1.970
 5083SOL    HW116148   1.487   5.939   1.932
 5083SOL    HW216149   1.374   5.862   2.021
 5084SOL     OW16150   1.865   5.683   2.553
 5084SOL    HW116151   1.961   5.714   2.553
 5084SOL    HW216152   1.858   5.596   2.504
 5085SOL     OW16153   6.447   3.196   6.850
 5085SOL    HW116154   6.371   3.136   6.877
 5085SOL    HW216155   6.529   3.140   6.833
 5086SOL     OW16156   6.928   5.045   4.336
 5086SOL    HW116157   6.994   4.993   4.391
 5086SOL    HW216158   6.950   5.035   4.239
 5087SOL     OW16159   6.796   5.476   5.283
 5087SOL    HW116160   6.758   5.480   5.191
 5087SOL    HW216161   6.825   5.567   5.312
 5088SOL     OW16162   5.979   0.753   0.483
 5088SOL    HW116163   5.900   0.790   0.434
 5088SOL    HW216164   6.049   0.726   0.417
 5089SOL     OW16165   5.608   2.766   4.081
 5089SOL    HW116166   5.542   2.764   4.156
 5089SOL    HW216167   5.701   2.754   4.118
 5090SOL     OW16168   0.967   5.206   0.903
 5090SOL    HW116169   0.987   5.113   0.874
 5090SOL    HW216170   0.946   5.206   1.001
 5091SOL     OW16171   1.470   6.519   3.560
 5091SOL    HW116172   1.528   6.504   3.480
 5091SOL    HW216173   1.488   6.610   3.598
 5092SOL     OW16174   3.368   3.083   1.056
 5092SOL    HW116175   3.396   3.174   1.027
 5092SOL    HW216176   3.289   3.090   1.118
 5093SOL     OW16177   1.083   1.943   1.388
 5093SOL    HW116178   1.112   2.036   1.365
 5093SOL    HW216179   1.008   1.915   1.328
 5094SOL     OW16180   6.947   0.525   0.035
 5094SOL    HW116181   6.995   0.460   0.094
 5094SOL    HW216182   6.863   0.555   0.080
 5095SOL     OW16183   3.236   0.151   5.090
 5095SOL    HW116184   3.162   0.216   5.103
 5095SOL    HW216185   3.222   0.101   5.004
 5096SOL     OW16186   3.622   6.112   3.020
 5096SOL    HW116187   3.675   6.193   2.999
 5096SOL    HW216188   3.648   6.038   2.958
 5097SOL     OW16189   0.797   1.472   6.233
 5097SOL    HW116190   0.817   1.402   6.164
 5097SOL    HW216191   0.828   1.561   6.200
 5098SOL     OW16192   6.759   2.901   2.632
 5098SOL    HW116193   6.669   2.918   2.673
 5098SOL    HW216194   6.825   2.966   2.668
 5099SOL     OW16195   0.835   0.328   4.220
 5099SOL    HW116196   0.924   0.298   4.184
 5099SOL    HW216197   0.817   0.282   4.307
 5100SOL     OW16198   4.720   5.541   6.518
 5100SOL    HW116199   4.622   5.561   6.518
 5100SOL    HW216200   4.749   5.514   6.610
 5101SOL     OW16201   4.389   6.448   0.391
 5101SOL    HW116202   4.321   6.379   0.416
 5101SOL    HW216203   4.453   6.408   0.325
 5102SOL     OW16204   3.715   5.593   4.433
 5102SOL    HW116205   3.645   5.543   4.485
 5102SOL    HW216206   3.673   5.636   4.354
 5103SOL     OW16207   1.416   1.295   4.214
 5103SOL    HW116208   1.514   1.305   4.232
 5103SOL    HW216209   1.371   1.383   4.227
 5104SOL     OW16210   0.915   0.590   1.136
 5104SOL    HW116211   0.859   0.616   1.214
 5104SOL    HW216212   0.861   0.597   1.052
 5105SOL     OW16213   2.282   3.181   6.328
 5105SOL    HW116214   2.245   3.143   6.412
 5105SOL    HW216215   2.208   3.199   6.263
 5106SOL     OW16216   2.793   0.159   2.303
 5106SOL    HW116217   2.704   0.166   2.348
 5106SOL    HW216218   2.814   0.063   2.287
 5107SOL     OW16219   1.813   0.427   6.457
 5107SOL    HW116220   1.810   0.338   6.411
 5107SOL    HW216221   1.907   0.461   6.460
 5108SOL     OW16222   3.005   3.792   3.647
 5108SOL    HW116223   3.104   3.806   3.643
 5108SOL    HW216224   2.980   3.760   3.738
 5109SOL     OW16225   6.904   1.744   2.108
 5109SOL    HW116226   6.822   1.688   2.102
 5109SOL    HW216227   6.973   1.698   2.165
 5110SOL     OW16228   2.137   5.750   5.531
 5110SOL    HW116229   2.102   5.698   5.609
 5110SOL    HW216230   2.148   5.689   5.452
 5111SOL     OW16231   1.784   1.696   0.279
 5111SOL    HW116232   1.700   1.741   0.308
 5111SOL    HW216233   1.849   1.765   0.247
 5112SOL     OW16234   0.137   0.110   3.424
 5112SOL    HW116235   0.171   0.199   3.455
 5112SOL    HW216236   0.182   0.085   3.338
 5113SOL     OW16237   0.677   0.253   6.301
 5113SOL    HW116238   0.645   0.319   6.369
 5113SOL    HW216239   0.777   0.261   6.292
 5114SOL     OW16240   4.028   5.550   6.560
 5114SOL    HW116241   3.929   5.544   6.564
 5114SOL    HW216242   4.063   5.591   6.644
 5115SOL     OW16243   2.094   4.043   4.823
 5115SOL    HW116244   2.031   4.030   4.901
 5115SOL    HW216245   2.186   4.059   4.857
 5116SOL     OW16246   6.539   3.464   0.534
 5116SOL    HW116247   6.563   3.559   0.515
 5116SOL    HW216248   6.465   3.434   0.473
 5117SOL     OW16249   2.970   5.077   3.119
 5117SOL    HW116250   2.910   5.002   3.092
 5117SOL    HW216251   2.940   5.114   3.207
 5118SOL     OW16252   4.049   6.765   1.911
 5118SOL    HW116253   4.148   6.758   1.904
 5118SOL    HW216254   4.012   6.802   1.825
 5119SOL     OW16255   6.392   0.061   2.576
 5119SOL    HW116256   6.316   7.014   2.568
 5119SOL    HW216257   6.443   0.043   2.660
 5120SOL     OW16258   3.344   1.485   2.475
 5120SOL    HW116259   3.359   1.463   2.378
 5120SOL    HW216260   3.262   1.541   2.484
 5121SOL     OW16261   0.781   3.163   3.989
 5121SOL    HW116262   0.772   3.207   4.079
 5121SOL    HW216263   0.863   3.197   3.943
 5122SOL     OW16264   2.104   5.466   3.610
 5122SOL    HW116265   2.153   5.379   3.605
 5122SOL    HW216266   2.167   5.537   3.642
 5123SOL     OW16267   6.219   3.498   1.902
 5123SOL    HW116268   6.253   3.457   1.987
 5123SOL    HW216269   6.119   3.501   1.905
 5124SOL     OW16270   2.328   6.636   0.763
 5124SOL    HW116271   2.363   6.574   0.693
 5124SOL    HW216272   2.238   6.603   0.794
 5125SOL     OW16273   6.878   1.921   5.704
 5125SOL    HW116274   6.961   1.955   5.748
 5125SOL    HW216275   6.873   1.821   5.714
 5126SOL     OW16276   4.306   2.284   6.812
 5126SOL    HW116277   4.263   2.304   6.724
 5126SOL    HW216278   4.367   2.205   6.803
 5127SOL     OW16279   5.819   3.244   6.597
 5127SOL    HW116280   5.750   3.174   6.580
 5127SOL    HW216281   5.802   3.289   6.684
 5128SOL     OW16282   6.843   6.996   6.402
 5128SOL    HW116283   6.786   6.971   6.324
 5128SOL    HW216284   6.890   0.065   6.383
 5129SOL     OW16285   4.778   2.564   3.413
 5129SOL    HW116286   4.680   2.546   3.418
 5129SOL    HW216287   4.822   2.496   3.354
 5130SOL     OW16288   1.324   6.359   4.969
 5130SOL    HW116289   1.376   6.351   4.884
 5130SOL    HW216290   1.348   6.283   5.029
 5131SOL     OW16291   3.667   4.923   3.760
 5131SOL    HW116292   3.570   4.915   3.786
 5131SOL    HW216293   3.681   4.885   3.669
 5132SOL     OW16294   4.088   2.149   6.623
 5132SOL    HW116295   4.114   2.082   6.692
 5132SOL    HW216296   4.030   2.219   6.665
 5133SOL     OW16297   4.951   4.795   6.921
 5133SOL    HW116298   4.875   4.731   6.913
 5133SOL    HW216299   4.971   4.810   0.001
 5134SOL     OW16300   5.986   5.784   0.394
 5134SOL    HW116301   5.920   5.831   0.336
 5134SOL    HW216302   6.004   5.693   0.357
 5135SOL     OW16303   6.728   2.824   2.265
 5135SOL    HW116304   6.676   2.907   2.283
 5135SOL    HW216305   6.732   2.768   2.347
 5136SOL     OW16306   0.978   1.104   4.893
 5136SOL    HW116307   0.942   1.106   4.986
 5136SOL    HW216308   1.054   1.040   4.887
 5137SOL     OW16309   5.348   0.537   3.219
 5137SOL    HW116310   5.347   0.485   3.305
 5137SOL    HW216311   5.310   0.480   3.146
 5138SOL     OW16312   3.364   3.046   2.441
 5138SOL    HW116313   3.270   3.077   2.454
 5138SOL    HW216314   3.415   3.116   2.390
 5139SOL     OW16315   4.174   0.584   4.863
 5139SOL    HW116316   4.253   0.541   4.820
 5139SOL    HW216317   4.091   0.538   4.832
 5140SOL     OW16318   3.321   3.641   6.391
 5140SOL    HW116319   3.312   3.718   6.328
 5140SOL    HW216320   3.286   3.666   6.481
 5141SOL     OW16321   1.557   2.521   1.779
 5141SOL    HW116322   1.592   2.578   1.705
 5141SOL    HW216323   1.457   2.520   1.776
 5142SOL     OW16324   0.626   0.143   2.437
 5142SOL    HW116325   0.607   0.241   2.442
 5142SOL    HW216326   0.605   0.101   2.526
 5143SOL     OW16327   6.959   6.085   2.170
 5143SOL    HW116328   6.987   6.178   2.147
 5143SOL    HW216329   0.010   6.043   2.230
 5144SOL     OW16330   2.147   3.104   5.048
 5144SOL    HW116331   2.235   3.056   5.051
 5144SOL    HW216332   2.104   3.101   5.139
 5145SOL     OW16333   2.532   5.633   5.705
 5145SOL    HW116334   2.578   5.674   5.627
 5145SOL    HW216335   2.446   5.681   5.722
 5146SOL     OW16336   6.052   5.804   6.343
 5146SOL    HW116337   5.983   5.734   6.364
 5146SOL    HW216338   6.143   5.762   6.344
 5147SOL     OW16339   5.768   2.441   3.488
 5147SOL    HW116340   5.734   2.347   3.495
 5147SOL    HW216341   5.860   2.439   3.448
 5148SOL     OW16342   6.555   1.395   0.273
 5148SOL    HW116343   6.526   1.380   0.368
 5148SOL    HW216344   6.475   1.413   0.216
 5149SOL     OW16345   4.330   5.697   4.061
 5149SOL    HW116346   4.322   5.626   4.131
 5149SOL    HW216347   4.412   5.753   4.079
 5150SOL     OW16348   6.616   0.796   3.708
 5150SOL    HW116349   6.632   0.701   3.735
 5150SOL    HW216350   6.518   0.811   3.694
 5151SOL     OW16351   5.462   5.359   1.558
 5151SOL    HW116352   5.559   5.372   1.539
 5151SOL    HW216353   5.451   5.299   1.637
 5152SOL     OW16354   2.274   2.058   0.126
 5152SOL    HW116355   2.359   2.021   0.164
 5152SOL    HW216356   2.278   2.055   0.026
 5153SOL     OW16357   2.263   2.161   0.429
 5153SOL    HW116358   2.167   2.163   0.401
 5153SOL    HW216359   2.319   2.205   0.359
 5154SOL     OW16360   0.626   2.537   0.430
 5154SOL    HW116361   0.532   2.534   0.464
 5154SOL    HW216362   0.689   2.545   0.508
 5155SOL     OW16363   1.587   1.287   0.611
 5155SOL    HW116364   1.549   1.299   0.703
 5155SOL    HW216365   1.549   1.357   0.550
 5156SOL     OW16366   5.579   4.771   5.791
 5156SOL    HW116367   5.557   4.677   5.763
 5156SOL    HW216368   5.497   4.827   5.783
 5157SOL     OW16369   3.578   0.938   2.015
 5157SOL    HW116370   3.660   0.996   2.019
 5157SOL    HW216371   3.574   0.892   1.926
 5158SOL     OW16372   1.466   2.315   1.512
 5158SOL    HW116373   1.398   2.247   1.539
 5158SOL    HW216374   1.555   2.292   1.553
 5159SOL     OW16375   6.344   3.292   5.981
 5159SOL    HW116376   6.351   3.206   5.931
 5159SOL    HW216377   6.388   3.282   6.070
 5160SOL     OW16378   6.607   0.246   3.324
 5160SOL    HW116379   6.617   0.260   3.225
 5160SOL    HW216380   6.513   0.269   3.351
 5161SOL     OW16381   1.244   2.222   6.353
 5161SOL    HW116382   1.183   2.142   6.353
 5161SOL    HW216383   1.286   2.232   6.263
 5162SOL     OW16384   0.119   6.769   4.889
 5162SOL    HW116385   0.179   6.734   4.817
 5162SOL    HW216386   0.098   6.696   4.954
 5163SOL     OW16387   2.996   0.179   1.980
 5163SOL    HW116388   2.938   0.196   2.060
 5163SOL    HW216389   3.022   0.266   1.938
 5164SOL     OW16390   2.864   3.684   0.122
 5164SOL    HW116391   2.801   3.716   0.192
 5164SOL    HW216392   2.840   3.726   0.034
 5165SOL     OW16393   1.703   5.023   6.425
 5165SOL    HW116394   1.764   5.082   6.478
 5165SOL    HW216395   1.617   5.012   6.475
 5166SOL     OW16396   0.231   5.020   6.432
 5166SOL    HW116397   0.235   4.952   6.358
 5166SOL    HW216398   0.241   4.973   6.520
 5167SOL     OW16399   5.625   3.727   5.982
 5167SOL    HW116400   5.554   3.756   5.919
 5167SOL    HW216401   5.593   3.650   6.037
 5168SOL     OW16402   4.494   1.795   3.198
 5168SOL    HW116403   4.441   1.725   3.150
 5168SOL    HW216404   4.536   1.856   3.131
 5169SOL     OW16405   5.571   5.770   4.231
 5169SOL    HW116406   5.580   5.705   4.306
 5169SOL    HW216407   5.662   5.797   4.199
 5170SOL     OW16408   2.286   4.176   5.842
 5170SOL    HW116409   2.288   4.145   5.747
 5170SOL    HW216410   2.335   4.110   5.899
 5171SOL     OW16411   2.160   6.895   5.962
 5171SOL    HW116412   2.167   6.939   6.051
 5171SOL    HW216413   2.119   6.804   5.973
 5172SOL     OW16414   5.886   5.583   6.382
 5172SOL    HW116415   5.901   5.487   6.408
 5172SOL    HW216416   5.831   5.586   6.299
 5173SOL     OW16417   4.502   5.713   4.549
 5173SOL    HW116418   4.553   5.751   4.626
 5173SOL    HW216419   4.422   5.771   4.530
 5174SOL     OW16420   1.410   6.729   2.868
 5174SOL    HW116421   1.343   6.671   2.914
 5174SOL    HW216422   1.471   6.769   2.935
 5175SOL     OW16423   2.596   2.496   6.463
 5175SOL    HW116424   2.605   2.559   6.540
 5175SOL    HW216425   2.510   2.445   6.471
 5176SOL     OW16426   6.247   6.082   6.468
 5176SOL    HW116427   6.280   5.987   6.462
 5176SOL    HW216428   6.254   6.125   6.378
 5177SOL     OW16429   5.331   6.387   0.609
 5177SOL    HW116430   5.402   6.346   0.552
 5177SOL    HW216431   5.336   6.487   0.602
 5178SOL     OW16432   0.480   3.949   1.323
 5178SOL    HW116433   0.570   3.960   1.280
 5178SOL    HW216434   0.489   3.901   1.409
 5179SOL     OW16435   5.057   5.619   3.584
 5179SOL    HW116436   5.109   5.634   3.500
 5179SOL    HW216437   5.063   5.522   3.610
 5180SOL     OW16438   1.633   4.241   1.836
 5180SOL    HW116439   1.679   4.330   1.833
 5180SOL    HW216440   1.656   4.189   1.754
 5181SOL     OW16441   0.167   1.354   5.929
 5181SOL    HW116442   0.215   1.423   5.874
 5181SOL    HW216443   0.084   1.326   5.881
 5182SOL     OW16444   2.644   6.214   2.395
 5182SOL    HW116445   2.688   6.160   2.466
 5182SOL    HW216446   2.554   6.244   2.427
 5183SOL     OW16447   4.565   2.638   3.224
 5183SOL    HW116448   4.523   2.577   3.291
 5183SOL    HW216449   4.494   2.673   3.162
 5184SOL     OW16450   2.310   1.706   3.058
 5184SOL    HW116451   2.212   1.699   3.072
 5184SOL    HW216452   2.350   1.763   3.130
 5185SOL     OW16453   6.662   0.130   2.116
 5185SOL    HW116454   6.589   0.120   2.183
 5185SOL    HW216455   6.750   0.129   2.164
 5186SOL     OW16456   6.178   2.459   6.696
 5186SOL    HW116457   6.221   2.461   6.786
 5186SOL    HW216458   6.170   2.552   6.661
 5187SOL     OW16459   1.342   4.324   5.136
 5187SOL    HW116460   1.342   4.344   5.038
 5187SOL    HW216461   1.404   4.388   5.182
 5188SOL     OW16462   7.007   1.200   1.815
 5188SOL    HW116463   0.053   1.224   1.889
 5188SOL    HW216464   6.933   1.144   1.850
 5189SOL     OW16465   4.757   6.222   0.131
 5189SOL    HW116466   4.834   6.255   0.076
 5189SOL    HW216467   4.758   6.122   0.133
 5190SOL     OW16468   1.583   4.907   0.859
 5190SOL    HW116469   1.606   5.003   0.847
 5190SOL    HW216470   1.620   4.854   0.782
 5191SOL     OW16471   2.666   4.453   1.666
 5191SOL    HW116472   2.729   4.486   1.735
 5191SOL    HW216473   2.652   4.354   1.678
 5192SOL     OW16474   0.773   4.708   2.538
 5192SOL    HW116475   0.692   4.667   2.580
 5192SOL    HW216476   0.800   4.656   2.457
 5193SOL     OW16477   4.618   0.840   5.563
 5193SOL    HW116478   4.645   0.744   5.565
 5193SOL    HW216479   4.675   0.889   5.498
 5194SOL     OW16480   4.584   1.485   4.908
 5194SOL    HW116481   4.570   1.584   4.914
 5194SOL    HW216482   4.657   1.458   4.971
 5195SOL     OW16483   1.565   0.546   5.153
 5195SOL    HW116484   1.649   0.563   5.204
 5195SOL    HW216485   1.511   0.630   5.149
 5196SOL     OW16486   5.448   6.590   2.832
 5196SOL    HW116487   5.515   6.592   2.906
 5196SOL    HW216488   5.402   6.678   2.825
 5197SOL     OW16489   1.047   3.350   4.646
 5197SOL    HW116490   1.008   3.304   4.726
 5197SOL    HW216491   1.113   3.419   4.675
 5198SOL     OW16492   5.863   4.752   3.130
 5198SOL    HW116493   5.869   4.653   3.116
 5198SOL    HW216494   5.915   4.799   3.059
 5199SOL     OW16495   0.097   4.500   0.915
 5199SOL    HW116496   0.183   4.544   0.888
 5199SOL    HW216497   0.046   4.561   0.975
 5200SOL     OW16498   6.258   3.464   5.247
 5200SOL    HW116499   6.290   3.412   5.326
 5200SOL    HW216500   6.175   3.514   5.272
 5201SOL     OW16501   0.725   6.003   4.779
 5201SOL    HW116502   0.806   6.037   4.733
 5201SOL    HW216503   0.703   5.911   4.746
 5202SOL     OW16504   0.595   4.431   2.087
 5202SOL    HW116505   0.693   4.452   2.086
 5202SOL    HW216506   0.543   4.513   2.065
 5203SOL     OW16507   6.338   3.248   0.275
 5203SOL    HW116508   6.363   3.341   0.247
 5203SOL    HW216509   6.238   3.240   0.277
 5204SOL     OW16510   5.132   5.412   6.375
 5204SOL    HW116511   5.088   5.402   6.464
 5204SOL    HW216512   5.227   5.381   6.381
 5205SOL     OW16513   2.536   6.762   0.151
 5205SOL    HW116514   2.623   6.719   0.129
 5205SOL    HW216515   2.461   6.702   0.123
 5206SOL     OW16516   0.332   4.039   4.531
 5206SOL    HW116517   0.369   4.016   4.441
 5206SOL    HW216518   0.234   4.059   4.524
 5207SOL     OW16519   1.898   4.653   3.661
 5207SOL    HW116520   1.867   4.604   3.742
 5207SOL    HW216521   1.991   4.623   3.637
 5208SOL     OW16522   5.236   1.030   6.956
 5208SOL    HW116523   5.305   1.017   0.010
 5208SOL    HW216524   5.197   0.942   6.930
 5209SOL     OW16525   5.551   5.480   3.227
 5209SOL    HW116526   5.517   5.399   3.273
 5209SOL    HW216527   5.604   5.453   3.146
 5210SOL     OW16528   5.100   4.303   2.936
 5210SOL    HW116529   5.084   4.346   3.025
 5210SOL    HW216530   5.017   4.253   2.909
 5211SOL     OW16531   3.245   3.557   2.048
 5211SOL    HW116532   3.276   3.607   2.128
 5211SOL    HW216533   3.321   3.544   1.984
 5212SOL     OW16534   0.678   0.466   6.679
 5212SOL    HW116535   0.648   0.485   6.585
 5212SOL    HW216536   0.776   0.449   6.679
 5213SOL     OW16537   4.410   2.206   6.344
 5213SOL    HW116538   4.388   2.200   6.247
 5213SOL    HW216539   4.490   2.150   6.364
 5214SOL     OW16540   5.153   1.792   0.226
 5214SOL    HW116541   5.081   1.726   0.206
 5214SOL    HW216542   5.113   1.881   0.247
 5215SOL     OW16543   5.535   4.839   3.573
 5215SOL    HW116544   5.546   4.885   3.661
 5215SOL    HW216545   5.603   4.766   3.565
 5216SOL     OW16546   4.197   5.685   1.719
 5216SOL    HW116547   4.289   5.647   1.714
 5216SOL    HW216548   4.187   5.756   1.648
 5217SOL     OW16549   3.029   4.821   3.450
 5217SOL    HW116550   2.934   4.841   3.427
 5217SOL    HW216551   3.033   4.770   3.536
 5218SOL     OW16552   2.346   6.932   4.181
 5218SOL    HW116553   2.282   6.906   4.253
 5218SOL    HW216554   2.426   6.976   4.222
 5219SOL     OW16555   2.167   0.064   1.075
 5219SOL    HW116556   2.114   0.083   0.992
 5219SOL    HW216557   2.140   6.992   1.111
 5220SOL     OW16558   1.236   6.511   1.583
 5220SOL    HW116559   1.294   6.533   1.661
 5220SOL    HW216560   1.186   6.426   1.602
 5221SOL     OW16561   4.392   1.147   6.552
 5221SOL    HW116562   4.329   1.098   6.491
 5221SOL    HW216563   4.484   1.109   6.543
 5222SOL     OW16564   0.628   6.856   2.553
 5222SOL    HW116565   0.703   6.830   2.493
 5222SOL    HW216566   0.541   6.838   2.507
 5223SOL     OW16567   4.719   6.686   1.047
 5223SOL    HW116568   4.668   6.677   0.962
 5223SOL    HW216569   4.664   6.738   1.113
 5224SOL     OW16570   5.395   1.602   3.243
 5224SOL    HW116571   5.407   1.661   3.163
 5224SOL    HW216572   5.354   1.655   3.318
 5225SOL     OW16573   6.987   6.762   5.697
 5225SOL    HW116574   0.011   6.688   5.645
 5225SOL    HW216575   0.029   6.785   5.775
 5226SOL     OW16576   2.826   6.288   4.213
 5226SOL    HW116577   2.874   6.202   4.227
 5226SOL    HW216578   2.765   6.280   4.135
 5227SOL     OW16579   4.957   3.689   3.834
 5227SOL    HW116580   5.029   3.718   3.898
 5227SOL    HW216581   4.928   3.597   3.856
 5228SOL     OW16582   5.210   0.849   1.337
 5228SOL    HW116583   5.297   0.814   1.371
 5228SOL    HW216584   5.153   0.772   1.309
 5229SOL     OW16585   1.071   4.055   3.825
 5229SOL    HW116586   1.032   4.022   3.739
 5229SOL    HW216587   1.001   4.051   3.897
 5230SOL     OW16588   1.223   6.537   5.934
 5230SOL    HW116589   1.288   6.572   5.867
 5230SOL    HW216590   1.250   6.445   5.961
 5231SOL     OW16591   3.398   3.198   2.837
 5231SOL    HW116592   3.370   3.102   2.832
 5231SOL    HW216593   3.321   3.256   2.811
 5232SOL     OW16594   5.253   2.945   5.051
 5232SOL    HW116595   5.348   2.921   5.070
 5232SOL    HW216596   5.231   2.926   4.955
 5233SOL     OW16597   0.498   0.051   2.880
 5233SOL    HW116598   0.500   0.138   2.830
 5233SOL    HW216599   0.579   7.015   2.856
 5234SOL     OW16600   3.894   5.318   1.257
 5234SOL    HW116601   3.857   5.402   1.297
 5234SOL    HW216602   3.950   5.271   1.326
 5235SOL     OW16603   0.658   3.389   1.490
 5235SOL    HW116604   0.651   3.306   1.545
 5235SOL    HW216605   0.628   3.369   1.396
 5236SOL     OW16606   5.704   3.331   1.287
 5236SOL    HW116607   5.632   3.398   1.303
 5236SOL    HW216608   5.749   3.350   1.199
 5237SOL     OW16609   1.891   1.830   3.864
 5237SOL    HW116610   1.885   1.764   3.789
 5237SOL    HW216611   1.841   1.913   3.841
 5238SOL     OW16612   2.228   3.761   1.241
 5238SOL    HW116613   2.175   3.779   1.324
 5238SOL    HW216614   2.247   3.663   1.234
 5239SOL     OW16615   3.178   3.481   4.703
 5239SOL    HW116616   3.079   3.491   4.717
 5239SOL    HW216617   3.211   3.557   4.647
 5240SOL     OW16618   3.542   1.500   4.772
 5240SOL    HW116619   3.566   1.477   4.678
 5240SOL    HW216620   3.446   1.528   4.776
 5241SOL     OW16621   3.134   5.886   5.686
 5241SOL    HW116622   3.111   5.789   5.673
 5241SOL    HW216623   3.233   5.898   5.674
 5242SOL     OW16624   4.513   0.717   5.103
 5242SOL    HW116625   4.419   0.739   5.075
 5242SOL    HW216626   4.526   0.617   5.102
 5243SOL     OW16627   0.632   4.139   0.159
 5243SOL    HW116628   0.588   4.059   0.118
 5243SOL    HW216629   0.648   4.208   0.088
 5244SOL     OW16630   6.149   3.464   0.037
 5244SOL    HW116631   6.054   3.470   0.067
 5244SOL    HW216632   6.185   3.372   0.056
 5245SOL     OW16633   4.700   4.698   6.599
 5245SOL    HW116634   4.753   4.782   6.585
 5245SOL    HW216635   4.734   4.651   6.680
 5246SOL     OW16636   0.860   3.235   3.020
 5246SOL    HW116637   0.843   3.137   3.012
 5246SOL    HW216638   0.790   3.275   3.080
 5247SOL     OW16639   6.998   4.602   0.578
 5247SOL    HW116640   6.992   4.509   0.615
 5247SOL    HW216641   6.972   4.668   0.648
 5248SOL     OW16642   4.914   0.187   0.446
 5248SOL    HW116643   4.910   0.093   0.411
 5248SOL    HW216644   4.868   0.191   0.535
 5249SOL     OW16645   1.415   5.589   6.243
 5249SOL    HW116646   1.370   5.670   6.204
 5249SOL    HW216647   1.470   5.617   6.322
 5250SOL     OW16648   1.054   1.642   5.530
 5250SOL    HW116649   1.134   1.688   5.569
 5250SOL    HW216650   1.082   1.556   5.489
 5251SOL     OW16651   1.047   3.258   0.742
 5251SOL    HW116652   0.958   3.278   0.783
 5251SOL    HW216653   1.094   3.188   0.797
 5252SOL     OW16654   4.629   6.556   1.410
 5252SOL    HW116655   4.708   6.550   1.349
 5252SOL    HW216656   4.605   6.465   1.443
 5253SOL     OW16657   5.973   2.422   3.295
 5253SOL    HW116658   6.015   2.473   3.370
 5253SOL    HW216659   6.039   2.357   3.258
 5254SOL     OW16660   4.995   0.604   4.154
 5254SOL    HW116661   5.039   0.598   4.064
 5254SOL    HW216662   4.896   0.596   4.143
 5255SOL     OW16663   3.333   6.311   4.768
 5255SOL    HW116664   3.249   6.346   4.727
 5255SOL    HW216665   3.312   6.235   4.830
 5256SOL     OW16666   5.178   6.527   2.215
 5256SOL    HW116667   5.095   6.574   2.244
 5256SOL    HW216668   5.234   6.504   2.295
 5257SOL     OW16669   3.308   1.157   3.256
 5257SOL    HW116670   3.350   1.243   3.284
 5257SOL    HW216671   3.291   1.100   3.336
 5258SOL     OW16672   5.819   2.169   2.015
 5258SOL    HW116673   5.829   2.103   2.089
 5258SOL    HW216674   5.778   2.123   1.935
 5259SOL     OW16675   5.440   4.461   1.301
 5259SOL    HW116676   5.369   4.525   1.270
 5259SOL    HW216677   5.403   4.399   1.370
 5260SOL     OW16678   4.986   2.966   1.950
 5260SOL    HW116679   4.894   2.972   1.989
 5260SOL    HW216680   5.002   2.872   1.920
 5261SOL     OW16681   2.594   2.319   4.639
 5261SOL    HW116682   2.647   2.234   4.635
 5261SOL    HW216683   2.612   2.373   4.557
 5262SOL     OW16684   1.691   0.190   1.843
 5262SOL    HW116685   1.665   0.142   1.927
 5262SOL    HW216686   1.624   0.169   1.772
 5263SOL     OW16687   0.807   6.412   6.833
 5263SOL    HW116688   0.728   6.407   6.894
 5263SOL    HW216689   0.812   6.504   6.793
 5264SOL     OW16690   0.862   1.838   1.216
 5264SOL    HW116691   0.783   1.838   1.277
 5264SOL    HW216692   0.831   1.834   1.121
 5265SOL     OW16693   5.477   5.248   3.362
 5265SOL    HW116694   5.553   5.270   3.422
 5265SOL    HW216695   5.452   5.152   3.373
 5266SOL     OW16696   1.067   6.694   1.289
 5266SOL    HW116697   1.124   6.726   1.213
 5266SOL    HW216698   1.002   6.626   1.255
 5267SOL     OW16699   4.472   3.690   5.299
 5267SOL    HW116700   4.463   3.787   5.320
 5267SOL    HW216701   4.569   3.668   5.288
 5268SOL     OW16702   5.851   5.305   5.492
 5268SOL    HW116703   5.777   5.242   5.469
 5268SOL    HW216704   5.924   5.255   5.538
 5269SOL     OW16705   1.952   4.515   5.865
 5269SOL    HW116706   1.948   4.456   5.784
 5269SOL    HW216707   2.048   4.532   5.888
 5270SOL     OW16708   6.397   2.728   2.968
 5270SOL    HW116709   6.340   2.650   2.944
 5270SOL    HW216710   6.477   2.697   3.019
 5271SOL     OW16711   5.497   4.003   5.633
 5271SOL    HW116712   5.414   4.048   5.665
 5271SOL    HW216713   5.518   4.034   5.540
 5272SOL     OW16714   1.585   1.029   3.938
 5272SOL    HW116715   1.531   0.988   4.012
 5272SOL    HW216716   1.625   1.115   3.970
 5273SOL     OW16717   0.389   0.323   4.737
 5273SOL    HW116718   0.380   0.288   4.831
 5273SOL    HW216719   0.353   0.256   4.673
 5274SOL     OW16720   0.473   5.727   4.373
 5274SOL    HW116721   0.507   5.677   4.293
 5274SOL    HW216722   0.374   5.738   4.365
 5275SOL     OW16723   1.812   6.757   6.972
 5275SOL    HW116724   1.873   6.822   7.016
 5275SOL    HW216725   1.720   6.766   7.011
 5276SOL     OW16726   0.079   0.292   0.608
 5276SOL    HW116727   0.014   0.299   0.684
 5276SOL    HW216728   0.141   0.370   0.610
 5277SOL     OW16729   0.795   1.489   2.462
 5277SOL    HW116730   0.847   1.501   2.377
 5277SOL    HW216731   0.797   1.393   2.489
 5278SOL     OW16732   0.599   3.686   6.090
 5278SOL    HW116733   0.685   3.654   6.051
 5278SOL    HW216734   0.532   3.699   6.017
 5279SOL     OW16735   2.325   6.348   6.608
 5279SOL    HW116736   2.311   6.293   6.526
 5279SOL    HW216737   2.295   6.296   6.688
 5280SOL     OW16738   4.906   6.370   5.191
 5280SOL    HW116739   4.989   6.327   5.158
 5280SOL    HW216740   4.920   6.469   5.197
 5281SOL     OW16741   2.541   6.914   5.299
 5281SOL    HW116742   2.506   6.920   5.393
 5281SOL    HW216743   2.639   6.896   5.301
 5282SOL     OW16744   0.687   6.819   0.482
 5282SOL    HW116745   0.708   6.816   0.580
 5282SOL    HW216746   0.632   6.900   0.462
 5283SOL     OW16747   1.014   0.984   3.592
 5283SOL    HW116748   1.028   0.908   3.529
 5283SOL    HW216749   0.920   0.981   3.628
 5284SOL     OW16750   4.823   3.268   1.753
 5284SOL    HW116751   4.809   3.222   1.840
 5284SOL    HW216752   4.917   3.253   1.722
 5285SOL     OW16753   1.214   1.762   3.877
 5285SOL    HW116754   1.232   1.823   3.800
 5285SOL    HW216755   1.288   1.695   3.885
 5286SOL     OW16756   6.214   3.085   1.505
 5286SOL    HW116757   6.142   3.064   1.571
 5286SOL    HW216758   6.229   3.005   1.447
 5287SOL     OW16759   1.288   5.285   1.372
 5287SOL    HW116760   1.301   5.384   1.380
 5287SOL    HW216761   1.222   5.266   1.299
 5288SOL     OW16762   4.013   0.616   1.660
 5288SOL    HW116763   3.978   0.639   1.751
 5288SOL    HW216764   3.996   0.519   1.642
 5289SOL     OW16765   2.258   4.681   5.816
 5289SOL    HW116766   2.258   4.728   5.904
 5289SOL    HW216767   2.235   4.746   5.743
 5290SOL     OW16768   2.106   3.416   4.774
 5290SOL    HW116769   2.026   3.357   4.775
 5290SOL    HW216770   2.168   3.391   4.849
 5291SOL     OW16771   3.381   4.958   4.479
 5291SOL    HW116772   3.422   4.987   4.392
 5291SOL    HW216773   3.309   4.891   4.461
 5292SOL     OW16774   0.383   3.575   5.128
 5292SOL    HW116775   0.429   3.549   5.212
 5292SOL    HW216776   0.342   3.666   5.140
 5293SOL     OW16777   2.199   6.871   4.607
 5293SOL    HW116778   2.267   6.806   4.573
 5293SOL    HW216779   2.191   6.862   4.706
 5294SOL     OW16780   4.908   6.935   5.232
 5294SOL    HW116781   4.871   0.001   5.193
 5294SOL    HW216782   4.924   6.948   5.330
 5295SOL     OW16783   2.074   0.934   2.778
 5295SOL    HW116784   2.117   0.956   2.690
 5295SOL    HW216785   2.141   0.889   2.837
 5296SOL     OW16786   4.409   4.539   1.540
 5296SOL    HW116787   4.327   4.510   1.490
 5296SOL    HW216788   4.486   4.479   1.515
 5297SOL     OW16789   2.770   5.711   5.835
 5297SOL    HW116790   2.676   5.681   5.822
 5297SOL    HW216791   2.830   5.661   5.771
 5298SOL     OW16792   2.282   1.474   0.323
 5298SOL    HW116793   2.365   1.480   0.269
 5298SOL    HW216794   2.215   1.416   0.276
 5299SOL     OW16795   2.207   1.237   1.462
 5299SOL    HW116796   2.225   1.333   1.481
 5299SOL    HW216797   2.294   1.189   1.450
 5300SOL     OW16798   2.887   4.916   6.846
 5300SOL    HW116799   2.917   5.002   6.804
 5300SOL    HW216800   2.865   4.850   6.774
 5301SOL     OW16801   5.947   0.170   6.158
 5301SOL    HW116802   6.000   0.153   6.075
 5301SOL    HW216803   5.852   0.145   6.142
 5302SOL     OW16804   5.657   5.907   2.566
 5302SOL    HW116805   5.635   5.947   2.655
 5302SOL    HW216806   5.753   5.878   2.566
 5303SOL     OW16807   1.065   5.315   5.601
 5303SOL    HW116808   1.044   5.377   5.525
 5303SOL    HW216809   1.163   5.321   5.622
 5304SOL     OW16810   0.293   0.434   2.932
 5304SOL    HW116811   0.271   0.377   2.853
 5304SOL    HW216812   0.259   0.390   3.015
 5305SOL     OW16813   0.183   5.089   3.818
 5305SOL    HW116814   0.254   5.111   3.752
 5305SOL    HW216815   0.208   5.007   3.869
 5306SOL     OW16816   0.531   2.505   6.008
 5306SOL    HW116817   0.533   2.537   5.913
 5306SOL    HW216818   0.437   2.509   6.042
 5307SOL     OW16819   6.479   1.822   1.610
 5307SOL    HW116820   6.535   1.861   1.537
 5307SOL    HW216821   6.520   1.843   1.698
 5308SOL     OW16822   1.618   3.934   3.160
 5308SOL    HW116823   1.531   3.925   3.209
 5308SOL    HW216824   1.693   3.908   3.221
 5309SOL     OW16825   6.331   5.206   3.282
 5309SOL    HW116826   6.356   5.234   3.375
 5309SOL    HW216827   6.292   5.114   3.284
 5310SOL     OW16828   5.910   2.358   2.812
 5310SOL    HW116829   5.900   2.456   2.829
 5310SOL    HW216830   5.931   2.344   2.715
 5311SOL     OW16831   5.836   0.122   0.603
 5311SOL    HW116832   5.866   0.068   0.524
 5311SOL    HW216833   5.739   0.142   0.594
 5312SOL     OW16834   6.363   6.550   0.457
 5312SOL    HW116835   6.452   6.515   0.486
 5312SOL    HW216836   6.376   6.616   0.383
 5313SOL     OW16837   1.145   6.333   5.392
 5313SOL    HW116838   1.128   6.236   5.375
 5313SOL    HW216839   1.114   6.356   5.485
 5314SOL     OW16840   6.037   0.792   1.790
 5314SOL    HW116841   5.973   0.868   1.790
 5314SOL    HW216842   5.992   0.709   1.823
 5315SOL     OW16843   4.523   1.667   3.944
 5315SOL    HW116844   4.496   1.638   3.852
 5315SOL    HW216845   4.507   1.592   4.008
 5316SOL     OW16846   0.816   2.413   4.684
 5316SOL    HW116847   0.803   2.458   4.773
 5316SOL    HW216848   0.764   2.328   4.681
 5317SOL     OW16849   6.125   2.707   0.086
 5317SOL    HW116850   6.168   2.775   0.146
 5317SOL    HW216851   6.040   2.675   0.128
 5318SOL     OW16852   0.384   4.215   6.683
 5318SOL    HW116853   0.448   4.142   6.705
 5318SOL    HW216854   0.360   4.211   6.586
 5319SOL     OW16855   4.107   6.531   2.256
 5319SOL    HW116856   4.051   6.493   2.183
 5319SOL    HW216857   4.200   6.546   2.223
 5320SOL     OW16858   3.908   5.483   1.017
 5320SOL    HW116859   3.911   5.423   1.097
 5320SOL    HW216860   3.980   5.551   1.023
 5321SOL     OW16861   1.915   4.251   5.339
 5321SOL    HW116862   1.884   4.156   5.330
 5321SOL    HW216863   1.952   4.283   5.252
 5322SOL     OW16864   4.741   6.753   2.191
 5322SOL    HW116865   4.744   6.672   2.133
 5322SOL    HW216866   4.798   6.739   2.271
 5323SOL     OW16867   4.580   0.641   5.825
 5323SOL    HW116868   4.484   0.637   5.800
 5323SOL    HW216869   4.631   0.573   5.773
 5324SOL     OW16870   2.422   1.784   1.100
 5324SOL    HW116871   2.446   1.788   1.197
 5324SOL    HW216872   2.447   1.694   1.063
 5325SOL     OW16873   2.139   2.058   4.908
 5325SOL    HW116874   2.110   2.145   4.870
 5325SOL    HW216875   2.222   2.072   4.962
 5326SOL     OW16876   6.225   6.525   1.915
 5326SOL    HW116877   6.271   6.447   1.873
 5326SOL    HW216878   6.292   6.581   1.964
 5327SOL     OW16879   6.983   3.301   5.795
 5327SOL    HW116880   0.050   3.264   5.754
 5327SOL    HW216881   6.954   3.382   5.744
 5328SOL     OW16882   4.602   5.466   0.156
 5328SOL    HW116883   4.587   5.426   0.066
 5328SOL    HW216884   4.526   5.442   0.216
 5329SOL     OW16885   1.139   6.679   6.382
 5329SOL    HW116886   1.100   6.765   6.347
 5329SOL    HW216887   1.076   6.638   6.447
 5330SOL     OW16888   2.147   4.833   1.427
 5330SOL    HW116889   2.222   4.898   1.416
 5330SOL    HW216890   2.069   4.864   1.373
 5331SOL     OW16891   6.360   0.889   6.299
 5331SOL    HW116892   6.332   0.924   6.389
 5331SOL    HW216893   6.295   0.821   6.268
 5332SOL     OW16894   0.187   4.498   1.618
 5332SOL    HW116895   0.221   4.413   1.660
 5332SOL    HW216896   0.143   4.476   1.531
 5333SOL     OW16897   1.355   6.179   4.725
 5333SOL    HW116898   1.277   6.139   4.773
 5333SOL    HW216899   1.367   6.132   4.638
 5334SOL     OW16900   3.583   0.341   4.455
 5334SOL    HW116901   3.665   0.375   4.409
 5334SOL    HW216902   3.593   0.243   4.473
 5335SOL     OW16903   6.832   5.822   6.925
 5335SOL    HW116904   6.841   5.910   6.972
 5335SOL    HW216905   6.920   5.797   6.884
 5336SOL     OW16906   0.904   3.737   2.019
 5336SOL    HW116907   0.827   3.783   1.976
 5336SOL    HW216908   0.955   3.802   2.075
 5337SOL     OW16909   5.485   4.043   1.474
 5337SOL    HW116910   5.568   3.988   1.463
 5337SOL    HW216911   5.407   3.995   1.435
 5338SOL     OW16912   6.122   1.203   6.785
 5338SOL    HW116913   6.116   1.290   6.735
 5338SOL    HW216914   6.192   1.146   6.744
 5339SOL     OW16915   6.276   0.538   2.405
 5339SOL    HW116916   6.269   0.521   2.306
 5339SOL    HW216917   6.329   0.621   2.420
 5340SOL     OW16918   5.304   2.484   5.815
 5340SOL    HW116919   5.396   2.468   5.851
 5340SOL    HW216920   5.236   2.460   5.885
 5341SOL     OW16921   3.954   0.403   0.350
 5341SOL    HW116922   3.909   0.358   0.273
 5341SOL    HW216923   3.916   0.495   0.363
 5342SOL     OW16924   2.678   0.496   6.194
 5342SOL    HW116925   2.639   0.403   6.188
 5342SOL    HW216926   2.681   0.536   6.102
 5343SOL     OW16927   3.527   3.821   2.037
 5343SOL    HW116928   3.604   3.826   2.100
 5343SOL    HW216929   3.462   3.894   2.058
 5344SOL     OW16930   2.386   2.263   3.176
 5344SOL    HW116931   2.305   2.322   3.175
 5344SOL    HW216932   2.359   2.170   3.199
 5345SOL     OW16933   4.606   7.015   2.188
 5345SOL    HW116934   4.641   6.922   2.199
 5345SOL    HW216935   4.623   0.029   2.094
 5346SOL     OW16936   2.363   6.538   3.463
 5346SOL    HW116937   2.394   6.592   3.385
 5346SOL    HW216938   2.428   6.464   3.480
 5347SOL     OW16939   0.008   2.074   2.207
 5347SOL    HW116940   6.956   2.008   2.177
 5347SOL    HW216941   6.988   2.167   2.202
 5348SOL     OW16942   6.771   0.551   0.412
 5348SOL    HW116943   6.782   0.467   0.360
 5348SOL    HW216944   6.843   0.558   0.481
 5349SOL     OW16945   6.667   0.473   1.820
 5349SOL    HW116946   6.610   0.552   1.843
 5349SOL    HW216947   6.704   0.434   1.905
 5350SOL     OW16948   2.553   0.639   6.719
 5350SOL    HW116949   2.560   0.703   6.642
 5350SOL    HW216950   2.644   0.604   6.742
 5351SOL     OW16951   4.537   0.503   1.967
 5351SOL    HW116952   4.465   0.440   1.938
 5351SOL    HW216953   4.509   0.548   2.052
 5352SOL     OW16954   3.019   6.373   3.710
 5352SOL    HW116955   2.977   6.456   3.674
 5352SOL    HW216956   3.052   6.317   3.634
 5353SOL     OW16957   5.861   0.438   5.522
 5353SOL    HW116958   5.922   0.377   5.573
 5353SOL    HW216959   5.914   0.492   5.457
 5354SOL     OW16960   1.263   3.640   1.182
 5354SOL    HW116961   1.248   3.739   1.173
 5354SOL    HW216962   1.188   3.591   1.138
 5355SOL     OW16963   4.286   1.791   4.955
 5355SOL    HW116964   4.374   1.833   4.935
 5355SOL    HW216965   4.263   1.806   5.051
 5356SOL     OW16966   5.682   3.661   1.027
 5356SOL    HW116967   5.738   3.738   0.996
 5356SOL    HW216968   5.739   3.598   1.080
 5357SOL     OW16969   3.476   0.080   0.504
 5357SOL    HW116970   3.379   0.074   0.478
 5357SOL    HW216971   3.521   0.148   0.446
 5358SOL     OW16972   4.710   3.051   1.307
 5358SOL    HW116973   4.659   3.003   1.379
 5358SOL    HW216974   4.692   3.007   1.219
 5359SOL     OW16975   2.499   0.018   6.877
 5359SOL    HW116976   2.545   6.971   6.938
 5359SOL    HW216977   2.519   0.112   6.906
 5360SOL     OW16978   4.081   0.085   6.671
 5360SOL    HW116979   4.000   0.093   6.729
 5360SOL    HW216980   4.069   0.007   6.609
 5361SOL     OW16981   2.054   0.686   5.898
 5361SOL    HW116982   2.112   0.610   5.870
 5361SOL    HW216983   2.107   0.771   5.898
 5362SOL     OW16984   4.247   5.877   3.893
 5362SOL    HW116985   4.308   5.916   3.825
 5362SOL    HW216986   4.294   5.801   3.939
 5363SOL     OW16987   0.618   5.145   5.475
 5363SOL    HW116988   0.648   5.169   5.383
 5363SOL    HW216989   0.668   5.199   5.542
 5364SOL     OW16990   0.379   6.396   6.748
 5364SOL    HW116991   0.421   6.485   6.766
 5364SOL    HW216992   0.438   6.344   6.686
 5365SOL     OW16993   3.910   1.939   6.232
 5365SOL    HW116994   3.947   1.849   6.208
 5365SOL    HW216995   3.824   1.953   6.184
 5366SOL     OW16996   3.619   4.111   6.837
 5366SOL    HW116997   3.607   4.013   6.852
 5366SOL    HW216998   3.542   4.160   6.877
 5367SOL     OW16999   0.291   4.338   1.059
 5367SOL    HW117000   0.232   4.345   0.978
 5367SOL    HW217001   0.383   4.312   1.030
 5368SOL     OW17002   6.346   0.899   3.599
 5368SOL    HW117003   6.282   0.880   3.673
 5368SOL    HW217004   6.335   0.830   3.527
 5369SOL     OW17005   1.734   3.950   2.421
 5369SOL    HW117006   1.644   3.907   2.424
 5369SOL    HW217007   1.784   3.918   2.341
 5370SOL     OW17008   3.840   2.916   1.384
 5370SOL    HW117009   3.797   2.973   1.314
 5370SOL    HW217010   3.910   2.969   1.432
 5371SOL     OW17011   1.425   4.074   5.086
 5371SOL    HW117012   1.390   4.162   5.116
 5371SOL    HW217013   1.524   4.081   5.069
 5372SOL     OW17014   2.844   5.531   3.051
 5372SOL    HW117015   2.770   5.548   2.987
 5372SOL    HW217016   2.918   5.481   3.005
 5373SOL     OW17017   1.986   4.904   4.245
 5373SOL    HW117018   1.992   4.962   4.326
 5373SOL    HW217019   2.078   4.874   4.218
 5374SOL     OW17020   3.164   2.266   0.607
 5374SOL    HW117021   3.262   2.285   0.595
 5374SOL    HW217022   3.147   2.240   0.702
 5375SOL     OW17023   1.790   4.217   4.329
 5375SOL    HW117024   1.782   4.305   4.281
 5375SOL    HW217025   1.700   4.191   4.364
 5376SOL     OW17026   2.944   4.161   0.183
 5376SOL    HW117027   2.909   4.249   0.213
 5376SOL    HW217028   3.038   4.173   0.149
 5377SOL     OW17029   0.892   1.598   1.477
 5377SOL    HW117030   0.980   1.616   1.520
 5377SOL    HW217031   0.830   1.558   1.544
 5378SOL     OW17032   4.367   6.913   0.186
 5378SOL    HW117033   4.360   6.891   0.089
 5378SOL    HW217034   4.335   6.835   0.240
 5379SOL     OW17035   6.707   6.598   1.411
 5379SOL    HW117036   6.726   6.696   1.407
 5379SOL    HW217037   6.639   6.580   1.483
 5380SOL     OW17038   2.370   0.389   4.283
 5380SOL    HW117039   2.319   0.433   4.357
 5380SOL    HW217040   2.381   0.453   4.207
 5381SOL     OW17041   5.365   3.552   1.523
 5381SOL    HW117042   5.307   3.475   1.499
 5381SOL    HW217043   5.389   3.547   1.620
 5382SOL     OW17044   1.753   0.707   1.559
 5382SOL    HW117045   1.800   0.728   1.645
 5382SOL    HW217046   1.658   0.680   1.579
 5383SOL     OW17047   1.866   2.253   4.670
 5383SOL    HW117048   1.811   2.323   4.624
 5383SOL    HW217049   1.824   2.163   4.656
 5384SOL     OW17050   5.947   0.058   4.213
 5384SOL    HW117051   5.898   6.987   4.216
 5384SOL    HW217052   6.041   0.043   4.185
 5385SOL     OW17053   3.182   4.002   2.612
 5385SOL    HW117054   3.126   4.022   2.532
 5385SOL    HW217055   3.242   3.924   2.593
 5386SOL     OW17056   5.506   6.947   5.819
 5386SOL    HW117057   5.530   7.007   5.895
 5386SOL    HW217058   5.494   7.002   5.736
 5387SOL     OW17059   3.022   5.330   1.058
 5387SOL    HW117060   2.973   5.415   1.039
 5387SOL    HW217061   3.121   5.346   1.055
 5388SOL     OW17062   6.114   6.612   2.508
 5388SOL    HW117063   6.178   6.605   2.432
 5388SOL    HW217064   6.163   6.600   2.594
 5389SOL     OW17065   4.942   2.000   1.163
 5389SOL    HW117066   4.889   2.058   1.101
 5389SOL    HW217067   4.984   1.926   1.111
 5390SOL     OW17068   6.460   4.748   6.003
 5390SOL    HW117069   6.507   4.819   6.055
 5390SOL    HW217070   6.371   4.782   5.974
 5391SOL     OW17071   2.562   3.781   0.090
 5391SOL    HW117072   2.639   3.843   0.077
 5391SOL    HW217073   2.595   3.687   0.088
 5392SOL     OW17074   6.130   2.684   2.367
 5392SOL    HW117075   6.216   2.722   2.399
 5392SOL    HW217076   6.147   2.602   2.313
 5393SOL     OW17077   6.068   6.902   6.190
 5393SOL    HW117078   6.024   6.977   6.139
 5393SOL    HW217079   6.066   6.923   6.288
 5394SOL     OW17080   1.589   3.995   5.759
 5394SOL    HW117081   1.544   3.955   5.838
 5394SOL    HW217082   1.558   4.090   5.747
 5395SOL     OW17083   4.502   0.565   0.140
 5395SOL    HW117084   4.579   0.629   0.134
 5395SOL    HW217085   4.442   0.591   0.216
 5396SOL     OW17086   5.012   2.655   2.350
 5396SOL    HW117087   5.041   2.629   2.258
 5396SOL    HW217088   5.075   2.724   2.386
 5397SOL     OW17089   0.509   2.902   1.617
 5397SOL    HW117090   0.505   2.828   1.684
 5397SOL    HW217091   0.561   2.873   1.537
 5398SOL     OW17092   3.546   3.279   1.984
 5398SOL    HW117093   3.624   3.219   2.002
 5398SOL    HW217094   3.572   3.349   1.918
 5399SOL     OW17095   1.088   6.204   0.099
 5399SOL    HW117096   1.082   6.259   0.017
 5399SOL    HW217097   0.999   6.203   0.146
 5400SOL     OW17098   2.382   4.411   6.666
 5400SOL    HW117099   2.349   4.326   6.708
 5400SOL    HW217100   2.466   4.440   6.711
 5401SOL     OW17101   6.256   1.989   1.629
 5401SOL    HW117102   6.284   2.079   1.594
 5401SOL    HW217103   6.333   1.926   1.626
 5402SOL     OW17104   1.810   6.226   2.547
 5402SOL    HW117105   1.844   6.132   2.548
 5402SOL    HW217106   1.817   6.265   2.639
 5403SOL     OW17107   6.107   3.404   6.765
 5403SOL    HW117108   6.084   3.308   6.782
 5403SOL    HW217109   6.145   3.444   6.848
 5404SOL     OW17110   1.461   2.948   2.782
 5404SOL    HW117111   1.528   3.015   2.812
 5404SOL    HW217112   1.378   2.957   2.838
 5405SOL     OW17113   6.942   4.163   5.773
 5405SOL    HW117114   0.006   4.106   5.785
 5405SOL    HW217115   6.876   4.142   5.846
 5406SOL     OW17116   2.145   6.825   4.339
 5406SOL    HW117117   2.063   6.773   4.315
 5406SOL    HW217118   2.127   6.880   4.421
 5407SOL     OW17119   4.355   2.851   0.028
 5407SOL    HW117120   4.272   2.869   6.992
 5407SOL    HW217121   4.397   2.766   7.012
 5408SOL     OW17122   3.071   1.414   0.269
 5408SOL    HW117123   3.054   1.488   0.204
 5408SOL    HW217124   3.095   1.452   0.358
 5409SOL     OW17125   3.947   0.744   2.500
 5409SOL    HW117126   3.947   0.733   2.401
 5409SOL    HW217127   4.041   0.764   2.531
 5410SOL     OW17128   1.643   2.556   2.578
 5410SOL    HW117129   1.720   2.555   2.514
 5410SOL    HW217130   1.657   2.629   2.645
 5411SOL     OW17131   1.407   5.037   4.539
 5411SOL    HW117132   1.410   4.940   4.515
 5411SOL    HW217133   1.344   5.085   4.479
 5412SOL     OW17134   5.982   2.649   1.743
 5412SOL    HW117135   5.909   2.657   1.676
 5412SOL    HW217136   5.944   2.619   1.831
 5413SOL     OW17137   2.691   0.412   2.044
 5413SOL    HW117138   2.781   0.399   2.085
 5413SOL    HW217139   2.625   0.353   2.090
 5414SOL     OW17140   4.589   0.915   5.859
 5414SOL    HW117141   4.588   0.816   5.854
 5414SOL    HW217142   4.614   0.953   5.769
 5415SOL     OW17143   5.913   4.016   2.109
 5415SOL    HW117144   5.969   3.970   2.040
 5415SOL    HW217145   5.971   4.075   2.165
 5416SOL     OW17146   4.400   5.255   4.149
 5416SOL    HW117147   4.406   5.182   4.217
 5416SOL    HW217148   4.402   5.343   4.195
 5417SOL     OW17149   3.803   6.919   5.145
 5417SOL    HW117150   3.719   6.865   5.154
 5417SOL    HW217151   3.822   6.967   5.231
 5418SOL     OW17152   3.561   0.577   2.935
 5418SOL    HW117153   3.581   0.662   2.886
 5418SOL    HW217154   3.574   0.592   3.033
 5419SOL     OW17155   3.358   4.208   6.890
 5419SOL    HW117156   3.305   4.172   6.966
 5419SOL    HW217157   3.303   4.273   6.838
 5420SOL     OW17158   1.356   2.086   2.624
 5420SOL    HW117159   1.419   2.139   2.682
 5420SOL    HW217160   1.309   2.018   2.680
 5421SOL     OW17161   1.612   3.114   1.559
 5421SOL    HW117162   1.627   3.021   1.593
 5421SOL    HW217163   1.552   3.163   1.621
 5422SOL     OW17164   1.786   3.924   0.408
 5422SOL    HW117165   1.791   4.017   0.446
 5422SOL    HW217166   1.767   3.930   0.310
 5423SOL     OW17167   5.760   3.552   6.217
 5423SOL    HW117168   5.806   3.518   6.300
 5423SOL    HW217169   5.786   3.647   6.202
 5424SOL     OW17170   5.193   3.369   5.455
 5424SOL    HW117171   5.177   3.438   5.384
 5424SOL    HW217172   5.215   3.415   5.541
 5425SOL     OW17173   5.228   0.886   4.724
 5425SOL    HW117174   5.229   0.818   4.797
 5425SOL    HW217175   5.205   0.841   4.637
 5426SOL     OW17176   6.944   6.990   5.091
 5426SOL    HW117177   6.959   6.892   5.100
 5426SOL    HW217178   6.851   7.012   5.123
 5427SOL     OW17179   3.853   6.205   6.964
 5427SOL    HW117180   3.828   6.264   6.887
 5427SOL    HW217181   3.947   6.174   6.954
 5428SOL     OW17182   1.703   0.635   6.331
 5428SOL    HW117183   1.640   0.668   6.402
 5428SOL    HW217184   1.748   0.552   6.363
 5429SOL     OW17185   1.342   2.658   6.682
 5429SOL    HW117186   1.268   2.636   6.746
 5429SOL    HW217187   1.409   2.584   6.681
 5430SOL     OW17188   1.907   1.896   4.907
 5430SOL    HW117189   1.969   1.974   4.909
 5430SOL    HW217190   1.911   1.852   4.818
 5431SOL     OW17191   3.504   5.942   4.660
 5431SOL    HW117192   3.527   6.027   4.707
 5431SOL    HW217193   3.522   5.952   4.562
 5432SOL     OW17194   6.213   6.357   1.502
 5432SOL    HW117195   6.201   6.388   1.408
 5432SOL    HW217196   6.148   6.405   1.561
 5433SOL     OW17197   0.139   1.965   4.424
 5433SOL    HW117198   0.200   1.977   4.345
 5433SOL    HW217199   0.079   2.044   4.432
 5434SOL     OW17200   2.762   6.983   5.562
 5434SOL    HW117201   2.684   0.027   5.552
 5434SOL    HW217202   2.846   0.020   5.570
 5435SOL     OW17203   4.604   1.092   1.629
 5435SOL    HW117204   4.547   1.162   1.672
 5435SOL    HW217205   4.615   1.112   1.532
 5436SOL     OW17206   5.203   3.884   2.618
 5436SOL    HW117207   5.128   3.828   2.581
 5436SOL    HW217208   5.202   3.974   2.574
 5437SOL     OW17209   3.368   4.102   6.395
 5437SOL    HW117210   3.465   4.117   6.372
 5437SOL    HW217211   3.361   4.059   6.485
 5438SOL     OW17212   6.704   1.161   1.624
 5438SOL    HW117213   6.765   1.100   1.674
 5438SOL    HW217214   6.701   1.133   1.528
 5439SOL     OW17215   1.771   2.567   1.217
 5439SOL    HW117216   1.709   2.490   1.206
 5439SOL    HW217217   1.862   2.534   1.243
 5440SOL     OW17218   1.435   1.983   0.735
 5440SOL    HW117219   1.463   1.983   0.831
 5440SOL    HW217220   1.500   2.038   0.683
 5441SOL     OW17221   4.235   1.729   4.058
 5441SOL    HW117222   4.212   1.820   4.024
 5441SOL    HW217223   4.326   1.703   4.024
 5442SOL     OW17224   3.509   0.400   2.716
 5442SOL    HW117225   3.517   0.475   2.782
 5442SOL    HW217226   3.495   0.438   2.624
 5443SOL     OW17227   3.190   6.832   5.805
 5443SOL    HW117228   3.232   6.764   5.866
 5443SOL    HW217229   3.094   6.843   5.828
 5444SOL     OW17230   0.317   0.217   3.938
 5444SOL    HW117231   0.268   0.130   3.948
 5444SOL    HW217232   0.254   0.287   3.904
 5445SOL     OW17233   5.685   3.511   1.852
 5445SOL    HW117234   5.748   3.528   1.927
 5445SOL    HW217235   5.676   3.412   1.838
 5446SOL     OW17236   6.870   5.949   5.692
 5446SOL    HW117237   6.787   5.897   5.712
 5446SOL    HW217238   6.876   6.028   5.754
 5447SOL     OW17239   3.141   2.188   1.287
 5447SOL    HW117240   3.137   2.286   1.309
 5447SOL    HW217241   3.109   2.174   1.194
 5448SOL     OW17242   5.490   2.162   6.185
 5448SOL    HW117243   5.454   2.176   6.277
 5448SOL    HW217244   5.575   2.213   6.174
 5449SOL     OW17245   0.370   3.573   6.808
 5449SOL    HW117246   0.309   3.641   6.848
 5449SOL    HW217247   0.350   3.564   6.710
 5450SOL     OW17248   2.158   6.890   0.665
 5450SOL    HW117249   2.204   6.823   0.724
 5450SOL    HW217250   2.091   6.842   0.607
 5451SOL     OW17251   1.441   0.146   2.602
 5451SOL    HW117252   1.412   0.225   2.655
 5451SOL    HW217253   1.540   0.132   2.614
 5452SOL     OW17254   2.574   3.852   5.523
 5452SOL    HW117255   2.575   3.951   5.539
 5452SOL    HW217256   2.623   3.806   5.596
 5453SOL     OW17257   6.675   4.893   6.422
 5453SOL    HW117258   6.733   4.854   6.493
 5453SOL    HW217259   6.664   4.991   6.439
 5454SOL     OW17260   0.479   3.903   5.681
 5454SOL    HW117261   0.443   3.864   5.765
 5454SOL    HW217262   0.498   3.830   5.615
 5455SOL     OW17263   7.003   2.832   0.941
 5455SOL    HW117264   6.990   2.813   1.038
 5455SOL    HW217265   6.917   2.865   0.901
 5456SOL     OW17266   3.150   6.481   1.549
 5456SOL    HW117267   3.164   6.431   1.635
 5456SOL    HW217268   3.143   6.579   1.569
 5457SOL     OW17269   5.465   3.573   0.455
 5457SOL    HW117270   5.460   3.513   0.375
 5457SOL    HW217271   5.553   3.619   0.457
 5458SOL     OW17272   2.250   4.693   6.571
 5458SOL    HW117273   2.164   4.730   6.536
 5458SOL    HW217274   2.286   4.626   6.506
 5459SOL     OW17275   2.091   4.822   6.038
 5459SOL    HW117276   2.007   4.844   5.988
 5459SOL    HW217277   2.067   4.780   6.125
 5460SOL     OW17278   3.457   0.147   2.277
 5460SOL    HW117279   3.377   0.205   2.294
 5460SOL    HW217280   3.528   0.168   2.343
 5461SOL     OW17281   4.605   6.488   4.817
 5461SOL    HW117282   4.651   6.571   4.848
 5461SOL    HW217283   4.521   6.512   4.768
 5462SOL     OW17284   0.675   0.141   1.376
 5462SOL    HW117285   0.644   0.230   1.409
 5462SOL    HW217286   0.775   0.142   1.366
 5463SOL     OW17287   6.801   2.988   0.803
 5463SOL    HW117288   6.770   3.042   0.881
 5463SOL    HW217289   6.731   2.920   0.780
 5464SOL     OW17290   2.334   6.210   3.882
 5464SOL    HW117291   2.406   6.181   3.819
 5464SOL    HW217292   2.332   6.148   3.961
 5465SOL     OW17293   2.292   6.391   6.200
 5465SOL    HW117294   2.365   6.457   6.180
 5465SOL    HW217295   2.224   6.434   6.260
 5466SOL     OW17296   5.160   4.805   4.946
 5466SOL    HW117297   5.214   4.846   5.019
 5466SOL    HW217298   5.219   4.750   4.887
 5467SOL     OW17299   5.938   1.637   2.373
 5467SOL    HW117300   6.003   1.713   2.378
 5467SOL    HW217301   5.887   1.641   2.288
 5468SOL     OW17302   4.351   1.771   5.509
 5468SOL    HW117303   4.407   1.691   5.489
 5468SOL    HW217304   4.256   1.744   5.523
 5469SOL     OW17305   4.719   4.641   0.605
 5469SOL    HW117306   4.640   4.649   0.545
 5469SOL    HW217307   4.705   4.697   0.687
 5470SOL     OW17308   0.678   5.156   3.233
 5470SOL    HW117309   0.657   5.194   3.143
 5470SOL    HW217310   0.629   5.208   3.303
 5471SOL     OW17311   6.343   4.980   2.432
 5471SOL    HW117312   6.416   4.979   2.364
 5471SOL    HW217313   6.258   4.947   2.390
 5472SOL     OW17314   3.764   5.268   5.718
 5472SOL    HW117315   3.686   5.283   5.779
 5472SOL    HW217316   3.849   5.280   5.768
 5473SOL     OW17317   1.140   3.574   3.710
 5473SOL    HW117318   1.227   3.622   3.700
 5473SOL    HW217319   1.148   3.505   3.782
 5474SOL     OW17320   1.553   6.045   3.759
 5474SOL    HW117321   1.639   6.058   3.808
 5474SOL    HW217322   1.529   6.128   3.710
 5475SOL     OW17323   3.095   2.693   1.354
 5475SOL    HW117324   3.153   2.755   1.406
 5475SOL    HW217325   3.048   2.744   1.281
 5476SOL     OW17326   1.664   3.830   6.511
 5476SOL    HW117327   1.694   3.757   6.450
 5476SOL    HW217328   1.570   3.813   6.540
 5477SOL     OW17329   2.001   2.716   2.436
 5477SOL    HW117330   1.945   2.793   2.466
 5477SOL    HW217331   1.990   2.640   2.500
 5478SOL     OW17332   6.919   6.124   6.207
 5478SOL    HW117333   6.907   6.223   6.215
 5478SOL    HW217334   6.829   6.079   6.212
 5479SOL     OW17335   4.569   0.211   4.410
 5479SOL    HW117336   4.505   0.286   4.393
 5479SOL    HW217337   4.644   0.242   4.468
 5480SOL     OW17338   0.682   2.546   5.220
 5480SOL    HW117339   0.690   2.584   5.312
 5480SOL    HW217340   0.752   2.586   5.162
 5481SOL     OW17341   5.026   6.515   3.729
 5481SOL    HW117342   4.929   6.518   3.708
 5481SOL    HW217343   5.045   6.564   3.813
 5482SOL     OW17344   1.497   4.571   2.169
 5482SOL    HW117345   1.583   4.538   2.208
 5482SOL    HW217346   1.455   4.498   2.115
 5483SOL     OW17347   0.740   3.302   6.124
 5483SOL    HW117348   0.744   3.343   6.033
 5483SOL    HW217349   0.782   3.363   6.191
 5484SOL     OW17350   5.204   0.360   4.861
 5484SOL    HW117351   5.205   0.421   4.781
 5484SOL    HW217352   5.297   0.332   4.883
 5485SOL     OW17353   3.767   0.566   4.878
 5485SOL    HW117354   3.833   0.507   4.832
 5485SOL    HW217355   3.674   0.539   4.852
 5486SOL     OW17356   2.688   5.527   4.354
 5486SOL    HW117357   2.673   5.475   4.438
 5486SOL    HW217358   2.781   5.512   4.322
 5487SOL     OW17359   3.411   5.440   5.623
 5487SOL    HW117360   3.483   5.407   5.562
 5487SOL    HW217361   3.326   5.450   5.571
 5488SOL     OW17362   5.225   2.000   0.593
 5488SOL    HW117363   5.217   2.099   0.590
 5488SOL    HW217364   5.309   1.972   0.546
 5489SOL     OW17365   0.149   3.388   3.957
 5489SOL    HW117366   0.196   3.451   4.019
 5489SOL    HW217367   0.150   3.296   3.996
 5490SOL     OW17368   1.423   5.791   2.694
 5490SOL    HW117369   1.437   5.780   2.596
 5490SOL    HW217370   1.378   5.710   2.731
 5491SOL     OW17371   6.146   3.874   0.555
 5491SOL    HW117372   6.116   3.945   0.620
 5491SOL    HW217373   6.234   3.838   0.584
 5492SOL     OW17374   0.124   1.752   6.216
 5492SOL    HW117375   0.034   1.786   6.243
 5492SOL    HW217376   0.195   1.810   6.255
 5493SOL     OW17377   4.409   3.910   0.657
 5493SOL    HW117378   4.417   3.884   0.753
 5493SOL    HW217379   4.392   3.828   0.602
 5494SOL     OW17380   5.863   3.123   5.573
 5494SOL    HW117381   5.876   3.201   5.512
 5494SOL    HW217382   5.916   3.137   5.657
 5495SOL     OW17383   5.461   6.815   0.234
 5495SOL    HW117384   5.418   6.903   0.253
 5495SOL    HW217385   5.540   6.801   0.294
 5496SOL     OW17386   4.230   6.979   5.230
 5496SOL    HW117387   4.229   6.888   5.189
 5496SOL    HW217388   4.249   0.030   5.159
 5497SOL     OW17389   0.705   0.400   4.786
 5497SOL    HW117390   0.734   0.491   4.758
 5497SOL    HW217391   0.606   0.393   4.781
 5498SOL     OW17392   0.270   5.327   0.933
 5498SOL    HW117393   0.244   5.384   0.854
 5498SOL    HW217394   0.358   5.357   0.969
 5499SOL     OW17395   2.261   0.100   4.501
 5499SOL    HW117396   2.206   0.110   4.418
 5499SOL    HW217397   2.227   0.023   4.555
 5500SOL     OW17398   2.412   0.184   1.363
 5500SOL    HW117399   2.494   0.240   1.352
 5500SOL    HW217400   2.331   0.237   1.337
 5501SOL     OW17401   4.090   3.373   7.014
 5501SOL    HW117402   4.171   3.427   6.992
 5501SOL    HW217403   4.057   3.397   0.088
 5502SOL     OW17404   4.875   3.532   0.118
 5502SOL    HW117405   4.881   3.627   0.087
 5502SOL    HW217406   4.812   3.482   0.059
 5503SOL     OW17407   5.971   3.118   0.869
 5503SOL    HW117408   5.970   3.207   0.824
 5503SOL    HW217409   5.892   3.064   0.838
 5504SOL     OW17410   4.231   2.192   0.071
 5504SOL    HW117411   4.259   2.202   6.993
 5504SOL    HW217412   4.312   2.184   0.129
 5505SOL     OW17413   3.188   4.918   3.188
 5505SOL    HW117414   3.138   4.852   3.244
 5505SOL    HW217415   3.126   4.989   3.156
 5506SOL     OW17416   6.334   2.688   6.426
 5506SOL    HW117417   6.373   2.739   6.350
 5506SOL    HW217418   6.235   2.700   6.428
 5507SOL     OW17419   3.827   0.251   0.145
 5507SOL    HW117420   3.861   0.157   0.153
 5507SOL    HW217421   3.855   0.290   0.057
 5508SOL     OW17422   0.595   1.129   6.358
 5508SOL    HW117423   0.591   1.227   6.375
 5508SOL    HW217424   0.546   1.108   6.273
 5509SOL     OW17425   6.402   4.559   0.552
 5509SOL    HW117426   6.309   4.549   0.517
 5509SOL    HW217427   6.414   4.651   0.588
 5510SOL     OW17428   4.988   5.275   6.587
 5510SOL    HW117429   5.034   5.193   6.553
 5510SOL    HW217430   4.890   5.259   6.592
 5511SOL     OW17431   0.913   2.599   6.316
 5511SOL    HW117432   0.860   2.649   6.385
 5511SOL    HW217433   0.989   2.656   6.286
 5512SOL     OW17434   1.826   0.101   2.330
 5512SOL    HW117435   1.771   0.019   2.343
 5512SOL    HW217436   1.834   0.150   2.417
 5513SOL     OW17437   3.760   4.625   6.959
 5513SOL    HW117438   3.806   4.572   6.888
 5513SOL    HW217439   3.802   4.604   0.031
 5514SOL     OW17440   3.457   1.138   0.191
 5514SOL    HW117441   3.370   1.134   0.143
 5514SOL    HW217442   3.483   1.046   0.221
 5515SOL     OW17443   3.338   5.294   2.203
 5515SOL    HW117444   3.345   5.298   2.303
 5515SOL    HW217445   3.302   5.205   2.176
 5516SOL     OW17446   2.096   2.056   5.288
 5516SOL    HW117447   2.101   1.964   5.249
 5516SOL    HW217448   2.134   2.056   5.380
 5517SOL     OW17449   1.545   2.352   3.410
 5517SOL    HW117450   1.469   2.294   3.380
 5517SOL    HW217451   1.520   2.448   3.396
 5518SOL     OW17452   4.663   4.980   0.002
 5518SOL    HW117453   4.747   5.006   0.049
 5518SOL    HW217454   4.631   4.892   0.037
 5519SOL     OW17455   5.196   2.624   5.104
 5519SOL    HW117456   5.263   2.675   5.051
 5519SOL    HW217457   5.243   2.559   5.164
 5520SOL     OW17458   4.845   0.282   1.310
 5520SOL    HW117459   4.780   0.206   1.300
 5520SOL    HW217460   4.795   0.368   1.313
 5521SOL     OW17461   4.807   6.306   2.378
 5521SOL    HW117462   4.709   6.326   2.376
 5521SOL    HW217463   4.852   6.351   2.301
 5522SOL     OW17464   6.032   6.382   0.574
 5522SOL    HW117465   6.048   6.318   0.499
 5522SOL    HW217466   6.097   6.363   0.648
 5523SOL     OW17467   5.032   1.613   0.842
 5523SOL    HW117468   5.036   1.668   0.925
 5523SOL    HW217469   4.940   1.615   0.804
 5524SOL     OW17470   2.387   1.145   3.150
 5524SOL    HW117471   2.347   1.230   3.115
 5524SOL    HW217472   2.391   1.150   3.250
 5525SOL     OW17473   6.277   1.356   1.056
 5525SOL    HW117474   6.225   1.405   1.125
 5525SOL    HW217475   6.328   1.421   1.000
 5526SOL     OW17476   5.585   4.362   3.840
 5526SOL    HW117477   5.679   4.394   3.829
 5526SOL    HW217478   5.585   4.264   3.862
 5527SOL     OW17479   6.544   0.077   2.821
 5527SOL    HW117480   6.483   0.059   2.898
 5527SOL    HW217481   6.635   0.042   2.842
 5528SOL     OW17482   1.301   1.994   7.015
 5528SOL    HW117483   1.208   2.029   0.010
 5528SOL    HW217484   1.300   1.915   6.953
 5529SOL     OW17485   3.241   0.630   2.655
 5529SOL    HW117486   3.304   0.707   2.646
 5529SOL    HW217487   3.171   0.652   2.723
 5530SOL     OW17488   6.976   1.829   1.061
 5530SOL    HW117489   6.930   1.741   1.076
 5530SOL    HW217490   0.044   1.814   1.010
 5531SOL     OW17491   1.903   4.265   1.674
 5531SOL    HW117492   1.916   4.331   1.600
 5531SOL    HW217493   1.851   4.187   1.641
 5532SOL     OW17494   0.786   3.140   6.947
 5532SOL    HW117495   0.814   3.189   6.864
 5532SOL    HW217496   0.807   3.196   0.010
 5533SOL     OW17497   3.957   1.301   2.649
 5533SOL    HW117498   3.883   1.335   2.708
 5533SOL    HW217499   3.956   1.201   2.649
 5534SOL     OW17500   1.385   0.168   4.600
 5534SOL    HW117501   1.358   0.117   4.682
 5534SOL    HW217502   1.479   0.200   4.610
 5535SOL     OW17503   6.809   1.992   2.813
 5535SOL    HW117504   6.861   1.911   2.839
 5535SOL    HW217505   6.788   2.046   2.895
 5536SOL     OW17506   5.050   6.335   4.358
 5536SOL    HW117507   5.069   6.426   4.321
 5536SOL    HW217508   5.044   6.340   4.458
 5537SOL     OW17509   2.775   2.375   3.485
 5537SOL    HW117510   2.853   2.415   3.534
 5537SOL    HW217511   2.710   2.447   3.461
 5538SOL     OW17512   4.707   5.256   4.280
 5538SOL    HW117513   4.651   5.260   4.363
 5538SOL    HW217514   4.803   5.263   4.304
 5539SOL     OW17515   2.085   4.530   6.757
 5539SOL    HW117516   2.058   4.529   6.661
 5539SOL    HW217517   2.005   4.516   6.815
 5540SOL     OW17518   3.958   5.243   1.650
 5540SOL    HW117519   3.861   5.222   1.640
 5540SOL    HW217520   4.004   5.229   1.562
 5541SOL     OW17521   4.677   1.133   5.470
 5541SOL    HW117522   4.594   1.186   5.449
 5541SOL    HW217523   4.737   1.187   5.529
 5542SOL     OW17524   5.487   4.547   6.717
 5542SOL    HW117525   5.585   4.529   6.723
 5542SOL    HW217526   5.470   4.644   6.735
 5543SOL     OW17527   0.490   1.841   5.073
 5543SOL    HW117528   0.532   1.921   5.031
 5543SOL    HW217529   0.436   1.870   5.152
 5544SOL     OW17530   5.497   0.613   6.637
 5544SOL    HW117531   5.426   0.667   6.591
 5544SOL    HW217532   5.493   0.630   6.735
 5545SOL     OW17533   2.382   2.683   2.023
 5545SOL    HW117534   2.376   2.743   1.943
 5545SOL    HW217535   2.436   2.602   2.000
 5546SOL     OW17536   4.105   4.779   5.921
 5546SOL    HW117537   4.179   4.838   5.955
 5546SOL    HW217538   4.017   4.819   5.946
 5547SOL     OW17539   3.227   5.588   4.548
 5547SOL    HW117540   3.146   5.529   4.545
 5547SOL    HW217541   3.290   5.561   4.475
 5548SOL     OW17542   0.723   2.157   4.679
 5548SOL    HW117543   0.714   2.086   4.610
 5548SOL    HW217544   0.677   2.128   4.763
 5549SOL     OW17545   3.252   5.116   0.057
 5549SOL    HW117546   3.270   5.138   6.978
 5549SOL    HW217547   3.270   5.019   0.074
 5550SOL     OW17548   2.534   5.960   2.363
 5550SOL    HW117549   2.633   5.964   2.371
 5550SOL    HW217550   2.501   6.036   2.307
 5551SOL     OW17551   0.516   1.096   3.015
 5551SOL    HW117552   0.591   1.105   3.080
 5551SOL    HW217553   0.503   0.999   2.993
 5552SOL     OW17554   1.455   2.494   2.393
 5552SOL    HW117555   1.516   2.536   2.460
 5552SOL    HW217556   1.487   2.514   2.301
 5553SOL     OW17557   4.325   6.048   6.296
 5553SOL    HW117558   4.311   6.014   6.203
 5553SOL    HW217559   4.416   6.020   6.328
 5554SOL     OW17560   3.312   1.218   4.540
 5554SOL    HW117561   3.388   1.201   4.477
 5554SOL    HW217562   3.225   1.210   4.490
 5555SOL     OW17563   1.292   6.222   1.489
 5555SOL    HW117564   1.252   6.136   1.456
 5555SOL    HW217565   1.330   6.273   1.411
 5556SOL     OW17566   0.233   0.837   4.596
 5556SOL    HW117567   0.188   0.787   4.670
 5556SOL    HW217568   0.328   0.805   4.587
 5557SOL     OW17569   2.620   0.420   2.593
 5557SOL    HW117570   2.557   0.342   2.604
 5557SOL    HW217571   2.624   0.472   2.679
 5558SOL     OW17572   5.080   1.878   5.363
 5558SOL    HW117573   5.060   1.890   5.460
 5558SOL    HW217574   5.175   1.904   5.345
 5559SOL     OW17575   1.821   0.958   1.221
 5559SOL    HW117576   1.875   0.900   1.282
 5559SOL    HW217577   1.729   0.969   1.258
 5560SOL     OW17578   0.431   1.373   4.575
 5560SOL    HW117579   0.492   1.334   4.644
 5560SOL    HW217580   0.355   1.310   4.557
 5561SOL     OW17581   1.396   4.052   2.498
 5561SOL    HW117582   1.322   3.991   2.525
 5561SOL    HW217583   1.479   4.027   2.548
 5562SOL     OW17584   3.288   2.365   6.880
 5562SOL    HW117585   3.314   2.329   6.970
 5562SOL    HW217586   3.338   2.316   6.809
 5563SOL     OW17587   4.020   4.210   1.420
 5563SOL    HW117588   4.070   4.266   1.485
 5563SOL    HW217589   3.963   4.144   1.469
 5564SOL     OW17590   5.143   2.401   1.349
 5564SOL    HW117591   5.128   2.304   1.367
 5564SOL    HW217592   5.092   2.456   1.415
 5565SOL     OW17593   2.438   2.585   5.023
 5565SOL    HW117594   2.529   2.553   5.049
 5565SOL    HW217595   2.411   2.660   5.083
 5566SOL     OW17596   2.273   3.891   0.470
 5566SOL    HW117597   2.283   3.820   0.401
 5566SOL    HW217598   2.177   3.898   0.497
 5567SOL     OW17599   1.415   5.078   2.936
 5567SOL    HW117600   1.351   5.144   2.897
 5567SOL    HW217601   1.446   5.111   3.026
 5568SOL     OW17602   3.720   2.374   0.074
 5568SOL    HW117603   3.739   2.336   0.165
 5568SOL    HW217604   3.670   2.460   0.083
 5569SOL     OW17605   4.746   1.776   6.747
 5569SOL    HW117606   4.736   1.821   6.836
 5569SOL    HW217607   4.826   1.715   6.750
 5570SOL     OW17608   1.054   2.702   5.503
 5570SOL    HW117609   1.035   2.760   5.582
 5570SOL    HW217610   1.081   2.759   5.426
 5571SOL     OW17611   6.769   4.468   6.518
 5571SOL    HW117612   6.697   4.536   6.504
 5571SOL    HW217613   6.727   4.378   6.529
 5572SOL     OW17614   0.539   3.134   5.554
 5572SOL    HW117615   0.497   3.068   5.617
 5572SOL    HW217616   0.567   3.087   5.471
 5573SOL     OW17617   6.643   3.901   6.869
 5573SOL    HW117618   6.633   3.962   6.948
 5573SOL    HW217619   6.741   3.882   6.855
 5574SOL     OW17620   1.539   6.802   4.082
 5574SOL    HW117621   1.637   6.820   4.085
 5574SOL    HW217622   1.515   6.754   3.998
 5575SOL     OW17623   1.179   1.527   2.584
 5575SOL    HW117624   1.138   1.502   2.672
 5575SOL    HW217625   1.218   1.446   2.541
 5576SOL     OW17626   5.356   6.504   5.703
 5576SOL    HW117627   5.445   6.546   5.687
 5576SOL    HW217628   5.360   6.446   5.784
 5577SOL     OW17629   2.303   4.412   4.557
 5577SOL    HW117630   2.261   4.361   4.482
 5577SOL    HW217631   2.345   4.348   4.621
 5578SOL     OW17632   3.275   2.368   6.107
 5578SOL    HW117633   3.320   2.333   6.025
 5578SOL    HW217634   3.275   2.468   6.106
 5579SOL     OW17635   5.312   4.949   1.810
 5579SOL    HW117636   5.343   4.885   1.740
 5579SOL    HW217637   5.214   4.937   1.825
 5580SOL     OW17638   5.180   1.562   1.365
 5580SOL    HW117639   5.213   1.655   1.349
 5580SOL    HW217640   5.147   1.523   1.279
 5581SOL     OW17641   3.112   2.721   0.574
 5581SOL    HW117642   3.180   2.747   0.642
 5581SOL    HW217643   3.028   2.693   0.620
 5582SOL     OW17644   3.465   2.834   3.103
 5582SOL    HW117645   3.506   2.758   3.053
 5582SOL    HW217646   3.392   2.874   3.048
 5583SOL     OW17647   3.970   0.768   0.242
 5583SOL    HW117648   4.058   0.757   0.287
 5583SOL    HW217649   3.898   0.729   0.298
 5584SOL     OW17650   4.856   3.335   3.631
 5584SOL    HW117651   4.866   3.412   3.695
 5584SOL    HW217652   4.775   3.283   3.655
 5585SOL     OW17653   0.727   6.995   3.463
 5585SOL    HW117654   0.649   6.988   3.525
 5585SOL    HW217655   0.796   0.039   3.503
 5586SOL     OW17656   2.294   0.676   6.790
 5586SOL    HW117657   2.384   0.636   6.772
 5586SOL    HW217658   2.279   0.754   6.729
 5587SOL     OW17659   3.482   6.383   3.597
 5587SOL    HW117660   3.569   6.352   3.634
 5587SOL    HW217661   3.496   6.417   3.503
 5588SOL     OW17662   5.265   6.424   6.767
 5588SOL    HW117663   5.222   6.389   6.851
 5588SOL    HW217664   5.303   6.515   6.784
 5589SOL     OW17665   2.015   3.852   0.536
 5589SOL    HW117666   2.032   3.770   0.591
 5589SOL    HW217667   1.918   3.859   0.515
 5590SOL     OW17668   6.849   0.380   3.550
 5590SOL    HW117669   6.785   0.304   3.562
 5590SOL    HW217670   6.844   0.442   3.628
 5591SOL     OW17671   5.548   0.134   0.599
 5591SOL    HW117672   5.473   0.187   0.641
 5591SOL    HW217673   5.525   0.036   0.604
 5592SOL     OW17674   1.247   2.635   2.528
 5592SOL    HW117675   1.152   2.611   2.511
 5592SOL    HW217676   1.307   2.571   2.480
 5593SOL     OW17677   2.333   4.363   4.865
 5593SOL    HW117678   2.241   4.341   4.834
 5593SOL    HW217679   2.377   4.280   4.900
 5594SOL     OW17680   2.446   1.577   6.429
 5594SOL    HW117681   2.518   1.519   6.392
 5594SOL    HW217682   2.359   1.553   6.387
 5595SOL     OW17683   0.800   3.300   6.692
 5595SOL    HW117684   0.716   3.297   6.638
 5595SOL    HW217685   0.854   3.380   6.665
 5596SOL     OW17686   4.904   3.507   4.559
 5596SOL    HW117687   4.876   3.412   4.542
 5596SOL    HW217688   4.915   3.522   4.657
 5597SOL     OW17689   6.700   1.840   6.608
 5597SOL    HW117690   6.616   1.866   6.657
 5597SOL    HW217691   6.749   1.923   6.581
 5598SOL     OW17692   6.194   1.115   3.876
 5598SOL    HW117693   6.286   1.113   3.835
 5598SOL    HW217694   6.177   1.206   3.914
 5599SOL     OW17695   5.569   3.087   3.243
 5599SOL    HW117696   5.666   3.066   3.248
 5599SOL    HW217697   5.543   3.146   3.320
 5600SOL     OW17698   2.006   2.687   2.156
 5600SOL    HW117699   2.062   2.731   2.225
 5600SOL    HW217700   1.914   2.727   2.157
 5601SOL     OW17701   5.851   2.893   6.500
 5601SOL    HW117702   5.788   2.893   6.422
 5601SOL    HW217703   5.813   2.837   6.574
 5602SOL     OW17704   6.260   1.942   2.965
 5602SOL    HW117705   6.233   2.019   2.906
 5602SOL    HW217706   6.212   1.859   2.934
 5603SOL     OW17707   3.510   2.199   6.305
 5603SOL    HW117708   3.440   2.253   6.259
 5603SOL    HW217709   3.466   2.130   6.363
 5604SOL     OW17710   1.171   5.665   3.153
 5604SOL    HW117711   1.120   5.721   3.219
 5604SOL    HW217712   1.267   5.693   3.154
 5605SOL     OW17713   4.305   6.963   4.230
 5605SOL    HW117714   4.363   6.943   4.309
 5605SOL    HW217715   4.228   0.003   4.259
 5606SOL     OW17716   4.433   3.353   0.990
 5606SOL    HW117717   4.508   3.338   1.054
 5606SOL    HW217718   4.415   3.451   0.982
 5607SOL     OW17719   0.129   2.440   3.153
 5607SOL    HW117720   0.211   2.392   3.121
 5607SOL    HW217721   0.147   2.479   3.243
 5608SOL     OW17722   6.135   0.597   3.659
 5608SOL    HW117723   6.148   0.684   3.706
 5608SOL    HW217724   6.042   0.563   3.677
 5609SOL     OW17725   6.483   0.522   0.127
 5609SOL    HW117726   6.575   0.550   0.153
 5609SOL    HW217727   6.421   0.601   0.134
 5610SOL     OW17728   5.779   6.099   5.804
 5610SOL    HW117729   5.684   6.091   5.773
 5610SOL    HW217730   5.792   6.187   5.849
 5611SOL     OW17731   6.702   3.579   1.399
 5611SOL    HW117732   6.750   3.550   1.481
 5611SOL    HW217733   6.624   3.636   1.424
 5612SOL     OW17734   4.234   2.224   1.329
 5612SOL    HW117735   4.214   2.137   1.283
 5612SOL    HW217736   4.321   2.216   1.379
 5613SOL     OW17737   6.425   5.239   5.458
 5613SOL    HW117738   6.368   5.288   5.391
 5613SOL    HW217739   6.474   5.306   5.514
 5614SOL     OW17740   5.160   1.918   4.746
 5614SOL    HW117741   5.095   1.900   4.820
 5614SOL    HW217742   5.232   1.980   4.778
 5615SOL     OW17743   0.452   2.995   2.855
 5615SOL    HW117744   0.487   3.024   2.944
 5615SOL    HW217745   0.523   3.009   2.786
 5616SOL     OW17746   1.477   3.628   1.609
 5616SOL    HW117747   1.569   3.661   1.588
 5616SOL    HW217748   1.441   3.679   1.688
 5617SOL     OW17749   1.071   5.011   5.957
 5617SOL    HW117750   1.092   4.950   6.033
 5617SOL    HW217751   0.981   4.987   5.919
 5618SOL     OW17752   4.978   0.058   2.994
 5618SOL    HW117753   4.918   0.025   2.921
 5618SOL    HW217754   4.965   0.157   3.006
 5619SOL     OW17755   3.109   3.132   3.388
 5619SOL    HW117756   3.189   3.189   3.407
 5619SOL    HW217757   3.027   3.188   3.390
 5620SOL     OW17758   5.158   4.737   5.417
 5620SOL    HW117759   5.196   4.829   5.423
 5620SOL    HW217760   5.061   4.740   5.441
 5621SOL     OW17761   1.274   3.173   6.574
 5621SOL    HW117762   1.298   3.082   6.543
 5621SOL    HW217763   1.183   3.171   6.617
 5622SOL     OW17764   5.636   5.688   3.745
 5622SOL    HW117765   5.610   5.642   3.660
 5622SOL    HW217766   5.604   5.782   3.744
 5623SOL     OW17767   4.505   4.691   3.872
 5623SOL    HW117768   4.560   4.610   3.850
 5623SOL    HW217769   4.451   4.673   3.954
 5624SOL     OW17770   4.861   3.956   3.782
 5624SOL    HW117771   4.925   3.880   3.776
 5624SOL    HW217772   4.835   3.970   3.878
 5625SOL     OW17773   2.872   6.497   6.254
 5625SOL    HW117774   2.798   6.556   6.222
 5625SOL    HW217775   2.872   6.413   6.200
 5626SOL     OW17776   1.520   5.528   6.701
 5626SOL    HW117777   1.457   5.592   6.657
 5626SOL    HW217778   1.474   5.439   6.712
 5627SOL     OW17779   1.266   5.696   0.669
 5627SOL    HW117780   1.210   5.620   0.636
 5627SOL    HW217781   1.239   5.780   0.623
 5628SOL     OW17782   1.682   3.035   0.172
 5628SOL    HW117783   1.673   2.958   0.234
 5628SOL    HW217784   1.680   3.120   0.224
 5629SOL     OW17785   6.900   3.414   4.586
 5629SOL    HW117786   6.831   3.450   4.649
 5629SOL    HW217787   6.883   3.317   4.570
 5630SOL     OW17788   1.735   4.507   0.607
 5630SOL    HW117789   1.724   4.478   0.702
 5630SOL    HW217790   1.832   4.519   0.587
 5631SOL     OW17791   4.279   0.414   2.423
 5631SOL    HW117792   4.249   0.488   2.483
 5631SOL    HW217793   4.239   0.427   2.332
 5632SOL     OW17794   3.794   6.303   6.738
 5632SOL    HW117795   3.755   6.394   6.752
 5632SOL    HW217796   3.838   6.299   6.648
 5633SOL     OW17797   1.477   5.588   5.323
 5633SOL    HW117798   1.558   5.563   5.377
 5633SOL    HW217799   1.475   5.534   5.239
 5634SOL     OW17800   2.534   0.331   1.622
 5634SOL    HW117801   2.451   0.365   1.666
 5634SOL    HW217802   2.558   0.391   1.546
 5635SOL     OW17803   3.751   0.629   2.162
 5635SOL    HW117804   3.757   0.591   2.254
 5635SOL    HW217805   3.754   0.729   2.168
 5636SOL     OW17806   5.053   0.379   5.104
 5636SOL    HW117807   5.152   0.393   5.111
 5636SOL    HW217808   5.028   0.366   5.009
 5637SOL     OW17809   5.109   6.823   5.102
 5637SOL    HW117810   5.194   6.871   5.119
 5637SOL    HW217811   5.034   6.870   5.149
 5638SOL     OW17812   0.223   5.700   0.158
 5638SOL    HW117813   0.175   5.779   0.196
 5638SOL    HW217814   0.157   5.639   0.113
 5639SOL     OW17815   3.358   0.160   2.024
 5639SOL    HW117816   3.419   0.160   2.104
 5639SOL    HW217817   3.287   0.091   2.037
 5640SOL     OW17818   3.430   0.257   3.696
 5640SOL    HW117819   3.502   0.208   3.745
 5640SOL    HW217820   3.343   0.246   3.745
 5641SOL     OW17821   6.994   4.685   3.804
 5641SOL    HW117822   0.006   4.677   3.709
 5641SOL    HW217823   6.896   4.703   3.807
 5642SOL     OW17824   2.141   3.015   6.541
 5642SOL    HW117825   2.127   2.920   6.514
 5642SOL    HW217826   2.075   3.073   6.494
 5643SOL     OW17827   6.213   3.173   4.249
 5643SOL    HW117828   6.297   3.159   4.302
 5643SOL    HW217829   6.202   3.099   4.184
 5644SOL     OW17830   3.423   0.658   5.970
 5644SOL    HW117831   3.506   0.641   5.916
 5644SOL    HW217832   3.428   0.607   6.056
 5645SOL     OW17833   5.943   6.443   2.622
 5645SOL    HW117834   6.006   6.502   2.573
 5645SOL    HW217835   5.885   6.498   2.683
 5646SOL     OW17836   6.351   0.278   3.395
 5646SOL    HW117837   6.262   0.262   3.351
 5646SOL    HW217838   6.344   0.353   3.460
 5647SOL     OW17839   6.381   3.600   6.589
 5647SOL    HW117840   6.461   3.557   6.632
 5647SOL    HW217841   6.389   3.699   6.594
 5648SOL     OW17842   2.585   1.888   3.872
 5648SOL    HW117843   2.487   1.881   3.859
 5648SOL    HW217844   2.604   1.923   3.964
 5649SOL     OW17845   0.787   0.368   5.480
 5649SOL    HW117846   0.710   0.417   5.439
 5649SOL    HW217847   0.767   0.270   5.482
 5650SOL     OW17848   6.953   5.228   5.146
 5650SOL    HW117849   6.861   5.228   5.184
 5650SOL    HW217850   7.002   5.146   5.174
 5651SOL     OW17851   6.007   0.601   2.555
 5651SOL    HW117852   6.103   0.593   2.580
 5651SOL    HW217853   5.967   0.680   2.602
 5652SOL     OW17854   5.369   4.416   0.076
 5652SOL    HW117855   5.395   4.365   7.011
 5652SOL    HW217856   5.330   4.504   0.049
 5653SOL     OW17857   1.713   6.010   6.997
 5653SOL    HW117858   1.708   6.109   7.003
 5653SOL    HW217859   1.808   5.980   7.005
 5654SOL     OW17860   1.625   0.279   0.182
 5654SOL    HW117861   1.625   0.232   0.271
 5654SOL    HW217862   1.557   0.236   0.123
 5655SOL     OW17863   6.443   5.012   3.075
 5655SOL    HW117864   6.482   5.103   3.061
 5655SOL    HW217865   6.344   5.020   3.089
 5656SOL     OW17866   3.743   5.568   6.565
 5656SOL    HW117867   3.799   5.651   6.568
 5656SOL    HW217868   3.647   5.592   6.549
 5657SOL     OW17869   4.699   5.209   1.977
 5657SOL    HW117870   4.758   5.281   2.014
 5657SOL    HW217871   4.726   5.190   1.882
 5658SOL     OW17872   4.969   6.647   6.016
 5658SOL    HW117873   4.988   6.745   6.015
 5658SOL    HW217874   5.054   6.596   6.006
 5659SOL     OW17875   3.126   4.064   3.416
 5659SOL    HW117876   3.119   4.071   3.515
 5659SOL    HW217877   3.206   4.010   3.391
 5660SOL     OW17878   6.836   5.702   1.626
 5660SOL    HW117879   6.747   5.744   1.645
 5660SOL    HW217880   6.900   5.725   1.699
 5661SOL     OW17881   6.281   6.096   4.633
 5661SOL    HW117882   6.194   6.145   4.643
 5661SOL    HW217883   6.349   6.158   4.594
 5662SOL     OW17884   1.991   5.116   4.910
 5662SOL    HW117885   1.909   5.059   4.903
 5662SOL    HW217886   2.072   5.058   4.901
 5663SOL     OW17887   2.387   4.046   1.479
 5663SOL    HW117888   2.372   4.018   1.384
 5663SOL    HW217889   2.400   4.145   1.484
 5664SOL     OW17890   6.654   6.029   1.862
 5664SOL    HW117891   6.580   6.058   1.801
 5664SOL    HW217892   6.616   5.999   1.949
 5665SOL     OW17893   1.376   1.110   5.987
 5665SOL    HW117894   1.439   1.071   6.053
 5665SOL    HW217895   1.284   1.113   6.026
 5666SOL     OW17896   5.751   5.527   6.745
 5666SOL    HW117897   5.710   5.533   6.836
 5666SOL    HW217898   5.751   5.618   6.703
 5667SOL     OW17899   5.924   4.549   2.225
 5667SOL    HW117900   5.846   4.514   2.173
 5667SOL    HW217901   5.892   4.619   2.289
 5668SOL     OW17902   6.247   2.402   6.417
 5668SOL    HW117903   6.271   2.494   6.384
 5668SOL    HW217904   6.206   2.410   6.508
 5669SOL     OW17905   0.414   3.113   4.882
 5669SOL    HW117906   0.420   3.014   4.876
 5669SOL    HW217907   0.493   3.148   4.933
 5670SOL     OW17908   1.631   3.702   2.285
 5670SOL    HW117909   1.611   3.652   2.370
 5670SOL    HW217910   1.546   3.734   2.244
 5671SOL     OW17911   1.019   0.732   4.922
 5671SOL    HW117912   1.003   0.641   4.882
 5671SOL    HW217913   1.074   0.787   4.859
 5672SOL     OW17914   4.954   4.038   6.065
 5672SOL    HW117915   4.881   3.970   6.068
 5672SOL    HW217916   4.995   4.046   6.156
 5673SOL     OW17917   1.492   7.010   0.611
 5673SOL    HW117918   1.405   0.000   0.660
 5673SOL    HW217919   1.567   7.000   0.676
 5674SOL     OW17920   0.039   2.961   1.414
 5674SOL    HW117921   0.115   2.986   1.473
 5674SOL    HW217922   7.008   3.043   1.382
 5675SOL     OW17923   3.888   1.139   5.661
 5675SOL    HW117924   3.860   1.193   5.581
 5675SOL    HW217925   3.964   1.079   5.635
 5676SOL     OW17926   2.849   6.834   2.056
 5676SOL    HW117927   2.901   6.767   2.005
 5676SOL    HW217928   2.760   6.848   2.013
 5677SOL     OW17929   6.759   6.979   3.015
 5677SOL    HW117930   6.704   6.899   3.041
 5677SOL    HW217931   6.816   7.006   3.092
 5678SOL     OW17932   1.245   5.211   2.801
 5678SOL    HW117933   1.191   5.154   2.739
 5678SOL    HW217934   1.189   5.286   2.834
 5679SOL     OW17935   3.819   5.661   5.507
 5679SOL    HW117936   3.732   5.659   5.456
 5679SOL    HW217937   3.813   5.730   5.580
 5680SOL     OW17938   1.824   6.838   6.706
 5680SOL    HW117939   1.818   6.797   6.797
 5680SOL    HW217940   1.801   6.935   6.712
 5681SOL     OW17941   2.701   4.310   6.692
 5681SOL    HW117942   2.679   4.313   6.595
 5681SOL    HW217943   2.793   4.347   6.707
 5682SOL     OW17944   1.927   3.215   4.466
 5682SOL    HW117945   2.015   3.196   4.510
 5682SOL    HW217946   1.935   3.298   4.411
 5683SOL     OW17947   3.986   3.395   4.846
 5683SOL    HW117948   4.022   3.426   4.934
 5683SOL    HW217949   4.057   3.402   4.776
 5684SOL     OW17950   3.003   3.390   3.077
 5684SOL    HW117951   3.069   3.443   3.130
 5684SOL    HW217952   2.936   3.452   3.035
 5685SOL     OW17953   0.280   5.854   1.606
 5685SOL    HW117954   0.319   5.850   1.514
 5685SOL    HW217955   0.182   5.873   1.599
 5686SOL     OW17956   3.438   4.579   6.970
 5686SOL    HW117957   3.538   4.587   6.963
 5686SOL    HW217958   3.406   4.512   6.902
 5687SOL     OW17959   4.445   5.528   6.552
 5687SOL    HW117960   4.427   5.519   6.650
 5687SOL    HW217961   4.383   5.468   6.501
 5688SOL     OW17962   5.401   1.597   1.905
 5688SOL    HW117963   5.417   1.570   1.811
 5688SOL    HW217964   5.372   1.518   1.959
 5689SOL     OW17965   4.343   3.659   5.825
 5689SOL    HW117966   4.296   3.737   5.865
 5689SOL    HW217967   4.338   3.664   5.726
 5690SOL     OW17968   4.238   6.764   2.972
 5690SOL    HW117969   4.180   6.846   2.976
 5690SOL    HW217970   4.222   6.718   2.885
 5691SOL     OW17971   3.464   0.300   4.194
 5691SOL    HW117972   3.495   0.238   4.121
 5691SOL    HW217973   3.496   0.266   4.282
 5692SOL     OW17974   5.601   2.793   6.595
 5692SOL    HW117975   5.632   2.704   6.560
 5692SOL    HW217976   5.510   2.812   6.560
 5693SOL     OW17977   4.974   2.453   2.530
 5693SOL    HW117978   4.975   2.525   2.461
 5693SOL    HW217979   4.881   2.418   2.541
 5694SOL     OW17980   1.719   1.594   4.057
 5694SOL    HW117981   1.795   1.655   4.033
 5694SOL    HW217982   1.680   1.622   4.145
 5695SOL     OW17983   2.205   3.933   3.467
 5695SOL    HW117984   2.194   4.033   3.463
 5695SOL    HW217985   2.242   3.908   3.556
 5696SOL     OW17986   2.963   0.466   5.947
 5696SOL    HW117987   2.988   0.369   5.943
 5696SOL    HW217988   2.965   0.505   5.855
 5697SOL     OW17989   6.237   3.866   0.050
 5697SOL    HW117990   6.188   3.940   0.096
 5697SOL    HW217991   6.186   3.839   6.985
 5698SOL     OW17992   1.379   4.425   3.567
 5698SOL    HW117993   1.282   4.405   3.564
 5698SOL    HW217994   1.393   4.524   3.574
 5699SOL     OW17995   6.907   2.374   5.250
 5699SOL    HW117996   6.999   2.413   5.260
 5699SOL    HW217997   6.911   2.276   5.272
 5700SOL     OW17998   1.051   5.427   3.450
 5700SOL    HW117999   1.017   5.506   3.500
 5700SOL    HW218000   1.138   5.450   3.405
 5701SOL     OW18001   5.219   4.151   2.553
 5701SOL    HW118002   5.287   4.220   2.530
 5701SOL    HW218003   5.151   4.191   2.615
 5702SOL     OW18004   3.348   0.341   6.653
 5702SOL    HW118005   3.310   0.343   6.745
 5702SOL    HW218006   3.372   0.434   6.625
 5703SOL     OW18007   4.747   4.315   1.795
 5703SOL    HW118008   4.676   4.325   1.865
 5703SOL    HW218009   4.712   4.347   1.707
 5704SOL     OW18010   5.000   3.963   3.392
 5704SOL    HW118011   5.047   3.919   3.315
 5704SOL    HW218012   5.017   3.911   3.476
 5705SOL     OW18013   6.490   1.738   3.487
 5705SOL    HW118014   6.506   1.836   3.478
 5705SOL    HW218015   6.512   1.692   3.401
 5706SOL     OW18016   1.842   1.359   6.431
 5706SOL    HW118017   1.784   1.316   6.361
 5706SOL    HW218018   1.814   1.328   6.521
 5707SOL     OW18019   3.405   1.673   0.295
 5707SOL    HW118020   3.328   1.665   0.232
 5707SOL    HW218021   3.433   1.769   0.301
 5708SOL     OW18022   6.869   6.998   0.834
 5708SOL    HW118023   6.918   0.067   0.848
 5708SOL    HW218024   6.913   6.926   0.888
 5709SOL     OW18025   1.560   2.384   1.227
 5709SOL    HW118026   1.625   2.314   1.198
 5709SOL    HW218027   1.519   2.357   1.314
 5710SOL     OW18028   3.226   4.441   6.767
 5710SOL    HW118029   3.174   4.462   6.683
 5710SOL    HW218030   3.163   4.407   6.837
 5711SOL     OW18031   5.292   1.508   5.079
 5711SOL    HW118032   5.351   1.524   5.000
 5711SOL    HW218033   5.197   1.505   5.049
 5712SOL     OW18034   6.506   6.464   6.871
 5712SOL    HW118035   6.455   6.538   6.915
 5712SOL    HW218036   6.564   6.419   6.939
 5713SOL     OW18037   0.154   2.637   2.775
 5713SOL    HW118038   0.083   2.673   2.835
 5713SOL    HW218039   0.154   2.537   2.780
 5714SOL     OW18040   2.228   0.743   6.253
 5714SOL    HW118041   2.268   0.774   6.339
 5714SOL    HW218042   2.246   0.645   6.241
 5715SOL     OW18043   1.852   0.117   3.350
 5715SOL    HW118044   1.927   0.181   3.368
 5715SOL    HW218045   1.799   0.150   3.272
 5716SOL     OW18046   1.713   2.034   5.053
 5716SOL    HW118047   1.747   2.098   4.984
 5716SOL    HW218048   1.751   1.943   5.035
 5717SOL     OW18049   0.434   3.582   6.300
 5717SOL    HW118050   0.500   3.606   6.228
 5717SOL    HW218051   0.460   3.495   6.341
 5718SOL     OW18052   2.501   5.056   5.865
 5718SOL    HW118053   2.470   5.101   5.781
 5718SOL    HW218054   2.563   4.980   5.841
 5719SOL     OW18055   2.048   0.698   0.820
 5719SOL    HW118056   2.051   0.788   0.862
 5719SOL    HW218057   2.030   0.707   0.722
 5720SOL     OW18058   1.614   5.825   4.111
 5720SOL    HW118059   1.523   5.853   4.080
 5720SOL    HW218060   1.683   5.880   4.065
 5721SOL     OW18061   6.477   4.466   0.314
 5721SOL    HW118062   6.414   4.488   0.388
 5721SOL    HW218063   6.566   4.443   0.351
 5722SOL     OW18064   5.536   1.337   3.904
 5722SOL    HW118065   5.513   1.391   3.823
 5722SOL    HW218066   5.635   1.332   3.913
 5723SOL     OW18067   0.868   4.607   1.398
 5723SOL    HW118068   0.894   4.515   1.425
 5723SOL    HW218069   0.792   4.603   1.333
 5724SOL     OW18070   4.909   2.774   5.580
 5724SOL    HW118071   4.886   2.757   5.676
 5724SOL    HW218072   4.964   2.698   5.545
 5725SOL     OW18073   5.252   6.256   5.555
 5725SOL    HW118074   5.267   6.329   5.622
 5725SOL    HW218075   5.160   6.219   5.564
 5726SOL     OW18076   4.421   4.183   5.985
 5726SOL    HW118077   4.427   4.276   6.021
 5726SOL    HW218078   4.405   4.119   6.060
 5727SOL     OW18079   5.467   2.391   4.174
 5727SOL    HW118080   5.396   2.394   4.244
 5727SOL    HW218081   5.454   2.467   4.110
 5728SOL     OW18082   4.707   0.465   5.672
 5728SOL    HW118083   4.725   0.487   5.576
 5728SOL    HW218084   4.669   0.373   5.679
 5729SOL     OW18085   1.108   3.025   4.272
 5729SOL    HW118086   1.027   2.970   4.254
 5729SOL    HW218087   1.136   3.072   4.188
 5730SOL     OW18088   3.756   4.767   0.218
 5730SOL    HW118089   3.688   4.835   0.190
 5730SOL    HW218090   3.813   4.806   0.291
 5731SOL     OW18091   4.362   1.327   4.858
 5731SOL    HW118092   4.447   1.379   4.868
 5731SOL    HW218093   4.286   1.390   4.838
 5732SOL     OW18094   5.574   4.346   4.139
 5732SOL    HW118095   5.535   4.420   4.084
 5732SOL    HW218096   5.656   4.379   4.186
 5733SOL     OW18097   2.530   0.079   1.784
 5733SOL    HW118098   2.498   0.083   1.689
 5733SOL    HW218099   2.628   0.096   1.787
 5734SOL     OW18100   1.620   6.814   6.244
 5734SOL    HW118101   1.625   6.801   6.342
 5734SOL    HW218102   1.595   6.909   6.224
 5735SOL     OW18103   5.496   0.947   1.658
 5735SOL    HW118104   5.454   0.895   1.732
 5735SOL    HW218105   5.441   1.028   1.639
 5736SOL     OW18106   5.740   3.877   6.636
 5736SOL    HW118107   5.699   3.788   6.653
 5736SOL    HW218108   5.679   3.949   6.670
 5737SOL     OW18109   5.629   5.789   2.198
 5737SOL    HW118110   5.544   5.816   2.243
 5737SOL    HW218111   5.707   5.819   2.253
 5738SOL     OW18112   2.411   0.728   1.081
 5738SOL    HW118113   2.365   0.695   0.999
 5738SOL    HW218114   2.381   0.822   1.100
 5739SOL     OW18115   2.510   0.801   5.589
 5739SOL    HW118116   2.465   0.817   5.501
 5739SOL    HW218117   2.442   0.782   5.659
 5740SOL     OW18118   5.013   3.729   2.538
 5740SOL    HW118119   4.985   3.697   2.447
 5740SOL    HW218120   4.976   3.667   2.608
 5741SOL     OW18121   1.232   3.585   4.453
 5741SOL    HW118122   1.255   3.554   4.545
 5741SOL    HW218123   1.312   3.579   4.394
 5742SOL     OW18124   6.388   5.930   2.611
 5742SOL    HW118125   6.303   5.930   2.665
 5742SOL    HW218126   6.421   5.836   2.601
 5743SOL     OW18127   3.592   5.852   0.205
 5743SOL    HW118128   3.585   5.826   0.109
 5743SOL    HW218129   3.618   5.948   0.212
 5744SOL     OW18130   5.365   6.112   3.611
 5744SOL    HW118131   5.300   6.070   3.548
 5744SOL    HW218132   5.413   6.040   3.662
 5745SOL     OW18133   1.278   3.023   2.481
 5745SOL    HW118134   1.239   2.944   2.433
 5745SOL    HW218135   1.306   2.996   2.573
 5746SOL     OW18136   5.341   0.305   2.989
 5746SOL    HW118137   5.400   0.308   2.908
 5746SOL    HW218138   5.318   0.210   3.011
 5747SOL     OW18139   1.610   0.357   1.475
 5747SOL    HW118140   1.682   0.400   1.528
 5747SOL    HW218141   1.565   0.426   1.417
 5748SOL     OW18142   5.868   6.630   0.161
 5748SOL    HW118143   5.943   6.627   0.227
 5748SOL    HW218144   5.906   6.626   0.068
 5749SOL     OW18145   1.791   6.015   6.237
 5749SOL    HW118146   1.850   5.945   6.197
 5749SOL    HW218147   1.789   6.095   6.177
 5750SOL     OW18148   6.718   2.519   4.008
 5750SOL    HW118149   6.806   2.511   3.963
 5750SOL    HW218150   6.712   2.607   4.056
 5751SOL     OW18151   0.383   3.425   4.595
 5751SOL    HW118152   0.343   3.463   4.678
 5751SOL    HW218153   0.453   3.487   4.560
 5752SOL     OW18154   5.034   0.625   0.107
 5752SOL    HW118155   5.085   0.578   0.179
 5752SOL    HW218156   4.939   0.635   0.135
 5753SOL     OW18157   3.973   3.982   4.645
 5753SOL    HW118158   4.053   4.025   4.688
 5753SOL    HW218159   3.890   4.027   4.678
 5754SOL     OW18160   6.689   5.925   1.025
 5754SOL    HW118161   6.700   6.019   1.057
 5754SOL    HW218162   6.599   5.891   1.051
 5755SOL     OW18163   1.298   3.021   6.850
 5755SOL    HW118164   1.208   3.005   6.889
 5755SOL    HW218165   1.339   3.102   6.892
 5756SOL     OW18166   6.385   6.270   1.941
 5756SOL    HW118167   6.409   6.210   1.864
 5756SOL    HW218168   6.312   6.227   1.994
 5757SOL     OW18169   6.990   1.398   3.636
 5757SOL    HW118170   6.931   1.476   3.657
 5757SOL    HW218171   7.015   1.352   3.721
 5758SOL     OW18172   6.231   6.696   2.974
 5758SOL    HW118173   6.222   6.599   2.952
 5758SOL    HW218174   6.144   6.742   2.959
 5759SOL     OW18175   2.602   6.863   2.476
 5759SOL    HW118176   2.577   6.960   2.486
 5759SOL    HW218177   2.627   6.826   2.566
 5760SOL     OW18178   1.014   2.060   6.679
 5760SOL    HW118179   1.103   2.103   6.669
 5760SOL    HW218180   1.008   1.981   6.617
 5761SOL     OW18181   6.450   6.607   4.459
 5761SOL    HW118182   6.363   6.560   4.475
 5761SOL    HW218183   6.442   6.702   4.490
 5762SOL     OW18184   0.706   5.529   5.814
 5762SOL    HW118185   0.646   5.607   5.830
 5762SOL    HW218186   0.801   5.557   5.823
 5763SOL     OW18187   5.407   0.377   0.675
 5763SOL    HW118188   5.502   0.408   0.677
 5763SOL    HW218189   5.373   0.371   0.769
 5764SOL     OW18190   4.868   6.497   4.033
 5764SOL    HW118191   4.882   6.421   3.970
 5764SOL    HW218192   4.776   6.491   4.072
 5765SOL     OW18193   6.852   4.968   2.162
 5765SOL    HW118194   6.902   4.901   2.107
 5765SOL    HW218195   6.916   5.014   2.224
 5766SOL     OW18196   0.561   1.520   4.073
 5766SOL    HW118197   0.536   1.617   4.070
 5766SOL    HW218198   0.584   1.490   3.980
 5767SOL     OW18199   3.941   6.989   0.158
 5767SOL    HW118200   4.008   0.016   0.098
 5767SOL    HW218201   3.926   6.895   0.128
 5768SOL     OW18202   1.312   0.721   5.160
 5768SOL    HW118203   1.225   0.710   5.207
 5768SOL    HW218204   1.350   0.811   5.182
 5769SOL     OW18205   0.971   2.865   6.113
 5769SOL    HW118206   0.891   2.909   6.152
 5769SOL    HW218207   1.054   2.914   6.141
 5770SOL     OW18208   2.128   4.431   1.968
 5770SOL    HW118209   2.226   4.428   1.988
 5770SOL    HW218210   2.081   4.489   2.034
 5771SOL     OW18211   2.612   4.975   3.823
 5771SOL    HW118212   2.514   4.954   3.817
 5771SOL    HW218213   2.624   5.073   3.840
 5772SOL     OW18214   3.485   0.101   3.005
 5772SOL    HW118215   3.553   0.066   3.071
 5772SOL    HW218216   3.438   0.180   3.045
 5773SOL     OW18217   5.819   1.106   2.796
 5773SOL    HW118218   5.912   1.078   2.770
 5773SOL    HW218219   5.810   1.103   2.895
 5774SOL     OW18220   0.682   6.730   3.012
 5774SOL    HW118221   0.660   6.812   2.958
 5774SOL    HW218222   0.755   6.679   2.966
 5775SOL     OW18223   6.108   4.815   2.102
 5775SOL    HW118224   6.182   4.759   2.066
 5775SOL    HW218225   6.038   4.827   2.031
 5776SOL     OW18226   2.604   1.195   4.184
 5776SOL    HW118227   2.634   1.252   4.108
 5776SOL    HW218228   2.672   1.199   4.257
 5777SOL     OW18229   1.368   0.180   1.778
 5777SOL    HW118230   1.327   0.090   1.790
 5777SOL    HW218231   1.393   0.217   1.868
 5778SOL     OW18232   6.985   0.737   1.345
 5778SOL    HW118233   6.909   0.802   1.340
 5778SOL    HW218234   6.978   0.671   1.271
 5779SOL     OW18235   5.577   1.254   6.714
 5779SOL    HW118236   5.560   1.157   6.730
 5779SOL    HW218237   5.508   1.291   6.652
 5780SOL     OW18238   4.992   4.874   4.117
 5780SOL    HW118239   5.012   4.972   4.116
 5780SOL    HW218240   4.894   4.861   4.102
 5781SOL     OW18241   1.484   5.531   5.972
 5781SOL    HW118242   1.438   5.499   6.055
 5781SOL    HW218243   1.579   5.553   5.993
 5782SOL     OW18244   0.123   0.882   6.759
 5782SOL    HW118245   0.085   0.800   6.716
 5782SOL    HW218246   0.115   0.874   6.858
 5783SOL     OW18247   2.557   2.597   0.253
 5783SOL    HW118248   2.563   2.625   0.157
 5783SOL    HW218249   2.626   2.527   0.271
 5784SOL     OW18250   6.932   6.471   6.605
 5784SOL    HW118251   6.981   6.535   6.665
 5784SOL    HW218252   6.992   6.442   6.531
 5785SOL     OW18253   1.320   1.172   0.625
 5785SOL    HW118254   1.414   1.188   0.595
 5785SOL    HW218255   1.318   1.160   0.724
 5786SOL     OW18256   6.150   5.141   1.356
 5786SOL    HW118257   6.122   5.236   1.346
 5786SOL    HW218258   6.249   5.134   1.347
 5787SOL     OW18259   2.050   3.308   6.103
 5787SOL    HW118260   2.122   3.369   6.137
 5787SOL    HW218261   2.087   3.251   6.030
 5788SOL     OW18262   3.450   0.900   3.756
 5788SOL    HW118263   3.406   0.910   3.667
 5788SOL    HW218264   3.392   0.844   3.815
 5789SOL     OW18265   3.607   4.887   6.495
 5789SOL    HW118266   3.586   4.970   6.546
 5789SOL    HW218267   3.675   4.908   6.425
 5790SOL     OW18268   0.869   3.668   3.718
 5790SOL    HW118269   0.845   3.708   3.629
 5790SOL    HW218270   0.962   3.632   3.714
 5791SOL     OW18271   2.215   0.492   3.039
 5791SOL    HW118272   2.217   0.501   3.139
 5791SOL    HW218273   2.260   0.407   3.013
 5792SOL     OW18274   0.138   2.328   2.828
 5792SOL    HW118275   0.166   2.267   2.903
 5792SOL    HW218276   0.189   2.303   2.745
 5793SOL     OW18277   6.896   0.761   4.228
 5793SOL    HW118278   6.878   0.838   4.168
 5793SOL    HW218279   6.969   0.784   4.292
 5794SOL     OW18280   6.324   4.682   6.266
 5794SOL    HW118281   6.313   4.765   6.320
 5794SOL    HW218282   6.363   4.704   6.177
 5795SOL     OW18283   5.488   4.056   6.688
 5795SOL    HW118284   5.486   4.133   6.752
 5795SOL    HW218285   5.543   4.081   6.608
 5796SOL     OW18286   2.926   2.406   0.576
 5796SOL    HW118287   3.012   2.356   0.589
 5796SOL    HW218288   2.860   2.378   0.645
 5797SOL     OW18289   2.934   2.701   6.007
 5797SOL    HW118290   2.887   2.751   5.934
 5797SOL    HW218291   2.904   2.737   6.096
 5798SOL     OW18292   6.710   5.305   4.547
 5798SOL    HW118293   6.658   5.234   4.500
 5798SOL    HW218294   6.802   5.312   4.508
 5799SOL     OW18295   5.091   1.089   3.768
 5799SOL    HW118296   5.062   1.185   3.760
 5799SOL    HW218297   5.010   1.030   3.772
 5800SOL     OW18298   6.056   5.602   6.723
 5800SOL    HW118299   6.091   5.583   6.631
 5800SOL    HW218300   6.022   5.517   6.765
 5801SOL     OW18301   1.908   1.125   2.846
 5801SOL    HW118302   1.959   1.040   2.833
 5801SOL    HW218303   1.961   1.201   2.808
 5802SOL     OW18304   0.771   2.619   4.885
 5802SOL    HW118305   0.757   2.713   4.913
 5802SOL    HW218306   0.869   2.599   4.883
 5803SOL     OW18307   1.341   4.838   0.944
 5803SOL    HW118308   1.351   4.832   1.043
 5803SOL    HW218309   1.425   4.875   0.904
 5804SOL     OW18310   6.492   2.938   6.018
 5804SOL    HW118311   6.430   2.986   5.955
 5804SOL    HW218312   6.586   2.964   5.997
 5805SOL     OW18313   5.960   3.045   6.996
 5805SOL    HW118314   5.877   3.083   0.018
 5805SOL    HW218315   5.990   3.103   6.919
 5806SOL     OW18316   0.132   6.797   6.794
 5806SOL    HW118317   0.227   6.814   6.768
 5806SOL    HW218318   0.077   6.876   6.770
 5807SOL     OW18319   2.120   3.712   1.804
 5807SOL    HW118320   2.142   3.680   1.711
 5807SOL    HW218321   2.160   3.649   1.871
 5808SOL     OW18322   6.359   2.130   3.486
 5808SOL    HW118323   6.270   2.157   3.524
 5808SOL    HW218324   6.355   2.136   3.386
 5809SOL     OW18325   6.875   2.996   4.239
 5809SOL    HW118326   6.809   3.057   4.284
 5809SOL    HW218327   6.955   2.985   4.298
 5810SOL     OW18328   2.698   2.012   2.623
 5810SOL    HW118329   2.793   2.024   2.595
 5810SOL    HW218330   2.675   2.077   2.696
 5811SOL     OW18331   3.120   1.117   2.344
 5811SOL    HW118332   3.036   1.077   2.307
 5811SOL    HW218333   3.096   1.185   2.414
 5812SOL     OW18334   4.658   0.861   4.602
 5812SOL    HW118335   4.684   0.947   4.646
 5812SOL    HW218336   4.730   0.831   4.540
 5813SOL     OW18337   1.637   1.416   5.311
 5813SOL    HW118338   1.590   1.328   5.298
 5813SOL    HW218339   1.575   1.480   5.356
 5814SOL     OW18340   6.993   5.049   0.688
 5814SOL    HW118341   6.960   5.110   0.616
 5814SOL    HW218342   6.998   5.098   0.775
 5815SOL     OW18343   3.431   1.439   3.305
 5815SOL    HW118344   3.411   1.523   3.254
 5815SOL    HW218345   3.375   1.435   3.387
 5816SOL     OW18346   4.996   6.754   1.281
 5816SOL    HW118347   4.999   6.818   1.357
 5816SOL    HW218348   4.995   6.805   1.195
 5817SOL     OW18349   5.768   2.148   5.887
 5817SOL    HW118350   5.827   2.200   5.949
 5817SOL    HW218351   5.808   2.058   5.870
 5818SOL     OW18352   6.076   6.517   5.518
 5818SOL    HW118353   6.168   6.543   5.547
 5818SOL    HW218354   6.012   6.529   5.594
 5819SOL     OW18355   5.308   0.408   1.170
 5819SOL    HW118356   5.243   0.478   1.143
 5819SOL    HW218357   5.265   0.345   1.235
 5820SOL     OW18358   5.987   5.275   2.783
 5820SOL    HW118359   6.061   5.236   2.728
 5820SOL    HW218360   6.013   5.275   2.879
 5821SOL     OW18361   3.417   6.880   2.227
 5821SOL    HW118362   3.340   6.852   2.170
 5821SOL    HW218363   3.400   6.972   2.263
 5822SOL     OW18364   0.883   1.200   2.329
 5822SOL    HW118365   0.839   1.142   2.261
 5822SOL    HW218366   0.972   1.231   2.295
 5823SOL     OW18367   2.234   3.040   4.240
 5823SOL    HW118368   2.240   2.942   4.261
 5823SOL    HW218369   2.246   3.093   4.324
 5824SOL     OW18370   4.090   0.503   3.698
 5824SOL    HW118371   4.120   0.468   3.609
 5824SOL    HW218372   4.159   0.564   3.735
 5825SOL     OW18373   2.897   0.977   0.788
 5825SOL    HW118374   2.982   1.024   0.808
 5825SOL    HW218375   2.857   0.942   0.873
 5826SOL     OW18376   6.532   0.408   4.347
 5826SOL    HW118377   6.629   0.385   4.352
 5826SOL    HW218378   6.478   0.332   4.384
 5827SOL     OW18379   1.605   5.236   5.396
 5827SOL    HW118380   1.508   5.256   5.410
 5827SOL    HW218381   1.653   5.320   5.373
 5828SOL     OW18382   6.582   2.692   1.757
 5828SOL    HW118383   6.515   2.621   1.778
 5828SOL    HW218384   6.670   2.649   1.734
 5829SOL     OW18385   1.544   1.736   2.001
 5829SOL    HW118386   1.554   1.820   2.053
 5829SOL    HW218387   1.466   1.684   2.037
 5830SOL     OW18388   2.513   1.137   5.405
 5830SOL    HW118389   2.497   1.042   5.434
 5830SOL    HW218390   2.592   1.174   5.454
 5831SOL     OW18391   5.710   6.261   2.895
 5831SOL    HW118392   5.793   6.308   2.864
 5831SOL    HW218393   5.659   6.321   2.957
 5832SOL     OW18394   3.527   3.576   4.729
 5832SOL    HW118395   3.493   3.496   4.779
 5832SOL    HW218396   3.626   3.583   4.741
 5833SOL     OW18397   3.656   3.255   5.251
 5833SOL    HW118398   3.626   3.320   5.182
 5833SOL    HW218399   3.581   3.235   5.314
 5834SOL     OW18400   6.299   0.782   0.536
 5834SOL    HW118401   6.279   0.880   0.538
 5834SOL    HW218402   6.353   0.758   0.616
 5835SOL     OW18403   5.376   2.768   4.245
 5835SOL    HW118404   5.365   2.785   4.343
 5835SOL    HW218405   5.314   2.828   4.194
 5836SOL     OW18406   3.592   6.598   2.546
 5836SOL    HW118407   3.545   6.514   2.575
 5836SOL    HW218408   3.526   6.660   2.505
 5837SOL     OW18409   5.069   4.638   6.381
 5837SOL    HW118410   5.001   4.676   6.319
 5837SOL    HW218411   5.025   4.573   6.443
 5838SOL     OW18412   0.237   1.668   5.556
 5838SOL    HW118413   0.319   1.611   5.559
 5838SOL    HW218414   0.167   1.623   5.499
 5839SOL     OW18415   0.316   2.743   2.556
 5839SOL    HW118416   0.288   2.699   2.471
 5839SOL    HW218417   0.250   2.722   2.628
 5840SOL     OW18418   2.357   5.660   0.080
 5840SOL    HW118419   2.412   5.608   0.145
 5840SOL    HW218420   2.271   5.612   0.062
 5841SOL     OW18421   6.521   1.978   2.731
 5841SOL    HW118422   6.596   1.986   2.797
 5841SOL    HW218423   6.535   1.898   2.674
 5842SOL     OW18424   3.899   3.103   0.188
 5842SOL    HW118425   3.806   3.123   0.156
 5842SOL    HW218426   3.956   3.077   0.110
 5843SOL     OW18427   1.504   3.021   1.314
 5843SOL    HW118428   1.556   3.041   1.397
 5843SOL    HW218429   1.541   2.938   1.271
 5844SOL     OW18430   1.190   6.022   6.682
 5844SOL    HW118431   1.261   6.017   6.612
 5844SOL    HW218432   1.194   5.941   6.740
 5845SOL     OW18433   1.273   2.063   4.518
 5845SOL    HW118434   1.353   2.122   4.503
 5845SOL    HW218435   1.194   2.120   4.543
 5846SOL     OW18436   0.525   3.339   6.431
 5846SOL    HW118437   0.481   3.279   6.364
 5846SOL    HW218438   0.486   3.321   6.522
 5847SOL     OW18439   1.711   2.326   3.672
 5847SOL    HW118440   1.670   2.349   3.585
 5847SOL    HW218441   1.706   2.405   3.734
 5848SOL     OW18442   1.325   5.080   3.921
 5848SOL    HW118443   1.309   5.076   4.019
 5848SOL    HW218444   1.338   5.176   3.893
 5849SOL     OW18445   3.179   6.762   5.444
 5849SOL    HW118446   3.215   6.669   5.436
 5849SOL    HW218447   3.162   6.783   5.540
 5850SOL     OW18448   0.923   4.411   3.351
 5850SOL    HW118449   0.939   4.491   3.294
 5850SOL    HW218450   0.937   4.328   3.298
 5851SOL     OW18451   5.351   3.162   2.289
 5851SOL    HW118452   5.303   3.105   2.221
 5851SOL    HW218453   5.450   3.152   2.276
 5852SOL     OW18454   4.198   5.791   2.851
 5852SOL    HW118455   4.180   5.704   2.895
 5852SOL    HW218456   4.210   5.862   2.920
 5853SOL     OW18457   4.295   4.347   5.500
 5853SOL    HW118458   4.332   4.311   5.586
 5853SOL    HW218459   4.350   4.313   5.424
 5854SOL     OW18460   0.702   1.026   6.798
 5854SOL    HW118461   0.787   0.981   6.771
 5854SOL    HW218462   0.631   1.008   6.730
 5855SOL     OW18463   1.894   1.009   4.824
 5855SOL    HW118464   1.885   0.917   4.789
 5855SOL    HW218465   1.881   1.075   4.750
 5856SOL     OW18466   2.136   5.105   3.291
 5856SOL    HW118467   2.212   5.160   3.326
 5856SOL    HW218468   2.133   5.113   3.191
 5857SOL     OW18469   0.224   2.294   5.983
 5857SOL    HW118470   0.316   2.263   6.008
 5857SOL    HW218471   0.201   2.376   6.035
 5858SOL     OW18472   3.808   6.673   3.423
 5858SOL    HW118473   3.710   6.695   3.415
 5858SOL    HW218474   3.820   6.574   3.417
 5859SOL     OW18475   6.558   5.740   1.699
 5859SOL    HW118476   6.494   5.759   1.625
 5859SOL    HW218477   6.511   5.751   1.787
 5860SOL     OW18478   0.936   3.289   1.429
 5860SOL    HW118479   0.974   3.290   1.336
 5860SOL    HW218480   0.989   3.351   1.487
 5861SOL     OW18481   5.854   2.274   4.039
 5861SOL    HW118482   5.888   2.357   3.996
 5861SOL    HW218483   5.765   2.251   4.000
 5862SOL     OW18484   4.844   4.183   3.324
 5862SOL    HW118485   4.901   4.108   3.357
 5862SOL    HW218486   4.834   4.252   3.396
 5863SOL     OW18487   1.899   1.550   1.071
 5863SOL    HW118488   1.825   1.613   1.049
 5863SOL    HW218489   1.987   1.592   1.049
 5864SOL     OW18490   4.233   5.439   0.586
 5864SOL    HW118491   4.280   5.393   0.511
 5864SOL    HW218492   4.154   5.489   0.550
 5865SOL     OW18493   4.461   1.069   3.442
 5865SOL    HW118494   4.527   1.014   3.390
 5865SOL    HW218495   4.492   1.164   3.445
 5866SOL     OW18496   3.298   1.457   7.008
 5866SOL    HW118497   3.280   1.409   6.922
 5866SOL    HW218498   3.382   1.423   0.032
 5867SOL     OW18499   0.365   2.706   1.390
 5867SOL    HW118500   0.298   2.779   1.402
 5867SOL    HW218501   0.455   2.745   1.370
 5868SOL     OW18502   1.593   6.922   4.603
 5868SOL    HW118503   1.579   0.004   4.603
 5868SOL    HW218504   1.647   6.896   4.523
 5869SOL     OW18505   2.891   4.890   3.768
 5869SOL    HW118506   2.796   4.911   3.791
 5869SOL    HW218507   2.935   4.971   3.731
 5870SOL     OW18508   5.284   4.912   4.312
 5870SOL    HW118509   5.319   4.879   4.399
 5870SOL    HW218510   5.354   4.966   4.265
 5871SOL     OW18511   2.697   3.386   0.431
 5871SOL    HW118512   2.679   3.374   0.529
 5871SOL    HW218513   2.640   3.459   0.395
 5872SOL     OW18514   4.023   5.909   4.278
 5872SOL    HW118515   4.023   5.878   4.183
 5872SOL    HW218516   3.990   6.003   4.283
 5873SOL     OW18517   1.986   3.677   0.280
 5873SOL    HW118518   2.001   3.589   0.325
 5873SOL    HW218519   2.034   3.749   0.329
 5874SOL     OW18520   1.148   4.195   6.890
 5874SOL    HW118521   1.202   4.219   6.970
 5874SOL    HW218522   1.118   4.099   6.898
 5875SOL     OW18523   4.588   1.995   0.218
 5875SOL    HW118524   4.504   2.038   0.249
 5875SOL    HW218525   4.567   1.914   0.164
 5876SOL     OW18526   3.688   4.092   6.386
 5876SOL    HW118527   3.716   4.182   6.351
 5876SOL    HW218528   3.731   4.076   6.475
 5877SOL     OW18529   5.998   0.288   2.370
 5877SOL    HW118530   6.002   0.376   2.323
 5877SOL    HW218531   6.055   0.291   2.452
 5878SOL     OW18532   5.217   4.673   2.077
 5878SOL    HW118533   5.132   4.702   2.121
 5878SOL    HW218534   5.290   4.669   2.145
 5879SOL     OW18535   3.529   3.400   5.489
 5879SOL    HW118536   3.487   3.471   5.432
 5879SOL    HW218537   3.467   3.378   5.564
 5880SOL     OW18538   6.109   2.707   6.630
 5880SOL    HW118539   6.046   2.768   6.581
 5880SOL    HW218540   6.189   2.759   6.659
 5881SOL     OW18541   1.714   6.595   2.876
 5881SOL    HW118542   1.809   6.588   2.909
 5881SOL    HW218543   1.696   6.689   2.848
 5882SOL     OW18544   1.289   4.726   5.767
 5882SOL    HW118545   1.269   4.808   5.712
 5882SOL    HW218546   1.377   4.688   5.740
 5883SOL     OW18547   6.482   5.395   0.231
 5883SOL    HW118548   6.403   5.334   0.235
 5883SOL    HW218549   6.457   5.485   0.267
 5884SOL     OW18550   7.015   1.023   2.443
 5884SOL    HW118551   0.067   1.066   2.501
 5884SOL    HW218552   6.963   0.957   2.496
 5885SOL     OW18553   0.127   5.502   0.781
 5885SOL    HW118554   0.028   5.516   0.786
 5885SOL    HW218555   0.169   5.578   0.732
 5886SOL     OW18556   1.745   4.884   3.550
 5886SOL    HW118557   1.780   4.939   3.474
 5886SOL    HW218558   1.813   4.815   3.575
 5887SOL     OW18559   2.673   2.898   0.345
 5887SOL    HW118560   2.661   2.997   0.341
 5887SOL    HW218561   2.617   2.855   0.275
 5888SOL     OW18562   2.624   6.402   1.282
 5888SOL    HW118563   2.530   6.430   1.304
 5888SOL    HW218564   2.637   6.306   1.308
 5889SOL     OW18565   5.909   0.862   2.084
 5889SOL    HW118566   5.880   0.887   2.177
 5889SOL    HW218567   5.963   0.936   2.045
 5890SOL     OW18568   2.568   5.239   3.875
 5890SOL    HW118569   2.637   5.310   3.858
 5890SOL    HW218570   2.477   5.280   3.878
 5891SOL     OW18571   2.427   3.965   6.673
 5891SOL    HW118572   2.511   3.916   6.651
 5891SOL    HW218573   2.369   3.970   6.591
 5892SOL     OW18574   1.103   3.098   0.506
 5892SOL    HW118575   1.054   3.011   0.507
 5892SOL    HW218576   1.073   3.154   0.584
 5893SOL     OW18577   0.627   6.499   1.107
 5893SOL    HW118578   0.706   6.515   1.166
 5893SOL    HW218579   0.591   6.586   1.073
 5894SOL     OW18580   1.835   5.904   6.668
 5894SOL    HW118581   1.752   5.871   6.713
 5894SOL    HW218582   1.848   5.855   6.582
 5895SOL     OW18583   5.659   4.459   3.291
 5895SOL    HW118584   5.706   4.401   3.225
 5895SOL    HW218585   5.636   4.406   3.372
 5896SOL     OW18586   5.500   2.067   2.300
 5896SOL    HW118587   5.413   2.016   2.296
 5896SOL    HW218588   5.530   2.088   2.207
 5897SOL     OW18589   3.434   2.344   0.576
 5897SOL    HW118590   3.474   2.341   0.667
 5897SOL    HW218591   3.489   2.404   0.517
 5898SOL     OW18592   2.200   0.825   6.533
 5898SOL    HW118593   2.207   0.902   6.596
 5898SOL    HW218594   2.103   0.807   6.514
 5899SOL     OW18595   0.490   6.634   6.772
 5899SOL    HW118596   0.491   6.683   6.859
 5899SOL    HW218597   0.506   6.698   6.697
 5900SOL     OW18598   6.087   6.154   2.349
 5900SOL    HW118599   6.182   6.185   2.348
 5900SOL    HW218600   6.052   6.154   2.255
 5901SOL     OW18601   2.920   0.656   4.836
 5901SOL    HW118602   2.903   0.746   4.875
 5901SOL    HW218603   2.971   0.600   4.901
 5902SOL     OW18604   4.117   3.912   5.654
 5902SOL    HW118605   4.088   3.989   5.596
 5902SOL    HW218606   4.143   3.835   5.596
 5903SOL     OW18607   6.475   2.010   5.488
 5903SOL    HW118608   6.422   1.926   5.471
 5903SOL    HW218609   6.505   2.048   5.400
 5904SOL     OW18610   0.427   4.645   1.351
 5904SOL    HW118611   0.350   4.594   1.313
 5904SOL    HW218612   0.440   4.730   1.300
 5905SOL     OW18613   6.040   2.291   4.882
 5905SOL    HW118614   6.024   2.368   4.944
 5905SOL    HW218615   5.955   2.242   4.866
 5906SOL     OW18616   3.972   1.399   5.903
 5906SOL    HW118617   4.033   1.320   5.900
 5906SOL    HW218618   3.961   1.436   5.811
 5907SOL     OW18619   1.229   2.959   6.199
 5907SOL    HW118620   1.177   3.012   6.266
 5907SOL    HW218621   1.302   3.015   6.161
 5908SOL     OW18622   4.506   3.997   6.492
 5908SOL    HW118623   4.510   3.909   6.539
 5908SOL    HW218624   4.554   3.990   6.405
 5909SOL     OW18625   6.330   4.799   4.017
 5909SOL    HW118626   6.403   4.838   3.960
 5909SOL    HW218627   6.298   4.869   4.081
 5910SOL     OW18628   3.097   4.539   0.760
 5910SOL    HW118629   3.114   4.626   0.806
 5910SOL    HW218630   3.122   4.547   0.664
 5911SOL     OW18631   6.526   0.109   6.985
 5911SOL    HW118632   6.557   0.101   6.890
 5911SOL    HW218633   6.605   0.112   0.029
 5912SOL     OW18634   0.880   3.262   5.122
 5912SOL    HW118635   0.904   3.356   5.102
 5912SOL    HW218636   0.940   3.227   5.195
 5913SOL     OW18637   1.476   2.273   4.550
 5913SOL    HW118638   1.419   2.353   4.568
 5913SOL    HW218639   1.571   2.301   4.535
 5914SOL     OW18640   1.679   6.144   0.739
 5914SOL    HW118641   1.643   6.184   0.655
 5914SOL    HW218642   1.652   6.199   0.818
 5915SOL     OW18643   5.558   3.634   4.574
 5915SOL    HW118644   5.571   3.713   4.634
 5915SOL    HW218645   5.543   3.553   4.630
 5916SOL     OW18646   3.195   0.214   5.938
 5916SOL    HW118647   3.257   0.146   5.899
 5916SOL    HW218648   3.243   0.266   6.009
 5917SOL     OW18649   3.802   4.095   2.688
 5917SOL    HW118650   3.865   4.018   2.696
 5917SOL    HW218651   3.834   4.171   2.744
 5918SOL     OW18652   2.403   2.024   4.194
 5918SOL    HW118653   2.479   2.044   4.256
 5918SOL    HW218654   2.390   2.101   4.132
 5919SOL     OW18655   1.438   2.350   6.776
 5919SOL    HW118656   1.347   2.329   6.741
 5919SOL    HW218657   1.485   2.264   6.799
 5920SOL     OW18658   2.281   5.168   0.325
 5920SOL    HW118659   2.305   5.244   0.385
 5920SOL    HW218660   2.261   5.203   0.233
 5921SOL     OW18661   3.977   5.298   5.869
 5921SOL    HW118662   3.986   5.310   5.967
 5921SOL    HW218663   4.067   5.298   5.827
 5922SOL     OW18664   5.984   4.461   1.189
 5922SOL    HW118665   5.896   4.435   1.229
 5922SOL    HW218666   6.025   4.382   1.144
 5923SOL     OW18667   0.367   0.686   3.627
 5923SOL    HW118668   0.373   0.637   3.541
 5923SOL    HW218669   0.400   0.628   3.702
 5924SOL     OW18670   5.955   1.733   4.881
 5924SOL    HW118671   5.885   1.751   4.812
 5924SOL    HW218672   6.009   1.654   4.854
 5925SOL     OW18673   6.413   6.135   0.462
 5925SOL    HW118674   6.478   6.135   0.538
 5925SOL    HW218675   6.352   6.056   0.471
 5926SOL     OW18676   3.230   5.122   2.617
 5926SOL    HW118677   3.167   5.143   2.691
 5926SOL    HW218678   3.184   5.132   2.529
 5927SOL     OW18679   2.339   5.402   1.955
 5927SOL    HW118680   2.366   5.441   1.868
 5927SOL    HW218681   2.251   5.439   1.983
 5928SOL     OW18682   0.785   6.024   0.915
 5928SOL    HW118683   0.856   6.076   0.869
 5928SOL    HW218684   0.765   5.941   0.862
 5929SOL     OW18685   0.873   6.840   5.277
 5929SOL    HW118686   0.784   6.886   5.268
 5929SOL    HW218687   0.860   6.752   5.323
 5930SOL     OW18688   6.447   1.172   5.049
 5930SOL    HW118689   6.359   1.171   5.002
 5930SOL    HW218690   6.435   1.207   5.142
 5931SOL     OW18691   5.774   4.892   0.989
 5931SOL    HW118692   5.861   4.940   0.978
 5931SOL    HW218693   5.699   4.951   0.959
 5932SOL     OW18694   2.253   0.117   0.330
 5932SOL    HW118695   2.299   0.048   0.275
 5932SOL    HW218696   2.279   0.106   0.426
 5933SOL     OW18697   6.148   3.793   2.603
 5933SOL    HW118698   6.177   3.811   2.697
 5933SOL    HW218699   6.220   3.821   2.539
 5934SOL     OW18700   3.628   3.898   2.269
 5934SOL    HW118701   3.615   3.959   2.347
 5934SOL    HW218702   3.725   3.884   2.253
 5935SOL     OW18703   4.116   3.199   3.090
 5935SOL    HW118704   4.045   3.145   3.044
 5935SOL    HW218705   4.126   3.167   3.184
 5936SOL     OW18706   6.246   6.180   6.706
 5936SOL    HW118707   6.252   6.137   6.616
 5936SOL    HW218708   6.240   6.110   6.776
 5937SOL     OW18709   1.332   4.504   0.617
 5937SOL    HW118710   1.284   4.417   0.620
 5937SOL    HW218711   1.294   4.560   0.543
 5938SOL     OW18712   2.319   4.398   1.163
 5938SOL    HW118713   2.340   4.308   1.201
 5938SOL    HW218714   2.312   4.465   1.236
 5939SOL     OW18715   2.020   1.344   2.733
 5939SOL    HW118716   1.987   1.316   2.643
 5939SOL    HW218717   1.989   1.437   2.753
 5940SOL     OW18718   4.012   5.132   3.237
 5940SOL    HW118719   3.943   5.135   3.164
 5940SOL    HW218720   3.969   5.104   3.322
 5941SOL     OW18721   6.549   3.251   2.860
 5941SOL    HW118722   6.531   3.156   2.836
 5941SOL    HW218723   6.507   3.311   2.791
 5942SOL     OW18724   6.936   2.014   4.758
 5942SOL    HW118725   6.896   2.068   4.832
 5942SOL    HW218726   6.939   2.070   4.674
 5943SOL     OW18727   1.165   5.039   0.495
 5943SOL    HW118728   1.108   4.985   0.433
 5943SOL    HW218729   1.196   4.981   0.570
 5944SOL     OW18730   5.092   2.218   3.342
 5944SOL    HW118731   5.043   2.279   3.279
 5944SOL    HW218732   5.177   2.189   3.299
 5945SOL     OW18733   6.916   5.066   6.164
 5945SOL    HW118734   6.881   4.975   6.144
 5945SOL    HW218735   6.876   5.132   6.101
 5946SOL     OW18736   3.826   2.978   5.497
 5946SOL    HW118737   3.915   3.009   5.464
 5946SOL    HW218738   3.782   2.920   5.428
 5947SOL     OW18739   4.563   4.134   1.615
 5947SOL    HW118740   4.519   4.183   1.691
 5947SOL    HW218741   4.493   4.105   1.550
 5948SOL     OW18742   3.422   5.253   3.453
 5948SOL    HW118743   3.509   5.216   3.484
 5948SOL    HW218744   3.385   5.196   3.380
 5949SOL     OW18745   4.741   4.214   2.546
 5949SOL    HW118746   4.654   4.252   2.513
 5949SOL    HW218747   4.803   4.289   2.569
 5950SOL     OW18748   6.162   2.941   4.107
 5950SOL    HW118749   6.197   2.854   4.141
 5950SOL    HW218750   6.067   2.930   4.079
 5951SOL     OW18751   1.989   6.630   4.032
 5951SOL    HW118752   2.019   6.535   4.038
 5951SOL    HW218753   2.068   6.689   4.015
 5952SOL     OW18754   6.862   5.849   4.963
 5952SOL    HW118755   6.933   5.790   4.925
 5952SOL    HW218756   6.774   5.801   4.958
 5953SOL     OW18757   0.922   3.454   6.304
 5953SOL    HW118758   0.968   3.534   6.266
 5953SOL    HW218759   0.973   3.371   6.280
 5954SOL     OW18760   1.080   5.085   6.603
 5954SOL    HW118761   1.149   5.060   6.671
 5954SOL    HW218762   1.009   5.140   6.648
 5955SOL     OW18763   4.551   5.156   2.809
 5955SOL    HW118764   4.613   5.092   2.854
 5955SOL    HW218765   4.588   5.249   2.816
 5956SOL     OW18766   0.040   1.993   6.918
 5956SOL    HW118767   7.001   1.986   6.835
 5956SOL    HW218768   6.998   1.993   6.999
 5957SOL     OW18769   4.827   6.679   5.214
 5957SOL    HW118770   4.878   6.642   5.291
 5957SOL    HW218771   4.848   6.777   5.204
 5958SOL     OW18772   1.372   5.154   2.505
 5958SOL    HW118773   1.467   5.167   2.474
 5958SOL    HW218774   1.369   5.078   2.570
 5959SOL     OW18775   1.811   0.799   6.565
 5959SOL    HW118776   1.749   0.721   6.578
 5959SOL    HW218777   1.861   0.789   6.479
 5960SOL     OW18778   3.518   6.433   5.061
 5960SOL    HW118779   3.509   6.482   4.974
 5960SOL    HW218780   3.608   6.390   5.067
 5961SOL     OW18781   2.433   1.152   5.770
 5961SOL    HW118782   2.345   1.111   5.748
 5961SOL    HW218783   2.499   1.080   5.792
 5962SOL     OW18784   5.270   4.530   2.845
 5962SOL    HW118785   5.246   4.544   2.749
 5962SOL    HW218786   5.199   4.476   2.889
 5963SOL     OW18787   3.994   3.894   1.892
 5963SOL    HW118788   3.986   3.815   1.831
 5963SOL    HW218789   4.072   3.950   1.863
 5964SOL     OW18790   1.675   3.604   5.730
 5964SOL    HW118791   1.628   3.685   5.695
 5964SOL    HW218792   1.774   3.617   5.721
 5965SOL     OW18793   2.558   1.527   3.600
 5965SOL    HW118794   2.566   1.429   3.620
 5965SOL    HW218795   2.644   1.573   3.623
 5966SOL     OW18796   1.803   6.006   4.053
 5966SOL    HW118797   1.816   6.029   4.150
 5966SOL    HW218798   1.892   6.005   4.007
 5967SOL     OW18799   4.517   6.197   2.106
 5967SOL    HW118800   4.434   6.192   2.050
 5967SOL    HW218801   4.594   6.159   2.055
 5968SOL     OW18802   0.373   1.940   4.591
 5968SOL    HW118803   0.314   1.925   4.512
 5968SOL    HW218804   0.427   1.857   4.608
 5969SOL     OW18805   5.652   2.680   2.799
 5969SOL    HW118806   5.659   2.776   2.827
 5969SOL    HW218807   5.742   2.636   2.810
 5970SOL     OW18808   1.987   3.225   3.460
 5970SOL    HW118809   1.949   3.185   3.543
 5970SOL    HW218810   1.913   3.245   3.395
 5971SOL     OW18811   2.632   6.661   2.714
 5971SOL    HW118812   2.725   6.666   2.750
 5971SOL    HW218813   2.579   6.594   2.768
 5972SOL     OW18814   4.879   0.255   1.917
 5972SOL    HW118815   4.894   0.292   1.826
 5972SOL    HW218816   4.962   0.210   1.950
 5973SOL     OW18817   1.328   3.754   2.725
 5973SOL    HW118818   1.266   3.711   2.790
 5973SOL    HW218819   1.277   3.786   2.646
 5974SOL     OW18820   1.303   3.587   6.344
 5974SOL    HW118821   1.379   3.584   6.279
 5974SOL    HW218822   1.228   3.641   6.305
 5975SOL     OW18823   2.264   3.383   0.315
 5975SOL    HW118824   2.316   3.360   0.232
 5975SOL    HW218825   2.171   3.408   0.289
 5976SOL     OW18826   3.484   3.163   4.796
 5976SOL    HW118827   3.493   3.066   4.821
 5976SOL    HW218828   3.553   3.185   4.726
 5977SOL     OW18829   0.878   3.552   3.304
 5977SOL    HW118830   0.785   3.548   3.269
 5977SOL    HW218831   0.933   3.612   3.246
 5978SOL     OW18832   5.178   5.287   3.074
 5978SOL    HW118833   5.224   5.201   3.052
 5978SOL    HW218834   5.230   5.363   3.035
 5979SOL     OW18835   0.984   1.184   1.931
 5979SOL    HW118836   0.901   1.238   1.944
 5979SOL    HW218837   1.058   1.243   1.898
 5980SOL     OW18838   6.332   3.740   6.049
 5980SOL    HW118839   6.396   3.738   6.126
 5980SOL    HW218840   6.274   3.658   6.053
 5981SOL     OW18841   3.892   2.347   1.023
 5981SOL    HW118842   3.930   2.295   1.100
 5981SOL    HW218843   3.966   2.371   0.960
 5982SOL     OW18844   5.906   2.557   0.183
 5982SOL    HW118845   5.893   2.490   0.109
 5982SOL    HW218846   5.821   2.607   0.198
 5983SOL     OW18847   0.599   0.852   4.951
 5983SOL    HW118848   0.572   0.937   4.996
 5983SOL    HW218849   0.633   0.872   4.859
 5984SOL     OW18850   0.576   0.087   5.922
 5984SOL    HW118851   0.591   0.006   5.979
 5984SOL    HW218852   0.611   0.070   5.830
 5985SOL     OW18853   5.176   2.976   4.167
 5985SOL    HW118854   5.166   3.057   4.109
 5985SOL    HW218855   5.099   2.971   4.231
 5986SOL     OW18856   3.560   2.852   2.556
 5986SOL    HW118857   3.489   2.912   2.521
 5986SOL    HW218858   3.523   2.761   2.572
 5987SOL     OW18859   4.922   6.653   5.477
 5987SOL    HW118860   4.901   6.725   5.544
 5987SOL    HW218861   5.008   6.674   5.431
 5988SOL     OW18862   3.772   6.918   4.859
 5988SOL    HW118863   3.796   6.903   4.955
 5988SOL    HW218864   3.751   6.831   4.816
 5989SOL     OW18865   2.869   1.676   6.699
 5989SOL    HW118866   2.774   1.681   6.668
 5989SOL    HW218867   2.929   1.719   6.631
 5990SOL     OW18868   3.420   4.939   2.324
 5990SOL    HW118869   3.336   4.895   2.296
 5990SOL    HW218870   3.483   4.945   2.246
 5991SOL     OW18871   2.972   5.412   3.710
 5991SOL    HW118872   2.890   5.438   3.762
 5991SOL    HW218873   3.039   5.486   3.714
 5992SOL     OW18874   4.433   2.349   4.274
 5992SOL    HW118875   4.352   2.325   4.327
 5992SOL    HW218876   4.457   2.274   4.212
 5993SOL     OW18877   3.582   5.736   4.248
 5993SOL    HW118878   3.493   5.760   4.285
 5993SOL    HW218879   3.579   5.739   4.148
 5994SOL     OW18880   6.275   2.610   1.568
 5994SOL    HW118881   6.324   2.647   1.647
 5994SOL    HW218882   6.215   2.680   1.530
 5995SOL     OW18883   0.914   4.348   1.493
 5995SOL    HW118884   0.869   4.327   1.580
 5995SOL    HW218885   1.001   4.394   1.511
 5996SOL     OW18886   0.479   5.709   5.658
 5996SOL    HW118887   0.478   5.633   5.593
 5996SOL    HW218888   0.419   5.687   5.735
 5997SOL     OW18889   0.527   0.383   1.163
 5997SOL    HW118890   0.529   0.482   1.171
 5997SOL    HW218891   0.437   0.349   1.191
 5998SOL     OW18892   4.511   2.224   3.399
 5998SOL    HW118893   4.591   2.213   3.340
 5998SOL    HW218894   4.514   2.154   3.471
 5999SOL     OW18895   2.273   2.879   3.176
 5999SOL    HW118896   2.276   2.821   3.257
 5999SOL    HW218897   2.243   2.971   3.202
 6000SOL     OW18898   5.031   0.286   3.241
 6000SOL    HW118899   4.940   0.258   3.271
 6000SOL    HW218900   5.033   0.386   3.230
 6001SOL     OW18901   5.766   1.441   0.137
 6001SOL    HW118902   5.865   1.442   0.151
 6001SOL    HW218903   5.725   1.518   0.186
 6002SOL     OW18904   1.529   0.818   1.816
 6002SOL    HW118905   1.487   0.748   1.758
 6002SOL    HW218906   1.626   0.798   1.828
 6003SOL     OW18907   5.561   3.883   3.902
 6003SOL    HW118908   5.546   3.980   3.922
 6003SOL    HW218909   5.488   3.849   3.844
 6004SOL     OW18910   6.757   3.405   1.642
 6004SOL    HW118911   6.844   3.386   1.688
 6004SOL    HW218912   6.681   3.383   1.703
 6005SOL     OW18913   2.162   5.798   2.478
 6005SOL    HW118914   2.214   5.719   2.447
 6005SOL    HW218915   2.117   5.841   2.400
 6006SOL     OW18916   1.869   5.624   6.972
 6006SOL    HW118917   1.847   5.711   6.929
 6006SOL    HW218918   1.831   5.549   6.918
 6007SOL     OW18919   5.209   2.938   4.779
 6007SOL    HW118920   5.143   2.932   4.704
 6007SOL    HW218921   5.288   2.992   4.750
 6008SOL     OW18922   4.772   4.113   1.239
 6008SOL    HW118923   4.764   4.091   1.336
 6008SOL    HW218924   4.722   4.198   1.220
 6009SOL     OW18925   3.765   1.787   4.461
 6009SOL    HW118926   3.719   1.733   4.390
 6009SOL    HW218927   3.772   1.882   4.432
 6010SOL     OW18928   1.097   3.441   3.445
 6010SOL    HW118929   1.130   3.477   3.532
 6010SOL    HW218930   1.027   3.502   3.407
 6011SOL     OW18931   6.590   2.971   1.773
 6011SOL    HW118932   6.658   3.003   1.839
 6011SOL    HW218933   6.587   2.871   1.774
 6012SOL     OW18934   0.269   3.083   1.570
 6012SOL    HW118935   0.362   3.049   1.584
 6012SOL    HW218936   0.272   3.179   1.543
 6013SOL     OW18937   5.895   0.595   1.988
 6013SOL    HW118938   5.934   0.534   2.057
 6013SOL    HW218939   5.884   0.686   2.027
 6014SOL     OW18940   5.454   0.341   0.942
 6014SOL    HW118941   5.401   0.371   1.022
 6014SOL    HW218942   5.532   0.285   0.973
 6015SOL     OW18943   5.389   1.107   4.618
 6015SOL    HW118944   5.405   1.173   4.692
 6015SOL    HW218945   5.318   1.042   4.647
 6016SOL     OW18946   1.911   6.838   5.170
 6016SOL    HW118947   1.904   6.832   5.070
 6016SOL    HW218948   1.945   6.751   5.206
 6017SOL     OW18949   6.980   3.754   2.487
 6017SOL    HW118950   6.894   3.758   2.435
 6017SOL    HW218951   6.960   3.727   2.582
 6018SOL     OW18952   2.430   5.561   1.257
 6018SOL    HW118953   2.517   5.532   1.217
 6018SOL    HW218954   2.436   5.559   1.357
 6019SOL     OW18955   5.625   6.610   3.105
 6019SOL    HW118956   5.721   6.584   3.117
 6019SOL    HW218957   5.566   6.542   3.149
 6020SOL     OW18958   2.769   6.958   2.828
 6020SOL    HW118959   2.752   0.040   2.828
 6020SOL    HW218960   2.733   6.919   2.913
 6021SOL     OW18961   4.287   0.999   3.738
 6021SOL    HW118962   4.344   0.940   3.796
 6021SOL    HW218963   4.310   1.095   3.755
 6022SOL     OW18964   4.768   1.046   6.141
 6022SOL    HW118965   4.826   0.964   6.134
 6022SOL    HW218966   4.691   1.037   6.078
 6023SOL     OW18967   0.479   2.083   2.638
 6023SOL    HW118968   0.395   2.073   2.584
 6023SOL    HW218969   0.557   2.097   2.576
 6024SOL     OW18970   6.978   5.595   2.515
 6024SOL    HW118971   6.893   5.542   2.525
 6024SOL    HW218972   6.999   5.606   2.418
 6025SOL     OW18973   4.092   1.578   2.016
 6025SOL    HW118974   4.106   1.581   1.917
 6025SOL    HW218975   4.036   1.656   2.044
 6026SOL     OW18976   0.541   4.400   5.734
 6026SOL    HW118977   0.484   4.453   5.797
 6026SOL    HW218978   0.495   4.315   5.710
 6027SOL     OW18979   3.355   3.086   0.179
 6027SOL    HW118980   3.434   3.026   0.194
 6027SOL    HW218981   3.275   3.031   0.154
 6028SOL     OW18982   0.865   4.500   0.036
 6028SOL    HW118983   0.903   4.551   6.975
 6028SOL    HW218984   0.938   4.450   0.081
 6029SOL     OW18985   0.810   5.003   1.981
 6029SOL    HW118986   0.714   5.010   1.953
 6029SOL    HW218987   0.858   5.087   1.958
 6030SOL     OW18988   1.907   0.289   1.212
 6030SOL    HW118989   1.912   0.215   1.278
 6030SOL    HW218990   1.886   0.375   1.259
 6031SOL     OW18991   5.398   0.917   4.234
 6031SOL    HW118992   5.386   0.819   4.218
 6031SOL    HW218993   5.309   0.963   4.230
 6032SOL     OW18994   0.193   3.533   2.670
 6032SOL    HW118995   0.151   3.587   2.742
 6032SOL    HW218996   0.123   3.502   2.606
 6033SOL     OW18997   0.203   6.913   4.627
 6033SOL    HW118998   0.254   6.863   4.698
 6033SOL    HW218999   0.211   6.865   4.540
 6034SOL     OW19000   2.099   4.241   5.108
 6034SOL    HW119001   2.163   4.169   5.082
 6034SOL    HW219002   2.142   4.301   5.175
 6035SOL     OW19003   5.544   0.063   3.792
 6035SOL    HW119004   5.527   0.118   3.874
 6035SOL    HW219005   5.620   0.000   3.809
 6036SOL     OW19006   0.634   1.174   4.143
 6036SOL    HW119007   0.729   1.185   4.115
 6036SOL    HW219008   0.628   1.182   4.243
 6037SOL     OW19009   0.054   5.743   4.841
 6037SOL    HW119010   0.095   5.798   4.768
 6037SOL    HW219011   0.106   5.659   4.852
 6038SOL     OW19012   5.693   4.246   6.474
 6038SOL    HW119013   5.649   4.168   6.429
 6038SOL    HW219014   5.686   4.327   6.415
 6039SOL     OW19015   3.929   3.035   4.326
 6039SOL    HW119016   3.899   3.070   4.414
 6039SOL    HW219017   3.856   2.981   4.284
 6040SOL     OW19018   1.489   1.296   0.210
 6040SOL    HW119019   1.584   1.327   0.208
 6040SOL    HW219020   1.439   1.348   0.279
 6041SOL     OW19021   0.850   2.507   0.601
 6041SOL    HW119022   0.871   2.419   0.644
 6041SOL    HW219023   0.881   2.581   0.660
 6042SOL     OW19024   5.507   5.944   4.653
 6042SOL    HW119025   5.511   5.851   4.618
 6042SOL    HW219026   5.418   5.960   4.695
 6043SOL     OW19027   0.546   4.589   4.093
 6043SOL    HW119028   0.586   4.632   4.174
 6043SOL    HW219029   0.465   4.535   4.119
 6044SOL     OW19030   0.841   0.622   1.408
 6044SOL    HW119031   0.797   0.559   1.472
 6044SOL    HW219032   0.940   0.614   1.416
 6045SOL     OW19033   6.953   4.031   1.031
 6045SOL    HW119034   7.014   4.012   1.107
 6045SOL    HW219035   6.893   3.952   1.015
 6046SOL     OW19036   2.393   3.065   0.664
 6046SOL    HW119037   2.333   3.072   0.744
 6046SOL    HW219038   2.342   3.023   0.588
 6047SOL     OW19039   0.425   6.094   4.705
 6047SOL    HW119040   0.376   6.111   4.790
 6047SOL    HW219041   0.519   6.067   4.726
 6048SOL     OW19042   4.779   5.628   4.838
 6048SOL    HW119043   4.700   5.586   4.793
 6048SOL    HW219044   4.795   5.718   4.799
 6049SOL     OW19045   6.398   5.510   0.662
 6049SOL    HW119046   6.359   5.540   0.749
 6049SOL    HW219047   6.498   5.501   0.671
 6050SOL     OW19048   5.855   4.303   5.466
 6050SOL    HW119049   5.867   4.219   5.414
 6050SOL    HW219050   5.939   4.357   5.461
 6051SOL     OW19051   2.392   1.972   2.930
 6051SOL    HW119052   2.419   1.883   2.892
 6051SOL    HW219053   2.371   1.962   3.027
 6052SOL     OW19054   6.480   1.071   0.343
 6052SOL    HW119055   6.545   0.997   0.359
 6052SOL    HW219056   6.421   1.082   0.423
 6053SOL     OW19057   1.930   0.053   6.037
 6053SOL    HW119058   1.882   0.083   5.955
 6053SOL    HW219059   2.002   0.118   6.060
 6054SOL     OW19060   2.175   4.333   6.524
 6054SOL    HW119061   2.137   4.393   6.454
 6054SOL    HW219062   2.261   4.372   6.558
 6055SOL     OW19063   4.835   0.688   3.841
 6055SOL    HW119064   4.921   0.639   3.853
 6055SOL    HW219065   4.761   0.623   3.828
 6056SOL     OW19066   5.143   3.790   6.358
 6056SOL    HW119067   5.236   3.799   6.393
 6056SOL    HW219068   5.100   3.880   6.355
 6057SOL     OW19069   3.703   0.491   6.113
 6057SOL    HW119070   3.623   0.446   6.153
 6057SOL    HW219071   3.786   0.445   6.144
 6058SOL     OW19072   5.245   1.712   4.205
 6058SOL    HW119073   5.168   1.774   4.193
 6058SOL    HW219074   5.312   1.753   4.267
 6059SOL     OW19075   6.375   6.519   5.989
 6059SOL    HW119076   6.326   6.580   6.051
 6059SOL    HW219077   6.462   6.493   6.030
 6060SOL     OW19078   3.312   6.465   6.483
 6060SOL    HW119079   3.244   6.443   6.412
 6060SOL    HW219080   3.271   6.525   6.551
 6061SOL     OW19081   1.590   1.674   6.643
 6061SOL    HW119082   1.545   1.704   6.727
 6061SOL    HW219083   1.666   1.736   6.623
 6062SOL     OW19084   1.265   7.000   4.010
 6062SOL    HW119085   1.326   6.951   4.072
 6062SOL    HW219086   1.302   0.075   3.993
 6063SOL     OW19087   5.356   5.927   0.208
 6063SOL    HW119088   5.270   5.893   0.169
 6063SOL    HW219089   5.383   6.010   0.161
 6064SOL     OW19090   0.798   5.515   3.251
 6064SOL    HW119091   0.802   5.545   3.155
 6064SOL    HW219092   0.861   5.438   3.264
 6065SOL     OW19093   6.017   6.659   1.662
 6065SOL    HW119094   5.969   6.671   1.575
 6065SOL    HW219095   5.984   6.725   1.728
 6066SOL     OW19096   4.765   2.082   6.132
 6066SOL    HW119097   4.864   2.091   6.118
 6066SOL    HW219098   4.722   2.172   6.125
 6067SOL     OW19099   5.261   1.979   6.417
 6067SOL    HW119100   5.178   1.925   6.435
 6067SOL    HW219101   5.285   1.971   6.320
 6068SOL     OW19102   4.922   1.653   5.592
 6068SOL    HW119103   4.909   1.600   5.676
 6068SOL    HW219104   4.846   1.718   5.582
 6069SOL     OW19105   5.953   4.046   4.495
 6069SOL    HW119106   5.945   3.946   4.499
 6069SOL    HW219107   6.047   4.073   4.517
 6070SOL     OW19108   3.991   2.694   6.715
 6070SOL    HW119109   3.893   2.676   6.706
 6070SOL    HW219110   4.039   2.655   6.637
 6071SOL     OW19111   4.797   6.141   5.280
 6071SOL    HW119112   4.827   6.228   5.241
 6071SOL    HW219113   4.698   6.145   5.297
 6072SOL     OW19114   0.075   1.436   0.858
 6072SOL    HW119115   0.152   1.497   0.877
 6072SOL    HW219116   0.011   1.480   0.796
 6073SOL     OW19117   6.227   1.802   1.170
 6073SOL    HW119118   6.226   1.713   1.215
 6073SOL    HW219119   6.291   1.863   1.217
 6074SOL     OW19120   0.865   0.156   5.222
 6074SOL    HW119121   0.807   0.235   5.202
 6074SOL    HW219122   0.830   0.076   5.173
 6075SOL     OW19123   5.004   4.364   6.221
 6075SOL    HW119124   5.030   4.441   6.280
 6075SOL    HW219125   5.079   4.343   6.158
 6076SOL     OW19126   2.619   6.911   4.276
 6076SOL    HW119127   2.644   6.940   4.183
 6076SOL    HW219128   2.605   6.991   4.333
 6077SOL     OW19129   5.643   5.356   2.998
 6077SOL    HW119130   5.635   5.256   3.005
 6077SOL    HW219131   5.677   5.379   2.907
 6078SOL     OW19132   2.137   4.561   3.607
 6078SOL    HW119133   2.184   4.484   3.649
 6078SOL    HW219134   2.166   4.569   3.511
 6079SOL     OW19135   2.538   1.560   1.003
 6079SOL    HW119136   2.484   1.535   0.923
 6079SOL    HW219137   2.635   1.554   0.980
 6080SOL     OW19138   5.658   2.290   2.784
 6080SOL    HW119139   5.608   2.297   2.871
 6080SOL    HW219140   5.756   2.283   2.803
 6081SOL     OW19141   0.839   3.710   2.800
 6081SOL    HW119142   0.856   3.631   2.859
 6081SOL    HW219143   0.863   3.687   2.706
 6082SOL     OW19144   3.512   2.108   4.369
 6082SOL    HW119145   3.428   2.101   4.315
 6082SOL    HW219146   3.492   2.085   4.465
 6083SOL     OW19147   1.856   0.061   0.430
 6083SOL    HW119148   1.767   0.101   0.410
 6083SOL    HW219149   1.927   0.132   0.425
 6084SOL     OW19150   0.359   4.920   5.683
 6084SOL    HW119151   0.308   4.955   5.604
 6084SOL    HW219152   0.395   4.997   5.735
 6085SOL     OW19153   4.951   5.280   1.537
 6085SOL    HW119154   5.026   5.331   1.580
 6085SOL    HW219155   4.976   5.184   1.530
 6086SOL     OW19156   2.930   1.737   2.788
 6086SOL    HW119157   2.910   1.663   2.853
 6086SOL    HW219158   2.847   1.760   2.738
 6087SOL     OW19159   3.635   0.274   1.013
 6087SOL    HW119160   3.616   0.273   0.914
 6087SOL    HW219161   3.557   0.313   1.061
 6088SOL     OW19162   0.125   6.854   5.956
 6088SOL    HW119163   0.155   6.800   6.034
 6088SOL    HW219164   0.054   6.919   5.985
 6089SOL     OW19165   6.034   3.506   0.363
 6089SOL    HW119166   5.969   3.546   0.298
 6089SOL    HW219167   6.065   3.417   0.328
 6090SOL     OW19168   0.449   5.711   3.835
 6090SOL    HW119169   0.548   5.715   3.818
 6090SOL    HW219170   0.413   5.624   3.804
 6091SOL     OW19171   6.126   2.164   1.242
 6091SOL    HW119172   6.044   2.156   1.184
 6091SOL    HW219173   6.196   2.101   1.210
 6092SOL     OW19174   1.978   2.946   0.914
 6092SOL    HW119175   2.075   2.966   0.912
 6092SOL    HW219176   1.964   2.848   0.929
 6093SOL     OW19177   1.208   3.982   0.660
 6093SOL    HW119178   1.211   3.938   0.750
 6093SOL    HW219179   1.199   3.913   0.589
 6094SOL     OW19180   0.648   0.912   0.793
 6094SOL    HW119181   0.741   0.945   0.780
 6094SOL    HW219182   0.586   0.990   0.805
 6095SOL     OW19183   6.300   3.911   5.480
 6095SOL    HW119184   6.236   3.988   5.485
 6095SOL    HW219185   6.258   3.831   5.523
 6096SOL     OW19186   4.469   1.764   2.598
 6096SOL    HW119187   4.525   1.682   2.601
 6096SOL    HW219188   4.388   1.751   2.655
 6097SOL     OW19189   3.195   1.558   2.126
 6097SOL    HW119190   3.200   1.645   2.076
 6097SOL    HW219191   3.286   1.534   2.160
 6098SOL     OW19192   1.432   0.926   6.572
 6098SOL    HW119193   1.462   0.952   6.663
 6098SOL    HW219194   1.479   0.842   6.544
 6099SOL     OW19195   5.737   4.682   5.045
 6099SOL    HW119196   5.801   4.715   5.114
 6099SOL    HW219197   5.649   4.728   5.056
 6100SOL     OW19198   6.931   1.931   0.159
 6100SOL    HW119199   6.922   1.858   0.092
 6100SOL    HW219200   6.841   1.966   0.183
 6101SOL     OW19201   5.823   0.444   3.718
 6101SOL    HW119202   5.837   0.514   3.648
 6101SOL    HW219203   5.767   0.481   3.791
 6102SOL     OW19204   2.837   0.266   5.355
 6102SOL    HW119205   2.813   0.336   5.288
 6102SOL    HW219206   2.837   0.176   5.311
 6103SOL     OW19207   6.190   1.065   5.570
 6103SOL    HW119208   6.209   0.967   5.582
 6103SOL    HW219209   6.177   1.107   5.660
 6104SOL     OW19210   1.524   3.642   1.064
 6104SOL    HW119211   1.463   3.633   1.142
 6104SOL    HW219212   1.615   3.668   1.096
 6105SOL     OW19213   3.604   5.014   4.610
 6105SOL    HW119214   3.513   4.995   4.573
 6105SOL    HW219215   3.625   5.111   4.599
 6106SOL     OW19216   3.239   4.905   4.056
 6106SOL    HW119217   3.278   4.906   3.964
 6106SOL    HW219218   3.312   4.921   4.123
 6107SOL     OW19219   2.188   4.877   5.661
 6107SOL    HW119220   2.186   4.961   5.715
 6107SOL    HW219221   2.096   4.838   5.657
 6108SOL     OW19222   5.913   1.503   4.503
 6108SOL    HW119223   5.930   1.596   4.469
 6108SOL    HW219224   5.853   1.454   4.440
 6109SOL     OW19225   6.570   4.306   1.710
 6109SOL    HW119226   6.491   4.364   1.689
 6109SOL    HW219227   6.637   4.357   1.763
 6110SOL     OW19228   3.500   2.090   3.518
 6110SOL    HW119229   3.531   2.041   3.437
 6110SOL    HW219230   3.574   2.094   3.585
 6111SOL     OW19231   0.421   4.484   3.042
 6111SOL    HW119232   0.422   4.398   2.991
 6111SOL    HW219233   0.481   4.476   3.121
 6112SOL     OW19234   1.162   2.238   1.352
 6112SOL    HW119235   1.205   2.298   1.285
 6112SOL    HW219236   1.151   2.286   1.439
 6113SOL     OW19237   1.984   5.380   5.507
 6113SOL    HW119238   2.059   5.389   5.442
 6113SOL    HW219239   1.942   5.289   5.496
 6114SOL     OW19240   5.638   5.499   1.174
 6114SOL    HW119241   5.556   5.541   1.213
 6114SOL    HW219242   5.613   5.434   1.103
 6115SOL     OW19243   6.540   4.371   2.089
 6115SOL    HW119244   6.562   4.319   2.172
 6115SOL    HW219245   6.467   4.325   2.039
 6116SOL     OW19246   3.533   1.987   1.090
 6116SOL    HW119247   3.614   2.044   1.079
 6116SOL    HW219248   3.485   2.013   1.174
 6117SOL     OW19249   5.839   6.744   3.656
 6117SOL    HW119250   5.902   6.693   3.715
 6117SOL    HW219251   5.795   6.817   3.708
 6118SOL     OW19252   6.366   0.479   3.054
 6118SOL    HW119253   6.274   0.440   3.047
 6118SOL    HW219254   6.360   0.579   3.050
 6119SOL     OW19255   6.096   5.772   3.793
 6119SOL    HW119256   6.059   5.681   3.775
 6119SOL    HW219257   6.119   5.780   3.889
 6120SOL     OW19258   2.858   1.277   3.425
 6120SOL    HW119259   2.804   1.268   3.342
 6120SOL    HW219260   2.832   1.361   3.473
 6121SOL     OW19261   6.573   1.803   4.601
 6121SOL    HW119262   6.512   1.882   4.598
 6121SOL    HW219263   6.519   1.720   4.609
 6122SOL     OW19264   4.478   6.175   4.158
 6122SOL    HW119265   4.557   6.149   4.103
 6122SOL    HW219266   4.504   6.246   4.223
 6123SOL     OW19267   6.424   1.677   2.410
 6123SOL    HW119268   6.433   1.767   2.366
 6123SOL    HW219269   6.331   1.642   2.394
 6124SOL     OW19270   2.694   0.458   5.146
 6124SOL    HW119271   2.671   0.517   5.069
 6124SOL    HW219272   2.613   0.445   5.204
 6125SOL     OW19273   0.980   5.199   2.231
 6125SOL    HW119274   1.016   5.112   2.199
 6125SOL    HW219275   1.028   5.227   2.314
 6126SOL     OW19276   4.113   5.847   1.926
 6126SOL    HW119277   4.023   5.811   1.949
 6126SOL    HW219278   4.162   5.780   1.870
 6127SOL     OW19279   2.172   4.700   2.124
 6127SOL    HW119280   2.238   4.711   2.198
 6127SOL    HW219281   2.194   4.763   2.049
 6128SOL     OW19282   5.150   3.185   1.181
 6128SOL    HW119283   5.183   3.193   1.087
 6128SOL    HW219284   5.052   3.163   1.180
 6129SOL     OW19285   6.143   3.949   3.568
 6129SOL    HW119286   6.183   3.990   3.485
 6129SOL    HW219287   6.107   4.022   3.626
 6130SOL     OW19288   5.435   4.648   2.255
 6130SOL    HW119289   5.463   4.716   2.322
 6130SOL    HW219290   5.507   4.635   2.187
 6131SOL     OW19291   6.443   1.292   5.294
 6131SOL    HW119292   6.448   1.243   5.381
 6131SOL    HW219293   6.523   1.351   5.284
 6132SOL     OW19294   6.893   2.717   0.418
 6132SOL    HW119295   6.842   2.654   0.476
 6132SOL    HW219296   6.902   2.805   0.465
 6133SOL     OW19297   0.971   4.578   0.680
 6133SOL    HW119298   1.003   4.644   0.611
 6133SOL    HW219299   1.032   4.581   0.759
 6134SOL     OW19300   4.333   3.523   6.992
 6134SOL    HW119301   4.392   3.464   6.937
 6134SOL    HW219302   4.389   3.572   0.042
 6135SOL     OW19303   5.594   0.425   2.869
 6135SOL    HW119304   5.693   0.436   2.881
 6135SOL    HW219305   5.549   0.432   2.958
 6136SOL     OW19306   0.236   1.495   2.459
 6136SOL    HW119307   0.318   1.541   2.491
 6136SOL    HW219308   0.173   1.481   2.535
 6137SOL     OW19309   3.246   6.454   6.066
 6137SOL    HW119310   3.265   6.377   6.006
 6137SOL    HW219311   3.278   6.539   6.023
 6138SOL     OW19312   5.236   0.096   3.152
 6138SOL    HW119313   5.165   0.154   3.192
 6138SOL    HW219314   5.258   0.021   3.214
 6139SOL     OW19315   2.156   5.753   3.320
 6139SOL    HW119316   2.098   5.675   3.341
 6139SOL    HW219317   2.247   5.739   3.360
 6140SOL     OW19318   1.114   5.339   1.141
 6140SOL    HW119319   1.114   5.430   1.099
 6140SOL    HW219320   1.019   5.310   1.155
 6141SOL     OW19321   6.662   5.912   5.993
 6141SOL    HW119322   6.669   5.955   6.083
 6141SOL    HW219323   6.570   5.926   5.957
 6142SOL     OW19324   0.945   4.242   3.154
 6142SOL    HW119325   0.967   4.144   3.150
 6142SOL    HW219326   0.976   4.287   3.071
 6143SOL     OW19327   6.759   4.162   6.696
 6143SOL    HW119328   6.843   4.148   6.748
 6143SOL    HW219329   6.691   4.208   6.754
 6144SOL     OW19330   6.956   4.499   4.499
 6144SOL    HW119331   7.015   4.569   4.538
 6144SOL    HW219332   6.884   4.543   4.444
 6145SOL     OW19333   5.613   5.615   3.463
 6145SOL    HW119334   5.647   5.709   3.458
 6145SOL    HW219335   5.582   5.586   3.372
 6146SOL     OW19336   5.601   2.581   3.271
 6146SOL    HW119337   5.634   2.579   3.366
 6146SOL    HW219338   5.509   2.543   3.267
 6147SOL     OW19339   0.848   3.971   2.870
 6147SOL    HW119340   0.904   3.991   2.950
 6147SOL    HW219341   0.848   3.872   2.853
 6148SOL     OW19342   6.367   5.469   3.157
 6148SOL    HW119343   6.345   5.380   3.199
 6148SOL    HW219344   6.299   5.536   3.184
 6149SOL     OW19345   1.850   6.352   4.535
 6149SOL    HW119346   1.854   6.383   4.440
 6149SOL    HW219347   1.760   6.374   4.573
 6150SOL     OW19348   4.384   5.723   6.208
 6150SOL    HW119349   4.470   5.725   6.260
 6150SOL    HW219350   4.383   5.799   6.143
 6151SOL     OW19351   4.592   0.209   5.697
 6151SOL    HW119352   4.609   0.181   5.602
 6151SOL    HW219353   4.608   0.131   5.758
 6152SOL     OW19354   6.784   4.634   5.264
 6152SOL    HW119355   6.804   4.705   5.332
 6152SOL    HW219356   6.850   4.559   5.275
 6153SOL     OW19357   4.756   4.597   6.859
 6153SOL    HW119358   4.836   4.541   6.877
 6153SOL    HW219359   4.677   4.538   6.842
 6154SOL     OW19360   5.225   2.747   3.546
 6154SOL    HW119361   5.258   2.840   3.531
 6154SOL    HW219362   5.157   2.746   3.619
 6155SOL     OW19363   2.201   4.595   4.104
 6155SOL    HW119364   2.157   4.516   4.061
 6155SOL    HW219365   2.284   4.565   4.151
 6156SOL     OW19366   6.041   0.827   4.685
 6156SOL    HW119367   6.075   0.756   4.747
 6156SOL    HW219368   6.090   0.912   4.701
 6157SOL     OW19369   1.042   1.247   3.600
 6157SOL    HW119370   1.007   1.153   3.598
 6157SOL    HW219371   1.032   1.284   3.693
 6158SOL     OW19372   5.102   6.911   0.344
 6158SOL    HW119373   5.190   6.957   0.334
 6158SOL    HW219374   5.093   6.876   0.437
 6159SOL     OW19375   5.512   3.379   6.919
 6159SOL    HW119376   5.448   3.446   6.956
 6159SOL    HW219377   5.461   3.301   6.881
 6160SOL     OW19378   6.552   4.691   0.880
 6160SOL    HW119379   6.602   4.615   0.840
 6160SOL    HW219380   6.506   4.743   0.808
 6161SOL     OW19381   5.720   0.207   6.561
 6161SOL    HW119382   5.765   0.129   6.604
 6161SOL    HW219383   5.727   0.287   6.621
 6162SOL     OW19384   5.868   5.347   4.321
 6162SOL    HW119385   5.884   5.309   4.229
 6162SOL    HW219386   5.893   5.278   4.390
 6163SOL     OW19387   6.644   4.054   2.029
 6163SOL    HW119388   6.610   4.059   1.935
 6163SOL    HW219389   6.679   3.962   2.046
 6164SOL     OW19390   4.569   2.501   0.787
 6164SOL    HW119391   4.608   2.473   0.699
 6164SOL    HW219392   4.594   2.435   0.857
 6165SOL     OW19393   4.026   0.243   1.143
 6165SOL    HW119394   3.995   0.148   1.149
 6165SOL    HW219395   3.983   0.287   1.065
 6166SOL     OW19396   3.904   1.589   0.144
 6166SOL    HW119397   3.873   1.680   0.174
 6166SOL    HW219398   3.863   1.569   0.055
 6167SOL     OW19399   0.117   5.345   3.487
 6167SOL    HW119400   0.206   5.322   3.447
 6167SOL    HW219401   0.087   5.272   3.547
 6168SOL     OW19402   0.635   2.847   0.976
 6168SOL    HW119403   0.609   2.936   1.013
 6168SOL    HW219404   0.705   2.806   1.033
 6169SOL     OW19405   1.787   4.617   1.588
 6169SOL    HW119406   1.793   4.607   1.687
 6169SOL    HW219407   1.807   4.529   1.544
 6170SOL     OW19408   6.787   1.919   3.644
 6170SOL    HW119409   6.700   1.965   3.630
 6170SOL    HW219410   6.791   1.882   3.737
 6171SOL     OW19411   5.969   0.783   5.965
 6171SOL    HW119412   5.881   0.819   5.934
 6171SOL    HW219413   5.972   0.782   6.065
 6172SOL     OW19414   1.266   4.227   4.162
 6172SOL    HW119415   1.171   4.248   4.136
 6172SOL    HW219416   1.279   4.249   4.258
 6173SOL     OW19417   5.784   5.927   2.945
 6173SOL    HW119418   5.756   5.831   2.935
 6173SOL    HW219419   5.719   5.985   2.897
 6174SOL     OW19420   6.328   2.745   2.525
 6174SOL    HW119421   6.356   2.840   2.542
 6174SOL    HW219422   6.278   2.710   2.604
 6175SOL     OW19423   3.662   1.574   6.795
 6175SOL    HW119424   3.720   1.495   6.815
 6175SOL    HW219425   3.674   1.599   6.699
 6176SOL     OW19426   3.128   3.611   6.131
 6176SOL    HW119427   3.205   3.649   6.182
 6176SOL    HW219428   3.163   3.551   6.059
 6177SOL     OW19429   5.800   5.680   1.428
 6177SOL    HW119430   5.728   5.693   1.496
 6177SOL    HW219431   5.886   5.658   1.474
 6178SOL     OW19432   4.358   4.769   1.854
 6178SOL    HW119433   4.416   4.713   1.795
 6178SOL    HW219434   4.284   4.809   1.801
 6179SOL     OW19435   5.588   4.959   4.937
 6179SOL    HW119436   5.507   5.004   4.901
 6179SOL    HW219437   5.667   4.979   4.878
 6180SOL     OW19438   2.606   4.151   6.466
 6180SOL    HW119439   2.558   4.197   6.392
 6180SOL    HW219440   2.541   4.132   6.541
 6181SOL     OW19441   6.074   6.483   6.978
 6181SOL    HW119442   6.020   6.400   6.967
 6181SOL    HW219443   6.073   6.535   6.892
 6182SOL     OW19444   2.990   2.595   6.458
 6182SOL    HW119445   2.968   2.691   6.475
 6182SOL    HW219446   2.941   2.563   6.377
 6183SOL     OW19447   6.996   0.634   1.002
 6183SOL    HW119448   0.046   0.688   0.952
 6183SOL    HW219449   6.912   0.627   0.948
 6184SOL     OW19450   3.280   6.224   5.405
 6184SOL    HW119451   3.375   6.255   5.409
 6184SOL    HW219452   3.231   6.276   5.335
 6185SOL     OW19453   3.914   3.299   5.358
 6185SOL    HW119454   3.883   3.324   5.450
 6185SOL    HW219455   3.835   3.271   5.303
 6186SOL     OW19456   0.945   1.867   2.684
 6186SOL    HW119457   1.039   1.876   2.717
 6186SOL    HW219458   0.915   1.954   2.646
 6187SOL     OW19459   2.803   2.009   6.072
 6187SOL    HW119460   2.867   2.069   6.119
 6187SOL    HW219461   2.721   1.996   6.128
 6188SOL     OW19462   2.281   1.290   5.495
 6188SOL    HW119463   2.328   1.208   5.463
 6188SOL    HW219464   2.196   1.301   5.443
 6189SOL     OW19465   6.914   5.280   0.566
 6189SOL    HW119466   6.824   5.242   0.546
 6189SOL    HW219467   6.909   5.337   0.647
 6190SOL     OW19468   0.273   3.183   3.773
 6190SOL    HW119469   0.226   3.260   3.730
 6190SOL    HW219470   0.334   3.217   3.845
 6191SOL     OW19471   2.284   3.979   0.861
 6191SOL    HW119472   2.371   3.955   0.816
 6191SOL    HW219473   2.247   3.898   0.906
 6192SOL     OW19474   2.828   1.444   1.334
 6192SOL    HW119475   2.736   1.407   1.325
 6192SOL    HW219476   2.895   1.374   1.307
 6193SOL     OW19477   3.865   5.961   0.143
 6193SOL    HW119478   3.923   5.892   0.100
 6193SOL    HW219479   3.800   5.916   0.205
 6194SOL     OW19480   5.433   6.681   6.270
 6194SOL    HW119481   5.381   6.709   6.350
 6194SOL    HW219482   5.437   6.757   6.205
 6195SOL     OW19483   5.304   6.057   5.954
 6195SOL    HW119484   5.276   6.007   6.036
 6195SOL    HW219485   5.314   5.994   5.877
 6196SOL     OW19486   6.108   3.404   3.203
 6196SOL    HW119487   6.061   3.326   3.162
 6196SOL    HW219488   6.154   3.457   3.132
 6197SOL     OW19489   1.013   5.601   1.059
 6197SOL    HW119490   1.040   5.696   1.069
 6197SOL    HW219491   0.986   5.584   0.964
 6198SOL     OW19492   5.533   1.440   6.296
 6198SOL    HW119493   5.572   1.478   6.212
 6198SOL    HW219494   5.568   1.347   6.310
 6199SOL     OW19495   2.050   6.627   6.060
 6199SOL    HW119496   2.088   6.649   6.150
 6199SOL    HW219497   1.975   6.689   6.039
 6200SOL     OW19498   1.394   0.602   0.682
 6200SOL    HW119499   1.454   0.627   0.606
 6200SOL    HW219500   1.387   0.503   0.689
 6201SOL     OW19501   0.693   4.683   3.492
 6201SOL    HW119502   0.594   4.694   3.487
 6201SOL    HW219503   0.725   4.631   3.414
 6202SOL     OW19504   5.969   0.533   2.266
 6202SOL    HW119505   5.994   0.577   2.352
 6202SOL    HW219506   5.870   0.524   2.261
 6203SOL     OW19507   6.111   0.281   1.930
 6203SOL    HW119508   6.061   0.294   1.844
 6203SOL    HW219509   6.052   0.233   1.995
 6204SOL     OW19510   1.308   5.763   5.002
 6204SOL    HW119511   1.245   5.722   5.068
 6204SOL    HW219512   1.265   5.764   4.911
 6205SOL     OW19513   6.115   4.702   3.256
 6205SOL    HW119514   6.043   4.721   3.189
 6205SOL    HW219515   6.077   4.653   3.334
 6206SOL     OW19516   5.595   1.863   3.626
 6206SOL    HW119517   5.668   1.925   3.599
 6206SOL    HW219518   5.507   1.908   3.613
 6207SOL     OW19519   1.428   5.647   3.657
 6207SOL    HW119520   1.511   5.653   3.711
 6207SOL    HW219521   1.376   5.732   3.665
 6208SOL     OW19522   4.172   4.415   6.242
 6208SOL    HW119523   4.136   4.450   6.155
 6208SOL    HW219524   4.137   4.323   6.258
 6209SOL     OW19525   3.743   1.580   1.747
 6209SOL    HW119526   3.685   1.651   1.787
 6209SOL    HW219527   3.687   1.501   1.724
 6210SOL     OW19528   5.741   1.276   4.254
 6210SOL    HW119529   5.702   1.297   4.344
 6210SOL    HW219530   5.693   1.198   4.214
 6211SOL     OW19531   5.417   3.513   5.017
 6211SOL    HW119532   5.461   3.434   5.060
 6211SOL    HW219533   5.334   3.483   4.970
 6212SOL     OW19534   5.408   4.199   5.133
 6212SOL    HW119535   5.479   4.243   5.079
 6212SOL    HW219536   5.369   4.123   5.082
 6213SOL     OW19537   4.477   6.180   0.327
 6213SOL    HW119538   4.395   6.163   0.272
 6213SOL    HW219539   4.537   6.243   0.278
 6214SOL     OW19540   6.244   0.059   6.850
 6214SOL    HW119541   6.193   0.075   6.935
 6214SOL    HW219542   6.336   0.099   6.859
 6215SOL     OW19543   6.048   2.131   5.522
 6215SOL    HW119544   6.125   2.162   5.467
 6215SOL    HW219545   5.984   2.080   5.464
 6216SOL     OW19546   4.636   1.770   5.221
 6216SOL    HW119547   4.568   1.705   5.187
 6216SOL    HW219548   4.592   1.836   5.281
 6217SOL     OW19549   0.601   4.183   2.197
 6217SOL    HW119550   0.521   4.180   2.256
 6217SOL    HW219551   0.613   4.276   2.162
 6218SOL     OW19552   4.515   6.344   0.875
 6218SOL    HW119553   4.553   6.356   0.784
 6218SOL    HW219554   4.590   6.332   0.941
 6219SOL     OW19555   2.051   0.638   0.004
 6219SOL    HW119556   2.105   0.654   0.087
 6219SOL    HW219557   2.111   0.647   6.941
 6220SOL     OW19558   3.448   6.718   1.149
 6220SOL    HW119559   3.409   6.627   1.135
 6220SOL    HW219560   3.459   6.764   1.061
 6221SOL     OW19561   4.622   5.330   5.919
 6221SOL    HW119562   4.696   5.370   5.974
 6221SOL    HW219563   4.585   5.400   5.859
 6222SOL     OW19564   6.816   1.357   2.359
 6222SOL    HW119565   6.837   1.323   2.267
 6222SOL    HW219566   6.779   1.450   2.352
 6223SOL     OW19567   6.728   4.769   4.571
 6223SOL    HW119568   6.629   4.784   4.561
 6223SOL    HW219569   6.764   4.729   4.487
 6224SOL     OW19570   3.340   6.620   6.743
 6224SOL    HW119571   3.284   6.571   6.809
 6224SOL    HW219572   3.386   6.697   6.788
 6225SOL     OW19573   4.647   6.355   6.361
 6225SOL    HW119574   4.709   6.319   6.291
 6225SOL    HW219575   4.594   6.432   6.323
 6226SOL     OW19576   0.799   0.999   3.750
 6226SOL    HW119577   0.718   0.955   3.711
 6226SOL    HW219578   0.831   0.946   3.829
 6227SOL     OW19579   3.041   4.876   5.723
 6227SOL    HW119580   3.045   4.848   5.819
 6227SOL    HW219581   3.120   4.839   5.675
 6228SOL     OW19582   0.887   3.227   3.468
 6228SOL    HW119583   0.842   3.240   3.556
 6228SOL    HW219584   0.958   3.296   3.456
 6229SOL     OW19585   0.422   4.164   4.107
 6229SOL    HW119586   0.498   4.165   4.041
 6229SOL    HW219587   0.425   4.079   4.159
 6230SOL     OW19588   0.661   1.060   1.415
 6230SOL    HW119589   0.624   1.152   1.406
 6230SOL    HW219590   0.733   1.059   1.485
 6231SOL     OW19591   2.414   5.396   5.801
 6231SOL    HW119592   2.401   5.319   5.739
 6231SOL    HW219593   2.476   5.462   5.759
 6232SOL     OW19594   4.466   0.291   6.421
 6232SOL    HW119595   4.504   0.259   6.334
 6232SOL    HW219596   4.393   0.357   6.403
 6233SOL     OW19597   6.999   3.442   0.907
 6233SOL    HW119598   0.075   3.470   0.932
 6233SOL    HW219599   7.003   3.375   0.833
 6234SOL     OW19600   5.001   5.204   4.290
 6234SOL    HW119601   5.062   5.163   4.222
 6234SOL    HW219602   5.028   5.174   4.382
 6235SOL     OW19603   0.741   1.057   2.144
 6235SOL    HW119604   0.807   0.997   2.098
 6235SOL    HW219605   0.676   1.093   2.078
 6236SOL     OW19606   6.383   5.957   1.190
 6236SOL    HW119607   6.373   6.055   1.210
 6236SOL    HW219608   6.417   5.910   1.271
 6237SOL     OW19609   3.359   1.079   2.222
 6237SOL    HW119610   3.387   0.984   2.237
 6237SOL    HW219611   3.262   1.088   2.242
 6238SOL     OW19612   2.396   1.076   3.410
 6238SOL    HW119613   2.384   0.977   3.401
 6238SOL    HW219614   2.433   1.096   3.501
 6239SOL     OW19615   4.551   1.630   4.352
 6239SOL    HW119616   4.488   1.672   4.419
 6239SOL    HW219617   4.562   1.691   4.274
 6240SOL     OW19618   4.156   3.422   4.009
 6240SOL    HW119619   4.133   3.440   3.914
 6240SOL    HW219620   4.146   3.325   4.028
 6241SOL     OW19621   3.865   0.129   3.500
 6241SOL    HW119622   3.850   0.133   3.599
 6241SOL    HW219623   3.884   0.221   3.466
 6242SOL     OW19624   3.224   2.184   4.265
 6242SOL    HW119625   3.269   2.263   4.223
 6242SOL    HW219626   3.179   2.130   4.194
 6243SOL     OW19627   3.986   1.385   6.777
 6243SOL    HW119628   3.894   1.378   6.817
 6243SOL    HW219629   4.043   1.312   6.813
 6244SOL     OW19630   4.445   2.580   1.873
 6244SOL    HW119631   4.521   2.645   1.871
 6244SOL    HW219632   4.371   2.613   1.815
 6245SOL     OW19633   0.134   5.158   2.166
 6245SOL    HW119634   0.106   5.254   2.161
 6245SOL    HW219635   0.084   5.105   2.098
 6246SOL     OW19636   0.452   6.898   4.903
 6246SOL    HW119637   0.515   6.950   4.846
 6246SOL    HW219638   0.430   6.811   4.857
 6247SOL     OW19639   5.936   5.479   3.073
 6247SOL    HW119640   5.878   5.472   3.153
 6247SOL    HW219641   6.010   5.413   3.079
 6248SOL     OW19642   4.250   2.984   5.846
 6248SOL    HW119643   4.305   3.010   5.766
 6248SOL    HW219644   4.251   2.885   5.857
 6249SOL     OW19645   5.771   3.561   3.320
 6249SOL    HW119646   5.698   3.619   3.356
 6249SOL    HW219647   5.736   3.508   3.242
 6250SOL     OW19648   5.531   6.898   6.121
 6250SOL    HW119649   5.596   6.828   6.090
 6250SOL    HW219650   5.577   6.986   6.127
 6251SOL     OW19651   3.038   0.749   4.353
 6251SOL    HW119652   3.030   0.839   4.310
 6251SOL    HW219653   3.072   0.759   4.446
 6252SOL     OW19654   2.717   5.360   0.272
 6252SOL    HW119655   2.673   5.372   0.361
 6252SOL    HW219656   2.815   5.348   0.285
 6253SOL     OW19657   5.121   6.315   4.043
 6253SOL    HW119658   5.050   6.257   4.004
 6253SOL    HW219659   5.087   6.357   4.128
 6254SOL     OW19660   0.272   0.134   1.624
 6254SOL    HW119661   0.243   0.212   1.679
 6254SOL    HW219662   0.217   0.129   1.541
 6255SOL     OW19663   1.617   1.628   0.781
 6255SOL    HW119664   1.708   1.591   0.765
 6255SOL    HW219665   1.568   1.635   0.694
 6256SOL     OW19666   6.472   5.383   2.116
 6256SOL    HW119667   6.388   5.330   2.107
 6256SOL    HW219668   6.521   5.382   2.029
 6257SOL     OW19669   3.498   3.743   1.092
 6257SOL    HW119670   3.451   3.688   1.162
 6257SOL    HW219671   3.560   3.808   1.137
 6258SOL     OW19672   4.187   5.236   4.848
 6258SOL    HW119673   4.203   5.173   4.771
 6258SOL    HW219674   4.093   5.226   4.879
 6259SOL     OW19675   3.974   0.858   4.794
 6259SOL    HW119676   3.977   0.878   4.892
 6259SOL    HW219677   3.919   0.776   4.778
 6260SOL     OW19678   2.790   1.965   1.069
 6260SOL    HW119679   2.760   1.872   1.087
 6260SOL    HW219680   2.715   2.017   1.027
 6261SOL     OW19681   3.522   6.871   0.927
 6261SOL    HW119682   3.455   6.941   0.904
 6261SOL    HW219683   3.592   6.910   0.987
 6262SOL     OW19684   6.184   1.050   2.267
 6262SOL    HW119685   6.096   1.009   2.244
 6262SOL    HW219686   6.180   1.091   2.358
 6263SOL     OW19687   6.052   5.999   6.129
 6263SOL    HW119688   6.072   5.929   6.197
 6263SOL    HW219689   6.131   6.059   6.118
 6264SOL     OW19690   1.442   6.047   0.503
 6264SOL    HW119691   1.494   6.022   0.422
 6264SOL    HW219692   1.451   5.976   0.573
 6265SOL     OW19693   3.632   6.872   6.657
 6265SOL    HW119694   3.680   6.944   6.607
 6265SOL    HW219695   3.542   6.906   6.686
 6266SOL     OW19696   3.636   5.274   3.186
 6266SOL    HW119697   3.636   5.242   3.281
 6266SOL    HW219698   3.700   5.219   3.132
 6267SOL     OW19699   0.645   6.230   4.272
 6267SOL    HW119700   0.743   6.245   4.286
 6267SOL    HW219701   0.613   6.160   4.337
 6268SOL     OW19702   3.333   1.668   1.121
 6268SOL    HW119703   3.382   1.597   1.172
 6268SOL    HW219704   3.269   1.715   1.182
 6269SOL     OW19705   6.579   5.981   6.834
 6269SOL    HW119706   6.622   5.908   6.780
 6269SOL    HW219707   6.637   6.062   6.834
 6270SOL     OW19708   1.517   6.228   0.947
 6270SOL    HW119709   1.528   6.271   1.037
 6270SOL    HW219710   1.491   6.298   0.881
 6271SOL     OW19711   6.957   2.924   6.571
 6271SOL    HW119712   0.014   2.991   6.580
 6271SOL    HW219713   6.964   2.857   6.645
 6272SOL     OW19714   0.504   1.657   6.781
 6272SOL    HW119715   0.418   1.687   6.740
 6272SOL    HW219716   0.486   1.582   6.845
 6273SOL     OW19717   0.229   6.206   3.099
 6273SOL    HW119718   0.317   6.222   3.055
 6273SOL    HW219719   0.157   6.203   3.030
 6274SOL     OW19720   2.712   5.809   3.772
 6274SOL    HW119721   2.800   5.800   3.725
 6274SOL    HW219722   2.663   5.722   3.769
 6275SOL     OW19723   2.402   5.953   0.095
 6275SOL    HW119724   2.428   5.992   0.007
 6275SOL    HW219725   2.400   5.853   0.088
 6276SOL     OW19726   2.188   5.355   2.568
 6276SOL    HW119727   2.229   5.306   2.645
 6276SOL    HW219728   2.254   5.421   2.532
 6277SOL     OW19729   4.856   2.351   1.338
 6277SOL    HW119730   4.927   2.283   1.323
 6277SOL    HW219731   4.885   2.439   1.299
 6278SOL     OW19732   4.336   2.369   0.510
 6278SOL    HW119733   4.393   2.315   0.572
 6278SOL    HW219734   4.244   2.330   0.508
 6279SOL     OW19735   2.329   6.513   2.149
 6279SOL    HW119736   2.400   6.452   2.114
 6279SOL    HW219737   2.349   6.537   2.244
 6280SOL     OW19738   5.071   1.731   6.035
 6280SOL    HW119739   5.168   1.733   6.009
 6280SOL    HW219740   5.016   1.706   5.956
 6281SOL     OW19741   5.272   4.274   6.111
 6281SOL    HW119742   5.342   4.295   6.178
 6281SOL    HW219743   5.314   4.254   6.023
 6282SOL     OW19744   0.682   3.696   5.569
 6282SOL    HW119745   0.687   3.605   5.528
 6282SOL    HW219746   0.760   3.710   5.630
 6283SOL     OW19747   2.795   0.102   4.574
 6283SOL    HW119748   2.716   0.054   4.536
 6283SOL    HW219749   2.819   0.179   4.514
 6284SOL     OW19750   1.815   2.617   5.662
 6284SOL    HW119751   1.801   2.548   5.734
 6284SOL    HW219752   1.736   2.618   5.601
 6285SOL     OW19753   1.392   3.434   2.880
 6285SOL    HW119754   1.405   3.413   2.977
 6285SOL    HW219755   1.452   3.510   2.854
 6286SOL     OW19756   0.601   2.473   6.723
 6286SOL    HW119757   0.534   2.431   6.785
 6286SOL    HW219758   0.657   2.402   6.682
 6287SOL     OW19759   4.564   4.599   4.553
 6287SOL    HW119760   4.493   4.615   4.622
 6287SOL    HW219761   4.618   4.683   4.541
 6288SOL     OW19762   2.906   3.484   6.232
 6288SOL    HW119763   2.891   3.581   6.253
 6288SOL    HW219764   2.993   3.474   6.183
 6289SOL     OW19765   2.265   4.688   4.526
 6289SOL    HW119766   2.279   4.590   4.538
 6289SOL    HW219767   2.345   4.737   4.561
 6290SOL     OW19768   6.244   7.001   3.699
 6290SOL    HW119769   6.267   0.061   3.759
 6290SOL    HW219770   6.156   0.001   3.656
 6291SOL     OW19771   3.720   3.573   1.825
 6291SOL    HW119772   3.792   3.537   1.766
 6291SOL    HW219773   3.754   3.577   1.919
 6292SOL     OW19774   1.501   4.619   4.953
 6292SOL    HW119775   1.574   4.552   4.940
 6292SOL    HW219776   1.412   4.571   4.951
 6293SOL     OW19777   2.957   1.522   6.031
 6293SOL    HW119778   2.974   1.618   6.008
 6293SOL    HW219779   2.884   1.517   6.099
 6294SOL     OW19780   1.969   1.225   2.352
 6294SOL    HW119781   1.931   1.167   2.280
 6294SOL    HW219782   2.058   1.260   2.323
 6295SOL     OW19783   4.433   3.725   6.623
 6295SOL    HW119784   4.365   3.721   6.550
 6295SOL    HW219785   4.483   3.638   6.627
 6296SOL     OW19786   0.772   2.623   0.038
 6296SOL    HW119787   0.741   2.631   6.960
 6296SOL    HW219788   0.828   2.702   0.062
 6297SOL     OW19789   6.464   1.369   4.073
 6297SOL    HW119790   6.415   1.287   4.102
 6297SOL    HW219791   6.560   1.346   4.056
 6298SOL     OW19792   0.200   6.854   0.489
 6298SOL    HW119793   0.119   6.861   0.431
 6298SOL    HW219794   0.279   6.829   0.434
 6299SOL     OW19795   3.890   2.164   4.113
 6299SOL    HW119796   3.872   2.182   4.016
 6299SOL    HW219797   3.973   2.213   4.141
 6300SOL     OW19798   2.987   2.140   1.085
 6300SOL    HW119799   2.909   2.078   1.087
 6300SOL    HW219800   3.014   2.157   0.990
 6301SOL     OW19801   3.328   6.205   0.283
 6301SOL    HW119802   3.308   6.294   0.325
 6301SOL    HW219803   3.316   6.133   0.351
 6302SOL     OW19804   1.167   3.344   0.426
 6302SOL    HW119805   1.095   3.287   0.465
 6302SOL    HW219806   1.256   3.302   0.444
 6303SOL     OW19807   6.816   4.693   4.318
 6303SOL    HW119808   6.758   4.708   4.238
 6303SOL    HW219809   6.912   4.708   4.292
 6304SOL     OW19810   2.690   0.836   4.016
 6304SOL    HW119811   2.749   0.888   4.078
 6304SOL    HW219812   2.730   0.746   4.000
 6305SOL     OW19813   0.656   5.915   5.621
 6305SOL    HW119814   0.630   5.970   5.542
 6305SOL    HW219815   0.594   5.836   5.628
 6306SOL     OW19816   0.526   4.246   4.606
 6306SOL    HW119817   0.534   4.223   4.703
 6306SOL    HW219818   0.447   4.201   4.566
 6307SOL     OW19819   3.211   2.964   2.726
 6307SOL    HW119820   3.196   2.937   2.631
 6307SOL    HW219821   3.147   3.037   2.751
 6308SOL     OW19822   1.162   1.958   1.015
 6308SOL    HW119823   1.179   2.056   1.018
 6308SOL    HW219824   1.078   1.940   0.964
 6309SOL     OW19825   1.778   6.093   4.575
 6309SOL    HW119826   1.818   6.184   4.568
 6309SOL    HW219827   1.836   6.036   4.634
 6310SOL     OW19828   0.499   6.762   3.685
 6310SOL    HW119829   0.404   6.734   3.701
 6310SOL    HW219830   0.500   6.856   3.650
 6311SOL     OW19831   6.308   1.216   6.505
 6311SOL    HW119832   6.216   1.196   6.471
 6311SOL    HW219833   6.337   1.306   6.472
 6312SOL     OW19834   3.115   5.670   0.856
 6312SOL    HW119835   3.181   5.602   0.889
 6312SOL    HW219836   3.163   5.754   0.834
 6313SOL     OW19837   5.722   4.928   3.922
 6313SOL    HW119838   5.646   4.959   3.978
 6313SOL    HW219839   5.769   5.006   3.881
 6314SOL     OW19840   2.110   6.585   3.302
 6314SOL    HW119841   2.138   6.671   3.259
 6314SOL    HW219842   2.068   6.604   3.391
 6315SOL     OW19843   2.372   2.128   3.513
 6315SOL    HW119844   2.429   2.150   3.592
 6315SOL    HW219845   2.319   2.046   3.532
 6316SOL     OW19846   4.534   0.459   5.209
 6316SOL    HW119847   4.595   0.404   5.151
 6316SOL    HW219848   4.588   0.506   5.278
 6317SOL     OW19849   4.575   4.614   2.806
 6317SOL    HW119850   4.595   4.609   2.904
 6317SOL    HW219851   4.637   4.679   2.763
 6318SOL     OW19852   6.732   6.980   0.338
 6318SOL    HW119853   6.753   0.005   0.427
 6318SOL    HW219854   6.723   6.881   0.349
 6319SOL     OW19855   4.905   2.586   4.687
 6319SOL    HW119856   4.929   2.590   4.784
 6319SOL    HW219857   4.850   2.666   4.663
 6320SOL     OW19858   6.240   1.742   6.038
 6320SOL    HW119859   6.259   1.809   6.110
 6320SOL    HW219860   6.307   1.753   5.964
 6321SOL     OW19861   0.594   3.169   0.594
 6321SOL    HW119862   0.494   3.168   0.606
 6321SOL    HW219863   0.629   3.076   0.594
 6322SOL     OW19864   1.752   1.669   3.055
 6322SOL    HW119865   1.698   1.749   3.030
 6322SOL    HW219866   1.739   1.596   2.987
 6323SOL     OW19867   2.111   5.349   1.103
 6323SOL    HW119868   2.043   5.412   1.065
 6323SOL    HW219869   2.138   5.381   1.194
 6324SOL     OW19870   4.694   2.958   1.056
 6324SOL    HW119871   4.758   3.026   1.022
 6324SOL    HW219872   4.709   2.871   1.009
 6325SOL     OW19873   1.157   3.311   3.198
 6325SOL    HW119874   1.120   3.356   3.279
 6325SOL    HW219875   1.082   3.274   3.142
 6326SOL     OW19876   5.028   5.011   5.158
 6326SOL    HW119877   5.026   5.111   5.163
 6326SOL    HW219878   5.122   4.980   5.142
 6327SOL     OW19879   0.580   1.107   3.473
 6327SOL    HW119880   0.618   1.062   3.393
 6327SOL    HW219881   0.564   1.040   3.545
 6328SOL     OW19882   3.931   3.621   5.254
 6328SOL    HW119883   3.848   3.585   5.213
 6328SOL    HW219884   4.011   3.588   5.203
 6329SOL     OW19885   0.492   2.588   5.735
 6329SOL    HW119886   0.395   2.565   5.732
 6329SOL    HW219887   0.540   2.543   5.660
 6330SOL     OW19888   4.438   2.030   3.586
 6330SOL    HW119889   4.504   1.964   3.550
 6330SOL    HW219890   4.357   1.981   3.620
 6331SOL     OW19891   1.384   3.656   3.940
 6331SOL    HW119892   1.468   3.707   3.921
 6331SOL    HW219893   1.305   3.716   3.930
 6332SOL     OW19894   4.198   1.583   0.198
 6332SOL    HW119895   4.099   1.594   0.199
 6332SOL    HW219896   4.222   1.489   0.223
 6333SOL     OW19897   5.442   0.707   0.580
 6333SOL    HW119898   5.508   0.780   0.599
 6333SOL    HW219899   5.480   0.620   0.611
 6334SOL     OW19900   1.991   0.870   1.999
 6334SOL    HW119901   2.029   0.914   1.918
 6334SOL    HW219902   2.059   0.809   2.039
 6335SOL     OW19903   6.852   3.316   6.238
 6335SOL    HW119904   6.866   3.243   6.305
 6335SOL    HW219905   6.819   3.278   6.152
 6336SOL     OW19906   1.019   4.347   5.477
 6336SOL    HW119907   1.050   4.442   5.468
 6336SOL    HW219908   0.920   4.346   5.485
 6337SOL     OW19909   6.263   6.880   4.663
 6337SOL    HW119910   6.361   6.868   4.652
 6337SOL    HW219911   6.239   6.977   4.652
 6338SOL     OW19912   0.904   0.720   3.219
 6338SOL    HW119913   0.822   0.665   3.229
 6338SOL    HW219914   0.890   0.788   3.146
 6339SOL     OW19915   0.116   3.546   3.307
 6339SOL    HW119916   0.118   3.645   3.295
 6339SOL    HW219917   0.030   3.520   3.351
 6340SOL     OW19918   2.669   5.032   6.964
 6340SOL    HW119919   2.710   5.067   0.032
 6340SOL    HW219920   2.731   4.966   6.922
 6341SOL     OW19921   0.433   4.600   2.436
 6341SOL    HW119922   0.362   4.592   2.507
 6341SOL    HW219923   0.431   4.691   2.396
 6342SOL     OW19924   2.134   0.893   1.762
 6342SOL    HW119925   2.138   0.959   1.687
 6342SOL    HW219926   2.127   0.800   1.724
 6343SOL     OW19927   1.221   5.798   6.826
 6343SOL    HW119928   1.167   5.718   6.852
 6343SOL    HW219929   1.259   5.841   6.908
 6344SOL     OW19930   1.361   1.254   4.843
 6344SOL    HW119931   1.414   1.185   4.793
 6344SOL    HW219932   1.293   1.295   4.782
 6345SOL     OW19933   6.104   2.966   2.434
 6345SOL    HW119934   6.121   3.031   2.359
 6345SOL    HW219935   6.108   2.873   2.398
 6346SOL     OW19936   0.485   4.439   4.875
 6346SOL    HW119937   0.471   4.495   4.794
 6346SOL    HW219938   0.510   4.497   4.953
 6347SOL     OW19939   2.241   2.409   3.504
 6347SOL    HW119940   2.209   2.410   3.598
 6347SOL    HW219941   2.306   2.334   3.491
 6348SOL     OW19942   0.961   2.415   6.805
 6348SOL    HW119943   0.976   2.387   6.711
 6348SOL    HW219944   1.042   2.461   6.840
 6349SOL     OW19945   5.520   0.759   0.909
 6349SOL    HW119946   5.426   0.728   0.896
 6349SOL    HW219947   5.554   0.726   0.997
 6350SOL     OW19948   0.510   6.254   0.986
 6350SOL    HW119949   0.575   6.181   0.968
 6350SOL    HW219950   0.557   6.332   1.026
 6351SOL     OW19951   5.835   3.012   1.816
 6351SOL    HW119952   5.772   2.939   1.788
 6351SOL    HW219953   5.920   3.003   1.764
 6352SOL     OW19954   4.082   0.339   4.310
 6352SOL    HW119955   4.123   0.357   4.399
 6352SOL    HW219956   4.078   0.423   4.257
 6353SOL     OW19957   3.457   6.600   5.529
 6353SOL    HW119958   3.535   6.645   5.484
 6353SOL    HW219959   3.447   6.635   5.622
 6354SOL     OW19960   5.351   4.843   2.530
 6354SOL    HW119961   5.315   4.900   2.604
 6354SOL    HW219962   5.448   4.826   2.544
 6355SOL     OW19963   3.955   6.044   0.503
 6355SOL    HW119964   4.032   6.020   0.562
 6355SOL    HW219965   3.988   6.090   0.421
 6356SOL     OW19966   6.643   6.475   6.056
 6356SOL    HW119967   6.705   6.481   6.134
 6356SOL    HW219968   6.680   6.527   5.979
 6357SOL     OW19969   4.862   1.807   2.852
 6357SOL    HW119970   4.907   1.725   2.888
 6357SOL    HW219971   4.837   1.792   2.756
 6358SOL     OW19972   1.337   1.823   4.370
 6358SOL    HW119973   1.347   1.914   4.410
 6358SOL    HW219974   1.259   1.823   4.307
 6359SOL     OW19975   5.967   5.227   1.050
 6359SOL    HW119976   5.908   5.171   1.108
 6359SOL    HW219977   6.004   5.302   1.104
 6360SOL     OW19978   2.213   2.618   1.203
 6360SOL    HW119979   2.305   2.581   1.194
 6360SOL    HW219980   2.188   2.668   1.120
 6361SOL     OW19981   0.573   2.065   2.085
 6361SOL    HW119982   0.596   2.149   2.035
 6361SOL    HW219983   0.476   2.066   2.109
 6362SOL     OW19984   1.525   5.332   0.449
 6362SOL    HW119985   1.443   5.297   0.404
 6362SOL    HW219986   1.590   5.257   0.461
 6363SOL     OW19987   0.980   2.966   2.003
 6363SOL    HW119988   1.034   3.011   2.074
 6363SOL    HW219989   1.013   2.873   1.990
 6364SOL     OW19990   3.130   1.426   3.885
 6364SOL    HW119991   3.111   1.334   3.851
 6364SOL    HW219992   3.046   1.480   3.886
 6365SOL     OW19993   6.171   6.948   2.837
 6365SOL    HW119994   6.125   6.976   2.920
 6365SOL    HW219995   6.269   6.936   2.855
 6366SOL     OW19996   6.182   1.424   5.367
 6366SOL    HW119997   6.230   1.442   5.281
 6366SOL    HW219998   6.129   1.341   5.358
 6367SOL     OW19999   1.266   2.324   4.107
 6367SOL    HW120000   1.207   2.277   4.042
 6367SOL    HW220001   1.227   2.414   4.129
 6368SOL     OW20002   4.897   3.391   4.852
 6368SOL    HW120003   4.990   3.394   4.890
 6368SOL    HW220004   4.839   3.456   4.902
 6369SOL     OW20005   3.941   4.400   0.748
 6369SOL    HW120006   3.845   4.399   0.720
 6369SOL    HW220007   3.997   4.357   0.677
 6370SOL     OW20008   5.594   3.944   4.961
 6370SOL    HW120009   5.494   3.950   4.953
 6370SOL    HW220010   5.636   3.960   4.872
 6371SOL     OW20011   5.536   4.205   0.790
 6371SOL    HW120012   5.457   4.252   0.828
 6371SOL    HW220013   5.506   4.128   0.734
 6372SOL     OW20014   6.679   1.371   1.284
 6372SOL    HW120015   6.648   1.431   1.358
 6372SOL    HW220016   6.601   1.324   1.244
 6373SOL     OW20017   5.249   3.027   2.070
 6373SOL    HW120018   5.155   3.050   2.043
 6373SOL    HW220019   5.254   2.931   2.096
 6374SOL     OW20020   4.547   3.688   6.216
 6374SOL    HW120021   4.558   3.676   6.117
 6374SOL    HW220022   4.620   3.639   6.264
 6375SOL     OW20023   4.873   0.886   1.419
 6375SOL    HW120024   4.830   0.957   1.363
 6375SOL    HW220025   4.939   0.929   1.481
 6376SOL     OW20026   2.659   0.195   0.494
 6376SOL    HW120027   2.628   0.289   0.489
 6376SOL    HW220028   2.606   0.145   0.563
 6377SOL     OW20029   0.148   0.576   6.848
 6377SOL    HW120030   0.101   0.542   6.930
 6377SOL    HW220031   0.080   0.603   6.780
 6378SOL     OW20032   5.755   3.907   2.305
 6378SOL    HW120033   5.817   3.941   2.235
 6378SOL    HW220034   5.688   3.846   2.264
 6379SOL     OW20035   2.114   5.703   6.738
 6379SOL    HW120036   2.177   5.627   6.747
 6379SOL    HW220037   2.020   5.668   6.728
 6380SOL     OW20038   2.102   2.557   5.269
 6380SOL    HW120039   2.129   2.605   5.353
 6380SOL    HW220040   2.003   2.550   5.264
 6381SOL     OW20041   3.718   4.017   0.784
 6381SOL    HW120042   3.667   4.102   0.790
 6381SOL    HW220043   3.682   3.961   0.710
 6382SOL     OW20044   1.016   1.473   0.967
 6382SOL    HW120045   1.017   1.521   1.054
 6382SOL    HW220046   1.081   1.397   0.969
 6383SOL     OW20047   2.435   2.351   2.465
 6383SOL    HW120048   2.424   2.440   2.421
 6383SOL    HW220049   2.508   2.357   2.534
 6384SOL     OW20050   6.289   2.035   1.920
 6384SOL    HW120051   6.235   2.015   1.838
 6384SOL    HW220052   6.381   1.997   1.909
 6385SOL     OW20053   6.563   3.578   0.842
 6385SOL    HW120054   6.623   3.498   0.841
 6385SOL    HW220055   6.582   3.635   0.763
 6386SOL     OW20056   3.798   3.777   6.996
 6386SOL    HW120057   3.845   3.694   0.011
 6386SOL    HW220058   3.802   3.781   6.897
 6387SOL     OW20059   6.429   0.335   6.493
 6387SOL    HW120060   6.361   0.400   6.460
 6387SOL    HW220061   6.462   0.364   6.583
 6388SOL     OW20062   5.924   5.275   1.653
 6388SOL    HW120063   5.987   5.198   1.658
 6388SOL    HW220064   5.883   5.279   1.562
 6389SOL     OW20065   6.949   6.600   0.670
 6389SOL    HW120066   6.879   6.667   0.696
 6389SOL    HW220067   0.013   6.613   0.727
 6390SOL     OW20068   5.288   6.780   6.495
 6390SOL    HW120069   5.203   6.757   6.543
 6390SOL    HW220070   5.312   6.875   6.514
 6391SOL     OW20071   1.697   2.067   4.559
 6391SOL    HW120072   1.668   2.071   4.464
 6391SOL    HW220073   1.617   2.070   4.619
 6392SOL     OW20074   4.825   6.962   4.252
 6392SOL    HW120075   4.893   6.965   4.179
 6392SOL    HW220076   4.734   6.972   4.213
 6393SOL     OW20077   1.924   5.191   0.545
 6393SOL    HW120078   2.013   5.160   0.575
 6393SOL    HW220079   1.907   5.283   0.580
 6394SOL     OW20080   1.915   5.171   2.145
 6394SOL    HW120081   1.840   5.110   2.169
 6394SOL    HW220082   1.971   5.189   2.225
 6395SOL     OW20083   1.555   4.274   4.704
 6395SOL    HW120084   1.614   4.345   4.742
 6395SOL    HW220085   1.529   4.298   4.611
 6396SOL     OW20086   1.915   2.917   5.192
 6396SOL    HW120087   1.962   2.978   5.255
 6396SOL    HW220088   1.979   2.846   5.161
 6397SOL     OW20089   6.546   2.968   5.251
 6397SOL    HW120090   6.600   2.914   5.316
 6397SOL    HW220091   6.488   3.032   5.301
 6398SOL     OW20092   1.692   0.190   2.721
 6398SOL    HW120093   1.787   0.195   2.752
 6398SOL    HW220094   1.632   0.178   2.800
 6399SOL     OW20095   2.504   0.223   0.038
 6399SOL    HW120096   2.466   0.143   0.085
 6399SOL    HW220097   2.449   0.303   0.061
 6400SOL     OW20098   0.657   6.549   2.679
 6400SOL    HW120099   0.724   6.557   2.605
 6400SOL    HW220100   0.623   6.640   2.703
 6401SOL     OW20101   3.836   5.205   2.198
 6401SOL    HW120102   3.824   5.107   2.214
 6401SOL    HW220103   3.832   5.254   2.286
 6402SOL     OW20104   3.779   4.403   6.302
 6402SOL    HW120105   3.834   4.485   6.314
 6402SOL    HW220106   3.742   4.401   6.209
 6403SOL     OW20107   4.742   5.670   5.591
 6403SOL    HW120108   4.804   5.643   5.665
 6403SOL    HW220109   4.793   5.671   5.505
 6404SOL     OW20110   4.592   5.694   6.837
 6404SOL    HW120111   4.592   5.759   6.761
 6404SOL    HW220112   4.582   5.743   6.923
 6405SOL     OW20113   4.838   0.798   2.517
 6405SOL    HW120114   4.897   0.770   2.592
 6405SOL    HW220115   4.751   0.832   2.554
 6406SOL     OW20116   0.236   3.240   2.559
 6406SOL    HW120117   0.160   3.289   2.518
 6406SOL    HW220118   0.226   3.239   2.659
 6407SOL     OW20119   0.445   0.020   2.218
 6407SOL    HW120120   0.521   0.074   2.255
 6407SOL    HW220121   0.471   7.000   2.129
 6408SOL     OW20122   0.482   1.465   1.740
 6408SOL    HW120123   0.400   1.444   1.687
 6408SOL    HW220124   0.456   1.497   1.831
 6409SOL     OW20125   6.090   4.273   3.458
 6409SOL    HW120126   5.996   4.268   3.492
 6409SOL    HW220127   6.152   4.232   3.525
 6410SOL     OW20128   1.982   0.806   0.548
 6410SOL    HW120129   2.030   0.888   0.579
 6410SOL    HW220130   1.961   0.815   0.450
 6411SOL     OW20131   0.602   2.494   3.151
 6411SOL    HW120132   0.557   2.541   3.227
 6411SOL    HW220133   0.539   2.429   3.109
 6412SOL     OW20134   3.755   0.553   6.394
 6412SOL    HW120135   3.656   0.563   6.381
 6412SOL    HW220136   3.785   0.614   6.468
 6413SOL     OW20137   4.719   6.109   3.051
 6413SOL    HW120138   4.779   6.028   3.050
 6413SOL    HW220139   4.690   6.128   3.145
 6414SOL     OW20140   2.798   0.292   0.165
 6414SOL    HW120141   2.771   0.386   0.187
 6414SOL    HW220142   2.717   0.236   0.151
 6415SOL     OW20143   0.915   1.589   3.646
 6415SOL    HW120144   0.928   1.579   3.744
 6415SOL    HW220145   0.998   1.560   3.598
 6416SOL     OW20146   2.758   4.956   0.216
 6416SOL    HW120147   2.736   4.889   0.287
 6416SOL    HW220148   2.838   4.925   0.165
 6417SOL     OW20149   4.494   3.368   6.835
 6417SOL    HW120150   4.512   3.412   6.747
 6417SOL    HW220151   4.445   3.282   6.819
 6418SOL     OW20152   4.943   5.479   0.454
 6418SOL    HW120153   5.012   5.406   0.457
 6418SOL    HW220154   4.878   5.467   0.529
 6419SOL     OW20155   0.602   6.852   6.584
 6419SOL    HW120156   0.653   6.888   6.506
 6419SOL    HW220157   0.619   6.909   6.664
 6420SOL     OW20158   2.469   4.557   3.827
 6420SOL    HW120159   2.445   4.491   3.899
 6420SOL    HW220160   2.551   4.607   3.853
 6421SOL     OW20161   5.283   6.816   2.032
 6421SOL    HW120162   5.330   6.831   2.119
 6421SOL    HW220163   5.184   6.810   2.049
 6422SOL     OW20164   0.394   2.572   4.896
 6422SOL    HW120165   0.491   2.562   4.920
 6422SOL    HW220166   0.356   2.482   4.874
 6423SOL     OW20167   0.960   4.355   4.806
 6423SOL    HW120168   0.969   4.450   4.835
 6423SOL    HW220169   0.999   4.295   4.876
 6424SOL     OW20170   6.678   4.302   6.163
 6424SOL    HW120171   6.749   4.263   6.222
 6424SOL    HW220172   6.702   4.288   6.067
 6425SOL     OW20173   0.477   6.359   4.674
 6425SOL    HW120174   0.410   6.416   4.627
 6425SOL    HW220175   0.440   6.267   4.685
 6426SOL     OW20176   4.749   5.517   3.884
 6426SOL    HW120177   4.827   5.489   3.940
 6426SOL    HW220178   4.681   5.563   3.942
 6427SOL     OW20179   3.983   3.126   3.875
 6427SOL    HW120180   4.053   3.172   3.820
 6427SOL    HW220181   3.971   3.032   3.842
 6428SOL     OW20182   5.969   2.929   0.458
 6428SOL    HW120183   5.895   2.917   0.392
 6428SOL    HW220184   6.010   2.840   0.479
 6429SOL     OW20185   2.362   1.163   5.160
 6429SOL    HW120186   2.446   1.178   5.212
 6429SOL    HW220187   2.312   1.086   5.198
 6430SOL     OW20188   5.546   1.557   4.977
 6430SOL    HW120189   5.621   1.504   4.936
 6430SOL    HW220190   5.571   1.584   5.070
 6431SOL     OW20191   3.672   5.208   2.571
 6431SOL    HW120192   3.664   5.270   2.493
 6431SOL    HW220193   3.615   5.127   2.556
 6432SOL     OW20194   4.569   3.293   6.025
 6432SOL    HW120195   4.476   3.313   6.056
 6432SOL    HW220196   4.585   3.195   6.031
 6433SOL     OW20197   3.533   5.259   6.187
 6433SOL    HW120198   3.561   5.187   6.250
 6433SOL    HW220199   3.601   5.333   6.188
 6434SOL     OW20200   5.704   5.177   5.834
 6434SOL    HW120201   5.765   5.253   5.810
 6434SOL    HW220202   5.720   5.100   5.771
 6435SOL     OW20203   4.369   1.179   1.126
 6435SOL    HW120204   4.431   1.114   1.082
 6435SOL    HW220205   4.410   1.270   1.127
 6436SOL     OW20206   0.422   3.527   3.759
 6436SOL    HW120207   0.484   3.523   3.681
 6436SOL    HW220208   0.430   3.443   3.812
 6437SOL     OW20209   1.713   2.861   5.787
 6437SOL    HW120210   1.745   2.771   5.758
 6437SOL    HW220211   1.636   2.850   5.851
 6438SOL     OW20212   0.478   5.181   0.754
 6438SOL    HW120213   0.457   5.172   0.657
 6438SOL    HW220214   0.393   5.192   0.805
 6439SOL     OW20215   5.101   6.911   2.711
 6439SOL    HW120216   5.138   6.819   2.699
 6439SOL    HW220217   5.176   6.975   2.731
 6440SOL     OW20218   2.370   1.832   6.149
 6440SOL    HW120219   2.328   1.878   6.071
 6440SOL    HW220220   2.410   1.745   6.120
 6441SOL     OW20221   0.526   2.521   1.959
 6441SOL    HW120222   0.579   2.491   2.038
 6441SOL    HW220223   0.429   2.500   1.974
 6442SOL     OW20224   2.246   1.933   4.404
 6442SOL    HW120225   2.208   2.009   4.456
 6442SOL    HW220226   2.309   1.967   4.335
 6443SOL     OW20227   3.291   3.147   6.176
 6443SOL    HW120228   3.271   3.163   6.080
 6443SOL    HW220229   3.314   3.234   6.221
 6444SOL     OW20230   6.795   3.646   5.212
 6444SOL    HW120231   6.772   3.549   5.221
 6444SOL    HW220232   6.776   3.676   5.118
 6445SOL     OW20233   3.616   2.902   3.811
 6445SOL    HW120234   3.539   2.859   3.858
 6445SOL    HW220235   3.622   2.998   3.838
 6446SOL     OW20236   1.219   1.277   0.940
 6446SOL    HW120237   1.227   1.177   0.938
 6446SOL    HW220238   1.306   1.318   0.912
 6447SOL     OW20239   5.996   3.745   1.207
 6447SOL    HW120240   5.956   3.720   1.295
 6447SOL    HW220241   5.969   3.678   1.137
 6448SOL     OW20242   4.208   4.776   0.986
 6448SOL    HW120243   4.154   4.742   0.909
 6448SOL    HW220244   4.277   4.708   1.010
 6449SOL     OW20245   3.551   5.249   0.154
 6449SOL    HW120246   3.525   5.153   0.154
 6449SOL    HW220247   3.578   5.277   0.246
 6450SOL     OW20248   5.571   3.761   6.934
 6450SOL    HW120249   5.536   3.696   6.867
 6450SOL    HW220250   5.497   3.819   6.967
 6451SOL     OW20251   4.244   2.643   1.693
 6451SOL    HW120252   4.233   2.624   1.596
 6451SOL    HW220253   4.243   2.741   1.709
 6452SOL     OW20254   4.050   1.866   4.801
 6452SOL    HW120255   4.143   1.853   4.835
 6452SOL    HW220256   4.044   1.951   4.750
 6453SOL     OW20257   2.574   0.321   2.978
 6453SOL    HW120258   2.619   0.319   3.068
 6453SOL    HW220259   2.478   0.295   2.989
 6454SOL     OW20260   5.159   3.274   4.488
 6454SOL    HW120261   5.214   3.196   4.460
 6454SOL    HW220262   5.064   3.245   4.505
 6455SOL     OW20263   0.448   2.703   4.349
 6455SOL    HW120264   0.503   2.771   4.302
 6455SOL    HW220265   0.397   2.648   4.282
 6456SOL     OW20266   6.749   1.801   2.565
 6456SOL    HW120267   6.694   1.730   2.608
 6456SOL    HW220268   6.843   1.796   2.599
 6457SOL     OW20269   2.402   6.324   2.473
 6457SOL    HW120270   2.414   6.422   2.492
 6457SOL    HW220271   2.305   6.306   2.456
 6458SOL     OW20272   0.519   6.912   4.196
 6458SOL    HW120273   0.491   7.008   4.199
 6458SOL    HW220274   0.595   6.902   4.132
 6459SOL     OW20275   0.194   3.280   3.116
 6459SOL    HW120276   0.145   3.327   3.190
 6459SOL    HW220277   0.272   3.231   3.153
 6460SOL     OW20278   1.406   5.322   6.290
 6460SOL    HW120279   1.395   5.420   6.274
 6460SOL    HW220280   1.337   5.291   6.354
 6461SOL     OW20281   0.369   6.284   0.569
 6461SOL    HW120282   0.324   6.244   0.650
 6461SOL    HW220283   0.417   6.212   0.520
 6462SOL     OW20284   1.924   4.008   5.053
 6462SOL    HW120285   1.866   4.005   5.135
 6462SOL    HW220286   2.017   3.978   5.077
 6463SOL     OW20287   4.430   2.557   1.223
 6463SOL    HW120288   4.522   2.593   1.207
 6463SOL    HW220289   4.378   2.558   1.137
 6464SOL     OW20290   0.629   3.528   3.224
 6464SOL    HW120291   0.555   3.580   3.267
 6464SOL    HW220292   0.613   3.524   3.125
 6465SOL     OW20293   3.183   0.639   3.737
 6465SOL    HW120294   3.202   0.572   3.808
 6465SOL    HW220295   3.174   0.593   3.649
 6466SOL     OW20296   6.545   5.321   6.400
 6466SOL    HW120297   6.509   5.306   6.492
 6466SOL    HW220298   6.644   5.311   6.401
 6467SOL     OW20299   2.353   3.166   5.912
 6467SOL    HW120300   2.403   3.144   5.828
 6467SOL    HW220301   2.257   3.140   5.903
 6468SOL     OW20302   1.147   1.047   1.275
 6468SOL    HW120303   1.109   1.135   1.303
 6468SOL    HW220304   1.079   0.996   1.223
 6469SOL     OW20305   1.755   1.278   1.317
 6469SOL    HW120306   1.783   1.367   1.352
 6469SOL    HW220307   1.837   1.228   1.287
 6470SOL     OW20308   6.020   1.697   6.685
 6470SOL    HW120309   6.016   1.790   6.721
 6470SOL    HW220310   6.086   1.693   6.610
 6471SOL     OW20311   0.191   6.406   6.071
 6471SOL    HW120312   0.210   6.414   5.973
 6471SOL    HW220313   0.233   6.322   6.106
 6472SOL     OW20314   0.354   6.037   1.793
 6472SOL    HW120315   0.319   5.964   1.733
 6472SOL    HW220316   0.378   6.117   1.738
 6473SOL     OW20317   3.101   1.380   3.317
 6473SOL    HW120318   3.019   1.344   3.360
 6473SOL    HW220319   3.144   1.447   3.378
 6474SOL     OW20320   4.012   6.659   3.964
 6474SOL    HW120321   4.046   6.575   3.921
 6474SOL    HW220322   4.084   6.728   3.964
 6475SOL     OW20323   5.140   5.935   2.856
 6475SOL    HW120324   5.074   6.009   2.845
 6475SOL    HW220325   5.229   5.964   2.823
 6476SOL     OW20326   4.779   3.781   6.562
 6476SOL    HW120327   4.810   3.867   6.521
 6476SOL    HW220328   4.789   3.785   6.661
 6477SOL     OW20329   0.720   6.253   0.717
 6477SOL    HW120330   0.719   6.351   0.737
 6477SOL    HW220331   0.812   6.217   0.734
 6478SOL     OW20332   1.418   6.401   0.758
 6478SOL    HW120333   1.392   6.498   0.750
 6478SOL    HW220334   1.452   6.368   0.670
 6479SOL     OW20335   4.768   5.704   3.447
 6479SOL    HW120336   4.714   5.623   3.469
 6479SOL    HW220337   4.818   5.734   3.528
 6480SOL     OW20338   3.323   1.264   5.520
 6480SOL    HW120339   3.327   1.174   5.477
 6480SOL    HW220340   3.345   1.255   5.617
 6481SOL     OW20341   4.223   3.264   1.855
 6481SOL    HW120342   4.257   3.199   1.924
 6481SOL    HW220343   4.286   3.266   1.778
 6482SOL     OW20344   4.841   3.215   5.052
 6482SOL    HW120345   4.796   3.273   4.984
 6482SOL    HW220346   4.938   3.237   5.056
 6483SOL     OW20347   1.980   5.950   5.378
 6483SOL    HW120348   1.957   5.913   5.469
 6483SOL    HW220349   1.927   6.033   5.362
 6484SOL     OW20350   4.102   1.610   3.103
 6484SOL    HW120351   4.177   1.569   3.051
 6484SOL    HW220352   4.020   1.613   3.046
 6485SOL     OW20353   2.100   4.828   5.267
 6485SOL    HW120354   2.158   4.803   5.189
 6485SOL    HW220355   2.055   4.916   5.248
 6486SOL     OW20356   6.809   3.943   2.370
 6486SOL    HW120357   6.740   4.010   2.398
 6486SOL    HW220358   6.900   3.979   2.390
 6487SOL     OW20359   6.122   5.183   4.396
 6487SOL    HW120360   6.190   5.183   4.469
 6487SOL    HW220361   6.031   5.200   4.434
 6488SOL     OW20362   3.882   5.419   3.993
 6488SOL    HW120363   3.913   5.443   4.085
 6488SOL    HW220364   3.783   5.433   3.988
 6489SOL     OW20365   6.257   3.078   5.101
 6489SOL    HW120366   6.235   3.038   5.190
 6489SOL    HW220367   6.293   3.006   5.040
 6490SOL     OW20368   1.885   2.396   0.132
 6490SOL    HW120369   1.882   2.492   0.161
 6490SOL    HW220370   1.977   2.374   0.101
 6491SOL     OW20371   1.097   0.542   1.453
 6491SOL    HW120372   1.182   0.576   1.412
 6491SOL    HW220373   1.110   0.533   1.552
 6492SOL     OW20374   4.117   3.595   4.208
 6492SOL    HW120375   4.063   3.667   4.164
 6492SOL    HW220376   4.143   3.526   4.140
 6493SOL     OW20377   1.202   4.839   3.836
 6493SOL    HW120378   1.184   4.835   3.738
 6493SOL    HW220379   1.266   4.913   3.856
 6494SOL     OW20380   6.554   0.728   1.189
 6494SOL    HW120381   6.516   0.711   1.279
 6494SOL    HW220382   6.572   0.642   1.142
 6495SOL     OW20383   6.621   7.000   3.350
 6495SOL    HW120384   6.605   0.081   3.343
 6495SOL    HW220385   6.715   6.979   3.323
 6496SOL     OW20386   3.026   2.270   1.701
 6496SOL    HW120387   2.999   2.325   1.780
 6496SOL    HW220388   3.098   2.317   1.650
 6497SOL     OW20389   0.672   1.951   0.482
 6497SOL    HW120390   0.744   1.990   0.538
 6497SOL    HW220391   0.628   2.023   0.429
 6498SOL     OW20392   1.923   5.083   4.448
 6498SOL    HW120393   1.888   5.175   4.463
 6498SOL    HW220394   1.978   5.055   4.527
 6499SOL     OW20395   4.954   2.432   3.209
 6499SOL    HW120396   5.031   2.494   3.219
 6499SOL    HW220397   4.898   2.460   3.131
 6500SOL     OW20398   1.496   3.721   2.988
 6500SOL    HW120399   1.550   3.713   2.905
 6500SOL    HW220400   1.541   3.784   3.052
 6501SOL     OW20401   6.753   0.775   2.945
 6501SOL    HW120402   6.806   0.840   3.000
 6501SOL    HW220403   6.799   0.686   2.946
 6502SOL     OW20404   0.969   2.984   1.616
 6502SOL    HW120405   1.048   2.927   1.593
 6502SOL    HW220406   0.983   3.027   1.705
 6503SOL     OW20407   6.935   3.050   6.122
 6503SOL    HW120408   6.876   3.050   6.203
 6503SOL    HW220409   6.888   3.097   6.047
 6504SOL     OW20410   3.951   6.985   6.110
 6504SOL    HW120411   3.873   0.030   6.119
 6504SOL    HW220412   3.989   6.992   6.018
 6505SOL     OW20413   0.375   6.787   0.717
 6505SOL    HW120414   0.423   6.707   0.682
 6505SOL    HW220415   0.315   6.824   0.646
 6506SOL     OW20416   6.932   3.774   1.637
 6506SOL    HW120417   6.848   3.752   1.687
 6506SOL    HW220418   7.002   3.805   1.702
 6507SOL     OW20419   3.641   5.611   1.128
 6507SOL    HW120420   3.717   5.624   1.064
 6507SOL    HW220421   3.561   5.663   1.096
 6508SOL     OW20422   6.650   0.346   3.946
 6508SOL    HW120423   6.688   0.411   4.011
 6508SOL    HW220424   6.725   0.308   3.891
 6509SOL     OW20425   2.297   1.765   6.881
 6509SOL    HW120426   2.237   1.808   6.813
 6509SOL    HW220427   2.241   1.720   6.951
 6510SOL     OW20428   3.470   4.999   4.213
 6510SOL    HW120429   3.569   4.997   4.219
 6510SOL    HW220430   3.438   5.094   4.210
 6511SOL     OW20431   3.368   2.363   0.124
 6511SOL    HW120432   3.281   2.356   0.174
 6511SOL    HW220433   3.419   2.442   0.157
 6512SOL     OW20434   4.652   0.577   0.633
 6512SOL    HW120435   4.671   0.521   0.552
 6512SOL    HW220436   4.598   0.524   0.698
 6513SOL     OW20437   3.351   4.920   2.969
 6513SOL    HW120438   3.411   4.998   2.987
 6513SOL    HW220439   3.311   4.889   3.056
 6514SOL     OW20440   5.292   5.986   5.544
 6514SOL    HW120441   5.268   6.081   5.528
 6514SOL    HW220442   5.250   5.928   5.474
 6515SOL     OW20443   0.394   4.848   2.325
 6515SOL    HW120444   0.428   4.875   2.235
 6515SOL    HW220445   0.353   4.927   2.370
 6516SOL     OW20446   6.151   1.915   3.329
 6516SOL    HW120447   6.219   1.984   3.300
 6516SOL    HW220448   6.110   1.943   3.415
 6517SOL     OW20449   6.658   3.773   0.614
 6517SOL    HW120450   6.730   3.717   0.654
 6517SOL    HW220451   6.692   3.866   0.598
 6518SOL     OW20452   0.676   1.745   2.427
 6518SOL    HW120453   0.725   1.658   2.417
 6518SOL    HW220454   0.718   1.813   2.368
 6519SOL     OW20455   1.426   1.171   3.286
 6519SOL    HW120456   1.478   1.252   3.314
 6519SOL    HW220457   1.332   1.179   3.320
 6520SOL     OW20458   6.101   5.284   0.189
 6520SOL    HW120459   6.150   5.356   0.139
 6520SOL    HW220460   6.164   5.237   0.251
 6521SOL     OW20461   1.939   4.758   4.801
 6521SOL    HW120462   2.004   4.806   4.741
 6521SOL    HW220463   1.898   4.681   4.752
 6522SOL     OW20464   2.330   3.102   5.377
 6522SOL    HW120465   2.355   3.159   5.456
 6522SOL    HW220466   2.410   3.088   5.320
 6523SOL     OW20467   5.970   6.620   0.739
 6523SOL    HW120468   5.922   6.553   0.683
 6523SOL    HW220469   6.068   6.616   0.720
 6524SOL     OW20470   3.163   3.032   1.252
 6524SOL    HW120471   3.232   3.003   1.319
 6524SOL    HW220472   3.090   2.964   1.248
 6525SOL     OW20473   1.612   5.213   3.731
 6525SOL    HW120474   1.531   5.215   3.674
 6525SOL    HW220475   1.694   5.218   3.674
 6526SOL     OW20476   6.489   6.846   0.655
 6526SOL    HW120477   6.418   6.868   0.722
 6526SOL    HW220478   6.478   6.904   0.574
 6527SOL     OW20479   5.502   1.380   0.589
 6527SOL    HW120480   5.530   1.469   0.627
 6527SOL    HW220481   5.426   1.344   0.643
 6528SOL     OW20482   3.862   6.729   0.064
 6528SOL    HW120483   3.847   6.771   6.992
 6528SOL    HW220484   3.835   6.633   0.061
 6529SOL     OW20485   4.284   0.265   1.941
 6529SOL    HW120486   4.250   0.174   1.914
 6529SOL    HW220487   4.294   0.268   2.040
 6530SOL     OW20488   6.564   3.070   3.683
 6530SOL    HW120489   6.530   3.015   3.760
 6530SOL    HW220490   6.561   3.015   3.599
 6531SOL     OW20491   3.832   3.506   3.772
 6531SOL    HW120492   3.805   3.547   3.859
 6531SOL    HW220493   3.805   3.566   3.697
 6532SOL     OW20494   0.614   6.008   0.278
 6532SOL    HW120495   0.592   5.913   0.299
 6532SOL    HW220496   0.586   6.067   0.354
 6533SOL     OW20497   4.881   5.004   1.506
 6533SOL    HW120498   4.894   5.023   1.409
 6533SOL    HW220499   4.914   4.911   1.526
 6534SOL     OW20500   0.045   3.908   4.010
 6534SOL    HW120501   0.030   4.006   3.998
 6534SOL    HW220502   6.975   3.860   4.001
 6535SOL     OW20503   5.348   3.743   5.879
 6535SOL    HW120504   5.353   3.825   5.936
 6535SOL    HW220505   5.322   3.767   5.786
 6536SOL     OW20506   0.646   4.779   5.735
 6536SOL    HW120507   0.681   4.716   5.666
 6536SOL    HW220508   0.584   4.845   5.692
 6537SOL     OW20509   6.973   5.361   3.989
 6537SOL    HW120510   6.912   5.386   4.065
 6537SOL    HW220511   0.004   5.442   3.956
 6538SOL     OW20512   1.403   2.979   3.528
 6538SOL    HW120513   1.435   2.915   3.598
 6538SOL    HW220514   1.454   3.064   3.534
 6539SOL     OW20515   4.416   6.776   6.856
 6539SOL    HW120516   4.512   6.767   6.832
 6539SOL    HW220517   4.381   6.864   6.825
 6540SOL     OW20518   0.398   2.640   5.447
 6540SOL    HW120519   0.414   2.552   5.402
 6540SOL    HW220520   0.427   2.714   5.386
 6541SOL     OW20521   4.061   1.697   5.392
 6541SOL    HW120522   3.999   1.768   5.358
 6541SOL    HW220523   4.102   1.649   5.315
 6542SOL     OW20524   1.621   4.433   2.432
 6542SOL    HW120525   1.541   4.377   2.409
 6542SOL    HW220526   1.659   4.403   2.519
 6543SOL     OW20527   4.181   1.200   4.082
 6543SOL    HW120528   4.142   1.149   4.160
 6543SOL    HW220529   4.153   1.296   4.087
 6544SOL     OW20530   0.415   0.354   0.645
 6544SOL    HW120531   0.468   0.351   0.560
 6544SOL    HW220532   0.477   0.351   0.723
 6545SOL     OW20533   4.845   6.283   0.839
 6545SOL    HW120534   4.823   6.363   0.893
 6545SOL    HW220535   4.836   6.304   0.741
 6546SOL     OW20536   4.576   5.037   5.592
 6546SOL    HW120537   4.503   5.106   5.594
 6546SOL    HW220538   4.540   4.951   5.555
 6547SOL     OW20539   0.945   6.381   5.201
 6547SOL    HW120540   1.011   6.373   5.276
 6547SOL    HW220541   0.948   6.473   5.164
 6548SOL     OW20542   1.262   1.764   6.272
 6548SOL    HW120543   1.261   1.793   6.176
 6548SOL    HW220544   1.345   1.711   6.289
 6549SOL     OW20545   3.612   1.449   2.515
 6549SOL    HW120546   3.634   1.381   2.446
 6549SOL    HW220547   3.514   1.469   2.512
 6550SOL     OW20548   5.994   6.452   2.033
 6550SOL    HW120549   6.080   6.484   1.995
 6550SOL    HW220550   5.994   6.352   2.036
 6551SOL     OW20551   2.520   4.860   0.940
 6551SOL    HW120552   2.478   4.796   0.876
 6551SOL    HW220553   2.460   4.873   1.019
 6552SOL     OW20554   2.248   4.458   6.990
 6552SOL    HW120555   2.299   4.422   0.051
 6552SOL    HW220556   2.167   4.401   6.975
 6553SOL     OW20557   0.248   1.964   4.157
 6553SOL    HW120558   0.214   1.889   4.101
 6553SOL    HW220559   0.199   2.048   4.135
 6554SOL     OW20560   1.305   2.162   3.647
 6554SOL    HW120561   1.320   2.122   3.737
 6554SOL    HW220562   1.265   2.093   3.586
 6555SOL     OW20563   1.442   3.377   3.994
 6555SOL    HW120564   1.539   3.372   3.970
 6555SOL    HW220565   1.400   3.455   3.947
 6556SOL     OW20566   5.122   3.362   3.151
 6556SOL    HW120567   5.023   3.358   3.166
 6556SOL    HW220568   5.166   3.284   3.195
 6557SOL     OW20569   2.278   0.507   2.644
 6557SOL    HW120570   2.189   0.532   2.604
 6557SOL    HW220571   2.334   0.589   2.653
 6558SOL     OW20572   5.745   6.065   1.102
 6558SOL    HW120573   5.698   6.041   1.018
 6558SOL    HW220574   5.699   6.022   1.180
 6559SOL     OW20575   0.467   2.170   6.076
 6559SOL    HW120576   0.487   2.075   6.096
 6559SOL    HW220577   0.501   2.228   6.150
 6560SOL     OW20578   6.921   4.552   6.739
 6560SOL    HW120579   6.860   4.496   6.682
 6560SOL    HW220580   6.872   4.582   6.820
 6561SOL     OW20581   2.233   5.120   0.632
 6561SOL    HW120582   2.259   5.217   0.634
 6561SOL    HW220583   2.286   5.074   0.560
 6562SOL     OW20584   4.954   2.421   1.836
 6562SOL    HW120585   4.887   2.424   1.911
 6562SOL    HW220586   4.952   2.330   1.793
 6563SOL     OW20587   6.379   4.949   5.478
 6563SOL    HW120588   6.396   5.047   5.470
 6563SOL    HW220589   6.398   4.904   5.391
 6564SOL     OW20590   5.402   3.231   2.546
 6564SOL    HW120591   5.444   3.322   2.551
 6564SOL    HW220592   5.354   3.222   2.459
 6565SOL     OW20593   5.215   6.143   2.479
 6565SOL    HW120594   5.262   6.165   2.565
 6565SOL    HW220595   5.238   6.211   2.410
 6566SOL     OW20596   5.422   5.264   3.736
 6566SOL    HW120597   5.457   5.320   3.811
 6566SOL    HW220598   5.406   5.322   3.656
 6567SOL     OW20599   3.054   0.805   2.810
 6567SOL    HW120600   3.080   0.879   2.748
 6567SOL    HW220601   3.059   0.837   2.904
 6568SOL     OW20602   4.849   0.951   0.914
 6568SOL    HW120603   4.918   1.017   0.885
 6568SOL    HW220604   4.809   0.908   0.834
 6569SOL     OW20605   1.353   4.694   3.549
 6569SOL    HW120606   1.259   4.727   3.541
 6569SOL    HW220607   1.413   4.749   3.491
 6570SOL     OW20608   4.271   0.192   2.595
 6570SOL    HW120609   4.259   0.260   2.522
 6570SOL    HW220610   4.194   0.129   2.594
 6571SOL     OW20611   2.739   6.564   3.249
 6571SOL    HW120612   2.708   6.474   3.216
 6571SOL    HW220613   2.830   6.554   3.290
 6572SOL     OW20614   2.112   5.905   3.644
 6572SOL    HW120615   2.015   5.881   3.642
 6572SOL    HW220616   2.125   5.993   3.598
 6573SOL     OW20617   0.015   2.255   3.379
 6573SOL    HW120618   0.113   2.255   3.361
 6573SOL    HW220619   6.982   2.265   3.292
 6574SOL     OW20620   0.539   5.105   1.981
 6574SOL    HW120621   0.492   5.169   2.041
 6574SOL    HW220622   0.522   5.129   1.886
 6575SOL     OW20623   6.957   1.671   3.724
 6575SOL    HW120624   6.906   1.704   3.804
 6575SOL    HW220625   0.011   1.738   3.701
 6576SOL     OW20626   3.985   6.912   1.652
 6576SOL    HW120627   3.907   6.927   1.592
 6576SOL    HW220628   4.066   6.891   1.597
 6577SOL     OW20629   3.348   0.764   4.720
 6577SOL    HW120630   3.406   0.844   4.738
 6577SOL    HW220631   3.342   0.708   4.803
 6578SOL     OW20632   1.265   5.235   0.756
 6578SOL    HW120633   1.267   5.145   0.712
 6578SOL    HW220634   1.199   5.235   0.830
 6579SOL     OW20635   1.557   1.798   3.686
 6579SOL    HW120636   1.548   1.720   3.749
 6579SOL    HW220637   1.467   1.820   3.648
 6580SOL     OW20638   3.216   1.904   0.285
 6580SOL    HW120639   3.306   1.936   0.313
 6580SOL    HW220640   3.207   1.912   0.185
 6581SOL     OW20641   0.615   2.437   2.215
 6581SOL    HW120642   0.547   2.399   2.277
 6581SOL    HW220643   0.679   2.495   2.266
 6582SOL     OW20644   5.125   0.791   2.984
 6582SOL    HW120645   5.146   0.764   3.078
 6582SOL    HW220646   5.108   0.889   2.981
 6583SOL     OW20647   2.665   4.394   0.866
 6583SOL    HW120648   2.641   4.303   0.832
 6583SOL    HW220649   2.734   4.435   0.806
 6584SOL     OW20650   4.430   2.950   6.184
 6584SOL    HW120651   4.449   2.896   6.267
 6584SOL    HW220652   4.355   2.908   6.134
 6585SOL     OW20653   5.102   6.707   1.809
 6585SOL    HW120654   5.071   6.731   1.901
 6585SOL    HW220655   5.027   6.721   1.744
 6586SOL     OW20656   6.634   1.223   6.417
 6586SOL    HW120657   6.617   1.128   6.392
 6586SOL    HW220658   6.632   1.232   6.517
 6587SOL     OW20659   3.424   4.983   5.140
 6587SOL    HW120660   3.400   4.889   5.163
 6587SOL    HW220661   3.411   4.997   5.042
 6588SOL     OW20662   0.870   1.389   0.085
 6588SOL    HW120663   0.808   1.468   0.086
 6588SOL    HW220664   0.939   1.402   0.014
 6589SOL     OW20665   6.331   6.723   1.717
 6589SOL    HW120666   6.244   6.701   1.761
 6589SOL    HW220667   6.406   6.709   1.782
 6590SOL     OW20668   1.195   5.787   4.744
 6590SOL    HW120669   1.106   5.797   4.698
 6590SOL    HW220670   1.268   5.803   4.678
 6591SOL     OW20671   6.146   3.126   3.757
 6591SOL    HW120672   6.133   3.215   3.800
 6591SOL    HW220673   6.205   3.069   3.815
 6592SOL     OW20674   6.814   0.526   4.092
 6592SOL    HW120675   6.887   0.479   4.141
 6592SOL    HW220676   6.809   0.621   4.123
 6593SOL     OW20677   1.901   0.698   2.729
 6593SOL    HW120678   1.930   0.788   2.760
 6593SOL    HW220679   1.803   0.699   2.710
 6594SOL     OW20680   5.230   0.250   0.097
 6594SOL    HW120681   5.220   0.290   0.188
 6594SOL    HW220682   5.181   0.306   0.030
 6595SOL     OW20683   0.949   1.679   5.088
 6595SOL    HW120684   0.916   1.715   5.001
 6595SOL    HW220685   1.030   1.621   5.071
 6596SOL     OW20686   5.844   1.012   2.537
 6596SOL    HW120687   5.790   0.943   2.488
 6596SOL    HW220688   5.801   1.031   2.625
 6597SOL     OW20689   0.968   4.935   0.890
 6597SOL    HW120690   1.016   4.931   0.977
 6597SOL    HW220691   0.898   4.863   0.886
 6598SOL     OW20692   0.970   5.299   2.700
 6598SOL    HW120693   0.937   5.392   2.683
 6598SOL    HW220694   1.037   5.274   2.630
 6599SOL     OW20695   0.827   5.623   6.261
 6599SOL    HW120696   0.827   5.696   6.193
 6599SOL    HW220697   0.736   5.581   6.265
 6600SOL     OW20698   4.893   6.248   4.591
 6600SOL    HW120699   4.920   6.155   4.614
 6600SOL    HW220700   4.897   6.305   4.673
 6601SOL     OW20701   1.379   2.810   1.775
 6601SOL    HW120702   1.319   2.830   1.698
 6601SOL    HW220703   1.353   2.721   1.814
 6602SOL     OW20704   6.634   5.255   0.905
 6602SOL    HW120705   6.648   5.160   0.935
 6602SOL    HW220706   6.542   5.285   0.929
 6603SOL     OW20707   6.989   4.198   2.515
 6603SOL    HW120708   0.026   4.114   2.509
 6603SOL    HW220709   6.979   4.238   2.424
 6604SOL     OW20710   1.405   5.448   2.542
 6604SOL    HW120711   1.375   5.353   2.547
 6604SOL    HW220712   1.347   5.504   2.602
 6605SOL     OW20713   0.039   5.392   1.056
 6605SOL    HW120714   0.037   5.490   1.037
 6605SOL    HW220715   0.118   5.351   1.010
 6606SOL     OW20716   2.045   4.168   2.711
 6606SOL    HW120717   2.092   4.096   2.661
 6606SOL    HW220718   1.971   4.205   2.654
 6607SOL     OW20719   6.090   3.352   3.911
 6607SOL    HW120720   6.003   3.303   3.906
 6607SOL    HW220721   6.094   3.404   3.996
 6608SOL     OW20722   1.223   0.415   5.685
 6608SOL    HW120723   1.124   0.410   5.690
 6608SOL    HW220724   1.252   0.409   5.590
 6609SOL     OW20725   3.034   2.254   6.810
 6609SOL    HW120726   3.046   2.174   6.750
 6609SOL    HW220727   3.124   2.284   6.842
 6610SOL     OW20728   3.150   6.742   1.306
 6610SOL    HW120729   3.167   6.830   1.349
 6610SOL    HW220730   3.052   6.722   1.308
 6611SOL     OW20731   3.219   1.192   4.817
 6611SOL    HW120732   3.289   1.226   4.880
 6611SOL    HW220733   3.260   1.168   4.730
 6612SOL     OW20734   0.446   0.323   0.194
 6612SOL    HW120735   0.437   0.403   0.134
 6612SOL    HW220736   0.415   0.242   0.144
 6613SOL     OW20737   4.136   6.623   1.188
 6613SOL    HW120738   4.197   6.603   1.112
 6613SOL    HW220739   4.146   6.718   1.216
 6614SOL     OW20740   3.675   4.709   0.895
 6614SOL    HW120741   3.757   4.691   0.949
 6614SOL    HW220742   3.654   4.629   0.838
 6615SOL     OW20743   3.311   5.442   6.181
 6615SOL    HW120744   3.387   5.382   6.154
 6615SOL    HW220745   3.332   5.483   6.270
 6616SOL     OW20746   4.205   1.293   0.278
 6616SOL    HW120747   4.276   1.258   0.216
 6616SOL    HW220748   4.116   1.260   0.248
 6617SOL     OW20749   3.404   1.126   3.959
 6617SOL    HW120750   3.449   1.167   3.880
 6617SOL    HW220751   3.440   1.033   3.974
 6618SOL     OW20752   6.091   2.706   4.307
 6618SOL    HW120753   6.120   2.748   4.393
 6618SOL    HW220754   6.155   2.634   4.282
 6619SOL     OW20755   4.696   4.828   4.031
 6619SOL    HW120756   4.625   4.812   3.963
 6619SOL    HW220757   4.658   4.882   4.106
 6620SOL     OW20758   1.211   2.465   3.410
 6620SOL    HW120759   1.223   2.507   3.500
 6620SOL    HW220760   1.131   2.404   3.412
 6621SOL     OW20761   3.180   3.499   3.692
 6621SOL    HW120762   3.203   3.570   3.625
 6621SOL    HW220763   3.250   3.428   3.691
 6622SOL     OW20764   0.096   5.084   1.181
 6622SOL    HW120765   0.072   4.989   1.202
 6622SOL    HW220766   0.039   5.145   1.236
 6623SOL     OW20767   3.492   3.987   3.640
 6623SOL    HW120768   3.397   3.995   3.670
 6623SOL    HW220769   3.497   3.999   3.541
 6624SOL     OW20770   2.576   2.445   3.192
 6624SOL    HW120771   2.669   2.411   3.174
 6624SOL    HW220772   2.511   2.370   3.179
 6625SOL     OW20773   6.628   3.838   5.349
 6625SOL    HW120774   6.656   3.772   5.281
 6625SOL    HW220775   6.647   3.802   5.441
 6626SOL     OW20776   3.190   5.606   5.221
 6626SOL    HW120777   3.221   5.669   5.293
 6626SOL    HW220778   3.255   5.607   5.145
 6627SOL     OW20779   2.471   6.230   4.288
 6627SOL    HW120780   2.485   6.304   4.223
 6627SOL    HW220781   2.524   6.150   4.259
 6628SOL     OW20782   3.874   0.564   3.130
 6628SOL    HW120783   3.788   0.612   3.147
 6628SOL    HW220784   3.949   0.616   3.170
 6629SOL     OW20785   4.444   5.545   4.893
 6629SOL    HW120786   4.438   5.642   4.867
 6629SOL    HW220787   4.458   5.490   4.810
 6630SOL     OW20788   1.506   0.510   0.139
 6630SOL    HW120789   1.576   0.581   0.141
 6630SOL    HW220790   1.539   0.428   0.187
 6631SOL     OW20791   1.891   2.963   5.963
 6631SOL    HW120792   1.846   2.918   5.885
 6631SOL    HW220793   1.847   3.051   5.981
 6632SOL     OW20794   1.130   0.497   6.836
 6632SOL    HW120795   1.214   0.550   6.848
 6632SOL    HW220796   1.051   0.554   6.862
 6633SOL     OW20797   3.939   6.030   6.156
 6633SOL    HW120798   3.993   6.006   6.236
 6633SOL    HW220799   3.969   5.974   6.078
 6634SOL     OW20800   2.933   2.096   3.180
 6634SOL    HW120801   2.921   2.180   3.126
 6634SOL    HW220802   2.872   2.025   3.145
 6635SOL     OW20803   5.303   5.549   5.660
 6635SOL    HW120804   5.400   5.575   5.659
 6635SOL    HW220805   5.285   5.489   5.581
 6636SOL     OW20806   3.920   1.418   0.730
 6636SOL    HW120807   3.930   1.416   0.631
 6636SOL    HW220808   3.951   1.331   0.769
 6637SOL     OW20809   0.386   1.826   0.007
 6637SOL    HW120810   0.412   1.843   6.929
 6637SOL    HW220811   0.325   1.747   0.012
 6638SOL     OW20812   3.454   3.356   3.711
 6638SOL    HW120813   3.412   3.271   3.744
 6638SOL    HW220814   3.490   3.408   3.788
 6639SOL     OW20815   4.507   2.376   1.543
 6639SOL    HW120816   4.587   2.411   1.593
 6639SOL    HW220817   4.538   2.326   1.462
 6640SOL     OW20818   1.665   4.071   4.947
 6640SOL    HW120819   1.666   4.136   4.871
 6640SOL    HW220820   1.755   4.029   4.956
 6641SOL     OW20821   6.273   2.886   0.270
 6641SOL    HW120822   6.306   2.884   0.364
 6641SOL    HW220823   6.306   2.969   0.225
 6642SOL     OW20824   1.068   5.505   6.229
 6642SOL    HW120825   0.985   5.557   6.250
 6642SOL    HW220826   1.043   5.415   6.193
 6643SOL     OW20827   3.849   5.724   5.975
 6643SOL    HW120828   3.868   5.725   6.073
 6643SOL    HW220829   3.752   5.703   5.960
 6644SOL     OW20830   2.398   0.099   3.836
 6644SOL    HW120831   2.338   0.145   3.900
 6644SOL    HW220832   2.438   0.166   3.773
 6645SOL     OW20833   4.631   2.315   6.028
 6645SOL    HW120834   4.612   2.356   5.940
 6645SOL    HW220835   4.554   2.330   6.090
 6646SOL     OW20836   4.385   7.015   5.456
 6646SOL    HW120837   4.335   0.000   5.369
 6646SOL    HW220838   4.322   0.013   5.532
 6647SOL     OW20839   4.353   4.306   0.905
 6647SOL    HW120840   4.338   4.404   0.907
 6647SOL    HW220841   4.267   4.258   0.889
 6648SOL     OW20842   3.192   5.509   5.491
 6648SOL    HW120843   3.184   5.518   5.392
 6648SOL    HW220844   3.116   5.558   5.534
 6649SOL     OW20845   4.839   2.681   5.831
 6649SOL    HW120846   4.750   2.721   5.855
 6649SOL    HW220847   4.850   2.593   5.878
 6650SOL     OW20848   2.692   1.505   5.281
 6650SOL    HW120849   2.779   1.549   5.301
 6650SOL    HW220850   2.626   1.525   5.354
 6651SOL     OW20851   0.053   1.591   5.349
 6651SOL    HW120852   0.128   1.643   5.309
 6651SOL    HW220853   7.010   1.557   5.275
 6652SOL     OW20854   7.012   4.184   0.127
 6652SOL    HW120855   6.967   4.268   0.158
 6652SOL    HW220856   0.037   4.139   0.205
 6653SOL     OW20857   5.722   4.416   6.984
 6653SOL    HW120858   5.630   4.398   6.947
 6653SOL    HW220859   5.787   4.353   6.943
 6654SOL     OW20860   6.609   2.573   3.099
 6654SOL    HW120861   6.589   2.573   3.197
 6654SOL    HW220862   6.701   2.608   3.085
 6655SOL     OW20863   6.816   5.913   1.368
 6655SOL    HW120864   6.733   5.889   1.418
 6655SOL    HW220865   6.792   5.945   1.276
 6656SOL     OW20866   4.285   0.870   2.731
 6656SOL    HW120867   4.237   0.922   2.661
 6656SOL    HW220868   4.378   0.907   2.743
 6657SOL     OW20869   4.736   1.259   4.542
 6657SOL    HW120870   4.809   1.253   4.610
 6657SOL    HW220871   4.653   1.218   4.580
 6658SOL     OW20872   6.637   5.687   4.870
 6658SOL    HW120873   6.657   5.623   4.795
 6658SOL    HW220874   6.580   5.762   4.836
 6659SOL     OW20875   0.523   5.467   0.992
 6659SOL    HW120876   0.560   5.515   0.911
 6659SOL    HW220877   0.555   5.512   1.075
 6660SOL     OW20878   0.566   0.420   4.521
 6660SOL    HW120879   0.494   0.404   4.588
 6660SOL    HW220880   0.569   0.344   4.457
 6661SOL     OW20881   4.267   6.142   4.003
 6661SOL    HW120882   4.251   6.049   3.970
 6661SOL    HW220883   4.347   6.142   4.064
 6662SOL     OW20884   3.166   0.057   2.362
 6662SOL    HW120885   3.077   0.071   2.406
 6662SOL    HW220886   3.153   0.051   2.263
 6663SOL     OW20887   1.582   4.287   5.878
 6663SOL    HW120888   1.638   4.322   5.953
 6663SOL    HW220889   1.591   4.347   5.799
 6664SOL     OW20890   3.431   6.827   1.518
 6664SOL    HW120891   3.442   6.746   1.575
 6664SOL    HW220892   3.408   6.799   1.425
 6665SOL     OW20893   2.813   0.896   0.107
 6665SOL    HW120894   2.846   0.912   0.200
 6665SOL    HW220895   2.725   0.941   0.095
 6666SOL     OW20896   3.384   6.235   5.685
 6666SOL    HW120897   3.305   6.207   5.630
 6666SOL    HW220898   3.356   6.245   5.780
 6667SOL     OW20899   1.428   5.970   6.515
 6667SOL    HW120900   1.452   6.005   6.425
 6667SOL    HW220901   1.414   5.872   6.511
 6668SOL     OW20902   6.618   4.114   0.010
 6668SOL    HW120903   6.604   4.192   6.967
 6668SOL    HW220904   6.588   4.137   0.102
 6669SOL     OW20905   1.472   2.677   3.368
 6669SOL    HW120906   1.471   2.760   3.423
 6669SOL    HW220907   1.392   2.675   3.308
 6670SOL     OW20908   3.427   3.375   0.495
 6670SOL    HW120909   3.386   3.431   0.423
 6670SOL    HW220910   3.440   3.430   0.577
 6671SOL     OW20911   4.531   4.954   0.387
 6671SOL    HW120912   4.467   5.023   0.354
 6671SOL    HW220913   4.488   4.864   0.383
 6672SOL     OW20914   1.632   2.785   1.216
 6672SOL    HW120915   1.683   2.699   1.217
 6672SOL    HW220916   1.578   2.789   1.132
 6673SOL     OW20917   5.835   3.094   4.254
 6673SOL    HW120918   5.896   3.159   4.300
 6673SOL    HW220919   5.757   3.143   4.215
 6674SOL     OW20920   6.425   0.457   0.444
 6674SOL    HW120921   6.475   0.505   0.516
 6674SOL    HW220922   6.481   0.454   0.361
 6675SOL     OW20923   4.775   0.622   0.193
 6675SOL    HW120924   4.784   0.523   0.206
 6675SOL    HW220925   4.730   0.661   0.273
 6676SOL     OW20926   0.582   4.021   5.126
 6676SOL    HW120927   0.499   3.998   5.075
 6676SOL    HW220928   0.645   3.943   5.125
 6677SOL     OW20929   0.512   1.852   6.512
 6677SOL    HW120930   0.595   1.896   6.480
 6677SOL    HW220931   0.534   1.786   6.584
 6678SOL     OW20932   3.100   4.096   6.597
 6678SOL    HW120933   3.049   4.124   6.678
 6678SOL    HW220934   3.193   4.071   6.623
 6679SOL     OW20935   1.193   0.577   4.053
 6679SOL    HW120936   1.130   0.528   3.992
 6679SOL    HW220937   1.224   0.661   4.008
 6680SOL     OW20938   6.308   4.794   1.727
 6680SOL    HW120939   6.350   4.774   1.639
 6680SOL    HW220940   6.343   4.881   1.762
 6681SOL     OW20941   2.346   5.824   1.108
 6681SOL    HW120942   2.326   5.782   1.196
 6681SOL    HW220943   2.343   5.753   1.037
 6682SOL     OW20944   2.703   5.419   6.238
 6682SOL    HW120945   2.730   5.488   6.170
 6682SOL    HW220946   2.697   5.330   6.193
 6683SOL     OW20947   6.785   5.309   5.754
 6683SOL    HW120948   6.879   5.318   5.788
 6683SOL    HW220949   6.733   5.248   5.814
 6684SOL     OW20950   2.533   5.660   6.360
 6684SOL    HW120951   2.551   5.576   6.310
 6684SOL    HW220952   2.599   5.730   6.332
 6685SOL     OW20953   4.359   2.606   0.929
 6685SOL    HW120954   4.375   2.704   0.939
 6685SOL    HW220955   4.429   2.567   0.868
 6686SOL     OW20956   4.945   4.520   5.590
 6686SOL    HW120957   4.900   4.565   5.667
 6686SOL    HW220958   5.015   4.457   5.625
 6687SOL     OW20959   0.593   1.813   1.309
 6687SOL    HW120960   0.523   1.804   1.379
 6687SOL    HW220961   0.570   1.888   1.247
 6688SOL     OW20962   4.393   5.928   0.474
 6688SOL    HW120963   4.366   5.862   0.405
 6688SOL    HW220964   4.431   6.009   0.429
 6689SOL     OW20965   3.368   4.664   5.846
 6689SOL    HW120966   3.365   4.608   5.763
 6689SOL    HW220967   3.432   4.740   5.832
 6690SOL     OW20968   0.403   1.022   0.116
 6690SOL    HW120969   0.398   0.987   0.023
 6690SOL    HW220970   0.367   0.953   0.179
 6691SOL     OW20971   2.559   1.226   1.946
 6691SOL    HW120972   2.642   1.281   1.951
 6691SOL    HW220973   2.565   1.150   2.010
 6692SOL     OW20974   4.393   6.002   2.593
 6692SOL    HW120975   4.426   5.915   2.628
 6692SOL    HW220976   4.471   6.062   2.573
 6693SOL     OW20977   3.428   0.934   5.565
 6693SOL    HW120978   3.394   0.985   5.486
 6693SOL    HW220979   3.366   0.946   5.643
 6694SOL     OW20980   4.427   4.042   1.385
 6694SOL    HW120981   4.361   4.022   1.458
 6694SOL    HW220982   4.391   4.114   1.326
 6695SOL     OW20983   2.782   2.470   0.323
 6695SOL    HW120984   2.822   2.560   0.310
 6695SOL    HW220985   2.826   2.425   0.401
 6696SOL     OW20986   3.799   3.190   4.950
 6696SOL    HW120987   3.822   3.211   5.045
 6696SOL    HW220988   3.849   3.251   4.889
 6697SOL     OW20989   4.049   2.006   1.862
 6697SOL    HW120990   4.061   2.082   1.799
 6697SOL    HW220991   4.094   2.027   1.949
 6698SOL     OW20992   3.309   3.925   1.347
 6698SOL    HW120993   3.266   3.888   1.429
 6698SOL    HW220994   3.240   3.938   1.275
 6699SOL     OW20995   1.441   3.546   5.610
 6699SOL    HW120996   1.540   3.554   5.623
 6699SOL    HW220997   1.412   3.606   5.535
 6700SOL     OW20998   5.663   0.015   1.196
 6700SOL    HW120999   5.642   6.936   1.178
 6700SOL    HW221000   5.578   0.066   1.209
 6701SOL     OW21001   5.799   6.977   1.743
 6701SOL    HW121002   5.793   0.013   1.660
 6701SOL    HW221003   5.883   7.000   1.792
 6702SOL     OW21004   3.752   3.521   0.290
 6702SOL    HW121005   3.824   3.518   0.360
 6702SOL    HW221006   3.787   3.484   0.204
 6703SOL     OW21007   0.344   1.328   0.599
 6703SOL    HW121008   0.440   1.301   0.591
 6703SOL    HW221009   0.333   1.390   0.677
 6704SOL     OW21010   3.401   0.145   5.270
 6704SOL    HW121011   3.354   0.137   5.182
 6704SOL    HW221012   3.497   0.168   5.254
 6705SOL     OW21013   6.896   4.297   2.262
 6705SOL    HW121014   6.799   4.309   2.285
 6705SOL    HW221015   6.904   4.236   2.183
 6706SOL     OW21016   0.151   0.036   0.655
 6706SOL    HW121017   0.107   0.115   0.613
 6706SOL    HW221018   0.143   6.974   0.594
 6707SOL     OW21019   4.644   0.821   2.764
 6707SOL    HW121020   4.615   0.765   2.842
 6707SOL    HW221021   4.744   0.829   2.765
 6708SOL     OW21022   0.624   2.880   0.476
 6708SOL    HW121023   0.597   2.894   0.381
 6708SOL    HW221024   0.553   2.830   0.525
 6709SOL     OW21025   2.397   4.436   2.003
 6709SOL    HW121026   2.410   4.497   1.925
 6709SOL    HW221027   2.420   4.342   1.975
 6710SOL     OW21028   4.430   1.349   0.768
 6710SOL    HW121029   4.397   1.263   0.727
 6710SOL    HW221030   4.447   1.416   0.695
 6711SOL     OW21031   3.532   5.929   6.193
 6711SOL    HW121032   3.521   5.891   6.286
 6711SOL    HW221033   3.480   6.014   6.185
 6712SOL     OW21034   4.654   4.408   1.531
 6712SOL    HW121035   4.668   4.314   1.499
 6712SOL    HW221036   4.722   4.468   1.490
 6713SOL     OW21037   1.676   4.756   4.386
 6713SOL    HW121038   1.662   4.765   4.485
 6713SOL    HW221039   1.773   4.743   4.367
 6714SOL     OW21040   5.409   1.536   1.645
 6714SOL    HW121041   5.464   1.593   1.583
 6714SOL    HW221042   5.335   1.493   1.594
 6715SOL     OW21043   1.317   0.404   6.167
 6715SOL    HW121044   1.253   0.450   6.228
 6715SOL    HW221045   1.405   0.391   6.213
 6716SOL     OW21046   1.076   5.603   1.881
 6716SOL    HW121047   1.072   5.683   1.822
 6716SOL    HW221048   0.991   5.551   1.873
 6717SOL     OW21049   6.193   2.034   5.755
 6717SOL    HW121050   6.137   2.078   5.685
 6717SOL    HW221051   6.278   2.000   5.714
 6718SOL     OW21052   4.766   1.606   0.726
 6718SOL    HW121053   4.763   1.529   0.790
 6718SOL    HW221054   4.754   1.692   0.776
 6719SOL     OW21055   1.486   1.473   0.441
 6719SOL    HW121056   1.532   1.528   0.371
 6719SOL    HW221057   1.387   1.473   0.423
 6720SOL     OW21058   1.832   0.866   5.792
 6720SOL    HW121059   1.888   0.803   5.846
 6720SOL    HW221060   1.745   0.882   5.840
 6721SOL     OW21061   6.383   6.657   0.936
 6721SOL    HW121062   6.359   6.725   1.006
 6721SOL    HW221063   6.473   6.619   0.956
 6722SOL     OW21064   5.411   4.165   0.513
 6722SOL    HW121065   5.413   4.085   0.452
 6722SOL    HW221066   5.375   4.138   0.602
 6723SOL     OW21067   1.473   3.229   4.725
 6723SOL    HW121068   1.396   3.235   4.788
 6723SOL    HW221069   1.524   3.315   4.726
 6724SOL     OW21070   2.210   3.862   4.094
 6724SOL    HW121071   2.220   3.771   4.055
 6724SOL    HW221072   2.131   3.864   4.155
 6725SOL     OW21073   4.874   3.437   3.896
 6725SOL    HW121074   4.780   3.455   3.924
 6725SOL    HW221075   4.921   3.387   3.969
 6726SOL     OW21076   0.602   1.415   6.429
 6726SOL    HW121077   0.678   1.432   6.366
 6726SOL    HW221078   0.632   1.429   6.523
 6727SOL     OW21079   1.269   5.037   5.769
 6727SOL    HW121080   1.210   5.035   5.688
 6727SOL    HW221081   1.213   5.035   5.851
 6728SOL     OW21082   3.518   1.612   3.953
 6728SOL    HW121083   3.571   1.566   3.883
 6728SOL    HW221084   3.578   1.638   4.029
 6729SOL     OW21085   3.761   1.145   1.973
 6729SOL    HW121086   3.732   1.181   1.884
 6729SOL    HW221087   3.849   1.185   1.998
 6730SOL     OW21088   6.939   1.985   0.508
 6730SOL    HW121089   6.841   1.990   0.526
 6730SOL    HW221090   6.955   1.926   0.428
 6731SOL     OW21091   4.305   0.313   6.039
 6731SOL    HW121092   4.251   0.235   6.071
 6731SOL    HW221093   4.310   0.313   5.939
 6732SOL     OW21094   0.056   4.728   5.467
 6732SOL    HW121095   6.998   4.789   5.493
 6732SOL    HW221096   0.138   4.781   5.448
 6733SOL     OW21097   4.835   4.814   5.040
 6733SOL    HW121098   4.867   4.768   4.958
 6733SOL    HW221099   4.913   4.848   5.092
 6734SOL     OW21100   5.908   2.290   5.152
 6734SOL    HW121101   6.006   2.298   5.167
 6734SOL    HW221102   5.860   2.360   5.205
 6735SOL     OW21103   5.876   2.498   3.904
 6735SOL    HW121104   5.796   2.518   3.847
 6735SOL    HW221105   5.942   2.573   3.896
 6736SOL     OW21106   3.311   3.789   0.369
 6736SOL    HW121107   3.239   3.735   0.413
 6736SOL    HW221108   3.387   3.729   0.345
 6737SOL     OW21109   6.276   3.590   0.840
 6737SOL    HW121110   6.368   3.584   0.879
 6737SOL    HW221111   6.282   3.622   0.745
 6738SOL     OW21112   2.094   6.168   4.333
 6738SOL    HW121113   2.147   6.154   4.417
 6738SOL    HW221114   2.153   6.150   4.253
 6739SOL     OW21115   6.785   6.906   5.598
 6739SOL    HW121116   6.809   6.892   5.502
 6739SOL    HW221117   6.857   6.867   5.657
 6740SOL     OW21118   0.201   0.064   2.126
 6740SOL    HW121119   0.285   0.043   2.176
 6740SOL    HW221120   0.218   0.055   2.027
 6741SOL     OW21121   3.388   2.041   0.647
 6741SOL    HW121122   3.308   1.982   0.640
 6741SOL    HW221123   3.417   2.071   0.556
 6742SOL     OW21124   6.130   4.409   2.886
 6742SOL    HW121125   6.047   4.355   2.873
 6742SOL    HW221126   6.206   4.366   2.837
 6743SOL     OW21127   4.152   3.290   6.747
 6743SOL    HW121128   4.187   3.197   6.757
 6743SOL    HW221129   4.106   3.319   6.831
 6744SOL     OW21130   6.029   6.819   5.399
 6744SOL    HW121131   5.951   6.755   5.392
 6744SOL    HW221132   6.092   6.803   5.323
 6745SOL     OW21133   6.814   4.042   5.330
 6745SOL    HW121134   6.721   4.008   5.320
 6745SOL    HW221135   6.812   4.136   5.365
 6746SOL     OW21136   1.248   2.080   2.980
 6746SOL    HW121137   1.193   2.031   3.047
 6746SOL    HW221138   1.321   2.130   3.027
 6747SOL     OW21139   0.698   6.347   5.096
 6747SOL    HW121140   0.624   6.400   5.136
 6747SOL    HW221141   0.776   6.347   5.158
 6748SOL     OW21142   2.243   0.792   4.719
 6748SOL    HW121143   2.340   0.772   4.712
 6748SOL    HW221144   2.228   0.864   4.788
 6749SOL     OW21145   4.179   4.987   2.068
 6749SOL    HW121146   4.203   4.971   2.164
 6749SOL    HW221147   4.085   4.956   2.052
 6750SOL     OW21148   3.234   0.716   5.747
 6750SOL    HW121149   3.294   0.696   5.825
 6750SOL    HW221150   3.192   0.805   5.760
 6751SOL     OW21151   4.392   0.458   4.780
 6751SOL    HW121152   4.454   0.395   4.826
 6751SOL    HW221153   4.444   0.526   4.729
 6752SOL     OW21154   2.091   4.625   2.773
 6752SOL    HW121155   2.081   4.704   2.835
 6752SOL    HW221156   2.034   4.550   2.806
 6753SOL     OW21157   3.679   3.435   6.508
 6753SOL    HW121158   3.652   3.404   6.417
 6753SOL    HW221159   3.776   3.418   6.522
 6754SOL     OW21160   6.356   1.112   0.591
 6754SOL    HW121161   6.258   1.094   0.591
 6754SOL    HW221162   6.371   1.211   0.592
 6755SOL     OW21163   2.972   6.038   6.056
 6755SOL    HW121164   3.063   6.001   6.072
 6755SOL    HW221165   2.936   6.002   5.970
 6756SOL     OW21166   3.624   3.306   6.277
 6756SOL    HW121167   3.537   3.336   6.317
 6756SOL    HW221168   3.640   3.355   6.191
 6757SOL     OW21169   4.169   0.022   1.819
 6757SOL    HW121170   4.225   6.958   1.836
 6757SOL    HW221171   4.082   7.012   1.779
 6758SOL     OW21172   5.112   3.109   3.354
 6758SOL    HW121173   5.116   3.013   3.326
 6758SOL    HW221174   5.113   3.115   3.454
 6759SOL     OW21175   0.767   1.710   2.791
 6759SOL    HW121176   0.734   1.632   2.738
 6759SOL    HW221177   0.848   1.749   2.747
 6760SOL     OW21178   5.299   2.329   4.945
 6760SOL    HW121179   5.380   2.386   4.949
 6760SOL    HW221180   5.268   2.308   5.038
 6761SOL     OW21181   3.712   1.500   4.980
 6761SOL    HW121182   3.662   1.487   4.895
 6761SOL    HW221183   3.774   1.578   4.971
 6762SOL     OW21184   6.123   5.035   4.731
 6762SOL    HW121185   6.069   4.970   4.679
 6762SOL    HW221186   6.204   4.989   4.769
 6763SOL     OW21187   5.765   6.921   3.857
 6763SOL    HW121188   5.703   6.890   3.929
 6763SOL    HW221189   5.858   6.926   3.893
 6764SOL     OW21190   0.272   5.040   1.745
 6764SOL    HW121191   0.270   4.941   1.732
 6764SOL    HW221192   0.217   5.084   1.674
 6765SOL     OW21193   0.126   3.345   2.194
 6765SOL    HW121194   0.179   3.407   2.135
 6765SOL    HW221195   0.138   3.251   2.162
 6766SOL     OW21196   6.133   0.125   1.551
 6766SOL    HW121197   6.091   0.200   1.601
 6766SOL    HW221198   6.149   0.153   1.456
 6767SOL     OW21199   3.146   0.240   1.452
 6767SOL    HW121200   3.136   0.143   1.473
 6767SOL    HW221201   3.112   0.259   1.360
 6768SOL     OW21202   1.913   0.077   6.816
 6768SOL    HW121203   1.996   0.052   6.766
 6768SOL    HW221204   1.925   0.167   6.857
 6769SOL     OW21205   4.524   2.686   1.511
 6769SOL    HW121206   4.453   2.626   1.548
 6769SOL    HW221207   4.508   2.700   1.414
 6770SOL     OW21208   0.318   1.409   1.332
 6770SOL    HW121209   0.279   1.428   1.422
 6770SOL    HW221210   0.244   1.384   1.268
 6771SOL     OW21211   4.609   1.860   2.952
 6771SOL    HW121212   4.692   1.827   2.908
 6771SOL    HW221213   4.529   1.831   2.899
 6772SOL     OW21214   3.829   1.814   3.888
 6772SOL    HW121215   3.893   1.858   3.950
 6772SOL    HW221216   3.804   1.724   3.924
 6773SOL     OW21217   0.437   3.614   1.145
 6773SOL    HW121218   0.463   3.613   1.241
 6773SOL    HW221219   0.501   3.671   1.093
 6774SOL     OW21220   0.770   2.770   6.504
 6774SOL    HW121221   0.846   2.789   6.567
 6774SOL    HW221222   0.690   2.823   6.532
 6775SOL     OW21223   1.304   4.541   0.179
 6775SOL    HW121224   1.403   4.554   0.181
 6775SOL    HW221225   1.262   4.589   0.257
 6776SOL     OW21226   6.174   5.407   6.544
 6776SOL    HW121227   6.241   5.474   6.575
 6776SOL    HW221228   6.184   5.394   6.445
 6777SOL     OW21229   4.750   5.937   0.115
 6777SOL    HW121230   4.793   5.878   0.184
 6777SOL    HW221231   4.655   5.910   0.101
 6778SOL     OW21232   6.867   5.501   3.408
 6778SOL    HW121233   6.939   5.568   3.426
 6778SOL    HW221234   6.906   5.420   3.365
 6779SOL     OW21235   6.499   3.729   6.254
 6779SOL    HW121236   6.497   3.783   6.339
 6779SOL    HW221237   6.538   3.639   6.273
 6780SOL     OW21238   0.884   2.615   2.256
 6780SOL    HW121239   0.827   2.639   2.335
 6780SOL    HW221240   0.954   2.550   2.284
 6781SOL     OW21241   6.145   5.098   5.538
 6781SOL    HW121242   6.219   5.031   5.549
 6781SOL    HW221243   6.061   5.051   5.515
 6782SOL     OW21244   6.188   1.211   2.684
 6782SOL    HW121245   6.280   1.182   2.658
 6782SOL    HW221246   6.135   1.231   2.602
 6783SOL     OW21247   0.340   6.341   6.454
 6783SOL    HW121248   0.382   6.397   6.382
 6783SOL    HW221249   0.411   6.285   6.498
 6784SOL     OW21250   3.645   2.634   0.052
 6784SOL    HW121251   3.744   2.620   0.059
 6784SOL    HW221252   3.622   2.725   0.087
 6785SOL     OW21253   6.019   5.596   1.551
 6785SOL    HW121254   6.036   5.695   1.543
 6785SOL    HW221255   6.037   5.567   1.645
 6786SOL     OW21256   1.674   3.467   5.964
 6786SOL    HW121257   1.674   3.498   5.869
 6786SOL    HW221258   1.750   3.509   6.013
 6787SOL     OW21259   1.023   3.361   1.766
 6787SOL    HW121260   1.045   3.398   1.856
 6787SOL    HW221261   0.943   3.409   1.729
 6788SOL     OW21262   2.713   5.029   0.995
 6788SOL    HW121263   2.790   4.989   1.043
 6788SOL    HW221264   2.653   4.957   0.960
 6789SOL     OW21265   0.584   5.388   3.401
 6789SOL    HW121266   0.642   5.439   3.338
 6789SOL    HW221267   0.626   5.389   3.492
 6790SOL     OW21268   1.160   2.674   0.458
 6790SOL    HW121269   1.230   2.724   0.407
 6790SOL    HW221270   1.098   2.629   0.394
 6791SOL     OW21271   3.618   3.803   6.598
 6791SOL    HW121272   3.682   3.879   6.586
 6791SOL    HW221273   3.629   3.738   6.523
 6792SOL     OW21274   0.605   4.732   0.229
 6792SOL    HW121275   0.631   4.650   0.281
 6792SOL    HW221276   0.572   4.802   0.292
 6793SOL     OW21277   5.710   1.560   1.137
 6793SOL    HW121278   5.803   1.592   1.153
 6793SOL    HW221279   5.712   1.467   1.099
 6794SOL     OW21280   4.318   1.455   4.490
 6794SOL    HW121281   4.338   1.470   4.587
 6794SOL    HW221282   4.348   1.364   4.463
 6795SOL     OW21283   2.902   5.889   7.012
 6795SOL    HW121284   2.883   5.955   0.068
 6795SOL    HW221285   2.825   5.888   6.948
 6796SOL     OW21286   4.180   2.212   2.792
 6796SOL    HW121287   4.130   2.244   2.872
 6796SOL    HW221288   4.129   2.139   2.748
 6797SOL     OW21289   6.996   2.548   1.969
 6797SOL    HW121290   6.934   2.470   1.979
 6797SOL    HW221291   6.980   2.593   1.882
 6798SOL     OW21292   6.252   0.225   2.172
 6798SOL    HW121293   6.246   0.275   2.086
 6798SOL    HW221294   6.195   0.144   2.167
 6799SOL     OW21295   5.352   5.784   1.985
 6799SOL    HW121296   5.296   5.705   1.961
 6799SOL    HW221297   5.448   5.758   1.987
 6800SOL     OW21298   3.401   3.959   0.128
 6800SOL    HW121299   3.482   3.924   0.081
 6800SOL    HW221300   3.357   3.884   0.178
 6801SOL     OW21301   1.245   1.664   3.078
 6801SOL    HW121302   1.296   1.659   2.992
 6801SOL    HW221303   1.148   1.678   3.058
 6802SOL     OW21304   2.622   5.124   2.877
 6802SOL    HW121305   2.698   5.066   2.907
 6802SOL    HW221306   2.556   5.134   2.951
 6803SOL     OW21307   5.068   2.173   0.303
 6803SOL    HW121308   5.039   2.198   0.396
 6803SOL    HW221309   5.161   2.208   0.287
 6804SOL     OW21310   1.024   0.050   3.914
 6804SOL    HW121311   0.986   0.054   3.822
 6804SOL    HW221312   1.120   0.022   3.910
 6805SOL     OW21313   5.000   1.008   4.943
 6805SOL    HW121314   4.919   1.026   4.886
 6805SOL    HW221315   5.070   1.078   4.924
 6806SOL     OW21316   5.475   6.605   5.357
 6806SOL    HW121317   5.508   6.680   5.413
 6806SOL    HW221318   5.536   6.526   5.367
 6807SOL     OW21319   3.649   3.200   6.987
 6807SOL    HW121320   3.629   3.199   6.889
 6807SOL    HW221321   3.642   3.108   0.007
 6808SOL     OW21322   1.697   3.049   4.043
 6808SOL    HW121323   1.695   2.949   4.034
 6808SOL    HW221324   1.645   3.077   4.124
 6809SOL     OW21325   2.329   4.191   6.793
 6809SOL    HW121326   2.352   4.189   6.891
 6809SOL    HW221327   2.346   4.101   6.753
 6810SOL     OW21328   5.543   1.738   2.746
 6810SOL    HW121329   5.491   1.754   2.663
 6810SOL    HW221330   5.617   1.806   2.753
 6811SOL     OW21331   5.022   5.751   1.947
 6811SOL    HW121332   4.953   5.698   1.898
 6811SOL    HW221333   4.983   5.839   1.974
 6812SOL     OW21334   3.718   3.000   2.370
 6812SOL    HW121335   3.720   2.953   2.282
 6812SOL    HW221336   3.657   2.951   2.433
 6813SOL     OW21337   4.782   3.679   1.231
 6813SOL    HW121338   4.690   3.665   1.267
 6813SOL    HW221339   4.818   3.592   1.196
 6814SOL     OW21340   2.620   3.157   0.258
 6814SOL    HW121341   2.688   3.187   0.325
 6814SOL    HW221342   2.648   3.187   0.167
 6815SOL     OW21343   1.943   6.877   1.821
 6815SOL    HW121344   2.016   6.826   1.866
 6815SOL    HW221345   1.947   6.973   1.849
 6816SOL     OW21346   6.513   4.068   1.480
 6816SOL    HW121347   6.589   4.096   1.540
 6816SOL    HW221348   6.545   4.000   1.415
 6817SOL     OW21349   0.733   2.131   5.938
 6817SOL    HW121350   0.778   2.219   5.926
 6817SOL    HW221351   0.637   2.145   5.961
 6818SOL     OW21352   3.358   5.934   2.152
 6818SOL    HW121353   3.424   5.972   2.217
 6818SOL    HW221354   3.333   5.842   2.180
 6819SOL     OW21355   3.294   1.013   3.491
 6819SOL    HW121356   3.213   0.988   3.543
 6819SOL    HW221357   3.308   1.112   3.496
 6820SOL     OW21358   1.576   4.895   3.811
 6820SOL    HW121359   1.551   4.990   3.830
 6820SOL    HW221360   1.603   4.886   3.715
 6821SOL     OW21361   2.490   2.565   4.237
 6821SOL    HW121362   2.491   2.549   4.138
 6821SOL    HW221363   2.563   2.512   4.280
 6822SOL     OW21364   5.038   2.158   5.488
 6822SOL    HW121365   4.960   2.179   5.546
 6822SOL    HW221366   5.083   2.075   5.521
 6823SOL     OW21367   3.591   4.001   2.573
 6823SOL    HW121368   3.587   3.916   2.626
 6823SOL    HW221369   3.679   4.046   2.589
 6824SOL     OW21370   1.510   4.882   6.106
 6824SOL    HW121371   1.501   4.982   6.099
 6824SOL    HW221372   1.419   4.841   6.120
 6825SOL     OW21373   5.231   0.241   4.099
 6825SOL    HW121374   5.303   0.310   4.104
 6825SOL    HW221375   5.151   0.279   4.052
 6826SOL     OW21376   0.964   2.466   2.791
 6826SOL    HW121377   1.013   2.380   2.806
 6826SOL    HW221378   1.001   2.536   2.852
 6827SOL     OW21379   6.022   6.412   5.021
 6827SOL    HW121380   5.997   6.387   5.114
 6827SOL    HW221381   5.939   6.430   4.968
 6828SOL     OW21382   2.027   1.794   1.319
 6828SOL    HW121383   2.058   1.699   1.310
 6828SOL    HW221384   2.081   1.841   1.389
 6829SOL     OW21385   5.376   5.070   3.939
 6829SOL    HW121386   5.389   4.975   3.913
 6829SOL    HW221387   5.369   5.127   3.856
 6830SOL     OW21388   5.041   2.273   4.520
 6830SOL    HW121389   4.965   2.292   4.581
 6830SOL    HW221390   5.042   2.176   4.497
 6831SOL     OW21391   0.188   1.104   5.668
 6831SOL    HW121392   0.159   1.055   5.751
 6831SOL    HW221393   0.195   1.039   5.592
 6832SOL     OW21394   2.962   4.919   1.865
 6832SOL    HW121395   2.946   4.872   1.952
 6832SOL    HW221396   2.934   4.861   1.789
 6833SOL     OW21397   4.015   5.577   0.436
 6833SOL    HW121398   3.951   5.522   0.383
 6833SOL    HW221399   3.987   5.673   0.433
 6834SOL     OW21400   3.849   5.654   2.307
 6834SOL    HW121401   3.868   5.733   2.366
 6834SOL    HW221402   3.933   5.600   2.296
 6835SOL     OW21403   3.705   6.670   4.799
 6835SOL    HW121404   3.761   6.587   4.803
 6835SOL    HW221405   3.609   6.646   4.817
 6836SOL     OW21406   3.121   5.746   6.471
 6836SOL    HW121407   3.158   5.817   6.411
 6836SOL    HW221408   3.184   5.668   6.473
 6837SOL     OW21409   0.533   2.920   2.573
 6837SOL    HW121410   0.555   2.965   2.487
 6837SOL    HW221411   0.461   2.851   2.557
 6838SOL     OW21412   2.785   1.762   0.723
 6838SOL    HW121413   2.872   1.802   0.693
 6838SOL    HW221414   2.733   1.734   0.642
 6839SOL     OW21415   4.674   0.814   1.598
 6839SOL    HW121416   4.754   0.836   1.543
 6839SOL    HW221417   4.611   0.759   1.544
 6840SOL     OW21418   0.871   1.080   6.244
 6840SOL    HW121419   0.780   1.081   6.286
 6840SOL    HW221420   0.868   1.131   6.158
 6841SOL     OW21421   0.241   3.263   6.353
 6841SOL    HW121422   0.234   3.348   6.406
 6841SOL    HW221423   0.202   3.277   6.262
 6842SOL     OW21424   2.432   4.486   3.113
 6842SOL    HW121425   2.405   4.390   3.112
 6842SOL    HW221426   2.485   4.507   3.031
 6843SOL     OW21427   3.960   6.589   0.484
 6843SOL    HW121428   3.977   6.526   0.559
 6843SOL    HW221429   3.950   6.538   0.399
 6844SOL     OW21430   5.064   0.516   6.222
 6844SOL    HW121431   4.969   0.543   6.238
 6844SOL    HW221432   5.118   0.596   6.195
 6845SOL     OW21433   4.709   2.340   2.598
 6845SOL    HW121434   4.619   2.385   2.594
 6845SOL    HW221435   4.698   2.249   2.638
 6846SOL     OW21436   2.323   3.732   0.249
 6846SOL    HW121437   2.271   3.677   0.184
 6846SOL    HW221438   2.397   3.779   0.201
 6847SOL     OW21439   0.037   2.715   4.453
 6847SOL    HW121440   0.015   2.726   4.550
 6847SOL    HW221441   0.087   2.629   4.441
 6848SOL     OW21442   6.947   4.905   3.251
 6848SOL    HW121443   6.915   4.839   3.183
 6848SOL    HW221444   0.027   4.889   3.268
 6849SOL     OW21445   3.018   3.809   5.898
 6849SOL    HW121446   3.011   3.741   5.971
 6849SOL    HW221447   2.993   3.767   5.811
 6850SOL     OW21448   4.736   0.605   4.118
 6850SOL    HW121449   4.698   0.688   4.159
 6850SOL    HW221450   4.723   0.609   4.019
 6851SOL     OW21451   2.004   3.417   3.717
 6851SOL    HW121452   1.950   3.337   3.744
 6851SOL    HW221453   1.996   3.430   3.618
 6852SOL     OW21454   3.987   4.543   0.158
 6852SOL    HW121455   4.012   4.458   0.205
 6852SOL    HW221456   4.014   4.621   0.214
 6853SOL     OW21457   4.571   4.339   6.493
 6853SOL    HW121458   4.576   4.426   6.444
 6853SOL    HW221459   4.604   4.266   6.433
 6854SOL     OW21460   5.217   5.921   6.181
 6854SOL    HW121461   5.163   5.837   6.186
 6854SOL    HW221462   5.225   5.962   6.272
 6855SOL     OW21463   4.224   4.975   3.117
 6855SOL    HW121464   4.223   4.947   3.021
 6855SOL    HW221465   4.147   5.037   3.134
 6856SOL     OW21466   0.402   2.288   6.499
 6856SOL    HW121467   0.449   2.223   6.558
 6856SOL    HW221468   0.452   2.298   6.413
 6857SOL     OW21469   0.966   4.153   5.694
 6857SOL    HW121470   0.976   4.233   5.635
 6857SOL    HW221471   0.885   4.101   5.665
 6858SOL     OW21472   1.856   4.067   2.086
 6858SOL    HW121473   1.911   4.108   2.014
 6858SOL    HW221474   1.856   3.967   2.077
 6859SOL     OW21475   1.848   1.508   2.037
 6859SOL    HW121476   1.794   1.522   1.954
 6859SOL    HW221477   1.834   1.584   2.100
 6860SOL     OW21478   0.476   6.727   1.030
 6860SOL    HW121479   0.452   6.726   0.933
 6860SOL    HW221480   0.445   6.813   1.071
 6861SOL     OW21481   6.223   3.294   6.429
 6861SOL    HW121482   6.157   3.224   6.401
 6861SOL    HW221483   6.175   3.381   6.445
 6862SOL     OW21484   0.675   4.377   4.355
 6862SOL    HW121485   0.762   4.364   4.307
 6862SOL    HW221486   0.686   4.348   4.450
 6863SOL     OW21487   5.394   1.405   5.315
 6863SOL    HW121488   5.307   1.388   5.363
 6863SOL    HW221489   5.377   1.465   5.237
 6864SOL     OW21490   1.483   3.519   6.161
 6864SOL    HW121491   1.533   3.464   6.093
 6864SOL    HW221492   1.542   3.536   6.239
 6865SOL     OW21493   2.620   0.398   3.858
 6865SOL    HW121494   2.597   0.492   3.836
 6865SOL    HW221495   2.624   0.344   3.774
 6866SOL     OW21496   1.098   4.901   0.089
 6866SOL    HW121497   1.167   4.829   0.095
 6866SOL    HW221498   1.024   4.881   0.154
 6867SOL     OW21499   2.065   3.854   6.521
 6867SOL    HW121500   2.138   3.922   6.511
 6867SOL    HW221501   2.000   3.886   6.590
 6868SOL     OW21502   2.990   5.120   3.642
 6868SOL    HW121503   3.071   5.072   3.609
 6868SOL    HW221504   3.012   5.216   3.658
 6869SOL     OW21505   2.999   0.915   6.128
 6869SOL    HW121506   3.093   0.886   6.108
 6869SOL    HW221507   2.954   0.844   6.182
 6870SOL     OW21508   5.839   1.900   0.303
 6870SOL    HW121509   5.875   1.848   0.380
 6870SOL    HW221510   5.868   1.857   0.217
 6871SOL     OW21511   6.793   3.544   2.441
 6871SOL    HW121512   6.778   3.526   2.538
 6871SOL    HW221513   6.715   3.510   2.389
 6872SOL     OW21514   1.678   4.393   1.167
 6872SOL    HW121515   1.749   4.333   1.130
 6872SOL    HW221516   1.720   4.472   1.210
 6873SOL     OW21517   0.697   4.377   2.827
 6873SOL    HW121518   0.692   4.329   2.915
 6873SOL    HW221519   0.610   4.366   2.778
 6874SOL     OW21520   4.959   6.143   2.862
 6874SOL    HW121521   4.936   6.075   2.932
 6874SOL    HW221522   4.912   6.120   2.777
 6875SOL     OW21523   2.219   1.127   0.252
 6875SOL    HW121524   2.162   1.077   0.187
 6875SOL    HW221525   2.295   1.069   0.282
 6876SOL     OW21526   5.407   5.501   3.584
 6876SOL    HW121527   5.470   5.557   3.530
 6876SOL    HW221528   5.355   5.559   3.647
 6877SOL     OW21529   0.606   3.599   1.737
 6877SOL    HW121530   0.558   3.514   1.757
 6877SOL    HW221531   0.693   3.578   1.692
 6878SOL     OW21532   2.157   0.881   4.466
 6878SOL    HW121533   2.193   0.814   4.401
 6878SOL    HW221534   2.162   0.843   4.559
 6879SOL     OW21535   1.509   1.352   1.165
 6879SOL    HW121536   1.510   1.376   1.067
 6879SOL    HW221537   1.603   1.337   1.196
 6880SOL     OW21538   1.461   5.653   0.478
 6880SOL    HW121539   1.375   5.681   0.435
 6880SOL    HW221540   1.446   5.639   0.576
 6881SOL     OW21541   0.125   2.992   0.365
 6881SOL    HW121542   0.160   2.951   0.280
 6881SOL    HW221543   0.029   3.016   0.353
 6882SOL     OW21544   2.675   6.417   0.006
 6882SOL    HW121545   2.639   6.360   0.079
 6882SOL    HW221546   2.745   6.478   0.043
 6883SOL     OW21547   5.061   0.429   1.385
 6883SOL    HW121548   5.026   0.520   1.361
 6883SOL    HW221549   4.987   0.362   1.379
 6884SOL     OW21550   1.796   4.141   3.354
 6884SOL    HW121551   1.713   4.189   3.382
 6884SOL    HW221552   1.861   4.206   3.315
 6885SOL     OW21553   6.080   4.411   5.051
 6885SOL    HW121554   6.025   4.457   4.982
 6885SOL    HW221555   6.020   4.360   5.113
 6886SOL     OW21556   5.203   2.707   0.380
 6886SOL    HW121557   5.175   2.795   0.342
 6886SOL    HW221558   5.203   2.638   0.308
 6887SOL     OW21559   5.638   5.772   5.836
 6887SOL    HW121560   5.734   5.771   5.866
 6887SOL    HW221561   5.579   5.748   5.913
 6888SOL     OW21562   6.100   3.851   6.768
 6888SOL    HW121563   6.049   3.766   6.783
 6888SOL    HW221564   6.198   3.831   6.768
 6889SOL     OW21565   0.064   2.041   5.874
 6889SOL    HW121566   0.113   1.956   5.894
 6889SOL    HW221567   0.128   2.118   5.876
 6890SOL     OW21568   4.509   4.436   3.492
 6890SOL    HW121569   4.457   4.510   3.534
 6890SOL    HW221570   4.465   4.349   3.514
 6891SOL     OW21571   1.503   1.583   1.298
 6891SOL    HW121572   1.435   1.640   1.253
 6891SOL    HW221573   1.508   1.494   1.253
 6892SOL     OW21574   2.899   1.130   4.930
 6892SOL    HW121575   2.919   1.221   4.894
 6892SOL    HW221576   2.949   1.116   5.016
 6893SOL     OW21577   5.947   3.408   0.759
 6893SOL    HW121578   5.949   3.348   0.679
 6893SOL    HW221579   6.025   3.470   0.756
 6894SOL     OW21580   6.006   4.896   0.408
 6894SOL    HW121581   5.948   4.898   0.489
 6894SOL    HW221582   5.989   4.811   0.358
 6895SOL     OW21583   1.065   6.254   2.766
 6895SOL    HW121584   1.004   6.302   2.829
 6895SOL    HW221585   1.149   6.307   2.754
 6896SOL     OW21586   4.583   1.206   5.159
 6896SOL    HW121587   4.596   1.114   5.194
 6896SOL    HW221588   4.659   1.231   5.099
 6897SOL     OW21589   4.411   2.620   5.231
 6897SOL    HW121590   4.318   2.583   5.226
 6897SOL    HW221591   4.455   2.614   5.141
 6898SOL     OW21592   1.537   6.778   1.125
 6898SOL    HW121593   1.461   6.719   1.099
 6898SOL    HW221594   1.555   6.769   1.223
 6899SOL     OW21595   6.162   5.904   2.405
 6899SOL    HW121596   6.151   5.901   2.504
 6899SOL    HW221597   6.158   5.999   2.374
 6900SOL     OW21598   6.457   3.297   5.099
 6900SOL    HW121599   6.394   3.219   5.093
 6900SOL    HW221600   6.413   3.371   5.149
 6901SOL     OW21601   5.531   5.076   6.360
 6901SOL    HW121602   5.481   5.013   6.302
 6901SOL    HW221603   5.585   5.025   6.427
 6902SOL     OW21604   0.327   5.586   5.857
 6902SOL    HW121605   0.324   5.497   5.812
 6902SOL    HW221606   0.234   5.621   5.867
 6903SOL     OW21607   1.340   6.061   4.478
 6903SOL    HW121608   1.420   6.077   4.421
 6903SOL    HW221609   1.330   5.963   4.495
 6904SOL     OW21610   0.037   0.195   5.803
 6904SOL    HW121611   0.082   0.174   5.889
 6904SOL    HW221612   0.093   0.162   5.727
 6905SOL     OW21613   5.320   5.870   5.782
 6905SOL    HW121614   5.319   5.909   5.689
 6905SOL    HW221615   5.242   5.810   5.794
 6906SOL     OW21616   3.101   0.928   3.662
 6906SOL    HW121617   3.124   0.832   3.681
 6906SOL    HW221618   3.016   0.932   3.610
 6907SOL     OW21619   6.189   1.737   0.724
 6907SOL    HW121620   6.134   1.811   0.762
 6907SOL    HW221621   6.141   1.695   0.647
 6908SOL     OW21622   3.270   5.202   0.698
 6908SOL    HW121623   3.369   5.193   0.686
 6908SOL    HW221624   3.224   5.185   0.611
 6909SOL     OW21625   5.544   5.168   2.497
 6909SOL    HW121626   5.636   5.196   2.468
 6909SOL    HW221627   5.476   5.230   2.459
 6910SOL     OW21628   0.752   2.180   2.832
 6910SOL    HW121629   0.721   2.091   2.866
 6910SOL    HW221630   0.688   2.251   2.861
 6911SOL     OW21631   2.058   6.213   5.553
 6911SOL    HW121632   2.047   6.231   5.455
 6911SOL    HW221633   2.107   6.289   5.595
 6912SOL     OW21634   2.728   3.985   0.074
 6912SOL    HW121635   2.684   4.064   0.031
 6912SOL    HW221636   2.808   4.015   0.126
 6913SOL     OW21637   4.297   5.654   5.825
 6913SOL    HW121638   4.217   5.612   5.781
 6913SOL    HW221639   4.303   5.750   5.799
 6914SOL     OW21640   5.685   2.405   2.066
 6914SOL    HW121641   5.738   2.426   2.148
 6914SOL    HW221642   5.726   2.327   2.019
 6915SOL     OW21643   0.160   3.423   3.693
 6915SOL    HW121644   0.125   3.407   3.785
 6915SOL    HW221645   0.225   3.498   3.694
 6916SOL     OW21646   4.871   6.255   6.221
 6916SOL    HW121647   4.934   6.224   6.149
 6916SOL    HW221648   4.891   6.350   6.244
 6917SOL     OW21649   3.643   6.735   2.083
 6917SOL    HW121650   3.691   6.684   2.154
 6917SOL    HW221651   3.580   6.800   2.125
 6918SOL     OW21652   2.005   3.491   0.482
 6918SOL    HW121653   2.011   3.507   0.581
 6918SOL    HW221654   1.972   3.399   0.465
 6919SOL     OW21655   6.158   6.387   3.518
 6919SOL    HW121656   6.147   6.380   3.617
 6919SOL    HW221657   6.232   6.327   3.488
 6920SOL     OW21658   6.044   1.473   5.871
 6920SOL    HW121659   6.029   1.560   5.825
 6920SOL    HW221660   6.142   1.458   5.884
 6921SOL     OW21661   4.293   0.387   4.499
 6921SOL    HW121662   4.384   0.425   4.487
 6921SOL    HW221663   4.290   0.332   4.582
 6922SOL     OW21664   1.970   5.177   6.801
 6922SOL    HW121665   1.936   5.091   6.840
 6922SOL    HW221666   2.069   5.181   6.814
 6923SOL     OW21667   5.320   0.104   2.734
 6923SOL    HW121668   5.363   0.037   2.795
 6923SOL    HW221669   5.361   0.097   2.643
 6924SOL     OW21670   3.422   5.693   1.853
 6924SOL    HW121671   3.487   5.702   1.928
 6924SOL    HW221672   3.450   5.752   1.778
 6925SOL     OW21673   5.938   6.684   4.912
 6925SOL    HW121674   5.873   6.615   4.882
 6925SOL    HW221675   5.900   6.736   4.988
 6926SOL     OW21676   3.080   2.129   0.408
 6926SOL    HW121677   3.122   2.168   0.490
 6926SOL    HW221678   3.140   2.058   0.370
 6927SOL     OW21679   4.202   0.346   0.488
 6927SOL    HW121680   4.122   0.372   0.434
 6927SOL    HW221681   4.216   0.247   0.482
 6928SOL     OW21682   3.496   5.376   6.918
 6928SOL    HW121683   3.569   5.373   6.851
 6928SOL    HW221684   3.525   5.329   7.002
 6929SOL     OW21685   5.087   5.029   2.503
 6929SOL    HW121686   5.147   5.046   2.425
 6929SOL    HW221687   4.999   5.074   2.488
 6930SOL     OW21688   0.894   6.997   1.776
 6930SOL    HW121689   0.948   0.062   1.762
 6930SOL    HW221690   0.940   6.939   1.844
 6931SOL     OW21691   3.175   3.400   0.972
 6931SOL    HW121692   3.175   3.496   0.999
 6931SOL    HW221693   3.132   3.344   1.042
 6932SOL     OW21694   3.748   0.170   6.120
 6932SOL    HW121695   3.710   0.234   6.052
 6932SOL    HW221696   3.686   0.166   6.199
 6933SOL     OW21697   3.085   5.322   6.091
 6933SOL    HW121698   3.174   5.367   6.099
 6933SOL    HW221699   3.017   5.371   6.145
 6934SOL     OW21700   4.975   5.375   6.977
 6934SOL    HW121701   5.014   5.452   0.011
 6934SOL    HW221702   4.938   5.408   6.890
 6935SOL     OW21703   4.039   6.147   1.976
 6935SOL    HW121704   4.010   6.052   1.974
 6935SOL    HW221705   4.008   6.193   1.893
 6936SOL     OW21706   0.883   1.673   5.732
 6936SOL    HW121707   0.929   1.683   5.644
 6936SOL    HW221708   0.951   1.662   5.804
 6937SOL     OW21709   5.718   5.416   0.558
 6937SOL    HW121710   5.740   5.511   0.537
 6937SOL    HW221711   5.788   5.356   0.520
 6938SOL     OW21712   2.713   1.366   4.953
 6938SOL    HW121713   2.619   1.341   4.973
 6938SOL    HW221714   2.720   1.396   4.858
 6939SOL     OW21715   5.459   3.580   4.016
 6939SOL    HW121716   5.450   3.503   4.080
 6939SOL    HW221717   5.524   3.647   4.053
 6940SOL     OW21718   2.791   6.469   1.020
 6940SOL    HW121719   2.775   6.509   1.110
 6940SOL    HW221720   2.717   6.404   0.999
 6941SOL     OW21721   3.771   3.659   2.532
 6941SOL    HW121722   3.866   3.666   2.561
 6941SOL    HW221723   3.714   3.715   2.592
 6942SOL     OW21724   6.348   5.175   2.857
 6942SOL    HW121725   6.442   5.146   2.875
 6942SOL    HW221726   6.320   5.145   2.766
 6943SOL     OW21727   4.865   4.907   6.554
 6943SOL    HW121728   4.903   4.933   6.643
 6943SOL    HW221729   4.869   4.986   6.492
 6944SOL     OW21730   1.167   4.685   5.473
 6944SOL    HW121731   1.149   4.776   5.434
 6944SOL    HW221732   1.265   4.667   5.473
 6945SOL     OW21733   5.513   1.639   0.688
 6945SOL    HW121734   5.416   1.661   0.674
 6945SOL    HW221735   5.557   1.713   0.739
 6946SOL     OW21736   5.309   6.176   2.799
 6946SOL    HW121737   5.374   6.236   2.753
 6946SOL    HW221738   5.247   6.232   2.854
 6947SOL     OW21739   6.532   4.182   5.257
 6947SOL    HW121740   6.457   4.160   5.195
 6947SOL    HW221741   6.616   4.198   5.204
 6948SOL     OW21742   0.042   4.320   6.704
 6948SOL    HW121743   0.015   4.236   6.752
 6948SOL    HW221744   7.009   4.398   6.743
 6949SOL     OW21745   2.616   1.474   2.935
 6949SOL    HW121746   2.525   1.513   2.923
 6949SOL    HW221747   2.622   1.387   2.887
 6950SOL     OW21748   0.938   0.808   4.169
 6950SOL    HW121749   0.893   0.864   4.237
 6950SOL    HW221750   0.972   0.724   4.211
 6951SOL     OW21751   1.160   3.810   6.684
 6951SOL    HW121752   1.094   3.735   6.686
 6951SOL    HW221753   1.143   3.872   6.761
 6952SOL     OW21754   5.074   5.767   4.084
 6952SOL    HW121755   5.064   5.671   4.061
 6952SOL    HW221756   5.164   5.782   4.127
 6953SOL     OW21757   6.388   1.411   1.354
 6953SOL    HW121758   6.374   1.315   1.381
 6953SOL    HW221759   6.459   1.451   1.412
 6954SOL     OW21760   0.030   4.682   6.454
 6954SOL    HW121761   0.015   4.754   6.522
 6954SOL    HW221762   0.046   4.595   6.502
 6955SOL     OW21763   4.786   5.870   2.753
 6955SOL    HW121764   4.852   5.857   2.827
 6955SOL    HW221765   4.694   5.857   2.788
 6956SOL     OW21766   5.280   5.035   2.310
 6956SOL    HW121767   5.321   5.024   2.219
 6956SOL    HW221768   5.324   4.973   2.375
 6957SOL     OW21769   6.150   5.160   5.142
 6957SOL    HW121770   6.170   5.166   5.240
 6957SOL    HW221771   6.232   5.187   5.091
 6958SOL     OW21772   3.582   3.338   2.659
 6958SOL    HW121773   3.557   3.308   2.567
 6958SOL    HW221774   3.551   3.270   2.726
 6959SOL     OW21775   1.765   3.867   2.888
 6959SOL    HW121776   1.848   3.811   2.879
 6959SOL    HW221777   1.787   3.951   2.938
 6960SOL     OW21778   4.430   4.688   0.299
 6960SOL    HW121779   4.507   4.699   0.237
 6960SOL    HW221780   4.428   4.595   0.334
 6961SOL     OW21781   4.650   2.608   5.397
 6961SOL    HW121782   4.666   2.694   5.446
 6961SOL    HW221783   4.566   2.615   5.343
 6962SOL     OW21784   2.578   6.230   0.217
 6962SOL    HW121785   2.493   6.229   0.270
 6962SOL    HW221786   2.604   6.136   0.196
 6963SOL     OW21787   6.720   6.167   6.634
 6963SOL    HW121788   6.726   6.251   6.687
 6963SOL    HW221789   6.647   6.176   6.566
 6964SOL     OW21790   2.104   1.275   5.243
 6964SOL    HW121791   2.192   1.243   5.209
 6964SOL    HW221792   2.052   1.317   5.168
 6965SOL     OW21793   1.685   1.524   6.918
 6965SOL    HW121794   1.654   1.619   6.913
 6965SOL    HW221795   1.609   1.462   6.897
 6966SOL     OW21796   0.895   6.500   1.269
 6966SOL    HW121797   0.877   6.528   1.364
 6966SOL    HW221798   0.952   6.418   1.269
 6967SOL     OW21799   4.199   0.853   6.558
 6967SOL    HW121800   4.133   0.896   6.619
 6967SOL    HW221801   4.223   0.916   6.485
 6968SOL     OW21802   3.808   0.516   2.835
 6968SOL    HW121803   3.845   0.518   2.928
 6968SOL    HW221804   3.708   0.523   2.838
 6969SOL     OW21805   2.162   2.503   1.992
 6969SOL    HW121806   2.239   2.566   1.981
 6969SOL    HW221807   2.100   2.537   2.063
 6970SOL     OW21808   3.673   5.360   5.500
 6970SOL    HW121809   3.724   5.333   5.582
 6970SOL    HW221810   3.735   5.361   5.422
 6971SOL     OW21811   6.104   4.549   7.016
 6971SOL    HW121812   6.068   4.478   0.060
 6971SOL    HW221813   6.147   4.506   6.937
 6972SOL     OW21814   5.701   3.870   1.603
 6972SOL    HW121815   5.704   3.771   1.614
 6972SOL    HW221816   5.687   3.913   1.692
 6973SOL     OW21817   1.433   1.643   2.521
 6973SOL    HW121818   1.491   1.570   2.486
 6973SOL    HW221819   1.341   1.609   2.537
 6974SOL     OW21820   3.964   3.350   3.456
 6974SOL    HW121821   4.020   3.309   3.529
 6974SOL    HW221822   3.941   3.280   3.389
 6975SOL     OW21823   2.977   5.882   4.436
 6975SOL    HW121824   2.995   5.972   4.397
 6975SOL    HW221825   3.019   5.812   4.378
 6976SOL     OW21826   4.537   4.558   5.673
 6976SOL    HW121827   4.623   4.591   5.711
 6976SOL    HW221828   4.552   4.530   5.578
 6977SOL     OW21829   4.863   4.771   1.960
 6977SOL    HW121830   4.765   4.772   1.980
 6977SOL    HW221831   4.914   4.750   2.044
 6978SOL     OW21832   0.318   3.487   0.662
 6978SOL    HW121833   0.392   3.526   0.717
 6978SOL    HW221834   0.293   3.398   0.699
 6979SOL     OW21835   1.113   3.552   2.911
 6979SOL    HW121836   1.194   3.495   2.924
 6979SOL    HW221837   1.045   3.502   2.858
 6980SOL     OW21838   2.635   5.062   3.537
 6980SOL    HW121839   2.651   5.091   3.631
 6980SOL    HW221840   2.628   4.962   3.534
 6981SOL     OW21841   4.831   3.129   6.714
 6981SOL    HW121842   4.754   3.069   6.694
 6981SOL    HW221843   4.808   3.190   6.790
 6982SOL     OW21844   0.544   1.106   1.979
 6982SOL    HW121845   0.567   1.132   1.885
 6982SOL    HW221846   0.450   1.132   1.999
 6983SOL     OW21847   6.238   0.421   4.540
 6983SOL    HW121848   6.288   0.491   4.590
 6983SOL    HW221849   6.302   0.366   4.487
 6984SOL     OW21850   1.248   2.984   2.936
 6984SOL    HW121851   1.219   2.992   3.031
 6984SOL    HW221852   1.182   3.031   2.877
 6985SOL     OW21853   5.011   2.776   6.992
 6985SOL    HW121854   5.078   2.811   6.926
 6985SOL    HW221855   5.056   2.713   0.038
 6986SOL     OW21856   4.777   4.930   5.321
 6986SOL    HW121857   4.791   4.903   5.416
 6986SOL    HW221858   4.866   4.941   5.276
 6987SOL     OW21859   0.106   1.187   6.633
 6987SOL    HW121860   0.092   1.137   6.718
 6987SOL    HW221861   0.178   1.255   6.646
 6988SOL     OW21862   2.259   1.385   6.439
 6988SOL    HW121863   2.190   1.331   6.391
 6988SOL    HW221864   2.349   1.342   6.428
 6989SOL     OW21865   0.902   3.616   2.537
 6989SOL    HW121866   0.985   3.560   2.534
 6989SOL    HW221867   0.857   3.613   2.448
 6990SOL     OW21868   4.072   3.868   6.820
 6990SOL    HW121869   4.043   3.961   6.843
 6990SOL    HW221870   4.002   3.824   6.763
 6991SOL     OW21871   5.683   3.537   2.783
 6991SOL    HW121872   5.649   3.583   2.701
 6991SOL    HW221873   5.609   3.487   2.827
 6992SOL     OW21874   0.862   5.262   0.223
 6992SOL    HW121875   0.784   5.208   0.193
 6992SOL    HW221876   0.865   5.348   0.172
 6993SOL     OW21877   3.491   2.240   1.650
 6993SOL    HW121878   3.547   2.255   1.732
 6993SOL    HW221879   3.430   2.318   1.638
 6994SOL     OW21880   2.843   1.194   3.093
 6994SOL    HW121881   2.765   1.253   3.110
 6994SOL    HW221882   2.918   1.247   3.055
 6995SOL     OW21883   0.214   3.931   0.714
 6995SOL    HW121884   0.229   3.865   0.787
 6995SOL    HW221885   0.290   3.996   0.711
 6996SOL     OW21886   1.400   0.723   6.244
 6996SOL    HW121887   1.332   0.657   6.276
 6996SOL    HW221888   1.481   0.674   6.211
 6997SOL     OW21889   6.515   6.235   6.154
 6997SOL    HW121890   6.561   6.317   6.118
 6997SOL    HW221891   6.470   6.258   6.240
 6998SOL     OW21892   0.165   0.489   0.339
 6998SOL    HW121893   0.072   0.513   0.365
 6998SOL    HW221894   0.183   0.393   0.362
 6999SOL     OW21895   6.947   2.450   0.006
 6999SOL    HW121896   6.975   2.392   0.083
 6999SOL    HW221897   6.875   2.512   0.037
 7000SOL     OW21898   0.372   5.425   3.764
 7000SOL    HW121899   0.365   5.332   3.728
 7000SOL    HW221900   0.331   5.489   3.699
 7001SOL     OW21901   6.782   1.529   4.909
 7001SOL    HW121902   6.848   1.488   4.846
 7001SOL    HW221903   6.773   1.627   4.888
 7002SOL     OW21904   1.108   5.197   2.487
 7002SOL    HW121905   1.090   5.102   2.462
 7002SOL    HW221906   1.207   5.212   2.496
 7003SOL     OW21907   0.393   4.706   0.028
 7003SOL    HW121908   0.341   4.621   0.024
 7003SOL    HW221909   0.480   4.690   0.074
 7004SOL     OW21910   1.655   0.028   0.066
 7004SOL    HW121911   1.699   0.113   0.095
 7004SOL    HW221912   1.646   0.027   6.983
 7005SOL     OW21913   1.213   5.708   0.347
 7005SOL    HW121914   1.174   5.794   0.315
 7005SOL    HW221915   1.143   5.654   0.393
 7006SOL     OW21916   0.585   0.173   3.878
 7006SOL    HW121917   0.623   0.106   3.941
 7006SOL    HW221918   0.493   0.199   3.909
 7007SOL     OW21919   2.126   0.233   6.104
 7007SOL    HW121920   2.204   0.174   6.127
 7007SOL    HW221921   2.109   0.296   6.179
 7008SOL     OW21922   5.460   3.253   3.691
 7008SOL    HW121923   5.385   3.311   3.657
 7008SOL    HW221924   5.545   3.279   3.645
 7009SOL     OW21925   5.124   5.412   2.511
 7009SOL    HW121926   5.058   5.449   2.575
 7009SOL    HW221927   5.130   5.472   2.431
 7010SOL     OW21928   4.855   3.099   2.585
 7010SOL    HW121929   4.856   3.113   2.486
 7010SOL    HW221930   4.914   3.168   2.628
 7011SOL     OW21931   2.520   6.626   5.955
 7011SOL    HW121932   2.561   6.619   6.046
 7011SOL    HW221933   2.502   6.721   5.933
 7012SOL     OW21934   6.871   2.960   0.535
 7012SOL    HW121935   6.860   2.965   0.634
 7012SOL    HW221936   6.789   2.995   0.490
 7013SOL     OW21937   3.253   2.876   0.372
 7013SOL    HW121938   3.211   2.808   0.431
 7013SOL    HW221939   3.303   2.942   0.428
 7014SOL     OW21940   5.453   3.234   0.760
 7014SOL    HW121941   5.500   3.308   0.712
 7014SOL    HW221942   5.513   3.197   0.831
 7015SOL     OW21943   5.843   6.142   1.396
 7015SOL    HW121944   5.868   6.072   1.329
 7015SOL    HW221945   5.854   6.233   1.355
 7016SOL     OW21946   3.095   4.783   0.858
 7016SOL    HW121947   3.135   4.813   0.772
 7016SOL    HW221948   3.062   4.863   0.909
 7017SOL     OW21949   6.218   4.850   5.878
 7017SOL    HW121950   6.136   4.797   5.898
 7017SOL    HW221951   6.263   4.814   5.796
 7018SOL     OW21952   4.975   3.467   5.181
 7018SOL    HW121953   4.922   3.473   5.266
 7018SOL    HW221954   4.923   3.506   5.106
 7019SOL     OW21955   4.085   5.295   2.076
 7019SOL    HW121956   4.000   5.267   2.121
 7019SOL    HW221957   4.064   5.330   1.985
 7020SOL     OW21958   1.063   2.039   6.208
 7020SOL    HW121959   0.983   1.980   6.200
 7020SOL    HW221960   1.048   2.123   6.157
 7021SOL     OW21961   0.950   2.013   4.756
 7021SOL    HW121962   1.019   2.050   4.819
 7021SOL    HW221963   0.877   2.080   4.743
 7022SOL     OW21964   2.392   3.532   0.950
 7022SOL    HW121965   2.360   3.625   0.938
 7022SOL    HW221966   2.482   3.521   0.908
 7023SOL     OW21967   0.586   1.598   0.971
 7023SOL    HW121968   0.605   1.535   1.046
 7023SOL    HW221969   0.582   1.692   1.005
 7024SOL     OW21970   3.251   3.967   4.750
 7024SOL    HW121971   3.286   3.882   4.709
 7024SOL    HW221972   3.155   3.979   4.724
 7025SOL     OW21973   2.929   0.680   1.191
 7025SOL    HW121974   2.860   0.690   1.119
 7025SOL    HW221975   3.016   0.719   1.161
 7026SOL     OW21976   3.155   2.251   0.909
 7026SOL    HW121977   3.250   2.220   0.907
 7026SOL    HW221978   3.139   2.306   0.991
 7027SOL     OW21979   3.265   4.819   2.116
 7027SOL    HW121980   3.284   4.868   2.031
 7027SOL    HW221981   3.255   4.721   2.096
 7028SOL     OW21982   3.478   0.469   3.518
 7028SOL    HW121983   3.536   0.421   3.451
 7028SOL    HW221984   3.440   0.402   3.582
 7029SOL     OW21985   3.526   3.539   3.519
 7029SOL    HW121986   3.615   3.526   3.476
 7029SOL    HW221987   3.504   3.459   3.576
 7030SOL     OW21988   6.393   0.211   4.466
 7030SOL    HW121989   6.362   0.200   4.560
 7030SOL    HW221990   6.411   0.121   4.426
 7031SOL     OW21991   4.701   6.093   0.460
 7031SOL    HW121992   4.717   5.999   0.429
 7031SOL    HW221993   4.631   6.135   0.403
 7032SOL     OW21994   4.632   5.003   4.226
 7032SOL    HW121995   4.688   5.084   4.210
 7032SOL    HW221996   4.541   5.031   4.258
 7033SOL     OW21997   1.396   1.391   5.680
 7033SOL    HW121998   1.412   1.452   5.757
 7033SOL    HW221999   1.392   1.444   5.595
 7034SOL     OW22000   6.088   1.064   1.990
 7034SOL    HW122001   6.178   1.021   1.989
 7034SOL    HW222002   6.097   1.159   2.020
 7035SOL     OW22003   2.961   1.049   1.556
 7035SOL    HW122004   2.913   1.022   1.640
 7035SOL    HW222005   2.985   1.146   1.562
 7036SOL     OW22006   6.275   1.134   1.719
 7036SOL    HW122007   6.243   1.041   1.740
 7036SOL    HW222008   6.223   1.200   1.773
 7037SOL     OW22009   1.728   0.799   6.096
 7037SOL    HW122010   1.669   0.746   6.036
 7037SOL    HW222011   1.720   0.765   6.190
 7038SOL     OW22012   0.789   4.262   0.438
 7038SOL    HW122013   0.795   4.175   0.390
 7038SOL    HW222014   0.835   4.255   0.527
 7039SOL     OW22015   7.001   6.920   1.819
 7039SOL    HW122016   0.082   6.937   1.804
 7039SOL    HW222017   6.956   7.006   1.841
 7040SOL     OW22018   5.953   2.043   4.544
 7040SOL    HW122019   6.053   2.045   4.550
 7040SOL    HW222020   5.914   2.122   4.590
 7041SOL     OW22021   1.068   0.234   4.152
 7041SOL    HW122022   1.115   0.185   4.225
 7041SOL    HW222023   1.042   0.169   4.080
 7042SOL     OW22024   5.780   6.249   5.561
 7042SOL    HW122025   5.763   6.159   5.603
 7042SOL    HW222026   5.858   6.292   5.607
 7043SOL     OW22027   1.494   5.954   0.971
 7043SOL    HW122028   1.550   5.976   1.051
 7043SOL    HW222029   1.505   6.026   0.902
 7044SOL     OW22030   4.850   6.131   4.884
 7044SOL    HW122031   4.880   6.224   4.905
 7044SOL    HW222032   4.926   6.068   4.898
 7045SOL     OW22033   6.251   5.895   1.749
 7045SOL    HW122034   6.211   5.824   1.807
 7045SOL    HW222035   6.192   5.911   1.670
 7046SOL     OW22036   2.202   1.865   3.602
 7046SOL    HW122037   2.272   1.801   3.568
 7046SOL    HW222038   2.126   1.869   3.537
 7047SOL     OW22039   0.893   6.570   0.555
 7047SOL    HW122040   0.831   6.614   0.489
 7047SOL    HW222041   0.969   6.528   0.505
 7048SOL     OW22042   0.702   6.194   3.525
 7048SOL    HW122043   0.628   6.212   3.590
 7048SOL    HW222044   0.663   6.167   3.437
 7049SOL     OW22045   3.714   1.628   4.160
 7049SOL    HW122046   3.770   1.711   4.162
 7049SOL    HW222047   3.758   1.557   4.214
 7050SOL     OW22048   4.102   4.233   0.611
 7050SOL    HW122049   4.054   4.157   0.567
 7050SOL    HW222050   4.200   4.221   0.600
 7051SOL     OW22051   1.172   2.244   1.678
 7051SOL    HW122052   1.147   2.147   1.672
 7051SOL    HW222053   1.204   2.265   1.771
 7052SOL     OW22054   4.522   2.006   2.368
 7052SOL    HW122055   4.489   1.944   2.438
 7052SOL    HW222056   4.620   2.021   2.380
 7053SOL     OW22057   1.188   4.082   3.413
 7053SOL    HW122058   1.179   4.176   3.382
 7053SOL    HW222059   1.121   4.064   3.486
 7054SOL     OW22060   4.784   6.964   6.959
 7054SOL    HW122061   4.801   0.029   6.905
 7054SOL    HW222062   4.848   6.961   0.019
 7055SOL     OW22063   2.574   0.447   0.465
 7055SOL    HW122064   2.514   0.415   0.391
 7055SOL    HW222065   2.519   0.480   0.541
 7056SOL     OW22066   7.001   5.146   0.946
 7056SOL    HW122067   0.033   5.096   1.018
 7056SOL    HW222068   6.987   5.241   0.975
 7057SOL     OW22069   3.294   5.427   4.778
 7057SOL    HW122070   3.297   5.334   4.741
 7057SOL    HW222071   3.272   5.491   4.704
 7058SOL     OW22072   6.376   2.142   6.387
 7058SOL    HW122073   6.298   2.202   6.404
 7058SOL    HW222074   6.449   2.194   6.343
 7059SOL     OW22075   2.001   0.066   5.198
 7059SOL    HW122076   1.934   0.116   5.254
 7059SOL    HW222077   1.970   6.989   5.185
 7060SOL     OW22078   3.252   2.413   1.603
 7060SOL    HW122079   3.288   2.433   1.512
 7060SOL    HW222080   3.215   2.497   1.644
 7061SOL     OW22081   1.422   1.088   1.213
 7061SOL    HW122082   1.331   1.053   1.234
 7061SOL    HW222083   1.417   1.186   1.196
 7062SOL     OW22084   3.433   0.547   4.285
 7062SOL    HW122085   3.451   0.460   4.240
 7062SOL    HW222086   3.349   0.587   4.248
 7063SOL     OW22087   0.142   1.745   1.315
 7063SOL    HW122088   0.075   1.777   1.247
 7063SOL    HW222089   0.095   1.726   1.401
 7064SOL     OW22090   3.258   1.477   5.361
 7064SOL    HW122091   3.275   1.389   5.404
 7064SOL    HW222092   3.322   1.545   5.397
 7065SOL     OW22093   3.930   5.440   5.033
 7065SOL    HW122094   3.933   5.502   5.110
 7065SOL    HW222095   3.981   5.479   4.956
 7066SOL     OW22096   3.562   0.009   1.353
 7066SOL    HW122097   3.482   6.987   1.399
 7066SOL    HW222098   3.575   0.103   1.384
 7067SOL     OW22099   2.193   3.737   6.226
 7067SOL    HW122100   2.244   3.775   6.303
 7067SOL    HW222101   2.156   3.812   6.171
 7068SOL     OW22102   5.108   4.361   4.572
 7068SOL    HW122103   5.011   4.384   4.567
 7068SOL    HW222104   5.129   4.292   4.502
 7069SOL     OW22105   4.952   0.867   6.137
 7069SOL    HW122106   5.050   0.863   6.118
 7069SOL    HW222107   4.930   0.807   6.213
 7070SOL     OW22108   0.636   0.698   5.681
 7070SOL    HW122109   0.601   0.605   5.667
 7070SOL    HW222110   0.705   0.696   5.753
 7071SOL     OW22111   4.411   6.419   6.800
 7071SOL    HW122112   4.451   6.509   6.784
 7071SOL    HW222113   4.427   6.360   6.721
 7072SOL     OW22114   1.070   3.712   6.256
 7072SOL    HW122115   1.077   3.778   6.181
 7072SOL    HW222116   1.064   3.762   6.342
 7073SOL     OW22117   4.932   1.234   3.404
 7073SOL    HW122118   4.961   1.138   3.400
 7073SOL    HW222119   4.952   1.270   3.495
 7074SOL     OW22120   5.665   4.311   2.582
 7074SOL    HW122121   5.655   4.272   2.491
 7074SOL    HW222122   5.575   4.343   2.614
 7075SOL     OW22123   2.439   5.228   3.082
 7075SOL    HW122124   2.344   5.195   3.083
 7075SOL    HW222125   2.444   5.315   3.131
 7076SOL     OW22126   5.598   1.838   0.848
 7076SOL    HW122127   5.533   1.912   0.831
 7076SOL    HW222128   5.600   1.817   0.946
 7077SOL     OW22129   3.888   6.074   1.546
 7077SOL    HW122130   3.969   6.133   1.545
 7077SOL    HW222131   3.851   6.069   1.638
 7078SOL     OW22132   6.470   1.094   6.696
 7078SOL    HW122133   6.415   1.157   6.642
 7078SOL    HW222134   6.567   1.119   6.688
 7079SOL     OW22135   1.876   5.618   4.660
 7079SOL    HW122136   1.948   5.687   4.671
 7079SOL    HW222137   1.862   5.570   4.746
 7080SOL     OW22138   3.969   1.639   6.068
 7080SOL    HW122139   3.911   1.681   5.997
 7080SOL    HW222140   3.992   1.546   6.041
 7081SOL     OW22141   2.142   6.645   0.397
 7081SOL    HW122142   2.056   6.672   0.354
 7081SOL    HW222143   2.199   6.726   0.410
 7082SOL     OW22144   0.807   3.567   2.276
 7082SOL    HW122145   0.761   3.508   2.209
 7082SOL    HW222146   0.853   3.642   2.229
 7083SOL     OW22147   5.120   2.630   3.296
 7083SOL    HW122148   5.087   2.707   3.241
 7083SOL    HW222149   5.170   2.664   3.375
 7084SOL     OW22150   1.219   4.910   0.704
 7084SOL    HW122151   1.288   4.850   0.744
 7084SOL    HW222152   1.129   4.887   0.740
 7085SOL     OW22153   0.363   4.217   2.346
 7085SOL    HW122154   0.291   4.155   2.315
 7085SOL    HW222155   0.339   4.311   2.322
 7086SOL     OW22156   5.243   0.736   3.520
 7086SOL    HW122157   5.334   0.695   3.526
 7086SOL    HW222158   5.251   0.835   3.523
 7087SOL     OW22159   4.991   2.355   3.563
 7087SOL    HW122160   5.028   2.290   3.496
 7087SOL    HW222161   4.975   2.443   3.519
 7088SOL     OW22162   6.475   2.633   5.151
 7088SOL    HW122163   6.570   2.649   5.178
 7088SOL    HW222164   6.436   2.559   5.206
 7089SOL     OW22165   2.612   5.545   0.808
 7089SOL    HW122166   2.598   5.448   0.827
 7089SOL    HW222167   2.703   5.560   0.770
 7090SOL     OW22168   4.482   2.972   0.682
 7090SOL    HW122169   4.542   2.946   0.758
 7090SOL    HW222170   4.389   2.985   0.716
 7091SOL     OW22171   6.648   6.612   0.165
 7091SOL    HW122172   6.697   6.658   0.239
 7091SOL    HW222173   6.581   6.675   0.126
 7092SOL     OW22174   4.358   0.037   6.784
 7092SOL    HW122175   4.270   0.079   6.759
 7092SOL    HW222176   4.432   0.083   6.734
 7093SOL     OW22177   3.472   3.581   0.271
 7093SOL    HW122178   3.433   3.522   0.201
 7093SOL    HW222179   3.571   3.566   0.277
 7094SOL     OW22180   4.408   0.663   5.416
 7094SOL    HW122181   4.440   0.744   5.466
 7094SOL    HW222182   4.390   0.688   5.321
 7095SOL     OW22183   2.494   5.170   4.407
 7095SOL    HW122184   2.513   5.182   4.309
 7095SOL    HW222185   2.498   5.258   4.453
 7096SOL     OW22186   6.590   6.430   0.854
 7096SOL    HW122187   6.671   6.465   0.903
 7096SOL    HW222188   6.603   6.442   0.756
 7097SOL     OW22189   4.810   1.370   2.343
 7097SOL    HW122190   4.822   1.271   2.336
 7097SOL    HW222191   4.712   1.391   2.347
 7098SOL     OW22192   0.799   1.331   2.935
 7098SOL    HW122193   0.793   1.235   2.963
 7098SOL    HW222194   0.765   1.389   3.009
 7099SOL     OW22195   3.407   2.027   4.616
 7099SOL    HW122196   3.462   2.102   4.653
 7099SOL    HW222197   3.334   2.005   4.680
 7100SOL     OW22198   0.237   3.819   1.366
 7100SOL    HW122199   0.328   3.823   1.326
 7100SOL    HW222200   0.218   3.904   1.415
 7101SOL     OW22201   2.584   5.900   4.666
 7101SOL    HW122202   2.510   5.845   4.626
 7101SOL    HW222203   2.659   5.840   4.693
 7102SOL     OW22204   5.639   1.466   3.058
 7102SOL    HW122205   5.730   1.431   3.037
 7102SOL    HW222206   5.647   1.544   3.120
 7103SOL     OW22207   5.216   3.785   3.978
 7103SOL    HW122208   5.218   3.850   4.055
 7103SOL    HW222209   5.309   3.759   3.954
 7104SOL     OW22210   5.492   2.952   4.816
 7104SOL    HW122211   5.579   3.002   4.822
 7104SOL    HW222212   5.494   2.891   4.737
 7105SOL     OW22213   3.586   4.150   2.865
 7105SOL    HW122214   3.646   4.118   2.938
 7105SOL    HW222215   3.630   4.136   2.777
 7106SOL     OW22216   2.782   1.603   2.344
 7106SOL    HW122217   2.803   1.667   2.270
 7106SOL    HW222218   2.785   1.510   2.309
 7107SOL     OW22219   3.665   1.312   6.474
 7107SOL    HW122220   3.687   1.409   6.487
 7107SOL    HW222221   3.749   1.261   6.456
 7108SOL     OW22222   3.734   0.145   1.738
 7108SOL    HW122223   3.635   0.159   1.743
 7108SOL    HW222224   3.767   0.112   1.827
 7109SOL     OW22225   3.191   5.641   6.036
 7109SOL    HW122226   3.231   5.612   5.949
 7109SOL    HW222227   3.231   5.588   6.111
 7110SOL     OW22228   2.622   6.261   4.806
 7110SOL    HW122229   2.703   6.252   4.747
 7110SOL    HW222230   2.649   6.248   4.902
 7111SOL     OW22231   6.497   0.878   5.063
 7111SOL    HW122232   6.557   0.948   5.024
 7111SOL    HW222233   6.501   0.796   5.006
 7112SOL     OW22234   0.565   4.921   5.061
 7112SOL    HW122235   0.644   4.876   5.019
 7112SOL    HW222236   0.596   4.980   5.135
 7113SOL     OW22237   3.260   6.541   4.485
 7113SOL    HW122238   3.173   6.490   4.485
 7113SOL    HW222239   3.323   6.499   4.420
 7114SOL     OW22240   6.081   4.091   1.383
 7114SOL    HW122241   6.012   4.123   1.448
 7114SOL    HW222242   6.166   4.143   1.397
 7115SOL     OW22243   5.017   3.079   5.867
 7115SOL    HW122244   4.936   3.059   5.921
 7115SOL    HW222245   4.995   3.151   5.801
 7116SOL     OW22246   6.693   4.153   4.980
 7116SOL    HW122247   6.615   4.127   4.924
 7116SOL    HW222248   6.756   4.076   4.987
 7117SOL     OW22249   5.011   6.600   2.888
 7117SOL    HW122250   4.916   6.574   2.908
 7117SOL    HW222251   5.032   6.686   2.934
 7118SOL     OW22252   4.494   4.519   5.948
 7118SOL    HW122253   4.563   4.585   5.975
 7118SOL    HW222254   4.474   4.530   5.851
 7119SOL     OW22255   2.889   0.032   5.098
 7119SOL    HW122256   2.849   0.001   5.012
 7119SOL    HW222257   2.879   6.978   5.167
 7120SOL     OW22258   4.202   1.663   1.374
 7120SOL    HW122259   4.121   1.651   1.432
 7120SOL    HW222260   4.202   1.594   1.302
 7121SOL     OW22261   1.056   6.149   2.469
 7121SOL    HW122262   0.997   6.134   2.390
 7121SOL    HW222263   1.005   6.196   2.540
 7122SOL     OW22264   4.154   1.984   6.849
 7122SOL    HW122265   4.210   1.910   6.889
 7122SOL    HW222266   4.058   1.956   6.850
 7123SOL     OW22267   5.407   4.975   5.707
 7123SOL    HW122268   5.416   5.051   5.771
 7123SOL    HW222269   5.314   4.938   5.713
 7124SOL     OW22270   2.491   2.661   0.519
 7124SOL    HW122271   2.541   2.660   0.432
 7124SOL    HW222272   2.556   2.664   0.595
 7125SOL     OW22273   0.816   6.566   2.469
 7125SOL    HW122274   0.782   6.609   2.385
 7125SOL    HW222275   0.914   6.548   2.461
 7126SOL     OW22276   3.969   4.840   1.145
 7126SOL    HW122277   4.049   4.795   1.105
 7126SOL    HW222278   3.886   4.789   1.121
 7127SOL     OW22279   2.472   6.201   6.008
 7127SOL    HW122280   2.394   6.141   6.028
 7127SOL    HW222281   2.506   6.240   6.093
 7128SOL     OW22282   3.242   4.197   0.147
 7128SOL    HW122283   3.293   4.264   0.201
 7128SOL    HW222284   3.290   4.109   0.148
 7129SOL     OW22285   0.139   0.194   6.956
 7129SOL    HW122286   0.089   0.222   0.021
 7129SOL    HW222287   0.115   0.101   6.931
 7130SOL     OW22288   3.183   0.358   4.178
 7130SOL    HW122289   3.133   0.277   4.207
 7130SOL    HW222290   3.269   0.365   4.229
 7131SOL     OW22291   2.290   1.409   1.771
 7131SOL    HW122292   2.366   1.435   1.832
 7131SOL    HW222293   2.211   1.382   1.826
 7132SOL     OW22294   5.028   4.324   1.833
 7132SOL    HW122295   4.930   4.305   1.832
 7132SOL    HW222296   5.053   4.369   1.919
 7133SOL     OW22297   4.744   5.762   2.486
 7133SOL    HW122298   4.757   5.804   2.576
 7133SOL    HW222299   4.806   5.803   2.420
 7134SOL     OW22300   4.822   5.292   0.197
 7134SOL    HW122301   4.741   5.342   0.166
 7134SOL    HW222302   4.890   5.289   0.124
 7135SOL     OW22303   2.060   4.105   1.423
 7135SOL    HW122304   2.108   4.065   1.345
 7135SOL    HW222305   2.094   4.064   1.508
 7136SOL     OW22306   1.271   2.536   1.800
 7136SOL    HW122307   1.183   2.582   1.807
 7136SOL    HW222308   1.264   2.444   1.840
 7137SOL     OW22309   2.784   0.952   2.517
 7137SOL    HW122310   2.815   1.042   2.549
 7137SOL    HW222311   2.816   0.882   2.581
 7138SOL     OW22312   0.221   3.399   0.237
 7138SOL    HW122313   0.244   3.326   0.301
 7138SOL    HW222314   0.266   3.484   0.266
 7139SOL     OW22315   5.914   6.251   1.028
 7139SOL    HW122316   5.832   6.194   1.033
 7139SOL    HW222317   5.995   6.196   1.048
 7140SOL     OW22318   6.831   4.892   0.004
 7140SOL    HW122319   6.920   4.873   0.045
 7140SOL    HW222320   6.759   4.872   0.070
 7141SOL     OW22321   3.049   0.978   1.103
 7141SOL    HW122322   3.050   1.072   1.070
 7141SOL    HW222323   2.970   0.964   1.164
 7142SOL     OW22324   4.849   0.196   5.210
 7142SOL    HW122325   4.938   0.240   5.201
 7142SOL    HW222326   4.787   0.233   5.141
 7143SOL     OW22327   2.893   2.808   6.253
 7143SOL    HW122328   2.875   2.805   6.351
 7143SOL    HW222329   2.983   2.850   6.238
 7144SOL     OW22330   0.115   0.962   5.870
 7144SOL    HW122331   0.057   0.881   5.873
 7144SOL    HW222332   0.071   1.037   5.919
 7145SOL     OW22333   5.719   2.333   6.158
 7145SOL    HW122334   5.811   2.317   6.191
 7145SOL    HW222335   5.694   2.429   6.175
 7146SOL     OW22336   0.587   2.253   5.106
 7146SOL    HW122337   0.594   2.303   5.020
 7146SOL    HW222338   0.677   2.252   5.151
 7147SOL     OW22339   6.626   6.889   1.720
 7147SOL    HW122340   6.617   6.984   1.690
 7147SOL    HW222341   6.639   6.886   1.819
 7148SOL     OW22342   6.387   6.907   1.059
 7148SOL    HW122343   6.455   6.964   1.012
 7148SOL    HW222344   6.401   6.914   1.158
 7149SOL     OW22345   5.391   4.212   5.883
 7149SOL    HW122346   5.335   4.182   5.807
 7149SOL    HW222347   5.485   4.228   5.851
 7150SOL     OW22348   2.883   2.484   6.755
 7150SOL    HW122349   2.961   2.516   6.701
 7150SOL    HW222350   2.913   2.412   6.818
 7151SOL     OW22351   5.236   1.431   6.825
 7151SOL    HW122352   5.248   1.361   6.755
 7151SOL    HW222353   5.295   1.411   6.903
 7152SOL     OW22354   4.680   0.134   5.440
 7152SOL    HW122355   4.627   0.067   5.389
 7152SOL    HW222356   4.756   0.166   5.383
 7153SOL     OW22357   3.434   5.453   0.557
 7153SOL    HW122358   3.463   5.366   0.597
 7153SOL    HW222359   3.384   5.436   0.472
 7154SOL     OW22360   4.819   0.921   1.972
 7154SOL    HW122361   4.831   0.991   1.902
 7154SOL    HW222362   4.792   0.835   1.929
 7155SOL     OW22363   1.721   0.445   1.778
 7155SOL    HW122364   1.647   0.460   1.713
 7155SOL    HW222365   1.703   0.361   1.830
 7156SOL     OW22366   6.483   4.086   5.548
 7156SOL    HW122367   6.416   4.012   5.537
 7156SOL    HW222368   6.524   4.107   5.459
 7157SOL     OW22369   0.047   4.413   5.873
 7157SOL    HW122370   0.002   4.329   5.843
 7157SOL    HW222371   0.090   4.458   5.795
 7158SOL     OW22372   5.507   0.378   4.164
 7158SOL    HW122373   5.565   0.364   4.084
 7158SOL    HW222374   5.552   0.340   4.245
 7159SOL     OW22375   0.473   6.229   2.970
 7159SOL    HW122376   0.524   6.284   3.036
 7159SOL    HW222377   0.508   6.136   2.970
 7160SOL     OW22378   5.900   0.007   2.607
 7160SOL    HW122379   5.995   6.994   2.608
 7160SOL    HW222380   5.860   7.004   2.518
 7161SOL     OW22381   4.106   3.681   2.295
 7161SOL    HW122382   4.029   3.735   2.263
 7161SOL    HW222383   4.183   3.690   2.232
 7162SOL     OW22384   0.276   6.212   0.828
 7162SOL    HW122385   0.348   6.236   0.893
 7162SOL    HW222386   0.190   6.253   0.858
 7163SOL     OW22387   6.659   0.472   1.124
 7163SOL    HW122388   6.744   0.493   1.171
 7163SOL    HW222389   6.656   0.375   1.100
 7164SOL     OW22390   1.511   0.927   0.356
 7164SOL    HW122391   1.567   0.880   0.288
 7164SOL    HW222392   1.561   1.006   0.391
 7165SOL     OW22393   5.215   1.958   6.980
 7165SOL    HW122394   5.175   2.036   6.931
 7165SOL    HW222395   5.284   1.914   6.922
 7166SOL     OW22396   0.232   5.432   5.448
 7166SOL    HW122397   0.187   5.429   5.359
 7166SOL    HW222398   0.322   5.477   5.439
 7167SOL     OW22399   0.217   3.154   5.659
 7167SOL    HW122400   0.265   3.067   5.674
 7167SOL    HW222401   0.202   3.168   5.561
 7168SOL     OW22402   1.551   1.912   2.530
 7168SOL    HW122403   1.474   1.976   2.531
 7168SOL    HW222404   1.519   1.823   2.498
 7169SOL     OW22405   1.694   4.476   5.629
 7169SOL    HW122406   1.780   4.442   5.666
 7169SOL    HW222407   1.700   4.574   5.615
 7170SOL     OW22408   3.792   1.265   0.958
 7170SOL    HW122409   3.796   1.206   1.039
 7170SOL    HW222410   3.851   1.345   0.972
 7171SOL     OW22411   6.713   3.837   0.931
 7171SOL    HW122412   6.732   3.770   0.859
 7171SOL    HW222413   6.693   3.790   1.017
 7172SOL     OW22414   0.498   2.297   3.533
 7172SOL    HW122415   0.496   2.273   3.630
 7172SOL    HW222416   0.563   2.239   3.486
 7173SOL     OW22417   4.125   5.176   5.544
 7173SOL    HW122418   4.086   5.173   5.452
 7173SOL    HW222419   4.080   5.108   5.602
 7174SOL     OW22420   6.302   3.935   2.070
 7174SOL    HW122421   6.322   4.017   2.015
 7174SOL    HW222422   6.215   3.896   2.039
 7175SOL     OW22423   6.298   4.028   6.024
 7175SOL    HW122424   6.394   4.002   6.027
 7175SOL    HW222425   6.243   3.958   6.072
 7176SOL     OW22426   0.118   1.149   6.154
 7176SOL    HW122427   0.086   1.216   6.087
 7176SOL    HW222428   0.207   1.113   6.126
 7177SOL     OW22429   1.448   6.117   3.439
 7177SOL    HW122430   1.381   6.183   3.404
 7177SOL    HW222431   1.507   6.087   3.364
 7178SOL     OW22432   1.572   6.887   4.873
 7178SOL    HW122433   1.577   6.894   4.773
 7178SOL    HW222434   1.544   6.794   4.898
 7179SOL     OW22435   4.593   4.808   5.966
 7179SOL    HW122436   4.637   4.897   5.958
 7179SOL    HW222437   4.532   4.808   6.045
 7180SOL     OW22438   1.644   3.016   1.927
 7180SOL    HW122439   1.551   2.994   1.955
 7180SOL    HW222440   1.654   3.115   1.917
 7181SOL     OW22441   2.092   0.989   0.051
 7181SOL    HW122442   2.160   0.975   6.996
 7181SOL    HW222443   2.007   1.023   0.011
 7182SOL     OW22444   1.648   1.373   3.643
 7182SOL    HW122445   1.707   1.451   3.664
 7182SOL    HW222446   1.654   1.352   3.545
 7183SOL     OW22447   1.455   6.818   1.764
 7183SOL    HW122448   1.458   6.805   1.863
 7183SOL    HW222449   1.544   6.850   1.731
 7184SOL     OW22450   6.936   0.777   3.764
 7184SOL    HW122451   6.919   0.865   3.720
 7184SOL    HW222452   6.999   0.790   3.840
 7185SOL     OW22453   3.889   0.171   4.106
 7185SOL    HW122454   3.877   0.241   4.176
 7185SOL    HW222455   3.954   0.204   4.038
 7186SOL     OW22456   6.309   0.916   6.590
 7186SOL    HW122457   6.368   0.977   6.642
 7186SOL    HW222458   6.311   0.825   6.631
 7187SOL     OW22459   3.781   3.476   4.085
 7187SOL    HW122460   3.852   3.407   4.102
 7187SOL    HW222461   3.769   3.532   4.167
 7188SOL     OW22462   4.570   4.428   0.294
 7188SOL    HW122463   4.580   4.359   0.366
 7188SOL    HW222464   4.660   4.452   0.257
 7189SOL     OW22465   6.960   2.551   5.735
 7189SOL    HW122466   0.037   2.558   5.768
 7189SOL    HW222467   6.936   2.454   5.723
 7190SOL     OW22468   6.312   5.151   6.931
 7190SOL    HW122469   6.396   5.205   6.926
 7190SOL    HW222470   6.238   5.200   6.885
 7191SOL     OW22471   6.574   4.640   2.131
 7191SOL    HW122472   6.581   4.669   2.227
 7191SOL    HW222473   6.583   4.541   2.125
 7192SOL     OW22474   2.404   4.142   5.346
 7192SOL    HW122475   2.406   4.066   5.281
 7192SOL    HW222476   2.489   4.194   5.340
 7193SOL     OW22477   3.536   1.712   3.598
 7193SOL    HW122478   3.605   1.650   3.560
 7193SOL    HW222479   3.579   1.799   3.621
 7194SOL     OW22480   2.764   2.574   6.255
 7194SOL    HW122481   2.774   2.671   6.233
 7194SOL    HW222482   2.703   2.564   6.334
 7195SOL     OW22483   1.303   3.648   5.856
 7195SOL    HW122484   1.355   3.577   5.808
 7195SOL    HW222485   1.305   3.732   5.803
 7196SOL     OW22486   3.435   4.188   1.538
 7196SOL    HW122487   3.456   4.214   1.632
 7196SOL    HW222488   3.382   4.104   1.537
 7197SOL     OW22489   3.434   4.922   6.825
 7197SOL    HW122490   3.402   4.857   6.755
 7197SOL    HW222491   3.451   5.011   6.783
 7198SOL     OW22492   0.761   0.509   1.685
 7198SOL    HW122493   0.818   0.438   1.727
 7198SOL    HW222494   0.759   0.590   1.745
 7199SOL     OW22495   5.895   1.385   3.093
 7199SOL    HW122496   5.885   1.465   3.152
 7199SOL    HW222497   5.970   1.400   3.029
 7200SOL     OW22498   1.084   2.897   6.985
 7200SOL    HW122499   1.063   2.962   0.041
 7200SOL    HW222500   1.094   2.806   0.007
 7201SOL     OW22501   6.026   6.079   4.189
 7201SOL    HW122502   6.085   5.999   4.194
 7201SOL    HW222503   5.982   6.095   4.277
 7202SOL     OW22504   4.669   6.658   5.829
 7202SOL    HW122505   4.725   6.620   5.903
 7202SOL    HW222506   4.684   6.606   5.745
 7203SOL     OW22507   0.282   2.055   0.920
 7203SOL    HW122508   0.321   2.144   0.944
 7203SOL    HW222509   0.233   2.062   0.833
 7204SOL     OW22510   6.407   1.204   2.206
 7204SOL    HW122511   6.324   1.149   2.203
 7204SOL    HW222512   6.454   1.188   2.293
 7205SOL     OW22513   3.270   1.922   4.389
 7205SOL    HW122514   3.171   1.934   4.392
 7205SOL    HW222515   3.309   1.951   4.477
 7206SOL     OW22516   2.014   3.764   6.798
 7206SOL    HW122517   2.055   3.807   6.878
 7206SOL    HW222518   2.047   3.670   6.791
 7207SOL     OW22519   2.271   1.364   3.040
 7207SOL    HW122520   2.291   1.397   2.947
 7207SOL    HW222521   2.176   1.385   3.063
 7208SOL     OW22522   4.023   1.086   3.802
 7208SOL    HW122523   4.104   1.027   3.801
 7208SOL    HW222524   4.034   1.160   3.736
 7209SOL     OW22525   3.314   0.817   2.040
 7209SOL    HW122526   3.400   0.868   2.032
 7209SOL    HW222527   3.285   0.787   1.948
 7210SOL     OW22528   3.545   1.250   3.767
 7210SOL    HW122529   3.627   1.240   3.710
 7210SOL    HW222530   3.511   1.343   3.761
 7211SOL     OW22531   4.152   6.139   5.793
 7211SOL    HW122532   4.192   6.180   5.875
 7211SOL    HW222533   4.079   6.076   5.819
 7212SOL     OW22534   0.790   5.510   5.453
 7212SOL    HW122535   0.873   5.560   5.478
 7212SOL    HW222536   0.778   5.433   5.516
 7213SOL     OW22537   4.253   2.538   6.962
 7213SOL    HW122538   4.226   2.564   0.037
 7213SOL    HW222539   4.282   2.442   6.962
 7214SOL     OW22540   6.214   0.671   6.207
 7214SOL    HW122541   6.119   0.695   6.225
 7214SOL    HW222542   6.245   0.603   6.273
 7215SOL     OW22543   6.189   1.462   2.412
 7215SOL    HW122544   6.235   1.468   2.323
 7215SOL    HW222545   6.095   1.430   2.398
 7216SOL     OW22546   5.319   0.167   3.654
 7216SOL    HW122547   5.408   0.133   3.684
 7216SOL    HW222548   5.273   0.096   3.600
 7217SOL     OW22549   1.222   2.613   3.187
 7217SOL    HW122550   1.220   2.552   3.265
 7217SOL    HW222551   1.148   2.680   3.195
 7218SOL     OW22552   6.397   2.529   4.826
 7218SOL    HW122553   6.341   2.596   4.778
 7218SOL    HW222554   6.395   2.548   4.924
 7219SOL     OW22555   3.190   6.176   2.363
 7219SOL    HW122556   3.139   6.102   2.408
 7219SOL    HW222557   3.179   6.261   2.414
 7220SOL     OW22558   6.278   4.049   3.370
 7220SOL    HW122559   6.369   4.060   3.409
 7220SOL    HW222560   6.273   4.099   3.283
 7221SOL     OW22561   3.910   5.179   3.635
 7221SOL    HW122562   3.970   5.255   3.663
 7221SOL    HW222563   3.924   5.102   3.697
 7222SOL     OW22564   6.781   6.450   4.110
 7222SOL    HW122565   6.783   6.518   4.036
 7222SOL    HW222566   6.770   6.496   4.198
 7223SOL     OW22567   7.007   4.236   1.621
 7223SOL    HW122568   6.937   4.166   1.605
 7223SOL    HW222569   0.035   4.217   1.708
 7224SOL     OW22570   4.353   2.384   2.334
 7224SOL    HW122571   4.422   2.432   2.388
 7224SOL    HW222572   4.276   2.358   2.392
 7225SOL     OW22573   0.867   6.299   0.335
 7225SOL    HW122574   0.841   6.231   0.267
 7225SOL    HW222575   0.844   6.266   0.426
 7226SOL     OW22576   6.456   6.378   0.157
 7226SOL    HW122577   6.363   6.383   0.194
 7226SOL    HW222578   6.495   6.470   0.151
 7227SOL     OW22579   1.659   1.434   2.965
 7227SOL    HW122580   1.744   1.405   2.921
 7227SOL    HW222581   1.582   1.417   2.905
 7228SOL     OW22582   5.532   2.959   2.460
 7228SOL    HW122583   5.505   3.055   2.461
 7228SOL    HW222584   5.471   2.906   2.518
 7229SOL     OW22585   6.064   0.570   5.238
 7229SOL    HW122586   5.988   0.613   5.189
 7229SOL    HW222587   6.126   0.527   5.172
 7230SOL     OW22588   2.300   5.195   4.868
 7230SOL    HW122589   2.319   5.203   4.770
 7230SOL    HW222590   2.245   5.272   4.898
 7231SOL     OW22591   4.322   3.234   6.163
 7231SOL    HW122592   4.240   3.184   6.134
 7231SOL    HW222593   4.397   3.170   6.178
 7232SOL     OW22594   4.785   6.195   3.538
 7232SOL    HW122595   4.758   6.286   3.569
 7232SOL    HW222596   4.763   6.128   3.609
 7233SOL     OW22597   0.637   1.135   5.612
 7233SOL    HW122598   0.588   1.131   5.525
 7233SOL    HW222599   0.718   1.077   5.607
 7234SOL     OW22600   5.577   4.347   3.540
 7234SOL    HW122601   5.488   4.311   3.514
 7234SOL    HW222602   5.572   4.386   3.632
 7235SOL     OW22603   5.961   6.790   1.910
 7235SOL    HW122604   5.997   6.864   1.852
 7235SOL    HW222605   6.003   6.796   2.000
 7236SOL     OW22606   1.982   3.696   2.802
 7236SOL    HW122607   2.043   3.764   2.841
 7236SOL    HW222608   2.010   3.676   2.708
 7237SOL     OW22609   5.610   0.927   0.438
 7237SOL    HW122610   5.636   0.936   0.535
 7237SOL    HW222611   5.646   1.006   0.387
 7238SOL     OW22612   4.097   3.888   0.273
 7238SOL    HW122613   4.111   3.852   0.181
 7238SOL    HW222614   4.182   3.931   0.305
 7239SOL     OW22615   5.818   2.369   2.306
 7239SOL    HW122616   5.745   2.351   2.372
 7239SOL    HW222617   5.897   2.313   2.327
 7240SOL     OW22618   6.916   1.519   0.659
 7240SOL    HW122619   6.941   1.556   0.570
 7240SOL    HW222620   6.894   1.422   0.649
 7241SOL     OW22621   2.007   0.560   2.534
 7241SOL    HW122622   1.960   0.587   2.449
 7241SOL    HW222623   1.973   0.615   2.610
 7242SOL     OW22624   6.947   4.367   4.951
 7242SOL    HW122625   7.000   4.363   4.866
 7242SOL    HW222626   6.850   4.357   4.929
 7243SOL     OW22627   5.762   4.721   6.054
 7243SOL    HW122628   5.736   4.673   6.138
 7243SOL    HW222629   5.679   4.751   6.006
 7244SOL     OW22630   0.114   5.997   6.906
 7244SOL    HW122631   0.039   6.004   6.971
 7244SOL    HW222632   0.130   6.086   6.863
 7245SOL     OW22633   1.421   2.971   0.600
 7245SOL    HW122634   1.349   3.016   0.654
 7245SOL    HW222635   1.465   2.901   0.655
 7246SOL     OW22636   4.241   0.061   2.895
 7246SOL    HW122637   4.200   0.137   2.845
 7246SOL    HW222638   4.177   0.030   2.965
 7247SOL     OW22639   2.996   3.958   4.171
 7247SOL    HW122640   2.966   3.863   4.167
 7247SOL    HW222641   2.925   4.016   4.131
 7248SOL     OW22642   3.006   1.489   5.583
 7248SOL    HW122643   3.049   1.435   5.656
 7248SOL    HW222644   3.042   1.582   5.587
 7249SOL     OW22645   4.072   5.116   2.404
 7249SOL    HW122646   4.035   5.048   2.341
 7249SOL    HW222647   4.127   5.182   2.353
 7250SOL     OW22648   5.663   5.184   5.311
 7250SOL    HW122649   5.648   5.092   5.276
 7250SOL    HW222650   5.669   5.249   5.235
 7251SOL     OW22651   0.904   5.356   5.130
 7251SOL    HW122652   0.954   5.336   5.045
 7251SOL    HW222653   0.898   5.455   5.142
 7252SOL     OW22654   4.054   3.717   2.571
 7252SOL    HW122655   4.101   3.658   2.636
 7252SOL    HW222656   4.102   3.714   2.483
 7253SOL     OW22657   2.615   5.228   4.862
 7253SOL    HW122658   2.572   5.154   4.810
 7253SOL    HW222659   2.621   5.201   4.959
 7254SOL     OW22660   5.983   3.282   4.378
 7254SOL    HW122661   5.984   3.309   4.475
 7254SOL    HW222662   6.069   3.237   4.355
 7255SOL     OW22663   4.891   3.779   0.038
 7255SOL    HW122664   4.984   3.811   0.050
 7255SOL    HW222665   4.846   3.832   6.983
 7256SOL     OW22666   2.983   0.273   5.023
 7256SOL    HW122667   2.948   0.307   4.936
 7256SOL    HW222668   2.944   0.183   5.041
 7257SOL     OW22669   1.060   1.281   4.405
 7257SOL    HW122670   0.996   1.320   4.338
 7257SOL    HW222671   1.116   1.354   4.444
 7258SOL     OW22672   5.427   3.487   2.412
 7258SOL    HW122673   5.475   3.445   2.336
 7258SOL    HW222674   5.348   3.538   2.378
 7259SOL     OW22675   1.539   4.184   2.782
 7259SOL    HW122676   1.534   4.086   2.764
 7259SOL    HW222677   1.467   4.230   2.731
 7260SOL     OW22678   5.567   3.060   0.967
 7260SOL    HW122679   5.654   3.021   0.936
 7260SOL    HW222680   5.501   2.987   0.982
 7261SOL     OW22681   6.797   4.401   6.961
 7261SOL    HW122682   6.698   4.410   6.958
 7261SOL    HW222683   6.829   4.417   0.037
 7262SOL     OW22684   5.660   1.488   5.420
 7262SOL    HW122685   5.653   1.546   5.500
 7262SOL    HW222686   5.568   1.461   5.390
 7263SOL     OW22687   6.866   5.706   6.607
 7263SOL    HW122688   6.934   5.722   6.536
 7263SOL    HW222689   6.911   5.701   6.696
 7264SOL     OW22690   5.445   1.417   1.227
 7264SOL    HW122691   5.539   1.441   1.252
 7264SOL    HW222692   5.441   1.392   1.130
 7265SOL     OW22693   3.996   0.640   5.808
 7265SOL    HW122694   4.049   0.655   5.725
 7265SOL    HW222695   4.054   0.595   5.877
 7266SOL     OW22696   0.556   0.905   3.691
 7266SOL    HW122697   0.522   0.956   3.770
 7266SOL    HW222698   0.480   0.875   3.634
 7267SOL     OW22699   6.520   4.300   4.445
 7267SOL    HW122700   6.456   4.308   4.368
 7267SOL    HW222701   6.518   4.384   4.499
 7268SOL     OW22702   6.313   6.881   4.064
 7268SOL    HW122703   6.258   6.802   4.088
 7268SOL    HW222704   6.261   6.965   4.082
 7269SOL     OW22705   2.570   4.572   4.503
 7269SOL    HW122706   2.562   4.644   4.572
 7269SOL    HW222707   2.523   4.490   4.535
 7270SOL     OW22708   0.807   0.900   4.762
 7270SOL    HW122709   0.874   0.935   4.827
 7270SOL    HW222710   0.812   0.954   4.678
 7271SOL     OW22711   0.684   4.646   2.813
 7271SOL    HW122712   0.681   4.551   2.844
 7271SOL    HW222713   0.651   4.705   2.887
 7272SOL     OW22714   6.189   4.175   1.686
 7272SOL    HW122715   6.234   4.206   1.602
 7272SOL    HW222716   6.206   4.077   1.700
 7273SOL     OW22717   0.647   2.152   5.627
 7273SOL    HW122718   0.693   2.105   5.552
 7273SOL    HW222719   0.594   2.085   5.681
 7274SOL     OW22720   0.808   4.990   6.253
 7274SOL    HW122721   0.789   4.914   6.191
 7274SOL    HW222722   0.754   4.980   6.337
 7275SOL     OW22723   0.565   6.102   3.307
 7275SOL    HW122724   0.473   6.081   3.339
 7275SOL    HW222725   0.564   6.189   3.258
 7276SOL     OW22726   5.353   6.284   3.841
 7276SOL    HW122727   5.375   6.217   3.770
 7276SOL    HW222728   5.255   6.281   3.860
 7277SOL     OW22729   4.580   0.396   6.907
 7277SOL    HW122730   4.673   0.411   6.940
 7277SOL    HW222731   4.524   0.361   6.983
 7278SOL     OW22732   3.318   2.908   2.198
 7278SOL    HW122733   3.305   2.995   2.152
 7278SOL    HW222734   3.314   2.922   2.297
 7279SOL     OW22735   3.131   6.544   6.310
 7279SOL    HW122736   3.032   6.555   6.304
 7279SOL    HW222737   3.165   6.504   6.225
 7280SOL     OW22738   4.365   1.662   5.942
 7280SOL    HW122739   4.463   1.668   5.961
 7280SOL    HW222740   4.346   1.579   5.889
 7281SOL     OW22741   5.292   1.330   6.067
 7281SOL    HW122742   5.301   1.422   6.106
 7281SOL    HW222743   5.357   1.319   5.992
 7282SOL     OW22744   5.347   5.433   2.093
 7282SOL    HW122745   5.337   5.413   2.190
 7282SOL    HW222746   5.435   5.400   2.061
 7283SOL     OW22747   2.399   1.167   3.873
 7283SOL    HW122748   2.394   1.112   3.956
 7283SOL    HW222749   2.312   1.160   3.823
 7284SOL     OW22750   0.410   2.366   5.305
 7284SOL    HW122751   0.479   2.348   5.235
 7284SOL    HW222752   0.321   2.378   5.262
 7285SOL     OW22753   5.624   4.936   1.531
 7285SOL    HW122754   5.614   5.036   1.535
 7285SOL    HW222755   5.622   4.906   1.436
 7286SOL     OW22756   2.280   4.027   1.186
 7286SOL    HW122757   2.203   4.078   1.148
 7286SOL    HW222758   2.257   3.930   1.190
 7287SOL     OW22759   5.745   1.552   6.126
 7287SOL    HW122760   5.799   1.474   6.096
 7287SOL    HW222761   5.804   1.620   6.169
 7288SOL     OW22762   3.195   6.823   6.241
 7288SOL    HW122763   3.187   6.723   6.240
 7288SOL    HW222764   3.104   6.863   6.254
 7289SOL     OW22765   5.592   2.207   3.813
 7289SOL    HW122766   5.687   2.176   3.809
 7289SOL    HW222767   5.549   2.171   3.896
 7290SOL     OW22768   2.792   4.963   4.156
 7290SOL    HW122769   2.795   4.900   4.234
 7290SOL    HW222770   2.852   4.929   4.084
 7291SOL     OW22771   3.072   5.130   2.402
 7291SOL    HW122772   3.048   5.056   2.339
 7291SOL    HW222773   3.005   5.203   2.394
 7292SOL     OW22774   3.062   6.939   4.822
 7292SOL    HW122775   3.146   6.991   4.809
 7292SOL    HW222776   3.083   6.841   4.819
 7293SOL     OW22777   1.863   2.324   6.033
 7293SOL    HW122778   1.833   2.336   5.938
 7293SOL    HW222779   1.784   2.313   6.092
 7294SOL     OW22780   3.785   5.816   0.407
 7294SOL    HW122781   3.704   5.839   0.354
 7294SOL    HW222782   3.833   5.900   0.433
 7295SOL     OW22783   5.611   6.880   1.511
 7295SOL    HW122784   5.642   6.884   1.606
 7295SOL    HW222785   5.615   6.972   1.471
 7296SOL     OW22786   4.265   5.205   1.817
 7296SOL    HW122787   4.267   5.248   1.908
 7296SOL    HW222788   4.207   5.259   1.756
 7297SOL     OW22789   5.178   6.860   2.397
 7297SOL    HW122790   5.144   6.783   2.342
 7297SOL    HW222791   5.220   6.826   2.481
 7298SOL     OW22792   5.889   3.726   3.962
 7298SOL    HW122793   5.888   3.792   3.887
 7298SOL    HW222794   5.861   3.636   3.927
 7299SOL     OW22795   5.788   3.397   6.825
 7299SOL    HW122796   5.708   3.417   6.881
 7299SOL    HW222797   5.867   3.383   6.884
 7300SOL     OW22798   4.590   4.985   0.919
 7300SOL    HW122799   4.598   4.999   0.821
 7300SOL    HW222800   4.494   4.987   0.947
 7301SOL     OW22801   6.775   0.772   6.203
 7301SOL    HW122802   6.704   0.708   6.174
 7301SOL    HW222803   6.839   0.726   6.264
 7302SOL     OW22804   4.809   0.664   6.282
 7302SOL    HW122805   4.742   0.639   6.212
 7302SOL    HW222806   4.774   0.639   6.373
 7303SOL     OW22807   3.399   1.177   0.852
 7303SOL    HW122808   3.407   1.078   0.865
 7303SOL    HW222809   3.333   1.196   0.779
 7304SOL     OW22810   3.298   4.067   5.023
 7304SOL    HW122811   3.360   4.142   5.044
 7304SOL    HW222812   3.261   4.079   4.931
 7305SOL     OW22813   5.606   0.875   6.948
 7305SOL    HW122814   5.699   0.887   6.913
 7305SOL    HW222815   5.610   0.836   0.023
 7306SOL     OW22816   4.735   5.117   1.722
 7306SOL    HW122817   4.640   5.086   1.724
 7306SOL    HW222818   4.778   5.088   1.636
 7307SOL     OW22819   4.275   6.586   2.740
 7307SOL    HW122820   4.224   6.593   2.655
 7307SOL    HW222821   4.371   6.605   2.723
 7308SOL     OW22822   6.155   1.587   4.601
 7308SOL    HW122823   6.056   1.571   4.608
 7308SOL    HW222824   6.175   1.634   4.515
 7309SOL     OW22825   4.319   5.910   2.123
 7309SOL    HW122826   4.241   5.890   2.064
 7309SOL    HW222827   4.396   5.940   2.066
 7310SOL     OW22828   2.210   5.374   1.344
 7310SOL    HW122829   2.294   5.402   1.298
 7310SOL    HW222830   2.234   5.332   1.432
 7311SOL     OW22831   2.700   2.343   2.256
 7311SOL    HW122832   2.755   2.351   2.172
 7311SOL    HW222833   2.701   2.249   2.287
 7312SOL     OW22834   6.653   1.575   5.891
 7312SOL    HW122835   6.630   1.495   5.836
 7312SOL    HW222836   6.752   1.590   5.889
 7313SOL     OW22837   4.023   2.835   6.957
 7313SOL    HW122838   4.023   2.934   6.946
 7313SOL    HW222839   4.002   2.792   6.869
 7314SOL     OW22840   0.645   2.826   4.541
 7314SOL    HW122841   0.704   2.750   4.514
 7314SOL    HW222842   0.573   2.837   4.472
 7315SOL     OW22843   6.996   0.335   5.427
 7315SOL    HW122844   7.000   0.350   5.526
 7315SOL    HW222845   6.910   0.373   5.391
 7316SOL     OW22846   3.641   4.126   5.370
 7316SOL    HW122847   3.683   4.038   5.393
 7316SOL    HW222848   3.708   4.199   5.383
 7317SOL     OW22849   2.845   1.115   3.672
 7317SOL    HW122850   2.833   1.160   3.761
 7317SOL    HW222851   2.855   1.185   3.601
 7318SOL     OW22852   1.441   2.039   1.657
 7318SOL    HW122853   1.493   1.965   1.698
 7318SOL    HW222854   1.343   2.021   1.667
 7319SOL     OW22855   6.959   4.118   6.868
 7319SOL    HW122856   6.959   4.124   6.968
 7319SOL    HW222857   6.956   4.022   6.841
 7320SOL     OW22858   6.544   2.443   2.049
 7320SOL    HW122859   6.642   2.441   2.030
 7320SOL    HW222860   6.493   2.461   1.964
 7321SOL     OW22861   2.795   1.200   4.394
 7321SOL    HW122862   2.843   1.123   4.434
 7321SOL    HW222863   2.731   1.238   4.461
 7322SOL     OW22864   0.483   3.498   2.307
 7322SOL    HW122865   0.456   3.419   2.362
 7322SOL    HW222866   0.577   3.486   2.276
 7323SOL     OW22867   2.110   3.846   3.206
 7323SOL    HW122868   2.172   3.804   3.140
 7323SOL    HW222869   2.145   3.833   3.298
 7324SOL     OW22870   5.453   5.893   2.393
 7324SOL    HW122871   5.413   5.984   2.392
 7324SOL    HW222872   5.534   5.893   2.452
 7325SOL     OW22873   2.797   6.366   0.276
 7325SOL    HW122874   2.705   6.326   0.273
 7325SOL    HW222875   2.826   6.374   0.372
 7326SOL     OW22876   2.807   7.013   4.832
 7326SOL    HW122877   2.776   0.013   4.739
 7326SOL    HW222878   2.901   6.978   4.831
 7327SOL     OW22879   1.800   2.350   5.458
 7327SOL    HW122880   1.765   2.278   5.397
 7327SOL    HW222881   1.826   2.430   5.403
 7328SOL     OW22882   2.386   6.983   0.127
 7328SOL    HW122883   2.346   6.982   0.036
 7328SOL    HW222884   2.449   6.906   0.138
 7329SOL     OW22885   4.287   3.373   1.424
 7329SOL    HW122886   4.317   3.310   1.352
 7329SOL    HW222887   4.349   3.366   1.502
 7330SOL     OW22888   4.177   2.099   0.468
 7330SOL    HW122889   4.160   2.039   0.546
 7330SOL    HW222890   4.146   2.053   0.384
 7331SOL     OW22891   5.318   1.337   1.452
 7331SOL    HW122892   5.382   1.269   1.417
 7331SOL    HW222893   5.338   1.426   1.411
 7332SOL     OW22894   3.722   5.179   1.085
 7332SOL    HW122895   3.808   5.143   1.047
 7332SOL    HW222896   3.742   5.239   1.162
 7333SOL     OW22897   0.549   5.131   2.396
 7333SOL    HW122898   0.618   5.059   2.399
 7333SOL    HW222899   0.582   5.210   2.448
 7334SOL     OW22900   3.851   6.587   4.235
 7334SOL    HW122901   3.814   6.631   4.317
 7334SOL    HW222902   3.831   6.645   4.156
 7335SOL     OW22903   1.665   2.763   2.739
 7335SOL    HW122904   1.587   2.824   2.757
 7335SOL    HW222905   1.720   2.755   2.822
 7336SOL     OW22906   1.764   6.612   3.848
 7336SOL    HW122907   1.796   6.693   3.798
 7336SOL    HW222908   1.827   6.593   3.924
 7337SOL     OW22909   5.506   2.448   2.265
 7337SOL    HW122910   5.549   2.413   2.182
 7337SOL    HW222911   5.539   2.395   2.344
 7338SOL     OW22912   6.472   3.482   0.231
 7338SOL    HW122913   6.523   3.459   0.149
 7338SOL    HW222914   6.480   3.581   0.249
 7339SOL     OW22915   1.148   5.254   4.642
 7339SOL    HW122916   1.238   5.283   4.611
 7339SOL    HW222917   1.081   5.326   4.625
 7340SOL     OW22918   1.776   0.127   6.421
 7340SOL    HW122919   1.726   0.094   6.341
 7340SOL    HW222920   1.867   0.086   6.424
 7341SOL     OW22921   6.551   2.444   6.993
 7341SOL    HW122922   6.528   2.350   6.969
 7341SOL    HW222923   6.633   2.445   0.032
 7342SOL     OW22924   6.932   0.035   2.166
 7342SOL    HW122925   6.925   0.002   2.260
 7342SOL    HW222926   0.011   0.034   2.138
 7343SOL     OW22927   5.225   2.937   0.796
 7343SOL    HW122928   5.281   2.930   0.713
 7343SOL    HW222929   5.158   2.862   0.798
 7344SOL     OW22930   1.434   6.599   5.722
 7344SOL    HW122931   1.461   6.582   5.628
 7344SOL    HW222932   1.483   6.678   5.758
 7345SOL     OW22933   3.098   5.134   6.315
 7345SOL    HW122934   3.102   5.219   6.261
 7345SOL    HW222935   3.118   5.155   6.411
 7346SOL     OW22936   4.828   4.456   2.739
 7346SOL    HW122937   4.850   4.545   2.779
 7346SOL    HW222938   4.729   4.447   2.732
 7347SOL     OW22939   5.981   1.946   6.763
 7347SOL    HW122940   6.021   2.029   6.726
 7347SOL    HW222941   5.892   1.966   6.804
 7348SOL     OW22942   6.454   4.492   1.349
 7348SOL    HW122943   6.539   4.475   1.398
 7348SOL    HW222944   6.429   4.589   1.358
 7349SOL     OW22945   3.863   1.841   2.061
 7349SOL    HW122946   3.803   1.823   2.139
 7349SOL    HW222947   3.810   1.882   1.987
 7350SOL     OW22948   3.370   0.945   4.240
 7350SOL    HW122949   3.436   0.889   4.190
 7350SOL    HW222950   3.336   0.893   4.318
 7351SOL     OW22951   2.982   4.827   4.009
 7351SOL    HW122952   2.981   4.825   3.909
 7351SOL    HW222953   3.070   4.863   4.041
 7352SOL     OW22954   6.359   3.404   4.142
 7352SOL    HW122955   6.273   3.454   4.155
 7352SOL    HW222956   6.343   3.306   4.155
 7353SOL     OW22957   6.674   0.546   6.318
 7353SOL    HW122958   6.652   0.589   6.406
 7353SOL    HW222959   6.687   0.448   6.331
 7354SOL     OW22960   0.067   1.520   3.387
 7354SOL    HW122961   7.001   1.573   3.405
 7354SOL    HW222962   0.045   1.445   3.325
 7355SOL     OW22963   2.802   1.638   6.989
 7355SOL    HW122964   2.848   1.660   6.903
 7355SOL    HW222965   2.713   1.683   6.992
 7356SOL     OW22966   4.379   3.918   6.122
 7356SOL    HW122967   4.414   3.833   6.161
 7356SOL    HW222968   4.295   3.900   6.072
 7357SOL     OW22969   4.955   5.721   2.280
 7357SOL    HW122970   4.907   5.634   2.265
 7357SOL    HW222971   5.052   5.703   2.296
 7358SOL     OW22972   5.918   1.071   3.069
 7358SOL    HW122973   5.869   1.024   3.142
 7358SOL    HW222974   5.918   1.169   3.086
 7359SOL     OW22975   4.927   0.331   1.656
 7359SOL    HW122976   4.982   0.415   1.655
 7359SOL    HW222977   4.853   0.339   1.590
 7360SOL     OW22978   3.109   3.265   4.910
 7360SOL    HW122979   3.139   3.315   4.828
 7360SOL    HW222980   3.044   3.322   4.960
 7361SOL     OW22981   6.784   0.417   3.085
 7361SOL    HW122982   6.819   0.383   3.172
 7361SOL    HW222983   6.702   0.366   3.060
 7362SOL     OW22984   2.930   5.356   6.909
 7362SOL    HW122985   2.860   5.417   6.871
 7362SOL    HW222986   2.943   5.278   6.849
 7363SOL     OW22987   3.626   1.285   0.326
 7363SOL    HW122988   3.571   1.222   0.273
 7363SOL    HW222989   3.569   1.333   0.392
 7364SOL     OW22990   5.616   6.498   1.482
 7364SOL    HW122991   5.651   6.413   1.520
 7364SOL    HW222992   5.687   6.568   1.485
 7365SOL     OW22993   5.235   4.591   2.568
 7365SOL    HW122994   5.274   4.680   2.547
 7365SOL    HW222995   5.143   4.584   2.530
 7366SOL     OW22996   1.457   0.533   4.149
 7366SOL    HW122997   1.464   0.497   4.056
 7366SOL    HW222998   1.407   0.619   4.148
 7367SOL     OW22999   3.628   1.092   6.928
 7367SOL    HW123000   3.587   1.079   0.001
 7367SOL    HW223001   3.647   1.003   6.886
 7368SOL     OW23002   3.710   3.192   3.657
 7368SOL    HW123003   3.710   3.291   3.673
 7368SOL    HW223004   3.683   3.173   3.562
 7369SOL     OW23005   5.351   2.270   0.246
 7369SOL    HW123006   5.359   2.174   0.221
 7369SOL    HW223007   5.366   2.327   0.165
 7370SOL     OW23008   1.920   1.123   4.130
 7370SOL    HW123009   1.897   1.040   4.078
 7370SOL    HW223010   1.951   1.194   4.067
 7371SOL     OW23011   4.152   1.405   3.801
 7371SOL    HW123012   4.078   1.347   3.835
 7371SOL    HW223013   4.238   1.356   3.805
 7372SOL     OW23014   5.823   1.107   5.465
 7372SOL    HW123015   5.808   1.132   5.560
 7372SOL    HW223016   5.909   1.145   5.433
 7373SOL     OW23017   5.919   3.577   4.675
 7373SOL    HW123018   6.018   3.573   4.686
 7373SOL    HW223019   5.896   3.642   4.602
 7374SOL     OW23020   6.631   2.616   5.877
 7374SOL    HW123021   6.553   2.677   5.889
 7374SOL    HW223022   6.611   2.550   5.804
 7375SOL     OW23023   1.445   3.817   1.819
 7375SOL    HW123024   1.394   3.900   1.844
 7375SOL    HW223025   1.543   3.833   1.830
 7376SOL     OW23026   6.986   3.264   0.718
 7376SOL    HW123027   0.021   3.181   0.698
 7376SOL    HW223028   6.965   3.312   0.633
 7377SOL     OW23029   2.089   6.651   0.879
 7377SOL    HW123030   2.035   6.568   0.895
 7377SOL    HW223031   2.064   6.721   0.946
 7378SOL     OW23032   1.381   5.415   4.482
 7378SOL    HW123033   1.457   5.388   4.423
 7378SOL    HW223034   1.409   5.409   4.577
 7379SOL     OW23035   4.121   1.114   1.853
 7379SOL    HW123036   4.198   1.082   1.798
 7379SOL    HW223037   4.102   1.047   1.925
 7380SOL     OW23038   5.050   4.112   1.658
 7380SOL    HW123039   5.136   4.071   1.629
 7380SOL    HW223040   5.061   4.153   1.748
 7381SOL     OW23041   3.868   0.361   1.648
 7381SOL    HW123042   3.800   0.299   1.685
 7381SOL    HW223043   3.831   0.407   1.567
 7382SOL     OW23044   5.970   1.353   6.129
 7382SOL    HW123045   5.999   1.386   6.219
 7382SOL    HW223046   6.004   1.415   6.059
 7383SOL     OW23047   2.295   0.604   0.894
 7383SOL    HW123048   2.317   0.511   0.863
 7383SOL    HW223049   2.198   0.622   0.880
 7384SOL     OW23050   6.748   6.780   0.693
 7384SOL    HW123051   6.806   6.860   0.698
 7384SOL    HW223052   6.653   6.808   0.678
 7385SOL     OW23053   6.320   4.268   2.755
 7385SOL    HW123054   6.409   4.256   2.800
 7385SOL    HW223055   6.320   4.218   2.668
 7386SOL     OW23056   5.339   3.576   7.010
 7386SOL    HW123057   5.296   3.644   0.053
 7386SOL    HW223058   5.312   3.593   6.915
 7387SOL     OW23059   6.661   5.566   4.623
 7387SOL    HW123060   6.679   5.470   4.603
 7387SOL    HW223061   6.593   5.601   4.558
 7388SOL     OW23062   2.169   4.553   3.128
 7388SOL    HW123063   2.160   4.649   3.102
 7388SOL    HW223064   2.261   4.520   3.104
 7389SOL     OW23065   6.488   3.232   0.673
 7389SOL    HW123066   6.493   3.328   0.646
 7389SOL    HW223067   6.441   3.224   0.761
 7390SOL     OW23068   2.337   2.720   3.623
 7390SOL    HW123069   2.406   2.665   3.670
 7390SOL    HW223070   2.258   2.734   3.682
 7391SOL     OW23071   3.302   3.826   3.273
 7391SOL    HW123072   3.348   3.811   3.185
 7391SOL    HW223073   3.204   3.839   3.257
 7392SOL     OW23074   3.161   6.917   6.711
 7392SOL    HW123075   3.149   6.819   6.724
 7392SOL    HW223076   3.204   6.934   6.622
 7393SOL     OW23077   5.530   5.017   4.163
 7393SOL    HW123078   5.623   5.054   4.161
 7393SOL    HW223079   5.475   5.063   4.094
 7394SOL     OW23080   2.271   1.800   5.346
 7394SOL    HW123081   2.290   1.728   5.279
 7394SOL    HW223082   2.225   1.761   5.425
 7395SOL     OW23083   2.563   6.309   0.950
 7395SOL    HW123084   2.582   6.284   0.855
 7395SOL    HW223085   2.502   6.241   0.991
 7396SOL     OW23086   2.146   5.222   2.333
 7396SOL    HW123087   2.153   5.247   2.430
 7396SOL    HW223088   2.217   5.156   2.311
 7397SOL     OW23089   5.897   4.326   3.832
 7397SOL    HW123090   5.858   4.255   3.891
 7397SOL    HW223091   5.884   4.415   3.875
 7398SOL     OW23092   2.968   4.820   2.553
 7398SOL    HW123093   3.047   4.836   2.613
 7398SOL    HW223094   3.000   4.806   2.460
 7399SOL     OW23095   5.297   1.848   5.661
 7399SOL    HW123096   5.350   1.900   5.594
 7399SOL    HW223097   5.321   1.751   5.655
 7400SOL     OW23098   5.274   3.173   5.967
 7400SOL    HW123099   5.255   3.271   5.976
 7400SOL    HW223100   5.199   3.129   5.918
 7401SOL     OW23101   1.495   2.688   4.655
 7401SOL    HW123102   1.473   2.620   4.585
 7401SOL    HW223103   1.436   2.767   4.645
 7402SOL     OW23104   3.920   5.777   4.472
 7402SOL    HW123105   3.956   5.846   4.409
 7402SOL    HW223106   3.853   5.720   4.424
 7403SOL     OW23107   1.377   4.284   4.404
 7403SOL    HW123108   1.450   4.217   4.392
 7403SOL    HW223109   1.414   4.365   4.449
 7404SOL     OW23110   3.375   3.519   0.741
 7404SOL    HW123111   3.393   3.617   0.747
 7404SOL    HW223112   3.318   3.491   0.819
 7405SOL     OW23113   4.318   6.664   4.315
 7405SOL    HW123114   4.415   6.657   4.293
 7405SOL    HW223115   4.306   6.723   4.395
 7406SOL     OW23116   1.107   1.844   4.576
 7406SOL    HW123117   1.058   1.900   4.643
 7406SOL    HW223118   1.184   1.896   4.539
 7407SOL     OW23119   1.106   5.774   5.267
 7407SOL    HW123120   1.198   5.783   5.305
 7407SOL    HW223121   1.054   5.857   5.287
 7408SOL     OW23122   4.314   5.024   5.416
 7408SOL    HW123123   4.251   5.069   5.479
 7408SOL    HW223124   4.276   5.029   5.323
 7409SOL     OW23125   6.914   3.466   1.155
 7409SOL    HW123126   6.948   3.553   1.191
 7409SOL    HW223127   6.946   3.455   1.061
 7410SOL     OW23128   6.815   0.630   0.757
 7410SOL    HW123129   6.807   0.722   0.795
 7410SOL    HW223130   6.896   0.625   0.699
 7411SOL     OW23131   2.977   1.535   5.297
 7411SOL    HW123132   3.060   1.592   5.299
 7411SOL    HW223133   2.967   1.488   5.384
 7412SOL     OW23134   3.635   0.134   6.942
 7412SOL    HW123135   3.609   0.228   6.962
 7412SOL    HW223136   3.611   0.075   0.002
 7413SOL     OW23137   4.838   0.730   3.113
 7413SOL    HW123138   4.786   0.718   3.029
 7413SOL    HW223139   4.861   0.827   3.124
 7414SOL     OW23140   2.850   0.928   3.485
 7414SOL    HW123141   2.845   1.007   3.547
 7414SOL    HW223142   2.884   0.958   3.396
 7415SOL     OW23143   4.257   6.503   6.509
 7415SOL    HW123144   4.281   6.522   6.605
 7415SOL    HW223145   4.254   6.589   6.458
 7416SOL     OW23146   1.798   0.806   1.821
 7416SOL    HW123147   1.811   0.886   1.763
 7416SOL    HW223148   1.863   0.808   1.897
 7417SOL     OW23149   0.644   0.693   2.420
 7417SOL    HW123150   0.742   0.711   2.426
 7417SOL    HW223151   0.594   0.780   2.417
 7418SOL     OW23152   1.360   4.175   6.013
 7418SOL    HW123153   1.348   4.092   5.958
 7418SOL    HW223154   1.412   4.242   5.961
 7419SOL     OW23155   6.783   3.515   4.008
 7419SOL    HW123156   6.694   3.557   4.025
 7419SOL    HW223157   6.845   3.583   3.968
 7420SOL     OW23158   0.377   6.396   1.264
 7420SOL    HW123159   0.432   6.480   1.267
 7420SOL    HW223160   0.430   6.321   1.304
 7421SOL     OW23161   6.050   3.996   1.126
 7421SOL    HW123162   6.016   3.903   1.143
 7421SOL    HW223163   6.084   4.035   1.212
 7422SOL     OW23164   5.544   2.768   2.273
 7422SOL    HW123165   5.521   2.691   2.332
 7422SOL    HW223166   5.566   2.848   2.328
 7423SOL     OW23167   5.028   2.200   5.876
 7423SOL    HW123168   5.037   2.167   5.970
 7423SOL    HW223169   5.058   2.128   5.812
 7424SOL     OW23170   0.155   2.597   3.387
 7424SOL    HW123171   0.160   2.697   3.379
 7424SOL    HW223172   0.160   2.571   3.483
 7425SOL     OW23173   5.649   0.895   0.712
 7425SOL    HW123174   5.612   0.825   0.774
 7425SOL    HW223175   5.748   0.896   0.719
 7426SOL     OW23176   3.235   2.860   5.780
 7426SOL    HW123177   3.196   2.776   5.818
 7426SOL    HW223178   3.325   2.875   5.819
 7427SOL     OW23179   3.302   0.760   3.278
 7427SOL    HW123180   3.374   0.825   3.253
 7427SOL    HW223181   3.305   0.745   3.377
 7428SOL     OW23182   3.856   6.104   4.897
 7428SOL    HW123183   3.942   6.096   4.947
 7428SOL    HW223184   3.832   6.016   4.857
 7429SOL     OW23185   0.633   0.184   1.985
 7429SOL    HW123186   0.584   0.114   1.933
 7429SOL    HW223187   0.572   0.261   2.002
 7430SOL     OW23188   6.807   4.682   3.109
 7430SOL    HW123189   6.780   4.602   3.055
 7430SOL    HW223190   6.727   4.739   3.126
 7431SOL     OW23191   1.124   1.517   3.505
 7431SOL    HW123192   1.216   1.550   3.484
 7431SOL    HW223193   1.126   1.418   3.520
 7432SOL     OW23194   2.273   0.883   3.178
 7432SOL    HW123195   2.304   0.976   3.160
 7432SOL    HW223196   2.272   0.831   3.092
 7433SOL     OW23197   2.686   6.735   6.660
 7433SOL    HW123198   2.672   6.636   6.666
 7433SOL    HW223199   2.728   6.757   6.572
 7434SOL     OW23200   4.291   6.720   4.055
 7434SOL    HW123201   4.290   6.748   4.151
 7434SOL    HW223202   4.317   6.623   4.049
 7435SOL     OW23203   4.864   4.148   2.902
 7435SOL    HW123204   4.851   4.066   2.958
 7435SOL    HW223205   4.878   4.121   2.807
 7436SOL     OW23206   5.684   2.647   5.782
 7436SOL    HW123207   5.636   2.578   5.837
 7436SOL    HW223208   5.626   2.728   5.772
 7437SOL     OW23209   3.196   0.204   1.059
 7437SOL    HW123210   3.112   0.215   1.111
 7437SOL    HW223211   3.266   0.266   1.095
 7438SOL     OW23212   1.891   0.264   0.123
 7438SOL    HW123213   1.796   0.283   0.149
 7438SOL    HW223214   1.950   0.276   0.203
 7439SOL     OW23215   1.069   4.615   6.346
 7439SOL    HW123216   1.167   4.613   6.368
 7439SOL    HW223217   1.029   4.701   6.379
 7440SOL     OW23218   5.479   4.134   3.977
 7440SOL    HW123219   5.534   4.195   4.034
 7440SOL    HW223220   5.383   4.160   3.984
 7441SOL     OW23221   5.146   6.186   0.888
 7441SOL    HW123222   5.076   6.209   0.822
 7441SOL    HW223223   5.218   6.131   0.844
 7442SOL     OW23224   5.402   0.700   6.318
 7442SOL    HW123225   5.325   0.706   6.255
 7442SOL    HW223226   5.410   0.606   6.352
 7443SOL     OW23227   0.388   0.858   1.486
 7443SOL    HW123228   0.437   0.842   1.400
 7443SOL    HW223229   0.388   0.956   1.507
 7444SOL     OW23230   1.648   6.591   0.366
 7444SOL    HW123231   1.657   6.511   0.426
 7444SOL    HW223232   1.614   6.561   0.276
 7445SOL     OW23233   3.857   5.778   1.477
 7445SOL    HW123234   3.837   5.728   1.561
 7445SOL    HW223235   3.883   5.872   1.499
 7446SOL     OW23236   5.703   4.804   6.838
 7446SOL    HW123237   5.630   4.857   6.794
 7446SOL    HW223238   5.789   4.823   6.791
 7447SOL     OW23239   0.181   4.973   0.301
 7447SOL    HW123240   0.129   4.897   0.264
 7447SOL    HW223241   0.207   4.953   0.396
 7448SOL     OW23242   4.648   6.101   6.772
 7448SOL    HW123243   4.615   6.124   6.864
 7448SOL    HW223244   4.748   6.096   6.773
 7449SOL     OW23245   6.722   4.874   5.888
 7449SOL    HW123246   6.760   4.864   5.980
 7449SOL    HW223247   6.658   4.951   5.887
 7450SOL     OW23248   5.555   2.412   5.915
 7450SOL    HW123249   5.579   2.346   5.986
 7450SOL    HW223250   5.604   2.390   5.831
 7451SOL     OW23251   4.424   4.603   3.290
 7451SOL    HW123252   4.444   4.696   3.324
 7451SOL    HW223253   4.466   4.536   3.351
 7452SOL     OW23254   6.447   5.596   5.791
 7452SOL    HW123255   6.410   5.583   5.699
 7452SOL    HW223256   6.376   5.634   5.850
 7453SOL     OW23257   3.832   5.745   6.263
 7453SOL    HW123258   3.925   5.722   6.290
 7453SOL    HW223259   3.822   5.844   6.256
 7454SOL     OW23260   3.945   2.632   1.182
 7454SOL    HW123261   3.866   2.677   1.141
 7454SOL    HW223262   3.923   2.605   1.276
 7455SOL     OW23263   6.534   1.637   3.231
 7455SOL    HW123264   6.581   1.668   3.148
 7455SOL    HW223265   6.573   1.550   3.261
 7456SOL     OW23266   2.446   2.206   6.050
 7456SOL    HW123267   2.471   2.298   6.020
 7456SOL    HW223268   2.503   2.139   6.002
 7457SOL     OW23269   1.133   1.286   2.278
 7457SOL    HW123270   1.079   1.369   2.264
 7457SOL    HW223271   1.179   1.262   2.192
 7458SOL     OW23272   1.687   5.541   5.487
 7458SOL    HW123273   1.664   5.481   5.564
 7458SOL    HW223274   1.775   5.511   5.448
 7459SOL     OW23275   5.987   0.265   2.740
 7459SOL    HW123276   5.944   0.180   2.709
 7459SOL    HW223277   6.083   0.267   2.710
 7460SOL     OW23278   1.613   0.085   1.544
 7460SOL    HW123279   1.621   0.182   1.521
 7460SOL    HW223280   1.526   0.049   1.509
 7461SOL     OW23281   2.651   4.627   5.504
 7461SOL    HW123282   2.627   4.613   5.408
 7461SOL    HW223283   2.572   4.664   5.553
 7462SOL     OW23284   1.489   3.944   0.901
 7462SOL    HW123285   1.491   3.854   0.944
 7462SOL    HW223286   1.511   4.014   0.968
 7463SOL     OW23287   3.850   4.896   0.694
 7463SOL    HW123288   3.810   4.834   0.761
 7463SOL    HW223289   3.948   4.904   0.709
 7464SOL     OW23290   5.812   6.570   5.320
 7464SOL    HW123291   5.741   6.499   5.329
 7464SOL    HW223292   5.902   6.528   5.334
 7465SOL     OW23293   1.488   4.894   0.075
 7465SOL    HW123294   1.429   4.935   0.007
 7465SOL    HW223295   1.438   4.883   0.161
 7466SOL     OW23296   0.472   0.158   5.481
 7466SOL    HW123297   0.413   0.203   5.413
 7466SOL    HW223298   0.417   0.134   5.561
 7467SOL     OW23299   1.000   3.727   5.069
 7467SOL    HW123300   0.979   3.713   4.972
 7467SOL    HW223301   1.061   3.805   5.080
 7468SOL     OW23302   5.499   3.208   6.094
 7468SOL    HW123303   5.414   3.181   6.049
 7468SOL    HW223304   5.503   3.167   6.185
 7469SOL     OW23305   0.515   2.216   0.394
 7469SOL    HW123306   0.453   2.293   0.381
 7469SOL    HW223307   0.609   2.247   0.386
 7470SOL     OW23308   5.826   2.554   3.111
 7470SOL    HW123309   5.740   2.529   3.154
 7470SOL    HW223310   5.901   2.504   3.154
 7471SOL     OW23311   3.747   0.037   6.474
 7471SOL    HW123312   3.687   0.098   6.423
 7471SOL    HW223313   3.788   6.987   6.412
 7472SOL     OW23314   6.339   6.940   6.037
 7472SOL    HW123315   6.345   6.883   5.956
 7472SOL    HW223316   6.243   6.957   6.060
 7473SOL     OW23317   3.526   5.861   3.758
 7473SOL    HW123318   3.430   5.851   3.730
 7473SOL    HW223319   3.585   5.855   3.677
 7474SOL     OW23320   5.963   1.754   0.117
 7474SOL    HW123321   6.026   1.821   0.076
 7474SOL    HW223322   6.015   1.682   0.162
 7475SOL     OW23323   4.867   2.201   0.941
 7475SOL    HW123324   4.781   2.245   0.963
 7475SOL    HW223325   4.907   2.243   0.860
 7476SOL     OW23326   2.434   0.608   3.235
 7476SOL    HW123327   2.340   0.611   3.270
 7476SOL    HW223328   2.485   0.686   3.269
 7477SOL     OW23329   1.293   2.972   5.717
 7477SOL    HW123330   1.319   2.876   5.721
 7477SOL    HW223331   1.320   3.017   5.802
 7478SOL     OW23332   0.411   1.259   5.704
 7478SOL    HW123333   0.332   1.199   5.686
 7478SOL    HW223334   0.493   1.220   5.663
 7479SOL     OW23335   4.820   2.724   1.493
 7479SOL    HW123336   4.864   2.796   1.546
 7479SOL    HW223337   4.728   2.707   1.529
 7480SOL     OW23338   3.687   4.900   2.387
 7480SOL    HW123339   3.599   4.910   2.435
 7480SOL    HW223340   3.672   4.905   2.288
 7481SOL     OW23341   0.083   3.786   6.622
 7481SOL    HW123342   0.092   3.854   6.549
 7481SOL    HW223343   0.082   3.694   6.583
 7482SOL     OW23344   5.517   2.262   3.555
 7482SOL    HW123345   5.536   2.237   3.650
 7482SOL    HW223346   5.454   2.340   3.554
 7483SOL     OW23347   4.172   1.790   5.786
 7483SOL    HW123348   4.181   1.882   5.824
 7483SOL    HW223349   4.247   1.733   5.820
 7484SOL     OW23350   3.175   0.467   3.503
 7484SOL    HW123351   3.151   0.477   3.406
 7484SOL    HW223352   3.273   0.446   3.511
 7485SOL     OW23353   3.631   6.774   6.335
 7485SOL    HW123354   3.703   6.737   6.276
 7485SOL    HW223355   3.612   6.709   6.408
 7486SOL     OW23356   3.186   6.932   0.724
 7486SOL    HW123357   3.151   0.008   0.711
 7486SOL    HW223358   3.247   6.930   0.803
 7487SOL     OW23359   3.513   6.325   4.544
 7487SOL    HW123360   3.573   6.251   4.574
 7487SOL    HW223361   3.443   6.342   4.614
 7488SOL     OW23362   1.127   5.905   3.908
 7488SOL    HW123363   1.057   5.938   3.972
 7488SOL    HW223364   1.117   5.806   3.896
 7489SOL     OW23365   5.519   2.912   6.930
 7489SOL    HW123366   5.493   2.865   7.014
 7489SOL    HW223367   5.618   2.906   6.918
 7490SOL     OW23368   1.677   2.764   2.245
 7490SOL    HW123369   1.747   2.704   2.283
 7490SOL    HW223370   1.682   2.763   2.145
 7491SOL     OW23371   4.461   4.114   6.922
 7491SOL    HW123372   4.487   4.142   7.014
 7491SOL    HW223373   4.431   4.018   6.924
 7492SOL     OW23374   1.472   0.427   3.893
 7492SOL    HW123375   1.383   0.390   3.865
 7492SOL    HW223376   1.497   0.503   3.833
 7493SOL     OW23377   6.325   4.549   5.119
 7493SOL    HW123378   6.350   4.516   5.210
 7493SOL    HW223379   6.239   4.507   5.090
 7494SOL     OW23380   6.312   0.930   1.966
 7494SOL    HW123381   6.340   0.852   1.909
 7494SOL    HW223382   6.365   0.930   2.051
 7495SOL     OW23383   1.428   2.965   4.909
 7495SOL    HW123384   1.420   3.062   4.935
 7495SOL    HW223385   1.493   2.957   4.833
 7496SOL     OW23386   5.870   4.176   2.761
 7496SOL    HW123387   5.839   4.110   2.691
 7496SOL    HW223388   5.805   4.252   2.766
 7497SOL     OW23389   6.427   6.555   1.517
 7497SOL    HW123390   6.396   6.604   1.598
 7497SOL    HW223391   6.367   6.477   1.500
 7498SOL     OW23392   3.244   6.521   3.352
 7498SOL    HW123393   3.227   6.608   3.305
 7498SOL    HW223394   3.285   6.538   3.442
 7499SOL     OW23395   2.862   1.489   3.591
 7499SOL    HW123396   2.895   1.574   3.632
 7499SOL    HW223397   2.920   1.413   3.621
 7500SOL     OW23398   4.191   1.120   3.355
 7500SOL    HW123399   4.283   1.106   3.392
 7500SOL    HW223400   4.158   1.034   3.316
 7501SOL     OW23401   6.669   2.317   5.416
 7501SOL    HW123402   6.744   2.316   5.349
 7501SOL    HW223403   6.583   2.334   5.369
 7502SOL     OW23404   4.326   0.546   4.072
 7502SOL    HW123405   4.243   0.601   4.060
 7502SOL    HW223406   4.403   0.591   4.028
 7503SOL     OW23407   2.020   5.710   1.930
 7503SOL    HW123408   2.061   5.777   1.992
 7503SOL    HW223409   1.922   5.705   1.947
 7504SOL     OW23410   5.905   6.534   4.492
 7504SOL    HW123411   5.841   6.472   4.537
 7504SOL    HW223412   5.876   6.628   4.508
 7505SOL     OW23413   0.203   6.090   4.932
 7505SOL    HW123414   0.239   6.020   4.993
 7505SOL    HW223415   0.126   6.053   4.880
 7506SOL     OW23416   3.047   2.128   3.405
 7506SOL    HW123417   2.994   2.080   3.475
 7506SOL    HW223418   3.004   2.115   3.316
 7507SOL     OW23419   6.257   4.333   6.488
 7507SOL    HW123420   6.250   4.367   6.395
 7507SOL    HW223421   6.229   4.405   6.552
 7508SOL     OW23422   2.915   5.701   0.453
 7508SOL    HW123423   2.929   5.795   0.424
 7508SOL    HW223424   2.967   5.639   0.394
 7509SOL     OW23425   5.929   4.692   2.457
 7509SOL    HW123426   5.973   4.603   2.442
 7509SOL    HW223427   5.911   4.704   2.555
 7510SOL     OW23428   3.463   4.133   2.357
 7510SOL    HW123429   3.489   4.230   2.347
 7510SOL    HW223430   3.502   4.096   2.441
 7511SOL     OW23431   4.647   6.046   4.360
 7511SOL    HW123432   4.630   6.065   4.457
 7511SOL    HW223433   4.560   6.049   4.310
 7512SOL     OW23434   3.754   1.157   1.230
 7512SOL    HW123435   3.687   1.109   1.286
 7512SOL    HW223436   3.815   1.210   1.289
 7513SOL     OW23437   1.494   1.964   2.184
 7513SOL    HW123438   1.447   1.944   2.270
 7513SOL    HW223439   1.553   2.044   2.195
 7514SOL     OW23440   1.010   6.280   2.039
 7514SOL    HW123441   0.934   6.240   2.089
 7514SOL    HW223442   1.074   6.208   2.011
 7515SOL     OW23443   0.398   4.152   5.344
 7515SOL    HW123444   0.380   4.243   5.307
 7515SOL    HW223445   0.441   4.096   5.273
 7516SOL     OW23446   1.914   6.474   5.484
 7516SOL    HW123447   1.838   6.456   5.546
 7516SOL    HW223448   1.924   6.398   5.419
 7517SOL     OW23449   1.159   1.280   5.838
 7517SOL    HW123450   1.188   1.277   5.934
 7517SOL    HW223451   1.238   1.295   5.779
 7518SOL     OW23452   4.636   1.933   4.283
 7518SOL    HW123453   4.731   1.956   4.262
 7518SOL    HW223454   4.628   1.904   4.378
 7519SOL     OW23455   4.285   6.435   4.018
 7519SOL    HW123456   4.262   6.450   4.115
 7519SOL    HW223457   4.276   6.338   3.996
 7520SOL     OW23458   1.386   1.723   0.608
 7520SOL    HW123459   1.338   1.653   0.661
 7520SOL    HW223460   1.382   1.810   0.656
 7521SOL     OW23461   3.840   1.455   4.358
 7521SOL    HW123462   3.936   1.479   4.374
 7521SOL    HW223463   3.836   1.371   4.303
 7522SOL     OW23464   2.536   6.870   3.900
 7522SOL    HW123465   2.565   6.880   3.805
 7522SOL    HW223466   2.492   6.955   3.931
 7523SOL     OW23467   5.801   0.630   0.956
 7523SOL    HW123468   5.748   0.669   1.031
 7523SOL    HW223469   5.847   0.704   0.905
 7524SOL     OW23470   0.627   3.775   4.317
 7524SOL    HW123471   0.629   3.704   4.246
 7524SOL    HW223472   0.718   3.816   4.325
 7525SOL     OW23473   3.605   4.733   6.138
 7525SOL    HW123474   3.533   4.752   6.204
 7525SOL    HW223475   3.576   4.658   6.078
 7526SOL     OW23476   2.633   3.822   1.089
 7526SOL    HW123477   2.621   3.770   1.004
 7526SOL    HW223478   2.589   3.912   1.080
 7527SOL     OW23479   3.681   5.134   3.468
 7527SOL    HW123480   3.766   5.155   3.516
 7527SOL    HW223481   3.656   5.038   3.485
 7528SOL     OW23482   6.593   2.543   6.203
 7528SOL    HW123483   6.560   2.624   6.250
 7528SOL    HW223484   6.630   2.569   6.113
 7529SOL     OW23485   6.316   3.769   3.878
 7529SOL    HW123486   6.357   3.776   3.970
 7529SOL    HW223487   6.288   3.675   3.861
 7530SOL     OW23488   1.039   2.459   2.461
 7530SOL    HW123489   1.115   2.399   2.487
 7530SOL    HW223490   0.956   2.428   2.507
 7531SOL     OW23491   3.748   1.992   4.287
 7531SOL    HW123492   3.652   2.014   4.304
 7531SOL    HW223493   3.788   2.062   4.228
 7532SOL     OW23494   4.926   5.576   6.324
 7532SOL    HW123495   4.845   5.552   6.377
 7532SOL    HW223496   4.997   5.507   6.337
 7533SOL     OW23497   4.281   4.474   1.768
 7533SOL    HW123498   4.317   4.500   1.678
 7533SOL    HW223499   4.342   4.406   1.810
 7534SOL     OW23500   4.581   6.460   5.105
 7534SOL    HW123501   4.650   6.515   5.057
 7534SOL    HW223502   4.527   6.408   5.038
 7535SOL     OW23503   0.469   6.479   3.521
 7535SOL    HW123504   0.569   6.474   3.527
 7535SOL    HW223505   0.437   6.557   3.575
 7536SOL     OW23506   6.131   6.461   4.083
 7536SOL    HW123507   6.050   6.404   4.097
 7536SOL    HW223508   6.210   6.420   4.130
 7537SOL     OW23509   2.141   6.322   2.784
 7537SOL    HW123510   2.105   6.277   2.866
 7537SOL    HW223511   2.222   6.273   2.751
 7538SOL     OW23512   0.956   4.044   0.763
 7538SOL    HW123513   1.038   4.006   0.719
 7538SOL    HW223514   0.956   4.143   0.752
 7539SOL     OW23515   6.995   0.045   4.682
 7539SOL    HW123516   6.959   0.037   4.589
 7539SOL    HW223517   0.056   7.000   4.693
 7540SOL     OW23518   5.684   4.883   3.271
 7540SOL    HW123519   5.749   4.841   3.207
 7540SOL    HW223520   5.606   4.822   3.284
 7541SOL     OW23521   2.615   4.122   5.568
 7541SOL    HW123522   2.705   4.146   5.531
 7541SOL    HW223523   2.574   4.202   5.611
 7542SOL     OW23524   6.496   6.207   4.533
 7542SOL    HW123525   6.545   6.293   4.544
 7542SOL    HW223526   6.479   6.190   4.436
 7543SOL     OW23527   2.930   1.413   7.013
 7543SOL    HW123528   3.024   1.440   0.018
 7543SOL    HW223529   2.877   1.495   6.990
 7544SOL     OW23530   6.559   1.454   4.481
 7544SOL    HW123531   6.509   1.498   4.556
 7544SOL    HW223532   6.533   1.495   4.394
 7545SOL     OW23533   2.014   5.578   5.702
 7545SOL    HW123534   1.978   5.494   5.660
 7545SOL    HW223535   2.070   5.555   5.781
 7546SOL     OW23536   2.440   2.587   2.290
 7546SOL    HW123537   2.429   2.630   2.200
 7546SOL    HW223538   2.515   2.521   2.287
 7547SOL     OW23539   4.008   0.216   2.009
 7547SOL    HW123540   3.980   0.186   1.918
 7547SOL    HW223541   3.933   0.203   2.073
 7548SOL     OW23542   3.123   2.968   6.285
 7548SOL    HW123543   3.175   2.917   6.354
 7548SOL    HW223544   3.185   3.031   6.238
 7549SOL     OW23545   5.218   0.870   5.187
 7549SOL    HW123546   5.158   0.935   5.232
 7549SOL    HW223547   5.312   0.903   5.191
 7550SOL     OW23548   2.506   5.387   4.601
 7550SOL    HW123549   2.576   5.366   4.669
 7550SOL    HW223550   2.455   5.469   4.629
 7551SOL     OW23551   6.389   2.291   6.006
 7551SOL    HW123552   6.470   2.237   5.980
 7551SOL    HW223553   6.414   2.356   6.077
 7552SOL     OW23554   2.458   6.848   4.889
 7552SOL    HW123555   2.409   6.819   4.806
 7552SOL    HW223556   2.554   6.823   4.882
 7553SOL     OW23557   6.016   6.775   5.817
 7553SOL    HW123558   6.088   6.808   5.755
 7553SOL    HW223559   5.937   6.835   5.810
 7554SOL     OW23560   4.214   1.431   0.943
 7554SOL    HW123561   4.185   1.342   0.907
 7554SOL    HW223562   4.290   1.465   0.887
 7555SOL     OW23563   4.381   5.041   4.321
 7555SOL    HW123564   4.344   5.071   4.409
 7555SOL    HW223565   4.317   4.976   4.279
 7556SOL     OW23566   0.872   6.598   1.561
 7556SOL    HW123567   0.791   6.655   1.575
 7556SOL    HW223568   0.954   6.656   1.561
 7557SOL     OW23569   4.749   6.991   1.671
 7557SOL    HW123570   4.767   0.067   1.639
 7557SOL    HW223571   4.677   6.950   1.616
 7558SOL     OW23572   0.430   1.968   3.780
 7558SOL    HW123573   0.472   1.914   3.707
 7558SOL    HW223574   0.468   2.060   3.779
 7559SOL     OW23575   2.716   1.896   4.830
 7559SOL    HW123576   2.680   1.947   4.908
 7559SOL    HW223577   2.688   1.800   4.837
 7560SOL     OW23578   1.511   1.092   5.738
 7560SOL    HW123579   1.489   1.076   5.834
 7560SOL    HW223580   1.586   1.158   5.731
 7561SOL     OW23581   5.955   1.592   5.460
 7561SOL    HW123582   6.016   1.522   5.424
 7561SOL    HW223583   5.986   1.620   5.551
 7562SOL     OW23584   2.130   5.457   3.043
 7562SOL    HW123585   2.168   5.452   3.135
 7562SOL    HW223586   2.031   5.471   3.048
 7563SOL     OW23587   3.498   5.981   2.386
 7563SOL    HW123588   3.575   5.977   2.322
 7563SOL    HW223589   3.526   5.944   2.474
 7564SOL     OW23590   3.751   1.599   5.278
 7564SOL    HW123591   3.815   1.627   5.207
 7564SOL    HW223592   3.659   1.589   5.239
 7565SOL     OW23593   6.487   3.786   5.816
 7565SOL    HW123594   6.519   3.880   5.808
 7565SOL    HW223595   6.427   3.778   5.896
 7566SOL     OW23596   4.539   4.790   1.559
 7566SOL    HW123597   4.487   4.705   1.552
 7566SOL    HW223598   4.618   4.786   1.499
 7567SOL     OW23599   1.045   6.887   4.148
 7567SOL    HW123600   1.050   6.913   4.245
 7567SOL    HW223601   1.102   6.949   4.094
 7568SOL     OW23602   5.988   4.844   1.555
 7568SOL    HW123603   5.954   4.885   1.471
 7568SOL    HW223604   5.994   4.745   1.544
 7569SOL     OW23605   4.831   3.625   0.405
 7569SOL    HW123606   4.833   3.597   0.310
 7569SOL    HW223607   4.863   3.720   0.413
 7570SOL     OW23608   0.804   3.258   2.351
 7570SOL    HW123609   0.903   3.246   2.345
 7570SOL    HW223610   0.773   3.321   2.280
 7571SOL     OW23611   4.440   2.076   2.700
 7571SOL    HW123612   4.385   2.010   2.650
 7571SOL    HW223613   4.380   2.142   2.746
 7572SOL     OW23614   4.493   0.019   3.794
 7572SOL    HW123615   4.509   0.106   3.749
 7572SOL    HW223616   4.580   6.990   3.810
 7573SOL     OW23617   4.029   6.721   6.212
 7573SOL    HW123618   4.119   6.678   6.215
 7573SOL    HW223619   4.039   6.815   6.179
 7574SOL     OW23620   0.482   2.218   3.833
 7574SOL    HW123621   0.392   2.203   3.875
 7574SOL    HW223622   0.537   2.278   3.892
 7575SOL     OW23623   0.259   6.318   2.580
 7575SOL    HW123624   0.242   6.224   2.610
 7575SOL    HW223625   0.324   6.361   2.642
 7576SOL     OW23626   5.053   2.325   0.075
 7576SOL    HW123627   5.052   2.274   0.161
 7576SOL    HW223628   5.062   2.262   7.015
 7577SOL     OW23629   0.477   0.835   0.347
 7577SOL    HW123630   0.500   0.908   0.411
 7577SOL    HW223631   0.547   0.764   0.351
 7578SOL     OW23632   6.502   5.912   3.511
 7578SOL    HW123633   6.414   5.867   3.500
 7578SOL    HW223634   6.514   5.940   3.606
 7579SOL     OW23635   1.014   1.785   6.990
 7579SOL    HW123636   0.927   1.788   6.941
 7579SOL    HW223637   1.032   1.874   0.015
 7580SOL     OW23638   2.211   5.239   3.664
 7580SOL    HW123639   2.123   5.193   3.677
 7580SOL    HW223640   2.256   5.204   3.582
 7581SOL     OW23641   6.908   0.630   2.304
 7581SOL    HW123642   6.894   0.711   2.362
 7581SOL    HW223643   6.989   0.581   2.336
 7582SOL     OW23644   2.238   1.943   6.377
 7582SOL    HW123645   2.266   2.036   6.356
 7582SOL    HW223646   2.272   1.881   6.306
 7583SOL     OW23647   5.459   3.380   2.908
 7583SOL    HW123648   5.393   3.450   2.936
 7583SOL    HW223649   5.415   3.315   2.847
 7584SOL     OW23650   0.752   1.313   3.538
 7584SOL    HW123651   0.689   1.235   3.531
 7584SOL    HW223652   0.843   1.281   3.561
 7585SOL     OW23653   0.834   1.280   6.052
 7585SOL    HW123654   0.782   1.198   6.029
 7585SOL    HW223655   0.865   1.324   5.968
 7586SOL     OW23656   2.015   6.904   3.330
 7586SOL    HW123657   1.948   6.832   3.347
 7586SOL    HW223658   1.968   6.992   3.321
 7587SOL     OW23659   4.157   0.107   1.382
 7587SOL    HW123660   4.107   0.154   1.309
 7587SOL    HW223661   4.146   0.157   1.468
 7588SOL     OW23662   2.346   2.638   4.551
 7588SOL    HW123663   2.264   2.583   4.535
 7588SOL    HW223664   2.421   2.601   4.497
 7589SOL     OW23665   0.279   0.260   2.724
 7589SOL    HW123666   0.278   0.168   2.685
 7589SOL    HW223667   0.247   0.326   2.656
 7590SOL     OW23668   6.342   1.043   0.098
 7590SOL    HW123669   6.273   1.111   0.074
 7590SOL    HW223670   6.398   1.077   0.174
 7591SOL     OW23671   3.204   2.940   4.988
 7591SOL    HW123672   3.149   2.892   5.056
 7591SOL    HW223673   3.170   2.918   4.897
 7592SOL     OW23674   6.747   6.582   3.816
 7592SOL    HW123675   6.807   6.659   3.794
 7592SOL    HW223676   6.722   6.534   3.731
 7593SOL     OW23677   0.440   0.832   5.532
 7593SOL    HW123678   0.523   0.814   5.585
 7593SOL    HW223679   0.464   0.852   5.438
 7594SOL     OW23680   0.100   3.976   6.432
 7594SOL    HW123681   0.099   4.072   6.460
 7594SOL    HW223682   0.184   3.956   6.383
 7595SOL     OW23683   1.187   3.489   0.187
 7595SOL    HW123684   1.232   3.444   0.264
 7595SOL    HW223685   1.128   3.423   0.140
 7596SOL     OW23686   3.280   1.433   6.468
 7596SOL    HW123687   3.236   1.380   6.396
 7596SOL    HW223688   3.220   1.437   6.548
 7597SOL     OW23689   1.714   5.049   1.568
 7597SOL    HW123690   1.627   5.098   1.571
 7597SOL    HW223691   1.761   5.058   1.656
 7598SOL     OW23692   6.185   0.542   1.805
 7598SOL    HW123693   6.150   0.635   1.797
 7598SOL    HW223694   6.138   0.495   1.879
 7599SOL     OW23695   3.109   3.924   1.154
 7599SOL    HW123696   3.107   3.828   1.128
 7599SOL    HW223697   3.020   3.951   1.191
 7600SOL     OW23698   1.181   6.734   3.811
 7600SOL    HW123699   1.182   6.779   3.900
 7600SOL    HW223700   1.195   6.635   3.823
 7601SOL     OW23701   3.141   6.985   2.087
 7601SOL    HW123702   3.078   0.038   2.054
 7601SOL    HW223703   3.092   6.899   2.098
 7602SOL     OW23704   0.319   1.604   1.146
 7602SOL    HW123705   0.361   1.529   1.196
 7602SOL    HW223706   0.254   1.651   1.205
 7603SOL     OW23707   3.787   1.041   5.885
 7603SOL    HW123708   3.858   0.974   5.905
 7603SOL    HW223709   3.807   1.085   5.797
 7604SOL     OW23710   1.005   2.396   4.924
 7604SOL    HW123711   1.059   2.425   4.846
 7604SOL    HW223712   1.020   2.459   5.000
 7605SOL     OW23713   2.205   6.205   6.820
 7605SOL    HW123714   2.133   6.274   6.814
 7605SOL    HW223715   2.184   6.129   6.758
 7606SOL     OW23716   6.810   0.944   3.542
 7606SOL    HW123717   6.738   0.888   3.583
 7606SOL    HW223718   6.802   0.940   3.443
 7607SOL     OW23719   1.758   6.082   5.212
 7607SOL    HW123720   1.694   6.079   5.289
 7607SOL    HW223721   1.708   6.064   5.127
 7608SOL     OW23722   6.786   2.101   6.598
 7608SOL    HW123723   6.794   2.190   6.642
 7608SOL    HW223724   6.699   2.096   6.549
 7609SOL     OW23725   3.018   1.309   4.669
 7609SOL    HW123726   3.093   1.248   4.696
 7609SOL    HW223727   3.023   1.327   4.571
 7610SOL     OW23728   4.336   5.480   4.632
 7610SOL    HW123729   4.421   5.522   4.599
 7610SOL    HW223730   4.260   5.543   4.615
 7611SOL     OW23731   4.711   2.719   0.895
 7611SOL    HW123732   4.644   2.655   0.857
 7611SOL    HW223733   4.780   2.740   0.825
 7612SOL     OW23734   4.115   2.215   3.052
 7612SOL    HW123735   4.139   2.232   3.147
 7612SOL    HW223736   4.071   2.125   3.044
 7613SOL     OW23737   1.089   0.425   0.893
 7613SOL    HW123738   1.017   0.495   0.888
 7613SOL    HW223739   1.159   0.454   0.958
 7614SOL     OW23740   5.396   3.926   0.395
 7614SOL    HW123741   5.391   3.835   0.435
 7614SOL    HW223742   5.395   3.918   0.295
 7615SOL     OW23743   6.113   3.183   4.858
 7615SOL    HW123744   6.155   3.147   4.941
 7615SOL    HW223745   6.124   3.282   4.855
 7616SOL     OW23746   6.554   6.812   3.086
 7616SOL    HW123747   6.511   6.745   3.147
 7616SOL    HW223748   6.522   6.797   2.993
 7617SOL     OW23749   6.311   4.216   3.126
 7617SOL    HW123750   6.383   4.148   3.113
 7617SOL    HW223751   6.234   4.196   3.065
 7618SOL     OW23752   2.351   2.397   0.265
 7618SOL    HW123753   2.433   2.453   0.281
 7618SOL    HW223754   2.312   2.419   0.176
 7619SOL     OW23755   1.811   1.550   4.663
 7619SOL    HW123756   1.822   1.649   4.674
 7619SOL    HW223757   1.884   1.515   4.604
 7620SOL     OW23758   3.003   4.424   1.219
 7620SOL    HW123759   3.067   4.478   1.273
 7620SOL    HW223760   2.933   4.484   1.180
 7621SOL     OW23761   6.078   4.032   0.219
 7621SOL    HW123762   6.030   4.117   0.239
 7621SOL    HW223763   6.148   4.016   0.288
 7622SOL     OW23764   3.178   3.889   1.864
 7622SOL    HW123765   3.133   3.825   1.926
 7622SOL    HW223766   3.116   3.965   1.843
 7623SOL     OW23767   5.415   4.398   1.752
 7623SOL    HW123768   5.399   4.494   1.777
 7623SOL    HW223769   5.389   4.339   1.827
 7624SOL     OW23770   1.100   3.404   2.535
 7624SOL    HW123771   1.084   3.324   2.477
 7624SOL    HW223772   1.163   3.380   2.609
 7625SOL     OW23773   5.217   0.725   2.065
 7625SOL    HW123774   5.238   0.752   1.970
 7625SOL    HW223775   5.160   0.643   2.064
 7626SOL     OW23776   4.539   0.225   6.690
 7626SOL    HW123777   4.506   0.273   6.608
 7626SOL    HW223778   4.556   0.292   6.763
 7627SOL     OW23779   3.900   3.204   6.432
 7627SOL    HW123780   3.825   3.226   6.370
 7627SOL    HW223781   3.936   3.289   6.471
 7628SOL     OW23782   3.316   2.644   0.224
 7628SOL    HW123783   3.318   2.737   0.260
 7628SOL    HW223784   3.260   2.586   0.283
 7629SOL     OW23785   6.142   2.198   2.880
 7629SOL    HW123786   6.084   2.279   2.886
 7629SOL    HW223787   6.232   2.224   2.846
 7630SOL     OW23788   1.089   6.453   3.783
 7630SOL    HW123789   1.005   6.444   3.836
 7630SOL    HW223790   1.072   6.427   3.688
 7631SOL     OW23791   1.002   0.623   5.189
 7631SOL    HW123792   1.009   0.659   5.095
 7631SOL    HW223793   1.033   0.528   5.190
 7632SOL     OW23794   4.903   5.823   1.057
 7632SOL    HW123795   4.945   5.784   1.139
 7632SOL    HW223796   4.907   5.757   0.982
 7633SOL     OW23797   6.150   1.042   1.364
 7633SOL    HW123798   6.107   1.006   1.281
 7633SOL    HW223799   6.147   0.972   1.436
 7634SOL     OW23800   7.011   1.964   6.585
 7634SOL    HW123801   6.993   1.866   6.592
 7634SOL    HW223802   6.925   2.013   6.574
 7635SOL     OW23803   1.944   3.053   5.605
 7635SOL    HW123804   1.982   3.067   5.513
 7635SOL    HW223805   1.883   3.129   5.628
 7636SOL     OW23806   6.573   4.041   4.096
 7636SOL    HW123807   6.625   4.077   4.173
 7636SOL    HW223808   6.487   4.000   4.129
 7637SOL     OW23809   0.918   4.606   4.897
 7637SOL    HW123810   0.902   4.560   4.984
 7637SOL    HW223811   0.830   4.628   4.855
 7638SOL     OW23812   0.334   6.029   1.364
 7638SOL    HW123813   0.276   6.003   1.287
 7638SOL    HW223814   0.404   6.093   1.332
 7639SOL     OW23815   1.454   0.651   0.412
 7639SOL    HW123816   1.440   0.748   0.391
 7639SOL    HW223817   1.376   0.598   0.378
 7640SOL     OW23818   3.153   1.457   1.000
 7640SOL    HW123819   3.102   1.542   0.985
 7640SOL    HW223820   3.240   1.478   1.046
 7641SOL     OW23821   0.016   4.092   4.575
 7641SOL    HW123822   7.011   4.189   4.565
 7641SOL    HW223823   0.009   4.067   4.672
 7642SOL     OW23824   5.470   0.857   3.223
 7642SOL    HW123825   5.442   0.905   3.140
 7642SOL    HW223826   5.390   0.837   3.279
 7643SOL     OW23827   5.119   3.787   4.426
 7643SOL    HW123828   5.081   3.733   4.501
 7643SOL    HW223829   5.206   3.747   4.397
 7644SOL     OW23830   4.932   3.598   0.975
 7644SOL    HW123831   5.005   3.549   1.023
 7644SOL    HW223832   4.971   3.673   0.922
 7645SOL     OW23833   3.919   4.916   0.027
 7645SOL    HW123834   3.895   4.905   6.948
 7645SOL    HW223835   3.873   4.846   0.081
 7646SOL     OW23836   6.676   1.691   0.290
 7646SOL    HW123837   6.606   1.636   0.336
 7646SOL    HW223838   6.756   1.699   0.350
 7647SOL     OW23839   0.031   2.186   4.194
 7647SOL    HW123840   0.007   2.101   4.147
 7647SOL    HW223841   6.971   2.217   4.249
 7648SOL     OW23842   2.113   2.087   1.940
 7648SOL    HW123843   2.097   2.152   2.015
 7648SOL    HW223844   2.100   2.134   1.853
 7649SOL     OW23845   4.015   1.076   6.662
 7649SOL    HW123846   4.065   1.143   6.716
 7649SOL    HW223847   4.015   1.104   6.566
 7650SOL     OW23848   4.035   2.349   0.201
 7650SOL    HW123849   4.082   2.312   0.121
 7650SOL    HW223850   3.959   2.288   0.226
 7651SOL     OW23851   3.341   5.237   6.444
 7651SOL    HW123852   3.358   5.261   6.348
 7651SOL    HW223853   3.272   5.299   6.482
 7652SOL     OW23854   1.044   0.868   3.898
 7652SOL    HW123855   1.020   0.861   3.995
 7652SOL    HW223856   1.106   0.945   3.884
 7653SOL     OW23857   2.597   0.564   0.024
 7653SOL    HW123858   2.649   0.569   6.956
 7653SOL    HW223859   2.657   0.583   0.101
 7654SOL     OW23860   6.238   1.928   6.257
 7654SOL    HW123861   6.316   1.967   6.306
 7654SOL    HW223862   6.194   1.999   6.202
 7655SOL     OW23863   3.611   1.477   4.511
 7655SOL    HW123864   3.558   1.464   4.427
 7655SOL    HW223865   3.707   1.494   4.488
 7656SOL     OW23866   5.656   4.113   7.017
 7656SOL    HW123867   5.726   4.062   6.967
 7656SOL    HW223868   5.633   4.197   6.967
 7657SOL     OW23869   1.334   4.069   4.803
 7657SOL    HW123870   1.369   4.144   4.746
 7657SOL    HW223871   1.389   4.061   4.886
 7658SOL     OW23872   2.706   0.712   0.740
 7658SOL    HW123873   2.608   0.692   0.741
 7658SOL    HW223874   2.756   0.628   0.717
 7659SOL     OW23875   4.992   4.279   5.938
 7659SOL    HW123876   4.903   4.321   5.954
 7659SOL    HW223877   4.986   4.181   5.951
 7660SOL     OW23878   6.812   5.661   5.835
 7660SOL    HW123879   6.752   5.733   5.870
 7660SOL    HW223880   6.772   5.620   5.754
 7661SOL     OW23881   3.969   1.203   4.957
 7661SOL    HW123882   3.894   1.219   5.021
 7661SOL    HW223883   3.952   1.254   4.872
 7662SOL     OW23884   6.959   5.977   1.143
 7662SOL    HW123885   6.917   5.932   1.064
 7662SOL    HW223886   6.977   5.909   1.214
 7663SOL     OW23887   0.586   5.251   5.017
 7663SOL    HW123888   0.621   5.226   5.107
 7663SOL    HW223889   0.634   5.200   4.946
 7664SOL     OW23890   3.984   2.124   2.390
 7664SOL    HW123891   3.965   2.028   2.411
 7664SOL    HW223892   3.903   2.179   2.410
 7665SOL     OW23893   3.691   0.460   5.582
 7665SOL    HW123894   3.668   0.520   5.659
 7665SOL    HW223895   3.652   0.370   5.597
 7666SOL     OW23896   5.507   4.628   4.070
 7666SOL    HW123897   5.568   4.674   4.136
 7666SOL    HW223898   5.412   4.643   4.097
 7667SOL     OW23899   4.294   6.209   2.758
 7667SOL    HW123900   4.256   6.291   2.716
 7667SOL    HW223901   4.299   6.136   2.690
 7668SOL     OW23902   1.592   5.736   0.823
 7668SOL    HW123903   1.552   5.805   0.883
 7668SOL    HW223904   1.585   5.646   0.867
 7669SOL     OW23905   2.598   1.338   6.780
 7669SOL    HW123906   2.586   1.310   6.685
 7669SOL    HW223907   2.559   1.429   6.793
 7670SOL     OW23908   0.863   0.695   0.596
 7670SOL    HW123909   0.783   0.675   0.541
 7670SOL    HW223910   0.885   0.793   0.590
 7671SOL     OW23911   3.124   6.719   1.029
 7671SOL    HW123912   3.066   6.800   1.022
 7671SOL    HW223913   3.184   6.727   1.108
 7672SOL     OW23914   5.163   4.405   2.068
 7672SOL    HW123915   5.197   4.494   2.039
 7672SOL    HW223916   5.230   4.362   2.129
 7673SOL     OW23917   1.868   6.820   4.907
 7673SOL    HW123918   1.804   6.886   4.867
 7673SOL    HW223919   1.858   6.732   4.861
 7674SOL     OW23920   4.149   5.914   4.732
 7674SOL    HW123921   4.147   5.949   4.825
 7674SOL    HW223922   4.111   5.982   4.669
 7675SOL     OW23923   4.925   5.942   3.104
 7675SOL    HW123924   5.013   5.963   3.147
 7675SOL    HW223925   4.884   5.863   3.149
 7676SOL     OW23926   3.522   3.065   5.431
 7676SOL    HW123927   3.489   2.982   5.477
 7676SOL    HW223928   3.486   3.069   5.338
 7677SOL     OW23929   6.277   4.920   0.476
 7677SOL    HW123930   6.289   5.018   0.465
 7677SOL    HW223931   6.181   4.896   0.457
 7678SOL     OW23932   3.337   1.859   4.979
 7678SOL    HW123933   3.400   1.849   5.056
 7678SOL    HW223934   3.266   1.925   5.003
 7679SOL     OW23935   3.786   5.892   4.718
 7679SOL    HW123936   3.855   5.865   4.651
 7679SOL    HW223937   3.725   5.960   4.678
 7680SOL     OW23938   1.924   6.665   4.370
 7680SOL    HW123939   1.941   6.581   4.318
 7680SOL    HW223940   1.834   6.660   4.413
 7681SOL     OW23941   2.306   2.864   5.715
 7681SOL    HW123942   2.353   2.951   5.703
 7681SOL    HW223943   2.319   2.832   5.809
 7682SOL     OW23944   3.144   0.994   2.650
 7682SOL    HW123945   3.104   1.058   2.584
 7682SOL    HW223946   3.241   1.017   2.663
 7683SOL     OW23947   0.803   4.301   4.588
 7683SOL    HW123948   0.720   4.263   4.630
 7683SOL    HW223949   0.869   4.325   4.659
 7684SOL     OW23950   5.200   3.352   1.416
 7684SOL    HW123951   5.165   3.303   1.337
 7684SOL    HW223952   5.154   3.320   1.499
 7685SOL     OW23953   2.577   0.346   0.775
 7685SOL    HW123954   2.490   0.329   0.822
 7685SOL    HW223955   2.562   0.349   0.676
 7686SOL     OW23956   6.819   6.843   4.765
 7686SOL    HW123957   6.854   6.802   4.680
 7686SOL    HW223958   6.827   6.942   4.760
 7687SOL     OW23959   5.147   3.140   6.323
 7687SOL    HW123960   5.200   3.095   6.251
 7687SOL    HW223961   5.095   3.216   6.285
 7688SOL     OW23962   6.258   2.939   6.634
 7688SOL    HW123963   6.294   2.986   6.714
 7688SOL    HW223964   6.301   2.976   6.552
 7689SOL     OW23965   5.311   0.329   1.747
 7689SOL    HW123966   5.277   0.236   1.742
 7689SOL    HW223967   5.243   0.387   1.792
 7690SOL     OW23968   6.193   5.080   2.630
 7690SOL    HW123969   6.244   5.060   2.546
 7690SOL    HW223970   6.160   4.994   2.670
 7691SOL     OW23971   4.852   3.236   4.068
 7691SOL    HW123972   4.840   3.292   4.150
 7691SOL    HW223973   4.808   3.147   4.082
 7692SOL     OW23974   2.698   6.618   2.338
 7692SOL    HW123975   2.657   6.696   2.385
 7692SOL    HW223976   2.635   6.540   2.340
 7693SOL     OW23977   3.042   1.206   1.876
 7693SOL    HW123978   3.026   1.110   1.902
 7693SOL    HW223979   3.097   1.251   1.946
 7694SOL     OW23980   4.538   1.947   6.644
 7694SOL    HW123981   4.556   1.978   6.551
 7694SOL    HW223982   4.614   1.889   6.675
 7695SOL     OW23983   5.292   0.428   3.735
 7695SOL    HW123984   5.276   0.332   3.713
 7695SOL    HW223985   5.353   0.468   3.666
 7696SOL     OW23986   2.407   2.213   5.740
 7696SOL    HW123987   2.424   2.153   5.662
 7696SOL    HW223988   2.331   2.177   5.794
 7697SOL     OW23989   6.064   6.833   3.255
 7697SOL    HW123990   6.030   6.885   3.334
 7697SOL    HW223991   6.110   6.751   3.288
 7698SOL     OW23992   6.077   3.005   1.099
 7698SOL    HW123993   6.109   3.093   1.134
 7698SOL    HW223994   6.031   3.018   1.012
 7699SOL     OW23995   4.632   6.320   5.753
 7699SOL    HW123996   4.601   6.374   5.831
 7699SOL    HW223997   4.729   6.298   5.764
 7700SOL     OW23998   5.246   5.519   1.604
 7700SOL    HW123999   5.213   5.507   1.698
 7700SOL    HW224000   5.298   5.438   1.577
 7701SOL     OW24001   1.613   2.295   6.205
 7701SOL    HW124002   1.609   2.335   6.296
 7701SOL    HW224003   1.570   2.205   6.206
 7702SOL     OW24004   5.035   6.667   4.542
 7702SOL    HW124005   5.102   6.610   4.588
 7702SOL    HW224006   5.006   6.740   4.603
 7703SOL     OW24007   0.081   6.686   5.293
 7703SOL    HW124008   0.160   6.740   5.265
 7703SOL    HW224009   0.065   6.613   5.227
 7704SOL     OW24010   1.180   1.584   4.989
 7704SOL    HW124011   1.144   1.601   4.897
 7704SOL    HW224012   1.271   1.543   4.982
 7705SOL     OW24013   1.204   5.025   6.828
 7705SOL    HW124014   1.258   4.942   6.844
 7705SOL    HW224015   1.206   5.083   6.909
 7706SOL     OW24016   3.442   3.327   2.409
 7706SOL    HW124017   3.511   3.316   2.337
 7706SOL    HW224018   3.360   3.369   2.371
 7707SOL     OW24019   6.475   4.531   6.713
 7707SOL    HW124020   6.462   4.578   6.626
 7707SOL    HW224021   6.507   4.596   6.782
 7708SOL     OW24022   1.597   0.125   4.052
 7708SOL    HW124023   1.662   0.100   4.124
 7708SOL    HW224024   1.509   0.149   4.093
 7709SOL     OW24025   6.770   5.024   1.364
 7709SOL    HW124026   6.831   4.963   1.414
 7709SOL    HW224027   6.813   5.113   1.352
 7710SOL     OW24028   6.127   2.762   1.384
 7710SOL    HW124029   6.061   2.836   1.392
 7710SOL    HW224030   6.153   2.751   1.288
 7711SOL     OW24031   0.472   4.538   4.624
 7711SOL    HW124032   0.481   4.442   4.597
 7711SOL    HW224033   0.382   4.572   4.598
 7712SOL     OW24034   0.294   5.266   5.145
 7712SOL    HW124035   0.366   5.335   5.144
 7712SOL    HW224036   0.205   5.311   5.144
 7713SOL     OW24037   1.026   4.385   0.273
 7713SOL    HW124038   1.046   4.289   0.253
 7713SOL    HW224039   0.959   4.390   0.347
 7714SOL     OW24040   5.996   1.898   5.089
 7714SOL    HW124041   6.091   1.871   5.106
 7714SOL    HW224042   5.958   1.841   5.016
 7715SOL     OW24043   3.435   3.218   5.711
 7715SOL    HW124044   3.442   3.207   5.810
 7715SOL    HW224045   3.497   3.154   5.666
 7716SOL     OW24046   1.388   6.958   6.088
 7716SOL    HW124047   1.361   6.865   6.111
 7716SOL    HW224048   1.390   6.968   5.988
 7717SOL     OW24049   0.261   2.531   6.401
 7717SOL    HW124050   0.305   2.451   6.442
 7717SOL    HW224051   0.175   2.550   6.447
 7718SOL     OW24052   0.213   3.186   2.850
 7718SOL    HW124053   0.275   3.108   2.838
 7718SOL    HW224054   0.202   3.205   2.947
 7719SOL     OW24055   1.774   5.475   5.215
 7719SOL    HW124056   1.787   5.572   5.194
 7719SOL    HW224057   1.860   5.426   5.198
 7720SOL     OW24058   4.621   1.038   6.592
 7720SOL    HW124059   4.705   1.035   6.538
 7720SOL    HW224060   4.575   0.949   6.587
 7721SOL     OW24061   6.433   6.338   2.697
 7721SOL    HW124062   6.466   6.335   2.602
 7721SOL    HW224063   6.367   6.265   2.711
 7722SOL     OW24064   1.141   6.070   3.463
 7722SOL    HW124065   1.136   6.047   3.366
 7722SOL    HW224066   1.234   6.055   3.496
 7723SOL     OW24067   4.869   4.225   6.759
 7723SOL    HW124068   4.777   4.190   6.739
 7723SOL    HW224069   4.936   4.176   6.704
 7724SOL     OW24070   1.977   3.960   0.795
 7724SOL    HW124071   1.974   4.060   0.801
 7724SOL    HW224072   2.049   3.933   0.731
 7725SOL     OW24073   5.581   2.800   4.618
 7725SOL    HW124074   5.633   2.886   4.622
 7725SOL    HW224075   5.636   2.726   4.655
 7726SOL     OW24076   1.708   3.831   6.777
 7726SOL    HW124077   1.700   3.846   6.679
 7726SOL    HW224078   1.800   3.797   6.798
 7727SOL     OW24079   5.203   0.251   2.099
 7727SOL    HW124080   5.117   0.267   2.149
 7727SOL    HW224081   5.255   0.336   2.095
 7728SOL     OW24082   1.759   3.812   4.566
 7728SOL    HW124083   1.735   3.767   4.480
 7728SOL    HW224084   1.688   3.793   4.634
 7729SOL     OW24085   0.156   1.127   2.631
 7729SOL    HW124086   0.238   1.179   2.652
 7729SOL    HW224087   0.137   1.062   2.705
 7730SOL     OW24088   6.506   4.627   5.360
 7730SOL    HW124089   6.595   4.646   5.318
 7730SOL    HW224090   6.516   4.552   5.426
 7731SOL     OW24091   6.259   6.978   5.691
 7731SOL    HW124092   6.337   7.008   5.636
 7731SOL    HW224093   6.280   6.890   5.734
 7732SOL     OW24094   4.239   0.444   6.343
 7732SOL    HW124095   4.291   0.529   6.333
 7732SOL    HW224096   4.211   0.411   6.252
 7733SOL     OW24097   6.826   5.237   1.580
 7733SOL    HW124098   6.732   5.223   1.550
 7733SOL    HW224099   6.853   5.163   1.642
 7734SOL     OW24100   3.824   3.994   3.694
 7734SOL    HW124101   3.905   3.974   3.749
 7734SOL    HW224102   3.773   4.069   3.737
 7735SOL     OW24103   0.537   6.033   0.759
 7735SOL    HW124104   0.602   6.108   0.747
 7735SOL    HW224105   0.475   6.030   0.680
 7736SOL     OW24106   1.637   2.472   6.965
 7736SOL    HW124107   1.570   2.434   6.901
 7736SOL    HW224108   1.645   2.412   0.028
 7737SOL     OW24109   4.383   4.598   6.972
 7737SOL    HW124110   4.351   4.515   7.017
 7737SOL    HW224111   4.313   4.669   6.979
 7738SOL     OW24112   2.000   0.570   5.130
 7738SOL    HW124113   2.016   0.475   5.106
 7738SOL    HW224114   2.086   0.620   5.127
 7739SOL     OW24115   1.753   2.251   0.319
 7739SOL    HW124116   1.725   2.326   0.379
 7739SOL    HW224117   1.813   2.287   0.247
 7740SOL     OW24118   2.499   0.745   4.701
 7740SOL    HW124119   2.527   0.840   4.683
 7740SOL    HW224120   2.572   0.683   4.672
 7741SOL     OW24121   0.416   4.508   6.088
 7741SOL    HW124122   0.483   4.458   6.143
 7741SOL    HW224123   0.444   4.604   6.080
 7742SOL     OW24124   4.742   2.270   3.671
 7742SOL    HW124125   4.684   2.349   3.690
 7742SOL    HW224126   4.832   2.302   3.641
 7743SOL     OW24127   3.725   1.608   5.804
 7743SOL    HW124128   3.756   1.572   5.716
 7743SOL    HW224129   3.776   1.692   5.825
 7744SOL     OW24130   1.057   6.886   4.410
 7744SOL    HW124131   1.153   6.868   4.432
 7744SOL    HW224132   1.002   6.805   4.432
 7745SOL     OW24133   2.761   6.699   1.363
 7745SOL    HW124134   2.740   6.737   1.272
 7745SOL    HW224135   2.809   6.612   1.353
 7746SOL     OW24136   0.531   5.732   1.700
 7746SOL    HW124137   0.545   5.674   1.620
 7746SOL    HW224138   0.453   5.792   1.685
 7747SOL     OW24139   0.039   5.872   0.320
 7747SOL    HW124140   0.034   5.807   0.396
 7747SOL    HW224141   6.996   5.950   0.340
 7748SOL     OW24142   4.346   1.407   5.885
 7748SOL    HW124143   4.382   1.374   5.972
 7748SOL    HW224144   4.254   1.370   5.870
 7749SOL     OW24145   3.911   3.043   2.974
 7749SOL    HW124146   3.903   2.964   2.912
 7749SOL    HW224147   3.855   3.027   3.055
 7750SOL     OW24148   5.138   4.917   5.720
 7750SOL    HW124149   5.083   4.998   5.701
 7750SOL    HW224150   5.166   4.917   5.816
 7751SOL     OW24151   6.830   1.395   4.529
 7751SOL    HW124152   6.861   1.414   4.622
 7751SOL    HW224153   6.738   1.433   4.517
 7752SOL     OW24154   6.435   5.133   5.134
 7752SOL    HW124155   6.433   5.033   5.136
 7752SOL    HW224156   6.513   5.166   5.187
 7753SOL     OW24157   2.598   1.034   4.929
 7753SOL    HW124158   2.606   1.032   4.829
 7753SOL    HW224159   2.653   1.108   4.966
 7754SOL     OW24160   6.389   1.159   1.448
 7754SOL    HW124161   6.421   1.152   1.543
 7754SOL    HW224162   6.299   1.117   1.440
 7755SOL     OW24163   1.664   6.080   4.926
 7755SOL    HW124164   1.639   6.158   4.869
 7755SOL    HW224165   1.648   5.995   4.875
 7756SOL     OW24166   3.903   5.605   3.109
 7756SOL    HW124167   3.826   5.609   3.172
 7756SOL    HW224168   3.982   5.651   3.150
 7757SOL     OW24169   3.555   6.758   5.744
 7757SOL    HW124170   3.544   6.829   5.674
 7757SOL    HW224171   3.637   6.777   5.798
 7758SOL     OW24172   3.245   2.779   6.417
 7758SOL    HW124173   3.287   2.723   6.488
 7758SOL    HW224174   3.174   2.725   6.371
 7759SOL     OW24175   1.830   0.782   4.673
 7759SOL    HW124176   1.734   0.768   4.695
 7759SOL    HW224177   1.844   0.770   4.575
 7760SOL     OW24178   5.227   1.774   3.415
 7760SOL    HW124179   5.276   1.843   3.469
 7760SOL    HW224180   5.138   1.755   3.457
 7761SOL     OW24181   4.195   0.620   6.702
 7761SOL    HW124182   4.200   0.697   6.638
 7761SOL    HW224183   4.108   0.622   6.750
 7762SOL     OW24184   1.704   1.994   0.321
 7762SOL    HW124185   1.754   1.964   0.402
 7762SOL    HW224186   1.710   2.093   0.312
 7763SOL     OW24187   2.390   2.087   1.545
 7763SOL    HW124188   2.421   2.118   1.635
 7763SOL    HW224189   2.354   2.165   1.494
 7764SOL     OW24190   4.159   3.412   2.361
 7764SOL    HW124191   4.224   3.391   2.434
 7764SOL    HW224192   4.139   3.510   2.361
 7765SOL     OW24193   0.195   1.952   2.451
 7765SOL    HW124194   0.213   2.048   2.473
 7765SOL    HW224195   0.176   1.943   2.354
 7766SOL     OW24196   6.953   3.566   0.379
 7766SOL    HW124197   6.914   3.499   0.442
 7766SOL    HW224198   7.006   3.633   0.431
 7767SOL     OW24199   5.755   3.980   5.347
 7767SOL    HW124200   5.784   3.982   5.251
 7767SOL    HW224201   5.656   3.970   5.351
 7768SOL     OW24202   4.238   5.340   1.508
 7768SOL    HW124203   4.192   5.429   1.508
 7768SOL    HW224204   4.182   5.274   1.458
 7769SOL     OW24205   6.191   1.832   2.107
 7769SOL    HW124206   6.209   1.907   2.043
 7769SOL    HW224207   6.187   1.868   2.200
 7770SOL     OW24208   3.277   5.472   0.938
 7770SOL    HW124209   3.333   5.390   0.926
 7770SOL    HW224210   3.328   5.540   0.991
 7771SOL     OW24211   2.557   0.960   4.317
 7771SOL    HW124212   2.565   0.999   4.226
 7771SOL    HW224213   2.640   0.908   4.339
 7772SOL     OW24214   5.683   0.961   5.034
 7772SOL    HW124215   5.678   1.046   5.086
 7772SOL    HW224216   5.721   0.888   5.092
 7773SOL     OW24217   3.727   4.516   5.485
 7773SOL    HW124218   3.776   4.491   5.401
 7773SOL    HW224219   3.694   4.433   5.529
 7774SOL     OW24220   4.595   1.381   6.727
 7774SOL    HW124221   4.552   1.412   6.643
 7774SOL    HW224222   4.687   1.346   6.707
 7775SOL     OW24223   2.008   6.604   2.165
 7775SOL    HW124224   2.067   6.532   2.129
 7775SOL    HW224225   2.035   6.692   2.125
 7776SOL     OW24226   3.744   3.913   1.026
 7776SOL    HW124227   3.725   3.940   0.932
 7776SOL    HW224228   3.777   3.992   1.078
 7777SOL     OW24229   1.248   0.300   6.667
 7777SOL    HW124230   1.319   0.276   6.733
 7777SOL    HW224231   1.189   0.370   6.705
 7778SOL     OW24232   5.090   1.014   1.523
 7778SOL    HW124233   5.103   1.110   1.495
 7778SOL    HW224234   5.134   0.954   1.456
 7779SOL     OW24235   4.217   2.556   0.215
 7779SOL    HW124236   4.167   2.474   0.246
 7779SOL    HW224237   4.315   2.538   0.218
 7780SOL     OW24238   1.104   0.214   4.743
 7780SOL    HW124239   1.151   0.165   4.817
 7780SOL    HW224240   1.142   0.187   4.655
 7781SOL     OW24241   1.440   4.653   5.444
 7781SOL    HW124242   1.484   4.566   5.468
 7781SOL    HW224243   1.499   4.705   5.383
 7782SOL     OW24244   4.271   4.886   0.159
 7782SOL    HW124245   4.336   4.820   0.196
 7782SOL    HW224246   4.313   4.934   0.081
 7783SOL     OW24247   2.249   5.218   6.859
 7783SOL    HW124248   2.265   5.296   6.798
 7783SOL    HW224249   2.325   5.154   6.853
 7784SOL     OW24250   0.253   2.875   0.141
 7784SOL    HW124251   0.226   2.892   0.046
 7784SOL    HW224252   0.346   2.908   0.155
 7785SOL     OW24253   1.998   5.659   5.060
 7785SOL    HW124254   2.055   5.668   5.142
 7785SOL    HW224255   1.903   5.682   5.083
 7786SOL     OW24256   3.459   4.109   4.438
 7786SOL    HW124257   3.453   4.160   4.524
 7786SOL    HW224258   3.555   4.100   4.411
 7787SOL     OW24259   2.899   2.323   5.306
 7787SOL    HW124260   2.833   2.264   5.259
 7787SOL    HW224261   2.969   2.354   5.241
 7788SOL     OW24262   0.521   1.550   0.421
 7788SOL    HW124263   0.521   1.605   0.338
 7788SOL    HW224264   0.613   1.545   0.458
 7789SOL     OW24265   2.163   0.419   1.535
 7789SOL    HW124266   2.232   0.454   1.599
 7789SOL    HW224267   2.114   0.343   1.577
 7790SOL     OW24268   6.081   3.800   2.934
 7790SOL    HW124269   6.009   3.769   2.871
 7790SOL    HW224270   6.068   3.897   2.953
 7791SOL     OW24271   0.875   4.498   5.137
 7791SOL    HW124272   0.778   4.473   5.143
 7791SOL    HW224273   0.897   4.561   5.211
 7792SOL     OW24274   2.122   5.624   6.246
 7792SOL    HW124275   2.144   5.531   6.275
 7792SOL    HW224276   2.162   5.690   6.310
 7793SOL     OW24277   1.879   1.048   6.492
 7793SOL    HW124278   1.868   0.956   6.530
 7793SOL    HW224279   1.897   1.041   6.394
 7794SOL     OW24280   5.231   5.762   3.064
 7794SOL    HW124281   5.330   5.760   3.049
 7794SOL    HW224282   5.186   5.807   2.987
 7795SOL     OW24283   1.807   4.886   6.028
 7795SOL    HW124284   1.735   4.817   6.018
 7795SOL    HW224285   1.772   4.975   6.001
 7796SOL     OW24286   4.120   3.377   4.353
 7796SOL    HW124287   4.120   3.308   4.280
 7796SOL    HW224288   4.132   3.468   4.312
 7797SOL     OW24289   0.977   6.961   2.819
 7797SOL    HW124290   1.007   6.966   2.914
 7797SOL    HW224291   1.042   6.905   2.767
 7798SOL     OW24292   4.034   5.980   6.451
 7798SOL    HW124293   4.100   5.907   6.434
 7798SOL    HW224294   4.077   6.053   6.503
 7799SOL     OW24295   6.078   4.731   1.175
 7799SOL    HW124296   6.047   4.637   1.161
 7799SOL    HW224297   6.130   4.761   1.096
 7800SOL     OW24298   0.683   6.551   2.135
 7800SOL    HW124299   0.685   6.605   2.051
 7800SOL    HW224300   0.670   6.455   2.111
 7801SOL     OW24301   3.743   2.500   5.314
 7801SOL    HW124302   3.820   2.438   5.300
 7801SOL    HW224303   3.693   2.472   5.396
 7802SOL     OW24304   5.957   1.847   0.562
 7802SOL    HW124305   5.927   1.835   0.657
 7802SOL    HW224306   6.032   1.913   0.559
 7803SOL     OW24307   2.901   4.143   5.470
 7803SOL    HW124308   2.890   4.095   5.383
 7803SOL    HW224309   2.990   4.190   5.471
 7804SOL     OW24310   5.013   1.391   6.449
 7804SOL    HW124311   5.051   1.364   6.360
 7804SOL    HW224312   5.024   1.490   6.461
 7805SOL     OW24313   5.529   3.403   2.171
 7805SOL    HW124314   5.554   3.306   2.167
 7805SOL    HW224315   5.610   3.458   2.189
 7806SOL     OW24316   4.862   3.450   6.771
 7806SOL    HW124317   4.812   3.409   6.847
 7806SOL    HW224318   4.800   3.502   6.713
 7807SOL     OW24319   0.009   3.326   6.875
 7807SOL    HW124320   7.016   3.323   6.975
 7807SOL    HW224321   0.099   3.290   6.850
 7808SOL     OW24322   0.898   1.764   5.356
 7808SOL    HW124323   0.963   1.715   5.414
 7808SOL    HW224324   0.898   1.724   5.264
 7809SOL     OW24325   1.589   5.353   5.776
 7809SOL    HW124326   1.563   5.430   5.833
 7809SOL    HW224327   1.633   5.283   5.832
 7810SOL     OW24328   2.102   1.081   6.648
 7810SOL    HW124329   2.125   1.178   6.640
 7810SOL    HW224330   2.022   1.061   6.590
 7811SOL     OW24331   0.678   4.710   4.748
 7811SOL    HW124332   0.601   4.651   4.723
 7811SOL    HW224333   0.643   4.802   4.766
 7812SOL     OW24334   0.507   2.013   4.221
 7812SOL    HW124335   0.411   1.985   4.212
 7812SOL    HW224336   0.564   1.932   4.234
 7813SOL     OW24337   6.413   2.322   1.083
 7813SOL    HW124338   6.396   2.361   1.174
 7813SOL    HW224339   6.329   2.325   1.029
 7814SOL     OW24340   1.561   3.839   3.763
 7814SOL    HW124341   1.656   3.856   3.790
 7814SOL    HW224342   1.503   3.915   3.794
 7815SOL     OW24343   0.121   1.488   6.169
 7815SOL    HW124344   0.165   1.450   6.088
 7815SOL    HW224345   0.156   1.580   6.186
 7816SOL     OW24346   1.172   3.947   5.084
 7816SOL    HW124347   1.254   3.978   5.035
 7816SOL    HW224348   1.129   4.025   5.129
 7817SOL     OW24349   5.409   3.251   5.127
 7817SOL    HW124350   5.473   3.257   5.204
 7817SOL    HW224351   5.328   3.199   5.155
 7818SOL     OW24352   5.197   4.989   2.769
 7818SOL    HW124353   5.144   4.905   2.760
 7818SOL    HW224354   5.165   5.056   2.701
 7819SOL     OW24355   0.382   1.795   1.484
 7819SOL    HW124356   0.336   1.878   1.517
 7819SOL    HW224357   0.322   1.745   1.422
 7820SOL     OW24358   2.005   0.060   6.334
 7820SOL    HW124359   1.993   0.036   6.238
 7820SOL    HW224360   2.074   7.017   6.375
 7821SOL     OW24361   2.955   5.097   0.814
 7821SOL    HW124362   2.977   5.186   0.854
 7821SOL    HW224363   2.884   5.053   0.870
 7822SOL     OW24364   1.736   6.664   5.401
 7822SOL    HW124365   1.769   6.757   5.386
 7822SOL    HW224366   1.813   6.602   5.412
 7823SOL     OW24367   1.826   4.307   4.991
 7823SOL    HW124368   1.909   4.267   5.030
 7823SOL    HW224369   1.751   4.298   5.055
 7824SOL     OW24370   0.397   3.373   5.536
 7824SOL    HW124371   0.305   3.370   5.496
 7824SOL    HW224372   0.432   3.280   5.548
 7825SOL     OW24373   3.145   0.590   0.079
 7825SOL    HW124374   3.119   0.525   0.007
 7825SOL    HW224375   3.209   0.657   0.041
 7826SOL     OW24376   0.809   3.378   5.874
 7826SOL    HW124377   0.741   3.400   5.805
 7826SOL    HW224378   0.894   3.350   5.830
 7827SOL     OW24379   6.310   5.370   4.592
 7827SOL    HW124380   6.263   5.429   4.658
 7827SOL    HW224381   6.386   5.323   4.638
 7828SOL     OW24382   0.778   4.777   6.463
 7828SOL    HW124383   0.733   4.841   6.525
 7828SOL    HW224384   0.810   4.698   6.514
 7829SOL     OW24385   4.106   3.716   0.671
 7829SOL    HW124386   4.078   3.796   0.618
 7829SOL    HW224387   4.107   3.740   0.769
 7830SOL     OW24388   2.966   5.808   4.012
 7830SOL    HW124389   3.056   5.794   3.970
 7830SOL    HW224390   2.897   5.816   3.940
 7831SOL     OW24391   1.644   0.037   6.742
 7831SOL    HW124392   1.620   0.077   6.654
 7831SOL    HW224393   1.734   0.070   6.771
 7832SOL     OW24394   6.644   0.754   4.797
 7832SOL    HW124395   6.655   0.719   4.704
 7832SOL    HW224396   6.626   0.679   4.860
 7833SOL     OW24397   0.902   0.618   2.926
 7833SOL    HW124398   0.905   0.520   2.905
 7833SOL    HW224399   0.985   0.644   2.974
 7834SOL     OW24400   6.331   3.055   5.822
 7834SOL    HW124401   6.246   3.080   5.777
 7834SOL    HW224402   6.385   2.995   5.762
 7835SOL     OW24403   4.267   2.483   5.725
 7835SOL    HW124404   4.189   2.504   5.667
 7835SOL    HW224405   4.347   2.461   5.668
 7836SOL     OW24406   3.211   3.927   4.373
 7836SOL    HW124407   3.136   3.965   4.319
 7836SOL    HW224408   3.272   4.000   4.403
 7837SOL     OW24409   0.567   5.888   6.798
 7837SOL    HW124410   0.577   5.986   6.780
 7837SOL    HW224411   0.497   5.874   6.868
 7838SOL     OW24412   4.716   5.511   2.325
 7838SOL    HW124413   4.620   5.486   2.308
 7838SOL    HW224414   4.719   5.590   2.386
 7839SOL     OW24415   6.073   3.463   4.163
 7839SOL    HW124416   6.076   3.562   4.157
 7839SOL    HW224417   6.025   3.435   4.246
 7840SOL     OW24418   1.940   3.146   4.096
 7840SOL    HW124419   1.854   3.096   4.090
 7840SOL    HW224420   1.979   3.136   4.187
 7841SOL     OW24421   3.762   2.303   6.239
 7841SOL    HW124422   3.671   2.281   6.273
 7841SOL    HW224423   3.831   2.267   6.302
 7842SOL     OW24424   1.253   0.928   1.500
 7842SOL    HW124425   1.209   0.958   1.415
 7842SOL    HW224426   1.236   0.995   1.571
 7843SOL     OW24427   0.068   6.146   2.854
 7843SOL    HW124428   7.015   6.181   2.793
 7843SOL    HW224429   0.142   6.105   2.800
 7844SOL     OW24430   3.861   6.884   2.404
 7844SOL    HW124431   3.918   6.950   2.453
 7844SOL    HW224432   3.901   6.866   2.314
 7845SOL     OW24433   6.416   2.517   1.315
 7845SOL    HW124434   6.355   2.521   1.394
 7845SOL    HW224435   6.433   2.610   1.281
 7846SOL     OW24436   0.883   0.985   0.738
 7846SOL    HW124437   0.918   1.043   0.812
 7846SOL    HW224438   0.919   1.017   0.650
 7847SOL     OW24439   5.756   4.637   6.315
 7847SOL    HW124440   5.805   4.564   6.364
 7847SOL    HW224441   5.796   4.725   6.339
 7848SOL     OW24442   3.438   4.673   0.421
 7848SOL    HW124443   3.342   4.700   0.421
 7848SOL    HW224444   3.452   4.599   0.356
 7849SOL     OW24445   4.338   5.295   6.839
 7849SOL    HW124446   4.302   5.282   6.747
 7849SOL    HW224447   4.271   5.342   6.896
 7850SOL     OW24448   0.136   1.054   4.491
 7850SOL    HW124449   0.155   0.959   4.515
 7850SOL    HW224450   0.076   1.095   4.560
 7851SOL     OW24451   6.912   4.721   1.047
 7851SOL    HW124452   6.817   4.719   1.080
 7851SOL    HW224453   6.912   4.722   0.947
 7852SOL     OW24454   1.494   2.812   6.834
 7852SOL    HW124455   1.459   2.905   6.821
 7852SOL    HW224456   1.448   2.750   6.771
 7853SOL     OW24457   4.258   2.930   1.689
 7853SOL    HW124458   4.256   2.943   1.589
 7853SOL    HW224459   4.304   3.008   1.731
 7854SOL     OW24460   4.451   1.209   0.088
 7854SOL    HW124461   4.548   1.187   0.092
 7854SOL    HW224462   4.438   1.293   0.034
 7855SOL     OW24463   5.437   6.694   3.950
 7855SOL    HW124464   5.463   6.678   3.855
 7855SOL    HW224465   5.445   6.609   4.001
 7856SOL     OW24466   2.296   6.439   5.386
 7856SOL    HW124467   2.284   6.365   5.320
 7856SOL    HW224468   2.278   6.405   5.478
 7857SOL     OW24469   6.360   4.156   0.923
 7857SOL    HW124470   6.310   4.231   0.881
 7857SOL    HW224471   6.447   4.143   0.876
 7858SOL     OW24472   6.763   3.749   6.117
 7858SOL    HW124473   6.761   3.702   6.029
 7858SOL    HW224474   6.669   3.756   6.153
 7859SOL     OW24475   4.915   1.982   0.626
 7859SOL    HW124476   5.003   1.996   0.582
 7859SOL    HW224477   4.843   1.973   0.557
 7860SOL     OW24478   2.808   1.496   4.442
 7860SOL    HW124479   2.794   1.401   4.412
 7860SOL    HW224480   2.728   1.550   4.416
 7861SOL     OW24481   1.972   6.445   0.543
 7861SOL    HW124482   1.965   6.470   0.447
 7861SOL    HW224483   1.902   6.495   0.595
 7862SOL     OW24484   1.585   6.513   0.104
 7862SOL    HW124485   1.587   6.610   0.077
 7862SOL    HW224486   1.503   6.470   0.067
 7863SOL     OW24487   1.375   4.026   3.846
 7863SOL    HW124488   1.405   4.117   3.818
 7863SOL    HW224489   1.275   4.020   3.836
 7864SOL     OW24490   2.408   5.800   5.227
 7864SOL    HW124491   2.492   5.852   5.242
 7864SOL    HW224492   2.329   5.858   5.241
 7865SOL     OW24493   5.832   3.909   3.231
 7865SOL    HW124494   5.810   3.844   3.159
 7865SOL    HW224495   5.923   3.890   3.267
 7866SOL     OW24496   0.844   0.857   5.553
 7866SOL    HW124497   0.868   0.926   5.622
 7866SOL    HW224498   0.775   0.796   5.590
 7867SOL     OW24499   4.342   5.371   3.793
 7867SOL    HW124500   4.365   5.276   3.812
 7867SOL    HW224501   4.358   5.391   3.696
 7868SOL     OW24502   2.987   6.163   1.426
 7868SOL    HW124503   3.043   6.125   1.353
 7868SOL    HW224504   3.044   6.218   1.487
 7869SOL     OW24505   6.141   4.725   6.783
 7869SOL    HW124506   6.205   4.800   6.800
 7869SOL    HW224507   6.111   4.685   6.870
 7870SOL     OW24508   5.884   6.321   4.071
 7870SOL    HW124509   5.914   6.250   4.134
 7870SOL    HW224510   5.855   6.401   4.123
 7871SOL     OW24511   4.117   1.229   0.787
 7871SOL    HW124512   4.128   1.263   0.693
 7871SOL    HW224513   4.175   1.148   0.799
 7872SOL     OW24514   0.642   5.205   2.981
 7872SOL    HW124515   0.611   5.155   2.900
 7872SOL    HW224516   0.691   5.288   2.952
 7873SOL     OW24517   4.889   1.981   0.221
 7873SOL    HW124518   4.795   2.014   0.220
 7873SOL    HW224519   4.950   2.056   0.249
 7874SOL     OW24520   5.922   2.440   0.777
 7874SOL    HW124521   5.945   2.383   0.855
 7874SOL    HW224522   5.922   2.385   0.694
 7875SOL     OW24523   6.179   4.627   6.546
 7875SOL    HW124524   6.222   4.701   6.494
 7875SOL    HW224525   6.157   4.658   6.638
 7876SOL     OW24526   1.201   0.218   3.542
 7876SOL    HW124527   1.194   0.277   3.462
 7876SOL    HW224528   1.211   0.123   3.512
 7877SOL     OW24529   0.081   2.679   3.052
 7877SOL    HW124530   0.078   2.582   3.078
 7877SOL    HW224531   0.172   2.716   3.071
 7878SOL     OW24532   4.476   5.968   3.091
 7878SOL    HW124533   4.480   5.895   3.160
 7878SOL    HW224534   4.562   6.018   3.090
 7879SOL     OW24535   3.311   5.652   3.121
 7879SOL    HW124536   3.381   5.706   3.074
 7879SOL    HW224537   3.304   5.562   3.078
 7880SOL     OW24538   1.126   4.964   2.124
 7880SOL    HW124539   1.202   4.901   2.111
 7880SOL    HW224540   1.081   4.980   2.036
 7881SOL     OW24541   5.066   4.111   3.631
 7881SOL    HW124542   5.052   4.074   3.539
 7881SOL    HW224543   5.000   4.070   3.694
 7882SOL     OW24544   0.622   3.367   0.219
 7882SOL    HW124545   0.582   3.349   0.129
 7882SOL    HW224546   0.559   3.336   0.290
 7883SOL     OW24547   0.957   0.398   4.937
 7883SOL    HW124548   0.866   0.407   4.895
 7883SOL    HW224549   1.024   0.376   4.867
 7884SOL     OW24550   0.813   2.955   4.241
 7884SOL    HW124551   0.715   2.932   4.244
 7884SOL    HW224552   0.823   3.054   4.229
 7885SOL     OW24553   0.131   6.234   6.803
 7885SOL    HW124554   0.210   6.292   6.788
 7885SOL    HW224555   0.049   6.290   6.815
 7886SOL     OW24556   5.333   4.176   1.215
 7886SOL    HW124557   5.416   4.211   1.258
 7886SOL    HW224558   5.266   4.250   1.206
 7887SOL     OW24559   4.785   3.147   6.281
 7887SOL    HW124560   4.873   3.181   6.249
 7887SOL    HW224561   4.752   3.075   6.220
 7888SOL     OW24562   5.245   6.038   4.777
 7888SOL    HW124563   5.242   6.021   4.679
 7888SOL    HW224564   5.162   6.002   4.820
 7889SOL     OW24565   6.959   5.291   3.260
 7889SOL    HW124566   6.967   5.251   3.352
 7889SOL    HW224567   0.032   5.292   3.217
 7890SOL     OW24568   1.966   2.977   2.246
 7890SOL    HW124569   2.032   2.938   2.182
 7890SOL    HW224570   2.013   3.033   2.314
 7891SOL     OW24571   1.127   4.787   2.622
 7891SOL    HW124572   1.152   4.700   2.663
 7891SOL    HW224573   1.210   4.842   2.608
 7892SOL     OW24574   2.331   2.123   5.097
 7892SOL    HW124575   2.246   2.146   5.144
 7892SOL    HW224576   2.407   2.169   5.141
 7893SOL     OW24577   6.370   6.960   1.575
 7893SOL    HW124578   6.358   6.869   1.614
 7893SOL    HW224579   6.282   7.007   1.570
 7894SOL     OW24580   2.819   0.092   1.783
 7894SOL    HW124581   2.881   0.106   1.860
 7894SOL    HW224582   2.834   0.163   1.715
 7895SOL     OW24583   6.692   1.432   3.348
 7895SOL    HW124584   6.740   1.498   3.404
 7895SOL    HW224585   6.741   1.345   3.348
 7896SOL     OW24586   4.289   1.892   6.546
 7896SOL    HW124587   4.366   1.899   6.609
 7896SOL    HW224588   4.245   1.981   6.536
 7897SOL     OW24589   3.429   3.032   6.459
 7897SOL    HW124590   3.446   2.955   6.398
 7897SOL    HW224591   3.352   3.085   6.424
 7898SOL     OW24592   5.124   1.631   3.821
 7898SOL    HW124593   5.169   1.705   3.869
 7898SOL    HW224594   5.039   1.664   3.780
 7899SOL     OW24595   4.163   1.434   2.412
 7899SOL    HW124596   4.144   1.396   2.503
 7899SOL    HW224597   4.220   1.515   2.421
 7900SOL     OW24598   1.376   5.731   1.195
 7900SOL    HW124599   1.454   5.793   1.190
 7900SOL    HW224600   1.344   5.710   1.103
 7901SOL     OW24601   6.240   5.594   0.877
 7901SOL    HW124602   6.224   5.671   0.938
 7901SOL    HW224603   6.155   5.568   0.833
 7902SOL     OW24604   5.312   4.579   5.817
 7902SOL    HW124605   5.244   4.506   5.829
 7902SOL    HW224606   5.389   4.544   5.764
 7903SOL     OW24607   0.150   2.590   6.909
 7903SOL    HW124608   0.089   2.532   6.962
 7903SOL    HW224609   0.244   2.579   6.942
 7904SOL     OW24610   6.168   1.853   2.382
 7904SOL    HW124611   6.261   1.890   2.370
 7904SOL    HW224612   6.126   1.895   2.463
 7905SOL     OW24613   2.117   2.375   1.747
 7905SOL    HW124614   2.131   2.409   1.841
 7905SOL    HW224615   2.165   2.434   1.683
 7906SOL     OW24616   0.440   4.462   0.602
 7906SOL    HW124617   0.432   4.458   0.503
 7906SOL    HW224618   0.532   4.490   0.627
 7907SOL     OW24619   6.373   2.711   2.057
 7907SOL    HW124620   6.281   2.680   2.080
 7907SOL    HW224621   6.438   2.674   2.124
 7908SOL     OW24622   6.915   1.011   2.959
 7908SOL    HW124623   6.935   1.108   2.945
 7908SOL    HW224624   6.979   0.955   2.905
 7909SOL     OW24625   4.105   6.139   5.001
 7909SOL    HW124626   4.123   6.136   5.100
 7909SOL    HW224627   4.178   6.191   4.956
 7910SOL     OW24628   5.787   3.206   6.301
 7910SOL    HW124629   5.872   3.191   6.250
 7910SOL    HW224630   5.809   3.241   6.392
 7911SOL     OW24631   0.027   5.362   6.861
 7911SOL    HW124632   0.004   5.391   6.768
 7911SOL    HW224633   6.980   5.292   6.892
 7912SOL     OW24634   0.272   4.892   5.354
 7912SOL    HW124635   0.262   4.992   5.361
 7912SOL    HW224636   0.369   4.868   5.355
 7913SOL     OW24637   1.522   6.408   6.530
 7913SOL    HW124638   1.552   6.312   6.528
 7913SOL    HW224639   1.424   6.413   6.511
 7914SOL     OW24640   6.564   3.908   1.263
 7914SOL    HW124641   6.571   3.820   1.216
 7914SOL    HW224642   6.487   3.960   1.226
 7915SOL     OW24643   3.798   1.127   2.421
 7915SOL    HW124644   3.888   1.168   2.428
 7915SOL    HW224645   3.734   1.192   2.380
 7916SOL     OW24646   4.716   3.823   5.666
 7916SOL    HW124647   4.646   3.865   5.725
 7916SOL    HW224648   4.717   3.869   5.578
 7917SOL     OW24649   4.064   3.702   3.619
 7917SOL    HW124650   4.091   3.666   3.530
 7917SOL    HW224651   3.965   3.712   3.622
 7918SOL     OW24652   6.533   2.487   2.504
 7918SOL    HW124653   6.549   2.578   2.542
 7918SOL    HW224654   6.446   2.452   2.539
 7919SOL     OW24655   5.687   4.545   1.792
 7919SOL    HW124656   5.589   4.558   1.808
 7919SOL    HW224657   5.733   4.634   1.793
 7920SOL     OW24658   0.390   6.646   2.052
 7920SOL    HW124659   0.452   6.586   2.102
 7920SOL    HW224660   0.326   6.592   1.999
 7921SOL     OW24661   2.517   6.311   1.997
 7921SOL    HW124662   2.493   6.214   1.993
 7921SOL    HW224663   2.601   6.322   2.050
 7922SOL     OW24664   0.858   4.523   6.156
 7922SOL    HW124665   0.917   4.527   6.236
 7922SOL    HW224666   0.913   4.522   6.073
 7923SOL     OW24667   0.537   1.795   3.130
 7923SOL    HW124668   0.610   1.764   3.189
 7923SOL    HW224669   0.461   1.729   3.132
 7924SOL     OW24670   2.140   1.167   3.741
 7924SOL    HW124671   2.156   1.219   3.657
 7924SOL    HW224672   2.042   1.153   3.753
 7925SOL     OW24673   0.281   1.684   6.501
 7925SOL    HW124674   0.313   1.773   6.535
 7925SOL    HW224675   0.184   1.673   6.521
 7926SOL     OW24676   3.459   0.133   1.770
 7926SOL    HW124677   3.437   0.050   1.719
 7926SOL    HW224678   3.411   0.132   1.858
 7927SOL     OW24679   4.724   4.163   4.275
 7927SOL    HW124680   4.640   4.109   4.282
 7927SOL    HW224681   4.787   4.136   4.347
 7928SOL     OW24682   0.978   4.353   6.755
 7928SOL    HW124683   1.045   4.294   6.799
 7928SOL    HW224684   0.889   4.309   6.756
 7929SOL     OW24685   4.046   3.716   4.474
 7929SOL    HW124686   4.025   3.814   4.467
 7929SOL    HW224687   4.090   3.686   4.390
 7930SOL     OW24688   5.511   6.397   3.235
 7930SOL    HW124689   5.550   6.385   3.326
 7930SOL    HW224690   5.438   6.330   3.221
 7931SOL     OW24691   2.710   3.287   0.043
 7931SOL    HW124692   2.728   3.307   6.964
 7931SOL    HW224693   2.790   3.310   0.098
 7932SOL     OW24694   3.060   0.164   0.677
 7932SOL    HW124695   3.018   0.145   0.588
 7932SOL    HW224696   2.994   0.212   0.735
 7933SOL     OW24697   1.859   1.025   6.177
 7933SOL    HW124698   1.825   0.934   6.154
 7933SOL    HW224699   1.897   1.069   6.096
 7934SOL     OW24700   3.969   2.799   5.744
 7934SOL    HW124701   3.978   2.750   5.830
 7934SOL    HW224702   3.961   2.897   5.761
 7935SOL     OW24703   4.461   5.689   1.923
 7935SOL    HW124704   4.541   5.703   1.865
 7935SOL    HW224705   4.426   5.777   1.955
 7936SOL     OW24706   4.218   6.048   2.985
 7936SOL    HW124707   4.233   6.095   2.898
 7936SOL    HW224708   4.307   6.029   3.028
 7937SOL     OW24709   6.164   0.658   5.734
 7937SOL    HW124710   6.218   0.739   5.756
 7937SOL    HW224711   6.161   0.597   5.813
 7938SOL     OW24712   5.998   4.904   4.337
 7938SOL    HW124713   6.077   4.932   4.282
 7938SOL    HW224714   6.030   4.872   4.426
 7939SOL     OW24715   0.110   6.505   4.007
 7939SOL    HW124716   0.195   6.549   4.038
 7939SOL    HW224717   0.117   6.406   4.018
 7940SOL     OW24718   1.777   5.913   0.772
 7940SOL    HW124719   1.728   5.994   0.740
 7940SOL    HW224720   1.712   5.841   0.795
 7941SOL     OW24721   6.989   0.225   0.869
 7941SOL    HW124722   0.045   0.275   0.915
 7941SOL    HW224723   6.908   0.284   0.861
 7942SOL     OW24724   1.156   1.017   0.920
 7942SOL    HW124725   1.149   0.987   0.824
 7942SOL    HW224726   1.148   0.937   0.980
 7943SOL     OW24727   6.313   2.245   0.316
 7943SOL    HW124728   6.228   2.297   0.313
 7943SOL    HW224729   6.373   2.283   0.387
 7944SOL     OW24730   6.990   3.334   1.778
 7944SOL    HW124731   6.987   3.417   1.833
 7944SOL    HW224732   0.052   3.278   1.806
 7945SOL     OW24733   5.153   6.878   1.048
 7945SOL    HW124734   5.084   6.906   0.982
 7945SOL    HW224735   5.224   6.824   1.002
 7946SOL     OW24736   1.273   1.485   6.191
 7946SOL    HW124737   1.184   1.529   6.192
 7946SOL    HW224738   1.295   1.453   6.283
 7947SOL     OW24739   4.579   5.268   6.321
 7947SOL    HW124740   4.610   5.281   6.416
 7947SOL    HW224741   4.656   5.236   6.265
 7948SOL     OW24742   0.830   4.973   5.839
 7948SOL    HW124743   0.794   4.893   5.792
 7948SOL    HW224744   0.790   4.979   5.931
 7949SOL     OW24745   6.243   4.017   3.901
 7949SOL    HW124746   6.327   4.068   3.884
 7949SOL    HW224747   6.258   3.920   3.883
 7950SOL     OW24748   3.657   5.228   4.415
 7950SOL    HW124749   3.701   5.300   4.469
 7950SOL    HW224750   3.695   5.229   4.322
 7951SOL     OW24751   2.867   3.182   0.451
 7951SOL    HW124752   2.826   3.272   0.436
 7951SOL    HW224753   2.885   3.170   0.549
 7952SOL     OW24754   5.201   4.445   0.597
 7952SOL    HW124755   5.239   4.537   0.586
 7952SOL    HW224756   5.158   4.417   0.511
 7953SOL     OW24757   2.062   3.491   2.972
 7953SOL    HW124758   2.013   3.534   3.048
 7953SOL    HW224759   2.060   3.552   2.893
 7954SOL     OW24760   5.309   5.506   4.607
 7954SOL    HW124761   5.381   5.502   4.538
 7954SOL    HW224762   5.273   5.599   4.613
 7955SOL     OW24763   1.572   6.808   5.884
 7955SOL    HW124764   1.567   6.765   5.974
 7955SOL    HW224765   1.583   6.907   5.895
 7956SOL     OW24766   6.382   6.591   3.168
 7956SOL    HW124767   6.441   6.536   3.109
 7956SOL    HW224768   6.330   6.656   3.113
 7957SOL     OW24769   0.548   2.058   1.190
 7957SOL    HW124770   0.525   2.127   1.121
 7957SOL    HW224771   0.611   2.098   1.256
 7958SOL     OW24772   2.545   5.590   3.699
 7958SOL    HW124773   2.463   5.567   3.750
 7958SOL    HW224774   2.587   5.506   3.663
 7959SOL     OW24775   5.169   5.533   1.087
 7959SOL    HW124776   5.085   5.504   1.133
 7959SOL    HW224777   5.191   5.627   1.114
 7960SOL     OW24778   2.329   2.374   1.014
 7960SOL    HW124779   2.362   2.385   0.921
 7960SOL    HW224780   2.402   2.394   1.079
 7961SOL     OW24781   1.511   5.992   0.198
 7961SOL    HW124782   1.433   5.955   0.147
 7961SOL    HW224783   1.578   6.028   0.134
 7962SOL     OW24784   1.775   6.869   2.186
 7962SOL    HW124785   1.740   6.809   2.258
 7962SOL    HW224786   1.805   6.813   2.108
 7963SOL     OW24787   1.057   6.405   4.854
 7963SOL    HW124788   1.156   6.409   4.866
 7963SOL    HW224789   1.019   6.335   4.915
 7964SOL     OW24790   6.091   5.453   3.432
 7964SOL    HW124791   6.135   5.492   3.351
 7964SOL    HW224792   6.001   5.418   3.408
 7965SOL     OW24793   5.350   1.716   0.395
 7965SOL    HW124794   5.273   1.741   0.335
 7965SOL    HW224795   5.374   1.620   0.380
 7966SOL     OW24796   0.121   6.785   3.584
 7966SOL    HW124797   0.027   6.771   3.553
 7966SOL    HW224798   0.168   6.847   3.522
 7967SOL     OW24799   3.183   0.115   3.131
 7967SOL    HW124800   3.093   0.152   3.108
 7967SOL    HW224801   3.190   0.021   3.096
 7968SOL     OW24802   2.076   0.608   1.752
 7968SOL    HW124803   2.146   0.551   1.794
 7968SOL    HW224804   2.019   0.552   1.691
 7969SOL     OW24805   3.144   1.738   3.256
 7969SOL    HW124806   3.210   1.766   3.326
 7969SOL    HW224807   3.193   1.692   3.181
 7970SOL     OW24808   0.349   5.142   2.962
 7970SOL    HW124809   0.443   5.110   2.974
 7970SOL    HW224810   0.347   5.210   2.888
 7971SOL     OW24811   3.050   1.504   2.355
 7971SOL    HW124812   3.096   1.533   2.271
 7971SOL    HW224813   2.965   1.458   2.333
 7972SOL     OW24814   6.907   4.985   1.692
 7972SOL    HW124815   6.941   4.929   1.617
 7972SOL    HW224816   6.867   4.926   1.762
 7973SOL     OW24817   4.719   2.090   2.665
 7973SOL    HW124818   4.624   2.106   2.693
 7973SOL    HW224819   4.740   1.993   2.673
 7974SOL     OW24820   5.895   6.413   3.521
 7974SOL    HW124821   5.885   6.449   3.614
 7974SOL    HW224822   5.992   6.412   3.496
 7975SOL     OW24823   1.905   1.602   2.771
 7975SOL    HW124824   1.896   1.619   2.673
 7975SOL    HW224825   1.937   1.685   2.816
 7976SOL     OW24826   0.638   6.452   5.933
 7976SOL    HW124827   0.730   6.423   5.905
 7976SOL    HW224828   0.577   6.448   5.853
 7977SOL     OW24829   4.532   6.320   1.540
 7977SOL    HW124830   4.487   6.234   1.515
 7977SOL    HW224831   4.569   6.313   1.632
 7978SOL     OW24832   3.362   2.596   5.523
 7978SOL    HW124833   3.293   2.532   5.559
 7978SOL    HW224834   3.342   2.615   5.427
 7979SOL     OW24835   5.385   0.015   4.206
 7979SOL    HW124836   5.333   0.088   4.162
 7979SOL    HW224837   5.326   6.980   4.267
 7980SOL     OW24838   2.770   0.652   2.176
 7980SOL    HW124839   2.839   0.623   2.243
 7980SOL    HW224840   2.723   0.572   2.140
 7981SOL     OW24841   0.928   5.860   2.742
 7981SOL    HW124842   1.016   5.905   2.755
 7981SOL    HW224843   0.922   5.780   2.802
 7982SOL     OW24844   7.009   2.460   0.297
 7982SOL    HW124845   0.090   2.468   0.280
 7982SOL    HW224846   6.977   2.541   0.346
 7983SOL     OW24847   4.742   2.753   2.179
 7983SOL    HW124848   4.744   2.850   2.157
 7983SOL    HW224849   4.746   2.742   2.278
 7984SOL     OW24850   0.016   0.255   0.183
 7984SOL    HW124851   6.971   0.281   0.257
 7984SOL    HW224852   0.098   0.213   0.222
 7985SOL     OW24853   0.475   1.184   1.117
 7985SOL    HW124854   0.421   1.216   1.195
 7985SOL    HW224855   0.547   1.251   1.096
 7986SOL     OW24856   4.818   2.924   0.133
 7986SOL    HW124857   4.867   2.858   0.075
 7986SOL    HW224858   4.799   3.007   0.080
 7987SOL     OW24859   1.142   2.555   4.749
 7987SOL    HW124860   1.078   2.631   4.743
 7987SOL    HW224861   1.193   2.548   4.664
 7988SOL     OW24862   2.872   1.824   5.746
 7988SOL    HW124863   2.773   1.813   5.756
 7988SOL    HW224864   2.895   1.922   5.752
 7989SOL     OW24865   3.669   3.492   6.084
 7989SOL    HW124866   3.701   3.425   6.017
 7989SOL    HW224867   3.708   3.582   6.063
 7990SOL     OW24868   2.272   2.752   4.782
 7990SOL    HW124869   2.342   2.728   4.849
 7990SOL    HW224870   2.287   2.700   4.698
 7991SOL     OW24871   1.064   3.099   5.812
 7991SOL    HW124872   1.111   3.156   5.878
 7991SOL    HW224873   1.130   3.056   5.751
 7992SOL     OW24874   2.616   1.392   0.554
 7992SOL    HW124875   2.553   1.405   0.630
 7992SOL    HW224876   2.675   1.313   0.573
 7993SOL     OW24877   2.551   6.416   6.446
 7993SOL    HW124878   2.549   6.327   6.401
 7993SOL    HW224879   2.479   6.421   6.515
 7994SOL     OW24880   5.865   1.018   4.563
 7994SOL    HW124881   5.900   0.933   4.603
 7994SOL    HW224882   5.777   0.999   4.519
 7995SOL     OW24883   4.157   5.550   3.488
 7995SOL    HW124884   4.238   5.592   3.528
 7995SOL    HW224885   4.183   5.467   3.439
 7996SOL     OW24886   4.332   1.062   5.259
 7996SOL    HW124887   4.423   1.030   5.236
 7996SOL    HW224888   4.298   1.122   5.187
 7997SOL     OW24889   5.281   2.494   2.398
 7997SOL    HW124890   5.257   2.404   2.434
 7997SOL    HW224891   5.359   2.485   2.336
 7998SOL     OW24892   6.343   4.902   6.449
 7998SOL    HW124893   6.361   4.897   6.547
 7998SOL    HW224894   6.359   4.996   6.417
 7999SOL     OW24895   2.006   0.587   5.550
 7999SOL    HW124896   1.939   0.615   5.620
 7999SOL    HW224897   2.010   0.656   5.478
 8000SOL     OW24898   5.357   0.418   5.829
 8000SOL    HW124899   5.337   0.399   5.733
 8000SOL    HW224900   5.312   0.502   5.858
 8001SOL     OW24901   2.668   5.823   1.331
 8001SOL    HW124902   2.689   5.913   1.293
 8001SOL    HW224903   2.656   5.757   1.258
 8002SOL     OW24904   5.035   2.498   5.453
 8002SOL    HW124905   5.110   2.483   5.388
 8002SOL    HW224906   4.948   2.484   5.407
 8003SOL     OW24907   3.687   6.056   3.876
 8003SOL    HW124908   3.766   6.005   3.909
 8003SOL    HW224909   3.617   5.993   3.842
 8004SOL     OW24910   0.980   4.169   2.723
 8004SOL    HW124911   0.960   4.088   2.778
 8004SOL    HW224912   0.918   4.172   2.645
 8005SOL     OW24913   2.316   0.383   2.398
 8005SOL    HW124914   2.301   0.427   2.486
 8005SOL    HW224915   2.228   0.369   2.353
 8006SOL     OW24916   3.691   6.393   1.683
 8006SOL    HW124917   3.669   6.488   1.708
 8006SOL    HW224918   3.608   6.347   1.651
 8007SOL     OW24919   0.376   1.326   4.158
 8007SOL    HW124920   0.429   1.249   4.122
 8007SOL    HW224921   0.438   1.403   4.177
 8008SOL     OW24922   5.992   5.572   0.720
 8008SOL    HW124923   5.915   5.596   0.661
 8008SOL    HW224924   6.038   5.490   0.684
 8009SOL     OW24925   7.011   7.011   4.193
 8009SOL    HW124926   6.975   6.918   4.201
 8009SOL    HW224927   6.936   0.060   4.203
 8010SOL     OW24928   1.777   3.120   6.703
 8010SOL    HW124929   1.789   3.183   6.780
 8010SOL    HW224930   1.693   3.142   6.655
 8011SOL     OW24931   1.980   2.451   0.472
 8011SOL    HW124932   2.078   2.473   0.467
 8011SOL    HW224933   1.968   2.372   0.533
 8012SOL     OW24934   2.932   0.404   3.600
 8012SOL    HW124935   3.018   0.388   3.552
 8012SOL    HW224936   2.891   0.489   3.567
 8013SOL     OW24937   5.597   5.676   4.685
 8013SOL    HW124938   5.695   5.682   4.708
 8013SOL    HW224939   5.543   5.701   4.765
 8014SOL     OW24940   2.158   7.003   6.738
 8014SOL    HW124941   2.139   6.946   6.659
 8014SOL    HW224942   2.191   6.946   6.813
 8015SOL     OW24943   1.483   1.800   5.784
 8015SOL    HW124944   1.481   1.897   5.810
 8015SOL    HW224945   1.571   1.761   5.809
 8016SOL     OW24946   3.832   6.034   1.813
 8016SOL    HW124947   3.799   6.110   1.868
 8016SOL    HW224948   3.825   5.949   1.865
 8017SOL     OW24949   5.699   3.613   5.691
 8017SOL    HW124950   5.771   3.673   5.658
 8017SOL    HW224951   5.617   3.625   5.634
 8018SOL     OW24952   5.927   2.696   4.698
 8018SOL    HW124953   5.881   2.751   4.768
 8018SOL    HW224954   5.858   2.660   4.634
 8019SOL     OW24955   2.153   5.095   1.249
 8019SOL    HW124956   2.245   5.063   1.269
 8019SOL    HW224957   2.157   5.176   1.191
 8020SOL     OW24958   5.841   6.135   6.309
 8020SOL    HW124959   5.892   6.208   6.263
 8020SOL    HW224960   5.900   6.092   6.377
 8021SOL     OW24961   6.768   0.891   0.836
 8021SOL    HW124962   6.668   0.887   0.844
 8021SOL    HW224963   6.804   0.961   0.897
 8022SOL     OW24964   4.186   5.329   3.336
 8022SOL    HW124965   4.112   5.271   3.302
 8022SOL    HW224966   4.254   5.341   3.264
 8023SOL     OW24967   6.760   6.211   3.533
 8023SOL    HW124968   6.760   6.168   3.443
 8023SOL    HW224969   6.786   6.145   3.602
 8024SOL     OW24970   4.648   5.436   4.697
 8024SOL    HW124971   4.695   5.376   4.762
 8024SOL    HW224972   4.712   5.462   4.625
 8025SOL     OW24973   2.679   5.926   0.692
 8025SOL    HW124974   2.602   5.918   0.629
 8025SOL    HW224975   2.751   5.980   0.650
 8026SOL     OW24976   2.292   2.833   0.374
 8026SOL    HW124977   2.374   2.780   0.398
 8026SOL    HW224978   2.319   2.922   0.337
 8027SOL     OW24979   4.890   3.055   5.539
 8027SOL    HW124980   4.908   2.959   5.563
 8027SOL    HW224981   4.972   3.109   5.558
 8028SOL     OW24982   5.356   5.771   0.717
 8028SOL    HW124983   5.340   5.761   0.618
 8028SOL    HW224984   5.445   5.733   0.740
 8029SOL     OW24985   3.085   4.356   6.989
 8029SOL    HW124986   3.154   4.303   0.020
 8029SOL    HW224987   3.010   4.377   0.035
 8030SOL     OW24988   6.027   3.742   0.845
 8030SOL    HW124989   6.125   3.748   0.865
 8030SOL    HW224990   6.014   3.694   0.759
 8031SOL     OW24991   3.618   6.346   1.266
 8031SOL    HW124992   3.678   6.338   1.186
 8031SOL    HW224993   3.541   6.406   1.243
 8032SOL     OW24994   4.915   4.842   5.550
 8032SOL    HW124995   4.862   4.779   5.606
 8032SOL    HW224996   5.005   4.856   5.591
 8033SOL     OW24997   6.514   2.279   0.692
 8033SOL    HW124998   6.469   2.336   0.624
 8033SOL    HW224999   6.612   2.279   0.677
 8034SOL     OW25000   6.489   1.458   4.955
 8034SOL    HW125001   6.493   1.361   4.980
 8034SOL    HW225002   6.577   1.501   4.975
 8035SOL     OW25003   5.519   5.724   0.117
 8035SOL    HW125004   5.471   5.795   0.169
 8035SOL    HW225005   5.475   5.714   0.027
 8036SOL     OW25006   1.195   4.681   1.386
 8036SOL    HW125007   1.099   4.661   1.366
 8036SOL    HW225008   1.233   4.609   1.443
 8037SOL     OW25009   2.072   2.977   1.703
 8037SOL    HW125010   2.017   3.035   1.643
 8037SOL    HW225011   2.089   3.025   1.789
 8038SOL     OW25012   6.118   1.346   3.956
 8038SOL    HW125013   6.067   1.361   4.041
 8038SOL    HW225014   6.157   1.432   3.925
 8039SOL     OW25015   3.171   6.659   4.833
 8039SOL    HW125016   3.103   6.598   4.792
 8039SOL    HW225017   3.223   6.704   4.761
 8040SOL     OW25018   6.171   5.981   0.471
 8040SOL    HW125019   6.152   6.059   0.412
 8040SOL    HW225020   6.115   5.903   0.442
 8041SOL     OW25021   4.120   2.106   0.763
 8041SOL    HW125022   4.037   2.160   0.772
 8041SOL    HW225023   4.196   2.165   0.737
 8042SOL     OW25024   2.631   4.099   0.801
 8042SOL    HW125025   2.585   4.096   0.890
 8042SOL    HW225026   2.579   4.047   0.734
 8043SOL     OW25027   2.649   0.409   1.363
 8043SOL    HW125028   2.582   0.439   1.294
 8043SOL    HW225029   2.693   0.489   1.403
 8044SOL     OW25030   3.251   3.832   1.593
 8044SOL    HW125031   3.205   3.871   1.673
 8044SOL    HW225032   3.284   3.740   1.616
 8045SOL     OW25033   6.132   2.774   3.596
 8045SOL    HW125034   6.106   2.865   3.565
 8045SOL    HW225035   6.232   2.769   3.607
 8046SOL     OW25036   0.247   5.343   5.736
 8046SOL    HW125037   0.345   5.324   5.729
 8046SOL    HW225038   0.203   5.321   5.648
 8047SOL     OW25039   2.938   6.879   4.482
 8047SOL    HW125040   2.932   6.798   4.540
 8047SOL    HW225041   2.930   6.962   4.538
 8048SOL     OW25042   6.194   0.896   5.877
 8048SOL    HW125043   6.105   0.859   5.906
 8048SOL    HW225044   6.186   0.995   5.864
 8049SOL     OW25045   1.313   6.479   0.242
 8049SOL    HW125046   1.359   6.418   0.306
 8049SOL    HW225047   1.330   6.448   0.148
 8050SOL     OW25048   0.550   3.298   1.226
 8050SOL    HW125049   0.453   3.283   1.249
 8050SOL    HW225050   0.556   3.344   1.138
 8051SOL     OW25051   3.342   1.855   4.003
 8051SOL    HW125052   3.258   1.851   4.056
 8051SOL    HW225053   3.382   1.763   3.995
 8052SOL     OW25054   3.967   2.030   3.297
 8052SOL    HW125055   3.943   2.030   3.199
 8052SOL    HW225056   4.066   2.040   3.307
 8053SOL     OW25057   3.991   3.433   1.873
 8053SOL    HW125058   3.981   3.447   1.972
 8053SOL    HW225059   4.067   3.371   1.856
 8054SOL     OW25060   4.736   5.774   4.308
 8054SOL    HW125061   4.732   5.873   4.293
 8054SOL    HW225062   4.668   5.748   4.377
 8055SOL     OW25063   0.975   6.962   4.873
 8055SOL    HW125064   0.962   6.894   4.801
 8055SOL    HW225065   1.053   6.936   4.930
 8056SOL     OW25066   4.466   1.029   2.105
 8056SOL    HW125067   4.470   1.018   2.006
 8056SOL    HW225068   4.558   1.029   2.143
 8057SOL     OW25069   3.343   6.994   3.305
 8057SOL    HW125070   3.302   0.032   3.233
 8057SOL    HW225071   3.427   0.021   3.337
 8058SOL     OW25072   2.600   0.249   3.608
 8058SOL    HW125073   2.577   0.322   3.543
 8058SOL    HW225074   2.683   0.202   3.578
 8059SOL     OW25075   2.543   1.095   3.638
 8059SOL    HW125076   2.640   1.074   3.649
 8059SOL    HW225077   2.498   1.094   3.727
 8060SOL     OW25078   0.977   2.605   5.124
 8060SOL    HW125079   1.016   2.583   5.214
 8060SOL    HW225080   0.961   2.704   5.118
 8061SOL     OW25081   6.864   5.899   2.007
 8061SOL    HW125082   6.901   5.970   2.067
 8061SOL    HW225083   6.803   5.942   1.939
 8062SOL     OW25084   2.102   3.629   2.228
 8062SOL    HW125085   2.099   3.544   2.281
 8062SOL    HW225086   2.134   3.609   2.135
 8063SOL     OW25087   2.569   3.109   6.752
 8063SOL    HW125088   2.529   3.095   6.843
 8063SOL    HW225089   2.600   3.021   6.716
 8064SOL     OW25090   6.455   2.719   6.932
 8064SOL    HW125091   6.466   2.714   6.833
 8064SOL    HW225092   6.467   2.628   6.972
 8065SOL     OW25093   4.872   6.947   6.480
 8065SOL    HW125094   4.819   6.880   6.428
 8065SOL    HW225095   4.955   6.904   6.516
 8066SOL     OW25096   2.628   6.839   1.865
 8066SOL    HW125097   2.627   6.785   1.781
 8066SOL    HW225098   2.639   6.936   1.842
 8067SOL     OW25099   4.802   2.132   2.393
 8067SOL    HW125100   4.745   2.139   2.312
 8067SOL    HW225101   4.755   2.172   2.471
 8068SOL     OW25102   6.245   4.689   4.435
 8068SOL    HW125103   6.264   4.640   4.350
 8068SOL    HW225104   6.281   4.636   4.512
 8069SOL     OW25105   1.321   6.554   2.421
 8069SOL    HW125106   1.341   6.591   2.330
 8069SOL    HW225107   1.386   6.591   2.487
 8070SOL     OW25108   3.943   0.206   2.621
 8070SOL    HW125109   3.962   0.304   2.614
 8070SOL    HW225110   3.981   0.159   2.540
 8071SOL     OW25111   3.455   6.652   0.390
 8071SOL    HW125112   3.386   6.717   0.422
 8071SOL    HW225113   3.545   6.678   0.426
 8072SOL     OW25114   5.138   0.549   2.571
 8072SOL    HW125115   5.166   0.484   2.642
 8072SOL    HW225116   5.041   0.537   2.551
 8073SOL     OW25117   4.694   6.952   6.139
 8073SOL    HW125118   4.722   6.879   6.201
 8073SOL    HW225119   4.731   0.022   6.170
 8074SOL     OW25120   3.372   4.042   6.677
 8074SOL    HW125121   3.363   3.957   6.730
 8074SOL    HW225122   3.386   4.119   6.740
 8075SOL     OW25123   5.504   2.337   3.030
 8075SOL    HW125124   5.559   2.259   3.060
 8075SOL    HW225125   5.468   2.386   3.110
 8076SOL     OW25126   4.766   2.971   6.074
 8076SOL    HW125127   4.812   2.889   6.108
 8076SOL    HW225128   4.691   2.943   6.014
 8077SOL     OW25129   0.869   0.453   0.392
 8077SOL    HW125130   0.905   0.432   0.483
 8077SOL    HW225131   0.942   0.493   0.337
 8078SOL     OW25132   6.214   3.044   0.786
 8078SOL    HW125133   6.221   2.951   0.750
 8078SOL    HW225134   6.125   3.054   0.832
 8079SOL     OW25135   0.914   1.856   1.794
 8079SOL    HW125136   0.826   1.829   1.832
 8079SOL    HW225137   0.958   1.778   1.751
 8080SOL     OW25138   3.527   4.963   0.201
 8080SOL    HW125139   3.453   4.917   0.150
 8080SOL    HW225140   3.536   4.921   0.291
 8081SOL     OW25141   5.878   2.030   5.305
 8081SOL    HW125142   5.912   1.973   5.230
 8081SOL    HW225143   5.883   2.126   5.279
 8082SOL     OW25144   6.685   3.513   4.385
 8082SOL    HW125145   6.649   3.566   4.462
 8082SOL    HW225146   6.667   3.562   4.300
 8083SOL     OW25147   6.214   2.047   4.658
 8083SOL    HW125148   6.207   2.146   4.645
 8083SOL    HW225149   6.186   2.024   4.751
 8084SOL     OW25150   6.780   0.384   0.850
 8084SOL    HW125151   6.695   0.333   0.847
 8084SOL    HW225152   6.764   0.477   0.816
 8085SOL     OW25153   6.167   2.051   0.577
 8085SOL    HW125154   6.242   2.091   0.629
 8085SOL    HW225155   6.204   1.990   0.507
 8086SOL     OW25156   2.566   5.968   5.860
 8086SOL    HW125157   2.574   6.067   5.870
 8086SOL    HW225158   2.651   5.924   5.889
 8087SOL     OW25159   2.807   4.102   0.442
 8087SOL    HW125160   2.883   4.167   0.432
 8087SOL    HW225161   2.768   4.109   0.534
 8088SOL     OW25162   4.458   0.549   2.723
 8088SOL    HW125163   4.490   0.495   2.645
 8088SOL    HW225164   4.465   0.646   2.702
 8089SOL     OW25165   6.358   2.948   0.531
 8089SOL    HW125166   6.296   2.894   0.588
 8089SOL    HW225167   6.350   3.045   0.555
 8090SOL     OW25168   3.988   2.345   5.321
 8090SOL    HW125169   4.041   2.419   5.280
 8090SOL    HW225170   4.013   2.258   5.278
 8091SOL     OW25171   2.453   4.843   5.552
 8091SOL    HW125172   2.445   4.795   5.465
 8091SOL    HW225173   2.365   4.884   5.576
 8092SOL     OW25174   6.768   1.880   3.965
 8092SOL    HW125175   6.707   1.959   3.977
 8092SOL    HW225176   6.754   1.815   4.040
 8093SOL     OW25177   5.866   5.204   0.731
 8093SOL    HW125178   5.794   5.159   0.677
 8093SOL    HW225179   5.857   5.177   0.827
 8094SOL     OW25180   0.549   3.656   4.572
 8094SOL    HW125181   0.584   3.686   4.484
 8094SOL    HW225182   0.556   3.731   4.638
 8095SOL     OW25183   6.127   3.517   4.965
 8095SOL    HW125184   6.034   3.543   4.989
 8095SOL    HW225185   6.155   3.439   5.020
 8096SOL     OW25186   3.658   1.156   0.562
 8096SOL    HW125187   3.587   1.190   0.623
 8096SOL    HW225188   3.657   1.210   0.477
 8097SOL     OW25189   4.714   1.408   4.281
 8097SOL    HW125190   4.743   1.355   4.361
 8097SOL    HW225191   4.653   1.482   4.310
 8098SOL     OW25192   2.486   1.434   4.289
 8098SOL    HW125193   2.456   1.518   4.244
 8098SOL    HW225194   2.513   1.367   4.220
 8099SOL     OW25195   4.593   6.201   4.865
 8099SOL    HW125196   4.689   6.174   4.865
 8099SOL    HW225197   4.585   6.294   4.828
 8100SOL     OW25198   0.015   6.362   0.597
 8100SOL    HW125199   7.002   6.456   0.586
 8100SOL    HW225200   0.021   6.340   0.695
 8101SOL     OW25201   0.768   4.969   2.390
 8101SOL    HW125202   0.771   4.888   2.448
 8101SOL    HW225203   0.857   5.014   2.390
 8102SOL     OW25204   6.660   0.265   6.337
 8102SOL    HW125205   6.621   0.225   6.254
 8102SOL    HW225206   6.589   0.268   6.408
 8103SOL     OW25207   2.360   1.982   2.128
 8103SOL    HW125208   2.318   2.031   2.205
 8103SOL    HW225209   2.288   1.947   2.068
 8104SOL     OW25210   3.248   6.178   5.936
 8104SOL    HW125211   3.256   6.088   5.979
 8104SOL    HW225212   3.178   6.176   5.865
 8105SOL     OW25213   2.276   2.804   2.725
 8105SOL    HW125214   2.347   2.734   2.736
 8105SOL    HW225215   2.248   2.807   2.629
 8106SOL     OW25216   6.906   4.373   5.249
 8106SOL    HW125217   6.893   4.358   5.151
 8106SOL    HW225218   7.003   4.387   5.268
 8107SOL     OW25219   1.080   5.661   6.509
 8107SOL    HW125220   1.019   5.589   6.542
 8107SOL    HW225221   1.026   5.733   6.465
 8108SOL     OW25222   2.129   3.723   4.877
 8108SOL    HW125223   2.120   3.757   4.783
 8108SOL    HW225224   2.182   3.639   4.877
 8109SOL     OW25225   0.898   5.655   4.904
 8109SOL    HW125226   0.961   5.581   4.930
 8109SOL    HW225227   0.817   5.616   4.861
 8110SOL     OW25228   1.156   4.637   0.877
 8110SOL    HW125229   1.217   4.709   0.908
 8110SOL    HW225230   1.207   4.551   0.869
 8111SOL     OW25231   3.335   5.805   4.341
 8111SOL    HW125232   3.306   5.869   4.413
 8111SOL    HW225233   3.254   5.765   4.298
 8112SOL     OW25234   4.378   1.169   4.404
 8112SOL    HW125235   4.455   1.165   4.341
 8112SOL    HW225236   4.293   1.153   4.353
 8113SOL     OW25237   3.465   2.994   5.881
 8113SOL    HW125238   3.534   2.985   5.810
 8113SOL    HW225239   3.509   2.997   5.971
 8114SOL     OW25240   3.201   3.522   1.705
 8114SOL    HW125241   3.121   3.494   1.758
 8114SOL    HW225242   3.273   3.553   1.768
 8115SOL     OW25243   3.658   2.442   1.471
 8115SOL    HW125244   3.675   2.520   1.412
 8115SOL    HW225245   3.643   2.474   1.565
 8116SOL     OW25246   4.779   1.527   5.151
 8116SOL    HW125247   4.789   1.487   5.242
 8116SOL    HW225248   4.766   1.626   5.159
 8117SOL     OW25249   2.625   1.724   5.811
 8117SOL    HW125250   2.541   1.752   5.765
 8117SOL    HW225251   2.617   1.742   5.909
 8118SOL     OW25252   1.289   2.499   4.494
 8118SOL    HW125253   1.209   2.438   4.498
 8118SOL    HW225254   1.263   2.585   4.450
 8119SOL     OW25255   0.989   6.185   1.541
 8119SOL    HW125256   1.046   6.164   1.620
 8119SOL    HW225257   1.041   6.239   1.475
 8120SOL     OW25258   4.733   4.043   1.822
 8120SOL    HW125259   4.733   4.139   1.851
 8120SOL    HW225260   4.677   4.034   1.740
 8121SOL     OW25261   6.484   6.472   2.949
 8121SOL    HW125262   6.462   6.383   2.910
 8121SOL    HW225263   6.567   6.508   2.907
 8122SOL     OW25264   0.630   5.708   1.172
 8122SOL    HW125265   0.659   5.793   1.216
 8122SOL    HW225266   0.702   5.639   1.182
 8123SOL     OW25267   1.053   5.286   0.429
 8123SOL    HW125268   0.986   5.272   0.356
 8123SOL    HW225269   1.091   5.198   0.458
 8124SOL     OW25270   1.155   6.345   3.196
 8124SOL    HW125271   1.218   6.269   3.180
 8124SOL    HW225272   1.063   6.309   3.211
 8125SOL     OW25273   5.937   5.095   3.201
 8125SOL    HW125274   5.885   5.037   3.264
 8125SOL    HW225275   5.904   5.081   3.108
 8126SOL     OW25276   6.717   4.196   2.569
 8126SOL    HW125277   6.671   4.187   2.481
 8126SOL    HW225278   6.816   4.185   2.557
 8127SOL     OW25279   4.070   5.150   1.411
 8127SOL    HW125280   4.152   5.095   1.427
 8127SOL    HW225281   3.992   5.090   1.392
 8128SOL     OW25282   3.607   2.161   5.731
 8128SOL    HW125283   3.553   2.088   5.689
 8128SOL    HW225284   3.697   2.126   5.756
 8129SOL     OW25285   5.065   6.217   6.429
 8129SOL    HW125286   5.129   6.142   6.414
 8129SOL    HW225287   5.013   6.234   6.345
 8130SOL     OW25288   0.760   6.972   6.801
 8130SOL    HW125289   0.859   6.989   6.797
 8130SOL    HW225290   0.714   0.033   6.842
 8131SOL     OW25291   1.971   1.258   0.759
 8131SOL    HW125292   1.896   1.204   0.798
 8131SOL    HW225293   1.999   1.218   0.672
 8132SOL     OW25294   6.122   4.678   2.979
 8132SOL    HW125295   6.184   4.708   3.051
 8132SOL    HW225296   6.136   4.581   2.961
 8133SOL     OW25297   0.676   5.966   2.003
 8133SOL    HW125298   0.708   5.970   1.908
 8133SOL    HW225299   0.585   6.007   2.009
 8134SOL     OW25300   1.555   2.475   2.123
 8134SOL    HW125301   1.584   2.391   2.077
 8134SOL    HW225302   1.573   2.554   2.064
 8135SOL     OW25303   4.032   6.241   2.356
 8135SOL    HW125304   4.083   6.156   2.350
 8135SOL    HW225305   3.983   6.257   2.270
 8136SOL     OW25306   2.121   6.108   1.342
 8136SOL    HW125307   2.185   6.039   1.375
 8136SOL    HW225308   2.088   6.162   1.420
 8137SOL     OW25309   3.396   3.733   4.944
 8137SOL    HW125310   3.445   3.673   4.881
 8137SOL    HW225311   3.299   3.737   4.918
 8138SOL     OW25312   4.831   1.008   3.084
 8138SOL    HW125313   4.781   1.042   3.004
 8138SOL    HW225314   4.927   1.036   3.078
 8139SOL     OW25315   1.502   3.307   5.101
 8139SOL    HW125316   1.404   3.291   5.094
 8139SOL    HW225317   1.548   3.226   5.136
 8140SOL     OW25318   4.224   0.852   1.088
 8140SOL    HW125319   4.226   0.912   1.008
 8140SOL    HW225320   4.137   0.863   1.136
 8141SOL     OW25321   6.009   0.310   5.756
 8141SOL    HW125322   5.987   0.370   5.833
 8141SOL    HW225323   6.082   0.351   5.701
 8142SOL     OW25324   2.327   5.661   0.871
 8142SOL    HW125325   2.388   5.740   0.874
 8142SOL    HW225326   2.377   5.579   0.902
 8143SOL     OW25327   5.719   4.666   0.571
 8143SOL    HW125328   5.754   4.575   0.590
 8143SOL    HW225329   5.659   4.695   0.646
 8144SOL     OW25330   0.897   5.950   6.925
 8144SOL    HW125331   0.880   5.857   6.892
 8144SOL    HW225332   0.982   5.984   6.887
 8145SOL     OW25333   5.396   5.717   6.872
 8145SOL    HW125334   5.447   5.776   6.810
 8145SOL    HW225335   5.334   5.772   6.928
 8146SOL     OW25336   6.759   6.205   4.740
 8146SOL    HW125337   6.713   6.288   4.710
 8146SOL    HW225338   6.692   6.133   4.757
 8147SOL     OW25339   2.103   0.773   5.382
 8147SOL    HW125340   2.192   0.819   5.383
 8147SOL    HW225341   2.030   0.842   5.382
 8148SOL     OW25342   4.767   3.945   0.498
 8148SOL    HW125343   4.787   4.028   0.550
 8148SOL    HW225344   4.721   3.879   0.558
 8149SOL     OW25345   1.646   6.903   5.196
 8149SOL    HW125346   1.624   6.951   5.111
 8149SOL    HW225347   1.743   6.879   5.196
 8150SOL     OW25348   0.692   3.984   0.630
 8150SOL    HW125349   0.626   4.029   0.690
 8150SOL    HW225350   0.783   3.990   0.670
 8151SOL     OW25351   6.569   5.246   3.056
 8151SOL    HW125352   6.596   5.273   3.149
 8151SOL    HW225353   6.498   5.308   3.023
 8152SOL     OW25354   5.428   1.485   2.680
 8152SOL    HW125355   5.505   1.423   2.696
 8152SOL    HW225356   5.444   1.571   2.730
 8153SOL     OW25357   0.309   1.820   1.959
 8153SOL    HW125358   0.359   1.868   2.031
 8153SOL    HW225359   0.337   1.856   1.870
 8154SOL     OW25360   1.317   0.697   2.948
 8154SOL    HW125361   1.302   0.796   2.947
 8154SOL    HW225362   1.257   0.655   3.016
 8155SOL     OW25363   1.661   5.072   4.318
 8155SOL    HW125364   1.601   4.992   4.306
 8155SOL    HW225365   1.753   5.041   4.341
 8156SOL     OW25366   1.247   4.229   0.526
 8156SOL    HW125367   1.259   4.154   0.591
 8156SOL    HW225368   1.217   4.193   0.438
 8157SOL     OW25369   6.506   4.603   4.907
 8157SOL    HW125370   6.455   4.566   4.985
 8157SOL    HW225371   6.591   4.646   4.940
 8158SOL     OW25372   5.931   5.276   6.166
 8158SOL    HW125373   5.855   5.314   6.112
 8158SOL    HW225374   5.920   5.178   6.175
 8159SOL     OW25375   2.708   0.577   4.642
 8159SOL    HW125376   2.773   0.577   4.718
 8159SOL    HW225377   2.674   0.484   4.627
 8160SOL     OW25378   5.901   1.459   2.576
 8160SOL    HW125379   5.900   1.534   2.510
 8160SOL    HW225380   5.836   1.478   2.649
 8161SOL     OW25381   6.273   2.145   2.190
 8161SOL    HW125382   6.286   2.239   2.220
 8161SOL    HW225383   6.243   2.144   2.094
 8162SOL     OW25384   0.655   5.553   4.783
 8162SOL    HW125385   0.685   5.467   4.744
 8162SOL    HW225386   0.557   5.565   4.766
 8163SOL     OW25387   3.721   4.693   5.712
 8163SOL    HW125388   3.646   4.759   5.718
 8163SOL    HW225389   3.721   4.650   5.621
 8164SOL     OW25390   5.265   1.752   0.740
 8164SOL    HW125391   5.253   1.850   0.732
 8164SOL    HW225392   5.176   1.708   0.752
 8165SOL     OW25393   0.635   1.763   5.809
 8165SOL    HW125394   0.576   1.747   5.730
 8165SOL    HW225395   0.729   1.739   5.786
 8166SOL     OW25396   2.237   1.672   5.034
 8166SOL    HW125397   2.323   1.631   5.063
 8166SOL    HW225398   2.173   1.601   5.006
 8167SOL     OW25399   1.730   3.123   3.576
 8167SOL    HW125400   1.788   3.137   3.657
 8167SOL    HW225401   1.634   3.139   3.602
 8168SOL     OW25402   1.841   6.814   2.619
 8168SOL    HW125403   1.881   6.905   2.607
 8168SOL    HW225404   1.904   6.755   2.669
 8169SOL     OW25405   4.632   3.326   1.185
 8169SOL    HW125406   4.601   3.400   1.245
 8169SOL    HW225407   4.705   3.275   1.230
 8170SOL     OW25408   7.003   4.546   2.748
 8170SOL    HW125409   6.984   4.603   2.829
 8170SOL    HW225410   6.963   4.589   2.667
 8171SOL     OW25411   2.540   1.944   1.381
 8171SOL    HW125412   2.521   1.984   1.291
 8171SOL    HW225413   2.482   1.988   1.449
 8172SOL     OW25414   1.222   3.095   1.364
 8172SOL    HW125415   1.320   3.078   1.353
 8172SOL    HW225416   1.208   3.162   1.437
 8173SOL     OW25417   5.983   0.327   1.685
 8173SOL    HW125418   5.890   0.292   1.670
 8173SOL    HW225419   5.980   0.426   1.689
 8174SOL     OW25420   2.366   6.602   3.867
 8174SOL    HW125421   2.322   6.537   3.928
 8174SOL    HW225422   2.452   6.564   3.833
 8175SOL     OW25423   0.797   2.384   5.678
 8175SOL    HW125424   0.748   2.302   5.649
 8175SOL    HW225425   0.795   2.391   5.778
 8176SOL     OW25426   2.475   4.553   0.524
 8176SOL    HW125427   2.457   4.598   0.436
 8176SOL    HW225428   2.572   4.530   0.531
 8177SOL     OW25429   2.560   0.776   3.386
 8177SOL    HW125430   2.653   0.773   3.423
 8177SOL    HW225431   2.495   0.792   3.461
 8178SOL     OW25432   2.333   6.378   1.296
 8178SOL    HW125433   2.260   6.340   1.239
 8178SOL    HW225434   2.385   6.304   1.337
 8179SOL     OW25435   5.819   0.348   3.405
 8179SOL    HW125436   5.818   0.443   3.439
 8179SOL    HW225437   5.781   0.288   3.475
 8180SOL     OW25438   4.916   5.855   0.376
 8180SOL    HW125439   4.892   5.789   0.305
 8180SOL    HW225440   4.973   5.810   0.445
 8181SOL     OW25441   6.937   0.228   6.274
 8181SOL    HW125442   6.841   0.235   6.302
 8181SOL    HW225443   6.955   0.295   6.202
 8182SOL     OW25444   3.295   3.671   3.501
 8182SOL    HW125445   3.286   3.726   3.418
 8182SOL    HW225446   3.384   3.625   3.502
 8183SOL     OW25447   6.416   0.302   5.617
 8183SOL    HW125448   6.442   0.206   5.611
 8183SOL    HW225449   6.379   0.320   5.709
 8184SOL     OW25450   0.051   5.637   5.879
 8184SOL    HW125451   6.971   5.643   5.859
 8184SOL    HW225452   0.064   5.638   5.979
 8185SOL     OW25453   0.264   5.909   5.518
 8185SOL    HW125454   0.352   5.862   5.529
 8185SOL    HW225455   0.195   5.865   5.574
 8186SOL     OW25456   1.774   5.616   0.562
 8186SOL    HW125457   1.703   5.658   0.617
 8186SOL    HW225458   1.822   5.546   0.616
 8187SOL     OW25459   1.761   0.122   4.963
 8187SOL    HW125460   1.678   0.168   4.997
 8187SOL    HW225461   1.842   0.168   5.000
 8188SOL     OW25462   1.989   3.171   2.678
 8188SOL    HW125463   1.900   3.151   2.639
 8188SOL    HW225464   1.993   3.267   2.705
 8189SOL     OW25465   6.080   5.101   3.501
 8189SOL    HW125466   5.983   5.078   3.496
 8189SOL    HW225467   6.093   5.198   3.484
 8190SOL     OW25468   6.477   4.039   2.956
 8190SOL    HW125469   6.420   3.956   2.952
 8190SOL    HW225470   6.557   4.021   3.014
 8191SOL     OW25471   4.050   4.654   0.818
 8191SOL    HW125472   4.062   4.712   0.737
 8191SOL    HW225473   4.047   4.558   0.790
 8192SOL     OW25474   0.529   5.686   3.318
 8192SOL    HW125475   0.578   5.611   3.364
 8192SOL    HW225476   0.591   5.731   3.253
 8193SOL     OW25477   0.874   4.611   3.737
 8193SOL    HW125478   0.966   4.594   3.702
 8193SOL    HW225479   0.811   4.621   3.661
 8194SOL     OW25480   4.793   0.536   1.533
 8194SOL    HW125481   4.731   0.496   1.600
 8194SOL    HW225482   4.739   0.578   1.459
 8195SOL     OW25483   6.211   0.114   4.078
 8195SOL    HW125484   6.192   0.194   4.135
 8195SOL    HW225485   6.205   0.140   3.982
 8196SOL     OW25486   5.141   1.002   2.054
 8196SOL    HW125487   5.118   0.905   2.062
 8196SOL    HW225488   5.234   1.017   2.087
 8197SOL     OW25489   4.037   1.690   3.397
 8197SOL    HW125490   4.071   1.653   3.310
 8197SOL    HW225491   4.020   1.788   3.387
 8198SOL     OW25492   1.692   5.823   1.566
 8198SOL    HW125493   1.735   5.750   1.513
 8198SOL    HW225494   1.763   5.879   1.609
 8199SOL     OW25495   6.088   2.395   0.341
 8199SOL    HW125496   6.030   2.350   0.410
 8199SOL    HW225497   6.030   2.428   0.267
 8200SOL     OW25498   4.759   3.351   0.710
 8200SOL    HW125499   4.757   3.359   0.810
 8200SOL    HW225500   4.843   3.392   0.675
 8201SOL     OW25501   5.681   6.774   5.479
 8201SOL    HW125502   5.693   6.873   5.485
 8201SOL    HW225503   5.724   6.740   5.395
 8202SOL     OW25504   1.285   6.206   1.755
 8202SOL    HW125505   1.302   6.299   1.786
 8202SOL    HW225506   1.289   6.203   1.655
 8203SOL     OW25507   1.943   3.541   1.173
 8203SOL    HW125508   1.920   3.503   1.262
 8203SOL    HW225509   2.038   3.518   1.151
 8204SOL     OW25510   2.627   3.554   0.805
 8204SOL    HW125511   2.691   3.483   0.776
 8204SOL    HW225512   2.618   3.622   0.732
 8205SOL     OW25513   0.660   4.342   7.005
 8205SOL    HW125514   0.733   4.405   0.013
 8205SOL    HW225515   0.681   4.301   6.916
 8206SOL     OW25516   3.054   1.257   1.298
 8206SOL    HW125517   3.122   1.260   1.224
 8206SOL    HW225518   3.020   1.163   1.307
 8207SOL     OW25519   3.987   3.810   4.110
 8207SOL    HW125520   3.900   3.811   4.061
 8207SOL    HW225521   3.992   3.889   4.171
 8208SOL     OW25522   2.013   0.257   0.348
 8208SOL    HW125523   2.107   0.226   0.335
 8208SOL    HW225524   2.012   0.338   0.407
 8209SOL     OW25525   6.014   1.441   4.893
 8209SOL    HW125526   5.917   1.461   4.901
 8209SOL    HW225527   6.026   1.351   4.850
 8210SOL     OW25528   2.157   2.740   6.482
 8210SOL    HW125529   2.148   2.642   6.502
 8210SOL    HW225530   2.072   2.773   6.441
 8211SOL     OW25531   4.156   4.528   1.343
 8211SOL    HW125532   4.078   4.488   1.295
 8211SOL    HW225533   4.133   4.621   1.372
 8212SOL     OW25534   1.847   2.780   2.949
 8212SOL    HW125535   1.946   2.778   2.950
 8212SOL    HW225536   1.813   2.832   3.027
 8213SOL     OW25537   6.439   4.741   1.510
 8213SOL    HW125538   6.496   4.752   1.591
 8213SOL    HW225539   6.462   4.811   1.443
 8214SOL     OW25540   5.282   3.561   2.989
 8214SOL    HW125541   5.243   3.645   2.951
 8214SOL    HW225542   5.226   3.530   3.066
 8215SOL     OW25543   3.449   5.175   3.015
 8215SOL    HW125544   3.387   5.244   2.976
 8215SOL    HW225545   3.512   5.218   3.078
 8216SOL     OW25546   5.826   3.489   3.857
 8216SOL    HW125547   5.752   3.524   3.799
 8216SOL    HW225548   5.814   3.390   3.870
 8217SOL     OW25549   1.973   6.405   0.936
 8217SOL    HW125550   1.880   6.439   0.944
 8217SOL    HW225551   1.978   6.337   0.863
 8218SOL     OW25552   6.162   2.252   0.050
 8218SOL    HW125553   6.221   2.215   0.121
 8218SOL    HW225554   6.198   2.340   0.019
 8219SOL     OW25555   5.430   1.631   0.057
 8219SOL    HW125556   5.339   1.651   0.093
 8219SOL    HW225557   5.483   1.582   0.127
 8220SOL     OW25558   4.222   3.825   1.578
 8220SOL    HW125559   4.157   3.758   1.614
 8220SOL    HW225560   4.202   3.915   1.615
 8221SOL     OW25561   5.120   4.882   3.400
 8221SOL    HW125562   5.159   4.816   3.464
 8221SOL    HW225563   5.108   4.837   3.311
 8222SOL     OW25564   6.562   1.618   2.664
 8222SOL    HW125565   6.511   1.555   2.722
 8222SOL    HW225566   6.523   1.617   2.572
 8223SOL     OW25567   6.637   5.053   5.587
 8223SOL    HW125568   6.554   5.003   5.611
 8223SOL    HW225569   6.643   5.135   5.644
 8224SOL     OW25570   1.034   3.706   3.159
 8224SOL    HW125571   1.037   3.635   3.089
 8224SOL    HW225572   1.126   3.720   3.196
 8225SOL     OW25573   4.634   1.065   0.686
 8225SOL    HW125574   4.675   0.974   0.691
 8225SOL    HW225575   4.575   1.071   0.606
 8226SOL     OW25576   4.071   0.597   0.857
 8226SOL    HW125577   4.031   0.685   0.881
 8226SOL    HW225578   4.006   0.524   0.879
 8227SOL     OW25579   5.877   3.734   2.748
 8227SOL    HW125580   5.829   3.794   2.684
 8227SOL    HW225581   5.811   3.671   2.790
 8228SOL     OW25582   0.169   1.957   4.861
 8228SOL    HW125583   0.082   1.957   4.812
 8228SOL    HW225584   0.243   1.972   4.795
 8229SOL     OW25585   3.709   5.483   0.817
 8229SOL    HW125586   3.731   5.561   0.758
 8229SOL    HW225587   3.776   5.477   0.890
 8230SOL     OW25588   4.981   0.303   3.987
 8230SOL    HW125589   4.993   0.231   3.919
 8230SOL    HW225590   4.892   0.293   4.031
 8231SOL     OW25591   4.180   5.937   1.291
 8231SOL    HW125592   4.211   5.857   1.240
 8231SOL    HW225593   4.181   5.917   1.389
 8232SOL     OW25594   2.614   1.717   6.623
 8232SOL    HW125595   2.579   1.810   6.635
 8232SOL    HW225596   2.575   1.676   6.542
 8233SOL     OW25597   0.260   5.338   6.121
 8233SOL    HW125598   0.219   5.256   6.082
 8233SOL    HW225599   0.306   5.315   6.206
 8234SOL     OW25600   3.383   3.372   0.102
 8234SOL    HW125601   3.399   3.275   0.122
 8234SOL    HW225602   3.429   3.396   0.016
 8235SOL     OW25603   4.688   2.322   0.150
 8235SOL    HW125604   4.781   2.322   0.188
 8235SOL    HW225605   4.638   2.241   0.182
 8236SOL     OW25606   5.703   2.237   0.878
 8236SOL    HW125607   5.643   2.202   0.807
 8236SOL    HW225608   5.649   2.263   0.958
 8237SOL     OW25609   4.066   6.314   5.552
 8237SOL    HW125610   4.076   6.246   5.625
 8237SOL    HW225611   3.987   6.371   5.571
 8238SOL     OW25612   1.813   1.035   0.031
 8238SOL    HW125613   1.808   1.080   6.959
 8238SOL    HW225614   1.774   0.944   0.024
 8239SOL     OW25615   6.674   1.280   6.672
 8239SOL    HW125616   6.751   1.233   6.715
 8239SOL    HW225617   6.680   1.378   6.690
 8240SOL     OW25618   4.085   3.579   3.370
 8240SOL    HW125619   4.153   3.570   3.297
 8240SOL    HW225620   4.069   3.490   3.412
 8241SOL     OW25621   4.458   6.620   1.686
 8241SOL    HW125622   4.510   6.590   1.606
 8241SOL    HW225623   4.509   6.692   1.733
 8242SOL     OW25624   0.853   3.876   5.344
 8242SOL    HW125625   0.808   3.823   5.271
 8242SOL    HW225626   0.897   3.957   5.305
 8243SOL     OW25627   1.097   3.462   5.096
 8243SOL    HW125628   1.150   3.468   5.180
 8243SOL    HW225629   1.056   3.550   5.075
 8244SOL     OW25630   1.472   5.425   4.739
 8244SOL    HW125631   1.534   5.363   4.787
 8244SOL    HW225632   1.480   5.516   4.778
 8245SOL     OW25633   3.707   3.624   0.741
 8245SOL    HW125634   3.723   3.631   0.839
 8245SOL    HW225635   3.639   3.553   0.722
 8246SOL     OW25636   5.057   3.950   5.820
 8246SOL    HW125637   5.019   3.969   5.911
 8246SOL    HW225638   5.037   3.856   5.795
 8247SOL     OW25639   1.120   6.753   1.530
 8247SOL    HW125640   1.107   6.748   1.431
 8247SOL    HW225641   1.141   6.661   1.564
 8248SOL     OW25642   0.219   4.272   3.278
 8248SOL    HW125643   0.199   4.189   3.227
 8248SOL    HW225644   0.308   4.264   3.323
 8249SOL     OW25645   1.450   5.688   3.145
 8249SOL    HW125646   1.511   5.675   3.066
 8249SOL    HW225647   1.498   5.738   3.216
 8250SOL     OW25648   3.892   3.826   2.138
 8250SOL    HW125649   3.859   3.738   2.104
 8250SOL    HW225650   3.919   3.883   2.061
 8251SOL     OW25651   6.287   1.845   5.129
 8251SOL    HW125652   6.267   1.752   5.098
 8251SOL    HW225653   6.357   1.885   5.071
 8252SOL     OW25654   1.058   3.388   4.322
 8252SOL    HW125655   1.074   3.469   4.378
 8252SOL    HW225656   1.144   3.340   4.306
 8253SOL     OW25657   2.631   2.977   5.434
 8253SOL    HW125658   2.726   2.949   5.423
 8253SOL    HW225659   2.593   3.003   5.345
 8254SOL     OW25660   4.444   5.934   3.652
 8254SOL    HW125661   4.401   5.845   3.670
 8254SOL    HW225662   4.382   5.990   3.597
 8255SOL     OW25663   4.358   5.045   3.950
 8255SOL    HW125664   4.355   5.110   4.026
 8255SOL    HW225665   4.388   4.956   3.983
 8256SOL     OW25666   6.277   2.437   4.251
 8256SOL    HW125667   6.340   2.482   4.314
 8256SOL    HW225668   6.273   2.488   4.165
 8257SOL     OW25669   6.479   4.072   4.858
 8257SOL    HW125670   6.522   4.048   4.770
 8257SOL    HW225671   6.380   4.077   4.846
 8258SOL     OW25672   4.950   1.616   0.047
 8258SOL    HW125673   5.015   1.666   7.008
 8258SOL    HW225674   4.963   1.517   0.034
 8259SOL     OW25675   3.719   1.239   1.724
 8259SOL    HW125676   3.643   1.298   1.698
 8259SOL    HW225677   3.799   1.261   1.667
 8260SOL     OW25678   2.653   6.266   0.658
 8260SOL    HW125679   2.660   6.312   0.569
 8260SOL    HW225680   2.739   6.221   0.680
 8261SOL     OW25681   5.350   1.192   1.680
 8261SOL    HW125682   5.265   1.145   1.703
 8261SOL    HW225683   5.333   1.258   1.606
 8262SOL     OW25684   0.926   2.060   0.573
 8262SOL    HW125685   1.024   2.045   0.569
 8262SOL    HW225686   0.902   2.140   0.518
 8263SOL     OW25687   5.655   1.129   0.273
 8263SOL    HW125688   5.719   1.188   0.322
 8263SOL    HW225689   5.659   1.149   0.176
 8264SOL     OW25690   1.724   4.335   2.663
 8264SOL    HW125691   1.684   4.271   2.729
 8264SOL    HW225692   1.796   4.288   2.613
 8265SOL     OW25693   1.871   1.051   2.154
 8265SOL    HW125694   1.921   0.982   2.102
 8265SOL    HW225695   1.798   1.089   2.097
 8266SOL     OW25696   2.896   0.299   3.104
 8266SOL    HW125697   2.871   0.395   3.092
 8266SOL    HW225698   2.886   0.252   3.016
 8267SOL     OW25699   0.370   3.591   0.412
 8267SOL    HW125700   0.354   3.551   0.502
 8267SOL    HW225701   0.417   3.679   0.423
 8268SOL     OW25702   3.566   5.824   6.489
 8268SOL    HW125703   3.662   5.822   6.518
 8268SOL    HW225704   3.518   5.895   6.541
 8269SOL     OW25705   6.053   1.892   0.978
 8269SOL    HW125706   6.054   1.991   0.965
 8269SOL    HW225707   6.122   1.866   1.045
 8270SOL     OW25708   3.409   6.427   4.130
 8270SOL    HW125709   3.479   6.444   4.060
 8270SOL    HW225710   3.318   6.427   4.086
 8271SOL     OW25711   6.582   2.131   1.978
 8271SOL    HW125712   6.629   2.097   2.059
 8271SOL    HW225713   6.533   2.216   2.001
 8272SOL     OW25714   3.506   1.412   4.279
 8272SOL    HW125715   3.428   1.474   4.286
 8272SOL    HW225716   3.565   1.441   4.204
 8273SOL     OW25717   1.976   6.630   1.285
 8273SOL    HW125718   1.886   6.623   1.241
 8273SOL    HW225719   1.981   6.563   1.359
 8274SOL     OW25720   5.290   4.309   3.504
 8274SOL    HW125721   5.233   4.245   3.554
 8274SOL    HW225722   5.244   4.398   3.497
 8275SOL     OW25723   4.910   2.185   6.533
 8275SOL    HW125724   4.906   2.097   6.485
 8275SOL    HW225725   4.830   2.240   6.510
 8276SOL     OW25726   0.371   2.004   2.895
 8276SOL    HW125727   0.394   1.982   2.989
 8276SOL    HW225728   0.454   2.006   2.840
 8277SOL     OW25729   6.401   0.349   6.945
 8277SOL    HW125730   6.417   0.412   0.004
 8277SOL    HW225731   6.446   0.262   6.964
 8278SOL     OW25732   1.678   2.582   6.560
 8278SOL    HW125733   1.658   2.679   6.548
 8278SOL    HW225734   1.754   2.571   6.624
 8279SOL     OW25735   6.991   6.220   3.999
 8279SOL    HW125736   6.958   6.143   3.944
 8279SOL    HW225737   6.918   6.288   4.009
 8280SOL     OW25738   2.656   2.105   5.866
 8280SOL    HW125739   2.730   2.072   5.925
 8280SOL    HW225740   2.652   2.205   5.871
 8281SOL     OW25741   6.057   5.716   2.222
 8281SOL    HW125742   6.052   5.657   2.303
 8281SOL    HW225743   6.117   5.794   2.242
 8282SOL     OW25744   5.697   2.894   6.286
 8282SOL    HW125745   5.617   2.952   6.297
 8282SOL    HW225746   5.742   2.915   6.199
 8283SOL     OW25747   1.815   3.190   6.060
 8283SOL    HW125748   1.746   3.199   6.132
 8283SOL    HW225749   1.894   3.246   6.082
 8284SOL     OW25750   6.262   3.902   1.655
 8284SOL    HW125751   6.280   3.909   1.557
 8284SOL    HW225752   6.164   3.888   1.670
 8285SOL     OW25753   3.781   3.661   4.299
 8285SOL    HW125754   3.864   3.712   4.318
 8285SOL    HW225755   3.714   3.678   4.371
 8286SOL     OW25756   6.551   1.588   6.208
 8286SOL    HW125757   6.582   1.677   6.173
 8286SOL    HW225758   6.552   1.521   6.134
 8287SOL     OW25759   1.307   5.678   4.245
 8287SOL    HW125760   1.244   5.601   4.234
 8287SOL    HW225761   1.256   5.760   4.271
 8288SOL     OW25762   2.832   2.288   3.000
 8288SOL    HW125763   2.899   2.322   2.934
 8288SOL    HW225764   2.740   2.300   2.963
 8289SOL     OW25765   0.213   6.056   6.521
 8289SOL    HW125766   0.245   6.100   6.604
 8289SOL    HW225767   0.113   6.057   6.519
 8290SOL     OW25768   6.730   2.619   0.780
 8290SOL    HW125769   6.673   2.689   0.737
 8290SOL    HW225770   6.689   2.591   0.867
 8291SOL     OW25771   3.958   7.008   1.198
 8291SOL    HW125772   4.018   6.940   1.240
 8291SOL    HW225773   3.880   6.962   1.157
 8292SOL     OW25774   2.894   6.865   6.414
 8292SOL    HW125775   2.835   6.936   6.453
 8292SOL    HW225776   2.857   6.835   6.326
 8293SOL     OW25777   5.479   6.004   4.994
 8293SOL    HW125778   5.482   5.905   4.978
 8293SOL    HW225779   5.436   6.049   4.916
 8294SOL     OW25780   5.381   2.468   0.051
 8294SOL    HW125781   5.346   2.429   6.983
 8294SOL    HW225782   5.458   2.527   0.031
 8295SOL     OW25783   4.762   3.973   0.216
 8295SOL    HW125784   4.774   3.964   0.315
 8295SOL    HW225785   4.784   3.886   0.172
 8296SOL     OW25786   1.191   5.359   6.484
 8296SOL    HW125787   1.166   5.444   6.437
 8296SOL    HW225788   1.111   5.298   6.487
 8297SOL     OW25789   0.900   2.267   3.601
 8297SOL    HW125790   0.847   2.351   3.614
 8297SOL    HW225791   0.997   2.289   3.603
 8298SOL     OW25792   4.848   1.398   1.756
 8298SOL    HW125793   4.770   1.461   1.756
 8298SOL    HW225794   4.924   1.439   1.706
 8299SOL     OW25795   6.372   2.171   1.460
 8299SOL    HW125796   6.307   2.241   1.431
 8299SOL    HW225797   6.435   2.209   1.527
 8300SOL     OW25798   1.080   4.528   3.577
 8300SOL    HW125799   1.107   4.448   3.630
 8300SOL    HW225800   1.041   4.499   3.490
 8301SOL     OW25801   3.524   2.891   6.706
 8301SOL    HW125802   3.433   2.891   6.748
 8301SOL    HW225803   3.525   2.956   6.630
 8302SOL     OW25804   5.263   5.536   6.054
 8302SOL    HW125805   5.303   5.607   5.996
 8302SOL    HW225806   5.336   5.487   6.101
 8303SOL     OW25807   0.352   0.789   5.896
 8303SOL    HW125808   0.281   0.854   5.871
 8303SOL    HW225809   0.369   0.727   5.819
 8304SOL     OW25810   0.468   3.344   0.005
 8304SOL    HW125811   0.446   3.432   6.979
 8304SOL    HW225812   0.383   3.297   0.027
 8305SOL     OW25813   3.261   6.044   4.035
 8305SOL    HW125814   3.174   6.046   4.085
 8305SOL    HW225815   3.326   6.105   4.081
 8306SOL     OW25816   0.641   3.499   4.182
 8306SOL    HW125817   0.544   3.501   4.157
 8306SOL    HW225818   0.666   3.407   4.212
 8307SOL     OW25819   2.828   5.775   0.906
 8307SOL    HW125820   2.761   5.818   0.845
 8307SOL    HW225821   2.891   5.720   0.852
 8308SOL     OW25822   3.651   0.013   3.211
 8308SOL    HW125823   3.742   6.995   3.232
 8308SOL    HW225824   3.612   0.057   3.292
 8309SOL     OW25825   5.633   5.780   1.929
 8309SOL    HW125826   5.641   5.792   2.028
 8309SOL    HW225827   5.724   5.776   1.888
 8310SOL     OW25828   6.904   4.435   0.201
 8310SOL    HW125829   6.834   4.454   0.269
 8310SOL    HW225830   6.973   4.508   0.203
 8311SOL     OW25831   6.060   0.166   0.021
 8311SOL    HW125832   6.108   0.138   0.103
 8311SOL    HW225833   5.964   0.139   0.028
 8312SOL     OW25834   5.273   6.509   1.245
 8312SOL    HW125835   5.345   6.539   1.183
 8312SOL    HW225836   5.227   6.429   1.207
 8313SOL     OW25837   3.301   1.558   2.785
 8313SOL    HW125838   3.255   1.591   2.702
 8313SOL    HW225839   3.290   1.459   2.792
 8314SOL     OW25840   6.621   0.220   3.590
 8314SOL    HW125841   6.611   0.233   3.492
 8314SOL    HW225842   6.561   0.283   3.639
 8315SOL     OW25843   5.228   4.840   6.516
 8315SOL    HW125844   5.171   4.861   6.596
 8315SOL    HW225845   5.187   4.764   6.465
 8316SOL     OW25846   2.464   5.786   6.810
 8316SOL    HW125847   2.415   5.738   6.882
 8316SOL    HW225848   2.461   5.884   6.827
 8317SOL     OW25849   1.789   4.552   2.210
 8317SOL    HW125850   1.878   4.594   2.227
 8317SOL    HW225851   1.746   4.530   2.298
 8318SOL     OW25852   3.884   1.002   5.314
 8318SOL    HW125853   3.849   0.930   5.375
 8318SOL    HW225854   3.859   1.092   5.351
 8319SOL     OW25855   3.529   0.517   4.641
 8319SOL    HW125856   3.537   0.450   4.567
 8319SOL    HW225857   3.585   0.597   4.619
 8320SOL     OW25858   4.036   4.669   1.810
 8320SOL    HW125859   4.080   4.588   1.849
 8320SOL    HW225860   3.960   4.641   1.751
 8321SOL     OW25861   0.461   0.665   1.125
 8321SOL    HW125862   0.543   0.712   1.156
 8321SOL    HW225863   0.380   0.713   1.159
 8322SOL     OW25864   5.727   6.785   0.339
 8322SOL    HW125865   5.732   6.724   0.418
 8322SOL    HW225866   5.770   6.741   0.260
 8323SOL     OW25867   1.528   2.210   1.908
 8323SOL    HW125868   1.541   2.180   1.814
 8323SOL    HW225869   1.599   2.171   1.966
 8324SOL     OW25870   6.889   1.469   1.925
 8324SOL    HW125871   6.852   1.435   2.012
 8324SOL    HW225872   6.989   1.464   1.928
 8325SOL     OW25873   3.076   3.089   3.809
 8325SOL    HW125874   3.014   3.149   3.758
 8325SOL    HW225875   3.115   3.021   3.746
 8326SOL     OW25876   3.193   3.443   5.915
 8326SOL    HW125877   3.200   3.469   5.819
 8326SOL    HW225878   3.208   3.344   5.924
 8327SOL     OW25879   4.664   1.675   5.937
 8327SOL    HW125880   4.677   1.773   5.922
 8327SOL    HW225881   4.638   1.659   6.032
 8328SOL     OW25882   2.660   2.476   5.151
 8328SOL    HW125883   2.713   2.495   5.233
 8328SOL    HW225884   2.716   2.425   5.086
 8329SOL     OW25885   6.966   2.650   5.455
 8329SOL    HW125886   6.941   2.612   5.544
 8329SOL    HW225887   6.886   2.695   5.414
 8330SOL     OW25888   3.213   0.101   0.389
 8330SOL    HW125889   3.187   0.005   0.397
 8330SOL    HW225890   3.142   0.158   0.430
 8331SOL     OW25891   2.417   6.958   1.166
 8331SOL    HW125892   2.337   7.016   1.179
 8331SOL    HW225893   2.496   7.015   1.144
 8332SOL     OW25894   5.105   5.770   2.633
 8332SOL    HW125895   5.108   5.817   2.721
 8332SOL    HW225896   5.096   5.837   2.560
 8333SOL     OW25897   0.924   6.230   6.087
 8333SOL    HW125898   0.860   6.153   6.092
 8333SOL    HW225899   0.886   6.309   6.135
 8334SOL     OW25900   5.736   1.043   3.711
 8334SOL    HW125901   5.796   1.062   3.633
 8334SOL    HW225902   5.785   1.061   3.796
 8335SOL     OW25903   5.598   6.686   5.762
 8335SOL    HW125904   5.618   6.702   5.666
 8335SOL    HW225905   5.570   6.772   5.805
 8336SOL     OW25906   0.294   2.075   2.131
 8336SOL    HW125907   0.197   2.081   2.154
 8336SOL    HW225908   0.306   2.095   2.034
 8337SOL     OW25909   0.361   6.304   2.329
 8337SOL    HW125910   0.351   6.205   2.340
 8337SOL    HW225911   0.287   6.350   2.377
 8338SOL     OW25912   1.562   4.750   0.617
 8338SOL    HW125913   1.604   4.660   0.612
 8338SOL    HW225914   1.486   4.755   0.552
 8339SOL     OW25915   5.591   1.280   2.767
 8339SOL    HW125916   5.544   1.274   2.856
 8339SOL    HW225917   5.663   1.211   2.763
 8340SOL     OW25918   4.602   3.200   0.560
 8340SOL    HW125919   4.564   3.116   0.600
 8340SOL    HW225920   4.681   3.230   0.614
 8341SOL     OW25921   2.014   0.055   1.371
 8341SOL    HW125922   2.112   0.067   1.360
 8341SOL    HW225923   1.996   6.992   1.430
 8342SOL     OW25924   4.394   1.021   1.449
 8342SOL    HW125925   4.345   1.108   1.441
 8342SOL    HW225926   4.463   1.028   1.521
 8343SOL     OW25927   1.687   5.156   5.931
 8343SOL    HW125928   1.625   5.113   5.865
 8343SOL    HW225929   1.645   5.154   6.022
 8344SOL     OW25930   3.771   0.126   5.337
 8344SOL    HW125931   3.869   0.137   5.317
 8344SOL    HW225932   3.729   0.217   5.348
 8345SOL     OW25933   6.549   1.196   2.439
 8345SOL    HW125934   6.526   1.162   2.531
 8345SOL    HW225935   6.628   1.257   2.445
 8346SOL     OW25936   3.202   5.098   2.009
 8346SOL    HW125937   3.103   5.105   1.995
 8346SOL    HW225938   3.250   5.146   1.935
 8347SOL     OW25939   3.383   5.184   3.925
 8347SOL    HW125940   3.323   5.164   4.002
 8347SOL    HW225941   3.444   5.260   3.948
 8348SOL     OW25942   1.199   0.511   0.412
 8348SOL    HW125943   1.139   0.547   0.340
 8348SOL    HW225944   1.144   0.489   0.493
 8349SOL     OW25945   5.695   5.156   1.809
 8349SOL    HW125946   5.756   5.107   1.872
 8349SOL    HW225947   5.749   5.195   1.734
 8350SOL     OW25948   6.481   0.608   4.990
 8350SOL    HW125949   6.486   0.632   5.087
 8350SOL    HW225950   6.440   0.518   4.979
 8351SOL     OW25951   3.027   6.208   2.140
 8351SOL    HW125952   3.028   6.115   2.102
 8351SOL    HW225953   3.102   6.217   2.206
 8352SOL     OW25954   6.787   6.428   1.224
 8352SOL    HW125955   6.831   6.350   1.269
 8352SOL    HW225956   6.763   6.497   1.293
 8353SOL     OW25957   0.395   3.740   2.166
 8353SOL    HW125958   0.303   3.736   2.203
 8353SOL    HW225959   0.452   3.671   2.211
 8354SOL     OW25960   2.297   0.763   0.487
 8354SOL    HW125961   2.325   0.804   0.400
 8354SOL    HW225962   2.254   0.833   0.544
 8355SOL     OW25963   2.908   1.176   0.364
 8355SOL    HW125964   2.925   1.078   0.372
 8355SOL    HW225965   2.974   1.216   0.300
 8356SOL     OW25966   2.208   5.311   0.095
 8356SOL    HW125967   2.211   5.279   0.001
 8356SOL    HW225968   2.181   5.408   0.096
 8357SOL     OW25969   5.014   5.497   4.323
 8357SOL    HW125970   5.113   5.507   4.316
 8357SOL    HW225971   4.987   5.407   4.287
 8358SOL     OW25972   2.597   1.982   5.642
 8358SOL    HW125973   2.620   2.043   5.567
 8358SOL    HW225974   2.638   2.016   5.727
 8359SOL     OW25975   4.707   5.000   3.777
 8359SOL    HW125976   4.687   5.081   3.833
 8359SOL    HW225977   4.623   4.967   3.734
 8360SOL     OW25978   4.888   0.413   3.686
 8360SOL    HW125979   4.846   0.415   3.777
 8360SOL    HW225980   4.955   0.488   3.679
 8361SOL     OW25981   1.737   0.850   3.107
 8361SOL    HW125982   1.743   0.900   3.021
 8361SOL    HW225983   1.829   0.833   3.141
 8362SOL     OW25984   2.565   3.287   0.679
 8362SOL    HW125985   2.544   3.190   0.676
 8362SOL    HW225986   2.487   3.338   0.717
 8363SOL     OW25987   0.117   3.052   0.778
 8363SOL    HW125988   0.071   2.968   0.808
 8363SOL    HW225989   0.186   3.028   0.709
 8364SOL     OW25990   6.634   4.670   4.099
 8364SOL    HW125991   6.658   4.725   4.019
 8364SOL    HW225992   6.561   4.605   4.074
 8365SOL     OW25993   1.909   3.588   6.079
 8365SOL    HW125994   1.926   3.627   6.169
 8365SOL    HW225995   1.959   3.502   6.069
 8366SOL     OW25996   3.339   6.798   3.086
 8366SOL    HW125997   3.409   6.867   3.106
 8366SOL    HW225998   3.330   6.788   2.987
 8367SOL     OW25999   5.791   5.725   3.982
 8367SOL    HW126000   5.850   5.804   3.962
 8367SOL    HW226001   5.755   5.687   3.897
 8368SOL     OW26002   3.064   5.131   6.796
 8368SOL    HW126003   3.162   5.151   6.789
 8368SOL    HW226004   3.021   5.145   6.707
 8369SOL     OW26005   2.222   1.227   1.175
 8369SOL    HW126006   2.215   1.288   1.255
 8369SOL    HW226007   2.194   1.277   1.093
 8370SOL     OW26008   1.524   1.733   6.927
 8370SOL    HW126009   1.574   1.782   6.998
 8370SOL    HW226010   1.426   1.742   6.942
 8371SOL     OW26011   1.798   3.313   0.778
 8371SOL    HW126012   1.873   3.267   0.827
 8371SOL    HW226013   1.792   3.408   0.809
 8372SOL     OW26014   0.229   0.778   1.691
 8372SOL    HW126015   0.132   0.775   1.668
 8372SOL    HW226016   0.279   0.827   1.620
 8373SOL     OW26017   1.533   6.664   5.083
 8373SOL    HW126018   1.612   6.604   5.074
 8373SOL    HW226019   1.562   6.752   5.123
 8374SOL     OW26020   6.294   0.083   6.551
 8374SOL    HW126021   6.352   0.164   6.547
 8374SOL    HW226022   6.261   0.070   6.645
 8375SOL     OW26023   3.977   0.885   6.272
 8375SOL    HW126024   3.919   0.850   6.197
 8375SOL    HW226025   4.059   0.829   6.279
 8376SOL     OW26026   3.983   0.431   4.744
 8376SOL    HW126027   4.008   0.478   4.659
 8376SOL    HW226028   3.972   0.333   4.727
 8377SOL     OW26029   5.537   4.410   0.516
 8377SOL    HW126030   5.495   4.320   0.506
 8377SOL    HW226031   5.601   4.425   0.440
 8378SOL     OW26032   4.980   2.975   3.630
 8378SOL    HW126033   4.940   3.021   3.550
 8378SOL    HW226034   4.926   2.893   3.651
 8379SOL     OW26035   5.480   2.102   1.995
 8379SOL    HW126036   5.440   2.021   1.953
 8379SOL    HW226037   5.523   2.159   1.925
 8380SOL     OW26038   5.145   1.764   3.156
 8380SOL    HW126039   5.203   1.790   3.233
 8380SOL    HW226040   5.190   1.791   3.071
 8381SOL     OW26041   2.253   5.092   4.537
 8381SOL    HW126042   2.340   5.102   4.489
 8381SOL    HW226043   2.193   5.169   4.514
 8382SOL     OW26044   1.067   3.152   2.367
 8382SOL    HW126045   1.146   3.131   2.426
 8382SOL    HW226046   1.087   3.122   2.274
 8383SOL     OW26047   3.377   1.875   6.625
 8383SOL    HW126048   3.305   1.810   6.650
 8383SOL    HW226049   3.353   1.920   6.540
 8384SOL     OW26050   0.768   6.366   1.663
 8384SOL    HW126051   0.801   6.460   1.657
 8384SOL    HW226052   0.838   6.304   1.627
 8385SOL     OW26053   4.628   2.334   0.990
 8385SOL    HW126054   4.645   2.403   1.061
 8385SOL    HW226055   4.533   2.303   0.996
 8386SOL     OW26056   1.250   4.271   2.695
 8386SOL    HW126057   1.271   4.238   2.603
 8386SOL    HW226058   1.171   4.222   2.731
 8387SOL     OW26059   0.607   1.862   1.014
 8387SOL    HW126060   0.569   1.894   0.927
 8387SOL    HW226061   0.617   1.940   1.076
 8388SOL     OW26062   1.151   6.830   2.631
 8388SOL    HW126063   1.101   6.811   2.546
 8388SOL    HW226064   1.245   6.853   2.609
 8389SOL     OW26065   5.193   2.300   2.578
 8389SOL    HW126066   5.131   2.372   2.548
 8389SOL    HW226067   5.242   2.330   2.660
 8390SOL     OW26068   5.617   1.704   5.931
 8390SOL    HW126069   5.619   1.792   5.979
 8390SOL    HW226070   5.669   1.637   5.983
 8391SOL     OW26071   6.466   6.892   1.327
 8391SOL    HW126072   6.563   6.916   1.325
 8391SOL    HW226073   6.431   6.903   1.420
 8392SOL     OW26074   5.131   2.814   5.981
 8392SOL    HW126075   5.071   2.748   5.936
 8392SOL    HW226076   5.104   2.907   5.956
 8393SOL     OW26077   5.207   6.871   1.561
 8393SOL    HW126078   5.223   6.887   1.658
 8393SOL    HW226079   5.238   6.779   1.536
 8394SOL     OW26080   5.506   2.687   2.549
 8394SOL    HW126081   5.452   2.605   2.530
 8394SOL    HW226082   5.574   2.666   2.619
 8395SOL     OW26083   2.439   1.300   4.932
 8395SOL    HW126084   2.395   1.248   5.005
 8395SOL    HW226085   2.398   1.276   4.844
 8396SOL     OW26086   4.604   5.492   4.163
 8396SOL    HW126087   4.643   5.400   4.161
 8396SOL    HW226088   4.662   5.551   4.219
 8397SOL     OW26089   6.331   0.752   3.045
 8397SOL    HW126090   6.355   0.787   3.136
 8397SOL    HW226091   6.254   0.805   3.009
 8398SOL     OW26092   5.038   2.108   6.128
 8398SOL    HW126093   5.112   2.040   6.132
 8398SOL    HW226094   5.053   2.178   6.197
 8399SOL     OW26095   0.202   4.535   1.238
 8399SOL    HW126096   0.138   4.481   1.292
 8399SOL    HW226097   0.255   4.474   1.178
 8400SOL     OW26098   1.652   1.223   4.765
 8400SOL    HW126099   1.647   1.311   4.812
 8400SOL    HW226100   1.742   1.214   4.721
 8401SOL     OW26101   2.405   6.830   5.755
 8401SOL    HW126102   2.313   6.815   5.791
 8401SOL    HW226103   2.417   6.927   5.732
 8402SOL     OW26104   3.266   0.844   6.064
 8402SOL    HW126105   3.333   0.776   6.037
 8402SOL    HW226106   3.281   0.928   6.011
 8403SOL     OW26107   5.828   4.540   4.630
 8403SOL    HW126108   5.868   4.452   4.656
 8403SOL    HW226109   5.859   4.564   4.538
 8404SOL     OW26110   0.730   1.980   6.442
 8404SOL    HW126111   0.736   2.057   6.380
 8404SOL    HW226112   0.808   1.919   6.428
 8405SOL     OW26113   4.326   0.256   5.727
 8405SOL    HW126114   4.424   0.238   5.718
 8405SOL    HW226115   4.274   0.192   5.670
 8406SOL     OW26116   5.305   0.448   6.423
 8406SOL    HW126117   5.285   0.393   6.342
 8406SOL    HW226118   5.355   0.392   6.489
 8407SOL     OW26119   4.060   6.822   4.446
 8407SOL    HW126120   3.962   6.807   4.460
 8407SOL    HW226121   4.073   6.895   4.379
 8408SOL     OW26122   3.742   1.467   1.406
 8408SOL    HW126123   3.784   1.558   1.413
 8408SOL    HW226124   3.811   1.397   1.426
 8409SOL     OW26125   4.516   2.477   2.119
 8409SOL    HW126126   4.462   2.404   2.161
 8409SOL    HW226127   4.469   2.509   2.037
 8410SOL     OW26128   6.616   1.886   1.844
 8410SOL    HW126129   6.616   1.976   1.886
 8410SOL    HW226130   6.641   1.817   1.912
 8411SOL     OW26131   1.031   6.321   0.740
 8411SOL    HW126132   0.972   6.364   0.809
 8411SOL    HW226133   1.058   6.390   0.672
 8412SOL     OW26134   2.503   1.960   6.635
 8412SOL    HW126135   2.555   2.046   6.640
 8412SOL    HW226136   2.405   1.980   6.643
 8413SOL     OW26137   4.126   5.677   4.609
 8413SOL    HW126138   4.160   5.766   4.642
 8413SOL    HW226139   4.038   5.690   4.563
 8414SOL     OW26140   1.288   0.509   1.060
 8414SOL    HW126141   1.354   0.476   1.128
 8414SOL    HW226142   1.322   0.594   1.019
 8415SOL     OW26143   2.772   1.471   5.768
 8415SOL    HW126144   2.850   1.491   5.708
 8415SOL    HW226145   2.708   1.548   5.765
 8416SOL     OW26146   6.574   1.996   5.749
 8416SOL    HW126147   6.673   1.986   5.747
 8416SOL    HW226148   6.538   1.993   5.655
 8417SOL     OW26149   1.508   3.273   5.911
 8417SOL    HW126150   1.542   3.210   5.842
 8417SOL    HW226151   1.575   3.345   5.927
 8418SOL     OW26152   0.772   5.922   2.233
 8418SOL    HW126153   0.753   5.954   2.140
 8418SOL    HW226154   0.688   5.891   2.276
 8419SOL     OW26155   4.478   2.107   4.093
 8419SOL    HW126156   4.530   2.132   4.012
 8419SOL    HW226157   4.472   2.007   4.100
 8420SOL     OW26158   3.126   0.641   2.165
 8420SOL    HW126159   3.207   0.691   2.133
 8420SOL    HW226160   3.099   0.676   2.255
 8421SOL     OW26161   4.684   6.840   6.739
 8421SOL    HW126162   4.753   6.864   6.671
 8421SOL    HW226163   4.696   6.895   6.821
 8422SOL     OW26164   5.371   2.502   3.582
 8422SOL    HW126165   5.325   2.481   3.668
 8422SOL    HW226166   5.338   2.589   3.547
 8423SOL     OW26167   6.838   5.172   6.937
 8423SOL    HW126168   6.784   5.223   7.003
 8423SOL    HW226169   6.846   5.076   6.966
 8424SOL     OW26170   3.323   0.375   4.796
 8424SOL    HW126171   3.396   0.421   4.747
 8424SOL    HW226172   3.326   0.401   4.893
 8425SOL     OW26173   3.392   4.038   2.109
 8425SOL    HW126174   3.295   4.023   2.130
 8425SOL    HW226175   3.441   4.064   2.192
 8426SOL     OW26176   3.954   2.959   1.747
 8426SOL    HW126177   3.955   3.059   1.748
 8426SOL    HW226178   4.047   2.924   1.733
 8427SOL     OW26179   3.520   3.762   3.810
 8427SOL    HW126180   3.501   3.693   3.740
 8427SOL    HW226181   3.515   3.853   3.770
 8428SOL     OW26182   6.075   0.000   1.793
 8428SOL    HW126183   6.102   0.056   1.714
 8428SOL    HW226184   6.140   0.013   1.867
 8429SOL     OW26185   2.979   5.682   5.580
 8429SOL    HW126186   2.931   5.721   5.502
 8429SOL    HW226187   2.944   5.590   5.599
 8430SOL     OW26188   4.913   0.010   4.880
 8430SOL    HW126189   4.927   0.108   4.876
 8430SOL    HW226190   4.816   7.008   4.895
 8431SOL     OW26191   1.880   3.986   5.814
 8431SOL    HW126192   1.783   3.967   5.798
 8431SOL    HW226193   1.914   4.046   5.742
 8432SOL     OW26194   6.004   5.281   5.726
 8432SOL    HW126195   6.008   5.195   5.776
 8432SOL    HW226196   6.065   5.276   5.647
 8433SOL     OW26197   5.349   2.033   0.877
 8433SOL    HW126198   5.251   2.029   0.859
 8433SOL    HW226199   5.376   2.128   0.892
 8434SOL     OW26200   2.572   5.514   4.878
 8434SOL    HW126201   2.569   5.575   4.957
 8434SOL    HW226202   2.561   5.419   4.909
 8435SOL     OW26203   5.417   1.783   2.994
 8435SOL    HW126204   5.451   1.865   3.039
 8435SOL    HW226205   5.463   1.772   2.906
 8436SOL     OW26206   2.554   5.697   2.259
 8436SOL    HW126207   2.524   5.781   2.304
 8436SOL    HW226208   2.613   5.720   2.181
 8437SOL     OW26209   0.857   5.458   1.841
 8437SOL    HW126210   0.762   5.453   1.873
 8437SOL    HW226211   0.858   5.485   1.745
 8438SOL     OW26212   0.687   3.867   2.490
 8438SOL    HW126213   0.678   3.885   2.392
 8438SOL    HW226214   0.660   3.773   2.510
 8439SOL     OW26215   6.162   4.488   2.434
 8439SOL    HW126216   6.246   4.505   2.485
 8439SOL    HW226217   6.107   4.420   2.483
 8440SOL     OW26218   1.637   1.996   2.783
 8440SOL    HW126219   1.633   1.962   2.689
 8440SOL    HW226220   1.723   2.046   2.796
 8441SOL     OW26221   6.449   1.782   5.886
 8441SOL    HW126222   6.493   1.866   5.855
 8441SOL    HW226223   6.502   1.703   5.855
 8442SOL     OW26224   3.892   2.144   6.416
 8442SOL    HW126225   3.905   2.071   6.350
 8442SOL    HW226226   3.961   2.137   6.488
 8443SOL     OW26227   1.565   3.924   2.699
 8443SOL    HW126228   1.641   3.904   2.760
 8443SOL    HW226229   1.495   3.852   2.707
 8444SOL     OW26230   5.391   5.196   5.265
 8444SOL    HW126231   5.490   5.198   5.278
 8444SOL    HW226232   5.349   5.143   5.338
 8445SOL     OW26233   4.248   6.063   6.635
 8445SOL    HW126234   4.318   6.117   6.588
 8445SOL    HW226235   4.265   5.966   6.619
 8446SOL     OW26236   6.432   5.193   4.868
 8446SOL    HW126237   6.432   5.200   4.968
 8446SOL    HW226238   6.507   5.248   4.831
 8447SOL     OW26239   4.321   1.545   3.366
 8447SOL    HW126240   4.274   1.629   3.340
 8447SOL    HW226241   4.307   1.476   3.294
 8448SOL     OW26242   3.130   6.207   3.538
 8448SOL    HW126243   3.101   6.206   3.442
 8448SOL    HW226244   3.230   6.204   3.542
 8449SOL     OW26245   2.135   2.385   3.260
 8449SOL    HW126246   2.045   2.343   3.247
 8449SOL    HW226247   2.152   2.398   3.357
 8450SOL     OW26248   0.304   1.373   6.718
 8450SOL    HW126249   0.342   1.450   6.666
 8450SOL    HW226250   0.362   1.355   6.798
 8451SOL     OW26251   3.910   2.267   0.697
 8451SOL    HW126252   3.954   2.356   0.689
 8451SOL    HW226253   3.811   2.278   0.694
 8452SOL     OW26254   4.926   1.557   5.857
 8452SOL    HW126255   4.837   1.600   5.870
 8452SOL    HW226256   4.918   1.459   5.875
 8453SOL     OW26257   6.717   6.275   0.391
 8453SOL    HW126258   6.764   6.314   0.312
 8453SOL    HW226259   6.635   6.227   0.360
 8454SOL     OW26260   6.547   4.296   6.828
 8454SOL    HW126261   6.557   4.386   6.786
 8454SOL    HW226262   6.465   4.252   6.792
 8455SOL     OW26263   6.920   1.296   2.591
 8455SOL    HW126264   6.891   1.310   2.497
 8455SOL    HW226265   6.999   1.235   2.593
 8456SOL     OW26266   6.892   0.051   3.238
 8456SOL    HW126267   6.982   0.017   3.262
 8456SOL    HW226268   6.890   0.151   3.246
 8457SOL     OW26269   6.891   6.851   5.367
 8457SOL    HW126270   6.973   6.805   5.332
 8457SOL    HW226271   6.810   6.816   5.320
 8458SOL     OW26272   0.739   7.011   6.409
 8458SOL    HW126273   0.805   0.051   6.457
 8458SOL    HW226274   0.686   0.051   6.345
 8459SOL     OW26275   1.489   6.312   3.723
 8459SOL    HW126276   1.460   6.361   3.805
 8459SOL    HW226277   1.471   6.369   3.643
 8460SOL     OW26278   3.783   3.738   3.600
 8460SOL    HW126279   3.797   3.834   3.625
 8460SOL    HW226280   3.741   3.733   3.509
 8461SOL     OW26281   6.639   3.758   3.711
 8461SOL    HW126282   6.565   3.796   3.656
 8461SOL    HW226283   6.629   3.658   3.716
 8462SOL     OW26284   2.306   2.786   1.775
 8462SOL    HW126285   2.375   2.851   1.745
 8462SOL    HW226286   2.215   2.828   1.767
 8463SOL     OW26287   5.559   0.517   1.930
 8463SOL    HW126288   5.548   0.604   1.980
 8463SOL    HW226289   5.526   0.442   1.987
 8464SOL     OW26290   6.831   2.187   4.946
 8464SOL    HW126291   6.862   2.282   4.943
 8464SOL    HW226292   6.776   2.172   5.028
 8465SOL     OW26293   1.502   2.103   6.872
 8465SOL    HW126294   1.414   2.085   6.916
 8465SOL    HW226295   1.576   2.076   6.934
 8466SOL     OW26296   0.310   6.753   4.063
 8466SOL    HW126297   0.379   6.818   4.096
 8466SOL    HW226298   0.236   6.803   4.017
 8467SOL     OW26299   3.849   4.994   1.350
 8467SOL    HW126300   3.905   4.916   1.323
 8467SOL    HW226301   3.752   4.969   1.349
 8468SOL     OW26302   4.620   2.368   0.480
 8468SOL    HW126303   4.607   2.269   0.486
 8468SOL    HW226304   4.531   2.414   0.483
 8469SOL     OW26305   4.180   2.636   6.507
 8469SOL    HW126306   4.265   2.688   6.514
 8469SOL    HW226307   4.199   2.539   6.527
 8470SOL     OW26308   1.719   3.200   6.971
 8470SOL    HW126309   1.620   3.217   6.972
 8470SOL    HW226310   1.743   3.137   0.028
 8471SOL     OW26311   5.011   1.264   4.097
 8471SOL    HW126312   5.060   1.345   4.067
 8471SOL    HW226313   4.916   1.269   4.067
 8472SOL     OW26314   1.432   0.166   2.915
 8472SOL    HW126315   1.369   0.241   2.896
 8472SOL    HW226316   1.401   0.083   2.869
 8473SOL     OW26317   6.348   5.581   6.668
 8473SOL    HW126318   6.353   5.615   6.762
 8473SOL    HW226319   6.441   5.567   6.633
 8474SOL     OW26320   3.850   5.458   0.273
 8474SOL    HW126321   3.860   5.429   0.178
 8474SOL    HW226322   3.762   5.426   0.308
 8475SOL     OW26323   4.604   1.561   2.712
 8475SOL    HW126324   4.688   1.515   2.684
 8475SOL    HW226325   4.560   1.509   2.786
 8476SOL     OW26326   4.246   0.677   2.512
 8476SOL    HW126327   4.260   0.703   2.608
 8476SOL    HW226328   4.320   0.716   2.457
 8477SOL     OW26329   2.527   0.568   2.355
 8477SOL    HW126330   2.448   0.506   2.351
 8477SOL    HW226331   2.586   0.542   2.431
 8478SOL     OW26332   1.555   0.457   5.419
 8478SOL    HW126333   1.491   0.384   5.442
 8478SOL    HW226334   1.566   0.462   5.320
 8479SOL     OW26335   5.060   1.625   2.071
 8479SOL    HW126336   5.003   1.544   2.059
 8479SOL    HW226337   5.034   1.672   2.156
 8480SOL     OW26338   1.053   1.312   1.285
 8480SOL    HW126339   1.065   1.409   1.264
 8480SOL    HW226340   0.988   1.272   1.221
 8481SOL     OW26341   4.536   0.192   4.855
 8481SOL    HW126342   4.478   0.188   4.774
 8481SOL    HW226343   4.556   0.099   4.887
 8482SOL     OW26344   0.427   0.382   2.025
 8482SOL    HW126345   0.386   0.425   1.944
 8482SOL    HW226346   0.492   0.445   2.067
 8483SOL     OW26347   5.333   6.219   1.815
 8483SOL    HW126348   5.292   6.291   1.871
 8483SOL    HW226349   5.299   6.130   1.845
 8484SOL     OW26350   0.638   4.688   4.336
 8484SOL    HW126351   0.675   4.609   4.385
 8484SOL    HW226352   0.670   4.772   4.379
 8485SOL     OW26353   2.288   3.614   5.614
 8485SOL    HW126354   2.279   3.519   5.583
 8485SOL    HW226355   2.285   3.675   5.535
 8486SOL     OW26356   4.247   0.509   2.891
 8486SOL    HW126357   4.172   0.499   2.824
 8486SOL    HW226358   4.332   0.530   2.843
 8487SOL     OW26359   4.748   0.442   1.017
 8487SOL    HW126360   4.827   0.412   0.963
 8487SOL    HW226361   4.763   0.536   1.049
 8488SOL     OW26362   5.402   3.199   4.862
 8488SOL    HW126363   5.434   3.206   4.957
 8488SOL    HW226364   5.404   3.103   4.833
 8489SOL     OW26365   3.910   5.870   2.455
 8489SOL    HW126366   3.999   5.910   2.435
 8489SOL    HW226367   3.863   5.925   2.524
 8490SOL     OW26368   4.079   5.537   2.206
 8490SOL    HW126369   4.120   5.611   2.153
 8490SOL    HW226370   4.071   5.455   2.149
 8491SOL     OW26371   1.265   1.196   2.065
 8491SOL    HW126372   1.244   1.166   1.972
 8491SOL    HW226373   1.351   1.155   2.096
 8492SOL     OW26374   5.433   3.919   4.698
 8492SOL    HW126375   5.354   3.861   4.719
 8492SOL    HW226376   5.401   4.003   4.655
 8493SOL     OW26377   3.697   2.764   1.085
 8493SOL    HW126378   3.672   2.668   1.076
 8493SOL    HW226379   3.649   2.817   1.015
 8494SOL     OW26380   3.431   5.940   6.861
 8494SOL    HW126381   3.336   5.923   6.836
 8494SOL    HW226382   3.468   6.014   6.804
 8495SOL     OW26383   0.378   2.627   0.063
 8495SOL    HW126384   0.457   2.568   0.084
 8495SOL    HW226385   0.399   2.721   0.089
 8496SOL     OW26386   6.712   2.297   3.302
 8496SOL    HW126387   6.657   2.380   3.311
 8496SOL    HW226388   6.795   2.317   3.250
 8497SOL     OW26389   6.203   4.748   3.778
 8497SOL    HW126390   6.224   4.775   3.872
 8497SOL    HW226391   6.246   4.813   3.715
 8498SOL     OW26392   6.217   0.919   0.964
 8498SOL    HW126393   6.145   0.919   1.034
 8498SOL    HW226394   6.306   0.907   1.008
 8499SOL     OW26395   2.269   4.126   6.187
 8499SOL    HW126396   2.328   4.079   6.122
 8499SOL    HW226397   2.186   4.156   6.142
 8500SOL     OW26398   3.077   0.624   6.132
 8500SOL    HW126399   3.124   0.696   6.082
 8500SOL    HW226400   3.044   0.555   6.068
 8501SOL     OW26401   2.755   4.693   6.383
 8501SOL    HW126402   2.780   4.598   6.365
 8501SOL    HW226403   2.679   4.720   6.325
 8502SOL     OW26404   0.472   6.905   1.990
 8502SOL    HW126405   0.538   6.911   1.915
 8502SOL    HW226406   0.434   6.813   1.993
 8503SOL     OW26407   3.177   6.395   3.091
 8503SOL    HW126408   3.167   6.457   3.013
 8503SOL    HW226409   3.192   6.448   3.174
 8504SOL     OW26410   1.403   5.394   3.217
 8504SOL    HW126411   1.383   5.400   3.315
 8504SOL    HW226412   1.419   5.485   3.181
 8505SOL     OW26413   4.894   2.961   3.979
 8505SOL    HW126414   4.885   2.864   3.999
 8505SOL    HW226415   4.942   2.973   3.892
 8506SOL     OW26416   0.649   6.135   0.504
 8506SOL    HW126417   0.675   6.043   0.534
 8506SOL    HW226418   0.669   6.200   0.577
 8507SOL     OW26419   1.779   0.310   4.452
 8507SOL    HW126420   1.737   0.397   4.427
 8507SOL    HW226421   1.875   0.326   4.477
 8508SOL     OW26422   1.059   3.133   6.337
 8508SOL    HW126423   1.064   3.162   6.432
 8508SOL    HW226424   0.967   3.101   6.317
 8509SOL     OW26425   6.148   2.340   4.624
 8509SOL    HW126426   6.198   2.426   4.625
 8509SOL    HW226427   6.067   2.348   4.683
 8510SOL     OW26428   4.914   7.008   2.199
 8510SOL    HW126429   4.940   6.993   2.295
 8510SOL    HW226430   4.822   6.973   2.184
 8511SOL     OW26431   6.582   5.026   1.562
 8511SOL    HW126432   6.620   4.959   1.626
 8511SOL    HW226433   6.635   5.024   1.477
 8512SOL     OW26434   4.026   2.521   0.723
 8512SOL    HW126435   3.965   2.599   0.704
 8512SOL    HW226436   4.048   2.519   0.820
 8513SOL     OW26437   0.610   4.264   1.871
 8513SOL    HW126438   0.557   4.181   1.890
 8513SOL    HW226439   0.598   4.329   1.946
 8514SOL     OW26440   2.551   2.678   5.485
 8514SOL    HW126441   2.633   2.650   5.435
 8514SOL    HW226442   2.540   2.777   5.479
 8515SOL     OW26443   2.113   0.603   0.313
 8515SOL    HW126444   2.168   0.641   0.388
 8515SOL    HW226445   2.122   0.504   0.313
 8516SOL     OW26446   5.432   2.600   3.953
 8516SOL    HW126447   5.501   2.651   4.005
 8516SOL    HW226448   5.353   2.658   3.936
 8517SOL     OW26449   1.927   1.871   6.011
 8517SOL    HW126450   2.005   1.814   5.987
 8517SOL    HW226451   1.959   1.956   6.053
 8518SOL     OW26452   5.565   4.881   0.068
 8518SOL    HW126453   5.593   4.813   0.135
 8518SOL    HW226454   5.624   4.875   7.004
 8519SOL     OW26455   1.096   3.000   0.971
 8519SOL    HW126456   1.013   2.978   0.920
 8519SOL    HW226457   1.162   2.927   0.960
 8520SOL     OW26458   3.781   4.081   6.058
 8520SOL    HW126459   3.756   4.175   6.078
 8520SOL    HW226460   3.787   4.068   5.959
 8521SOL     OW26461   2.032   6.445   5.038
 8521SOL    HW126462   2.107   6.470   4.976
 8521SOL    HW226463   1.966   6.388   4.990
 8522SOL     OW26464   0.653   0.147   6.977
 8522SOL    HW126465   0.703   0.213   0.016
 8522SOL    HW226466   0.596   0.090   0.018
 8523SOL     OW26467   3.748   2.036   0.440
 8523SOL    HW126468   3.653   2.069   0.442
 8523SOL    HW226469   3.785   2.035   0.533
 8524SOL     OW26470   2.288   5.356   5.274
 8524SOL    HW126471   2.267   5.270   5.321
 8524SOL    HW226472   2.374   5.393   5.310
 8525SOL     OW26473   6.066   3.858   1.963
 8525SOL    HW126474   6.039   3.836   1.869
 8525SOL    HW226475   6.048   3.780   2.022
 8526SOL     OW26476   0.315   4.610   0.803
 8526SOL    HW126477   0.349   4.700   0.778
 8526SOL    HW226478   0.334   4.545   0.729
 8527SOL     OW26479   2.772   0.825   5.737
 8527SOL    HW126480   2.711   0.801   5.661
 8527SOL    HW226481   2.856   0.865   5.700
 8528SOL     OW26482   4.962   0.845   0.505
 8528SOL    HW126483   4.993   0.761   0.547
 8528SOL    HW226484   5.024   0.871   0.431
 8529SOL     OW26485   1.417   6.183   6.828
 8529SOL    HW126486   1.502   6.221   6.793
 8529SOL    HW226487   1.371   6.131   6.756
 8530SOL     OW26488   3.754   3.971   3.414
 8530SOL    HW126489   3.769   3.985   3.512
 8530SOL    HW226490   3.828   3.916   3.375
 8531SOL     OW26491   6.616   5.065   4.440
 8531SOL    HW126492   6.554   5.005   4.491
 8531SOL    HW226493   6.696   5.012   4.411
 8532SOL     OW26494   2.758   4.714   6.677
 8532SOL    HW126495   2.780   4.713   6.579
 8532SOL    HW226496   2.659   4.704   6.688
 8533SOL     OW26497   2.887   6.627   4.727
 8533SOL    HW126498   2.860   6.642   4.822
 8533SOL    HW226499   2.806   6.628   4.669
 8534SOL     OW26500   2.042   2.487   3.021
 8534SOL    HW126501   2.083   2.458   3.108
 8534SOL    HW226502   2.069   2.581   3.001
 8535SOL     OW26503   6.557   0.319   2.708
 8535SOL    HW126504   6.536   0.226   2.739
 8535SOL    HW226505   6.643   0.349   2.750
 8536SOL     OW26506   0.786   1.764   4.589
 8536SOL    HW126507   0.874   1.748   4.543
 8536SOL    HW226508   0.800   1.764   4.688
 8537SOL     OW26509   6.406   1.425   2.819
 8537SOL    HW126510   6.330   1.423   2.754
 8537SOL    HW226511   6.372   1.448   2.910
 8538SOL     OW26512   0.944   2.562   0.332
 8538SOL    HW126513   0.935   2.529   0.426
 8538SOL    HW226514   0.855   2.592   0.298
 8539SOL     OW26515   5.349   2.938   2.687
 8539SOL    HW126516   5.348   2.854   2.741
 8539SOL    HW226517   5.333   3.016   2.747
 8540SOL     OW26518   3.573   0.645   0.914
 8540SOL    HW126519   3.520   0.648   0.829
 8540SOL    HW226520   3.514   0.617   0.989
 8541SOL     OW26521   2.091   2.772   4.160
 8541SOL    HW126522   2.025   2.818   4.219
 8541SOL    HW226523   2.182   2.779   4.201
 8542SOL     OW26524   3.137   4.666   0.498
 8542SOL    HW126525   3.138   4.759   0.533
 8542SOL    HW226526   3.107   4.666   0.403
 8543SOL     OW26527   2.593   1.943   6.249
 8543SOL    HW126528   2.502   1.911   6.221
 8543SOL    HW226529   2.592   1.961   6.348
 8544SOL     OW26530   6.063   2.522   3.552
 8544SOL    HW126531   6.080   2.620   3.564
 8544SOL    HW226532   6.006   2.489   3.627
 8545SOL     OW26533   4.295   6.539   4.855
 8545SOL    HW126534   4.265   6.448   4.827
 8545SOL    HW226535   4.224   6.605   4.833
 8546SOL     OW26536   4.828   2.254   6.817
 8546SOL    HW126537   4.851   2.229   6.723
 8546SOL    HW226538   4.744   2.208   6.844
 8547SOL     OW26539   1.051   4.955   2.425
 8547SOL    HW126540   1.061   4.885   2.496
 8547SOL    HW226541   1.096   4.923   2.341
 8548SOL     OW26542   6.279   1.577   5.580
 8548SOL    HW126543   6.236   1.519   5.512
 8548SOL    HW226544   6.358   1.530   5.619
 8549SOL     OW26545   5.240   3.108   5.465
 8549SOL    HW126546   5.216   3.206   5.464
 8549SOL    HW226547   5.187   3.060   5.394
 8550SOL     OW26548   1.270   4.360   6.466
 8550SOL    HW126549   1.309   4.453   6.461
 8550SOL    HW226550   1.192   4.353   6.404
 8551SOL     OW26551   2.743   4.119   1.505
 8551SOL    HW126552   2.675   4.145   1.574
 8551SOL    HW226553   2.816   4.187   1.504
 8552SOL     OW26554   3.291   6.753   4.627
 8552SOL    HW126555   3.310   6.838   4.577
 8552SOL    HW226556   3.296   6.675   4.565
 8553SOL     OW26557   6.326   4.938   6.765
 8553SOL    HW126558   6.407   4.884   6.789
 8553SOL    HW226559   6.303   4.998   6.842
 8554SOL     OW26560   5.826   3.908   6.935
 8554SOL    HW126561   5.856   3.860   6.852
 8554SOL    HW226562   5.760   3.851   6.983
 8555SOL     OW26563   1.400   6.714   4.285
 8555SOL    HW126564   1.353   6.629   4.259
 8555SOL    HW226565   1.446   6.752   4.204
 8556SOL     OW26566   6.126   0.362   4.236
 8556SOL    HW126567   6.053   0.345   4.170
 8556SOL    HW226568   6.090   0.355   4.329
 8557SOL     OW26569   6.910   0.971   0.243
 8557SOL    HW126570   6.955   1.054   0.210
 8557SOL    HW226571   6.956   0.938   0.326
 8558SOL     OW26572   0.788   5.553   2.232
 8558SOL    HW126573   0.878   5.593   2.215
 8558SOL    HW226574   0.783   5.463   2.189
 8559SOL     OW26575   0.448   1.487   5.544
 8559SOL    HW126576   0.538   1.525   5.568
 8559SOL    HW226577   0.434   1.401   5.593
 8560SOL     OW26578   6.566   2.322   6.342
 8560SOL    HW126579   6.579   2.398   6.278
 8560SOL    HW226580   6.587   2.353   6.435
 8561SOL     OW26581   4.991   6.184   5.580
 8561SOL    HW126582   4.940   6.105   5.613
 8561SOL    HW226583   4.941   6.227   5.505
 8562SOL     OW26584   3.621   0.085   4.496
 8562SOL    HW126585   3.688   0.012   4.482
 8562SOL    HW226586   3.529   0.047   4.493
 8563SOL     OW26587   3.096   2.986   6.643
 8563SOL    HW126588   3.168   3.042   6.601
 8563SOL    HW226589   3.137   2.917   6.702
 8564SOL     OW26590   0.057   6.400   3.732
 8564SOL    HW126591   0.010   6.433   3.814
 8564SOL    HW226592   7.010   6.400   3.655
 8565SOL     OW26593   3.609   0.527   1.846
 8565SOL    HW126594   3.604   0.468   1.926
 8565SOL    HW226595   3.530   0.511   1.787
 8566SOL     OW26596   1.888   3.709   3.640
 8566SOL    HW126597   1.982   3.676   3.647
 8566SOL    HW226598   1.871   3.777   3.711
 8567SOL     OW26599   5.304   6.043   0.742
 8567SOL    HW126600   5.335   5.949   0.731
 8567SOL    HW226601   5.273   6.079   0.654
 8568SOL     OW26602   5.384   0.973   0.166
 8568SOL    HW126603   5.303   0.935   0.210
 8568SOL    HW226604   5.446   1.008   0.235
 8569SOL     OW26605   4.049   1.340   5.502
 8569SOL    HW126606   4.131   1.332   5.446
 8569SOL    HW226607   3.969   1.311   5.450
 8570SOL     OW26608   0.365   3.880   6.364
 8570SOL    HW126609   0.390   3.866   6.460
 8570SOL    HW226610   0.381   3.795   6.313
 8571SOL     OW26611   0.082   4.370   4.729
 8571SOL    HW126612   0.013   4.421   4.676
 8571SOL    HW226613   0.142   4.320   4.666
 8572SOL     OW26614   3.232   5.215   5.744
 8572SOL    HW126615   3.240   5.149   5.669
 8572SOL    HW226616   3.289   5.294   5.724
 8573SOL     OW26617   4.359   6.098   4.452
 8573SOL    HW126618   4.348   6.003   4.422
 8573SOL    HW226619   4.293   6.156   4.404
 8574SOL     OW26620   0.228   3.374   4.378
 8574SOL    HW126621   0.156   3.444   4.377
 8574SOL    HW226622   0.285   3.387   4.460
 8575SOL     OW26623   2.888   3.450   6.581
 8575SOL    HW126624   2.938   3.504   6.648
 8575SOL    HW226625   2.871   3.506   6.499
 8576SOL     OW26626   1.702   0.399   1.046
 8576SOL    HW126627   1.776   0.353   1.095
 8576SOL    HW226628   1.664   0.471   1.104
 8577SOL     OW26629   6.533   5.309   4.032
 8577SOL    HW126630   6.570   5.331   3.942
 8577SOL    HW226631   6.600   5.333   4.103
 8578SOL     OW26632   4.749   0.131   3.351
 8578SOL    HW126633   4.773   0.070   3.276
 8578SOL    HW226634   4.651   0.129   3.367
 8579SOL     OW26635   0.548   5.113   2.729
 8579SOL    HW126636   0.553   5.207   2.694
 8579SOL    HW226637   0.464   5.070   2.696
 8580SOL     OW26638   2.944   4.706   6.103
 8580SOL    HW126639   3.016   4.723   6.036
 8580SOL    HW226640   2.952   4.771   6.178
 8581SOL     OW26641   3.640   3.000   0.192
 8581SOL    HW126642   3.622   3.087   0.239
 8581SOL    HW226643   3.718   2.954   0.236
 8582SOL     OW26644   4.393   4.598   1.068
 8582SOL    HW126645   4.490   4.622   1.068
 8582SOL    HW226646   4.370   4.552   1.154
 8583SOL     OW26647   5.309   0.008   5.193
 8583SOL    HW126648   5.359   0.089   5.163
 8583SOL    HW226649   5.307   0.005   5.293
 8584SOL     OW26650   0.782   5.730   6.509
 8584SOL    HW126651   0.688   5.698   6.524
 8584SOL    HW226652   0.812   5.701   6.418
 8585SOL     OW26653   0.691   1.353   1.089
 8585SOL    HW126654   0.766   1.290   1.070
 8585SOL    HW226655   0.721   1.419   1.158
 8586SOL     OW26656   3.938   5.514   4.248
 8586SOL    HW126657   3.995   5.594   4.266
 8586SOL    HW226658   3.846   5.530   4.282
 8587SOL     OW26659   6.521   2.196   1.687
 8587SOL    HW126660   6.543   2.127   1.756
 8587SOL    HW226661   6.604   2.244   1.660
 8588SOL     OW26662   3.484   2.095   0.145
 8588SOL    HW126663   3.471   2.193   0.132
 8588SOL    HW226664   3.573   2.068   0.109
 8589SOL     OW26665   2.986   1.576   4.769
 8589SOL    HW126666   3.005   1.479   4.754
 8589SOL    HW226667   2.945   1.588   4.859
 8590SOL     OW26668   6.282   5.430   5.305
 8590SOL    HW126669   6.322   5.449   5.215
 8590SOL    HW226670   6.182   5.432   5.298
 8591SOL     OW26671   0.880   2.883   0.510
 8591SOL    HW126672   0.787   2.881   0.473
 8591SOL    HW226673   0.941   2.834   0.448
 8592SOL     OW26674   6.684   6.002   6.240
 8592SOL    HW126675   6.672   5.935   6.314
 8592SOL    HW226676   6.614   6.074   6.249
 8593SOL     OW26677   0.254   6.302   3.538
 8593SOL    HW126678   0.179   6.334   3.596
 8593SOL    HW226679   0.325   6.372   3.532
 8594SOL     OW26680   2.958   3.668   3.378
 8594SOL    HW126681   2.940   3.709   3.467
 8594SOL    HW226682   2.994   3.738   3.316
 8595SOL     OW26683   1.981   2.663   1.826
 8595SOL    HW126684   1.966   2.567   1.800
 8595SOL    HW226685   2.029   2.666   1.913
 8596SOL     OW26686   6.610   4.152   2.310
 8596SOL    HW126687   6.622   4.102   2.224
 8596SOL    HW226688   6.537   4.220   2.300
 8597SOL     OW26689   2.570   2.085   6.908
 8597SOL    HW126690   2.472   2.105   6.911
 8597SOL    HW226691   2.590   2.026   6.829
 8598SOL     OW26692   5.201   3.830   1.547
 8598SOL    HW126693   5.273   3.760   1.552
 8598SOL    HW226694   5.137   3.817   1.622
 8599SOL     OW26695   0.691   3.079   1.119
 8599SOL    HW126696   0.653   3.165   1.155
 8599SOL    HW226697   0.785   3.068   1.152
 8600SOL     OW26698   5.986   2.931   6.138
 8600SOL    HW126699   6.076   2.957   6.104
 8600SOL    HW226700   5.916   2.970   6.079
 8601SOL     OW26701   0.232   0.397   5.300
 8601SOL    HW126702   0.279   0.472   5.347
 8601SOL    HW226703   0.137   0.394   5.328
 8602SOL     OW26704   1.990   6.045   2.030
 8602SOL    HW126705   1.909   6.105   2.027
 8602SOL    HW226706   2.072   6.100   2.016
 8603SOL     OW26707   4.677   3.770   1.660
 8603SOL    HW126708   4.765   3.736   1.628
 8603SOL    HW226709   4.691   3.836   1.735
 8604SOL     OW26710   5.780   1.949   2.735
 8604SOL    HW126711   5.769   1.933   2.637
 8604SOL    HW226712   5.814   2.042   2.750
 8605SOL     OW26713   2.995   5.795   2.004
 8605SOL    HW126714   2.979   5.892   1.985
 8605SOL    HW226715   3.039   5.784   2.093
 8606SOL     OW26716   4.079   5.540   5.695
 8606SOL    HW126717   4.015   5.521   5.620
 8606SOL    HW226718   4.047   5.494   5.778
 8607SOL     OW26719   2.999   5.764   1.515
 8607SOL    HW126720   2.974   5.749   1.611
 8607SOL    HW226721   3.002   5.862   1.497
 8608SOL     OW26722   6.032   6.184   2.062
 8608SOL    HW126723   6.102   6.121   2.028
 8608SOL    HW226724   5.951   6.179   2.004
 8609SOL     OW26725   4.471   0.806   6.591
 8609SOL    HW126726   4.376   0.802   6.560
 8609SOL    HW226727   4.500   0.715   6.622
 8610SOL     OW26728   7.017   6.549   5.076
 8610SOL    HW126729   6.936   6.572   5.022
 8610SOL    HW226730   0.048   6.473   5.034
 8611SOL     OW26731   1.668   2.134   3.308
 8611SOL    HW126732   1.589   2.072   3.310
 8611SOL    HW226733   1.650   2.212   3.368
 8612SOL     OW26734   4.859   3.114   4.761
 8612SOL    HW126735   4.860   3.206   4.799
 8612SOL    HW226736   4.874   3.047   4.835
 8613SOL     OW26737   1.072   1.437   6.903
 8613SOL    HW126738   1.083   1.491   6.820
 8613SOL    HW226739   1.145   1.459   6.968
 8614SOL     OW26740   1.245   0.985   3.716
 8614SOL    HW126741   1.156   0.995   3.671
 8614SOL    HW226742   1.303   1.062   3.691
 8615SOL     OW26743   4.424   2.298   5.064
 8615SOL    HW126744   4.333   2.338   5.068
 8615SOL    HW226745   4.483   2.356   5.007
 8616SOL     OW26746   1.388   3.176   0.229
 8616SOL    HW126747   1.417   3.081   0.229
 8616SOL    HW226748   1.397   3.214   0.321
 8617SOL     OW26749   6.367   2.983   1.050
 8617SOL    HW126750   6.419   3.063   1.019
 8617SOL    HW226751   6.270   3.007   1.056
 8618SOL     OW26752   4.369   0.878   3.211
 8618SOL    HW126753   4.459   0.912   3.237
 8618SOL    HW226754   4.373   0.779   3.195
 8619SOL     OW26755   4.199   6.009   0.627
 8619SOL    HW126756   4.261   5.974   0.557
 8619SOL    HW226757   4.245   6.080   0.680
 8620SOL     OW26758   6.890   6.387   3.129
 8620SOL    HW126759   6.857   6.477   3.101
 8620SOL    HW226760   6.813   6.324   3.135
 8621SOL     OW26761   5.631   0.660   3.186
 8621SOL    HW126762   5.584   0.573   3.203
 8621SOL    HW226763   5.569   0.736   3.207
 8622SOL     OW26764   5.399   5.463   6.639
 8622SOL    HW126765   5.466   5.424   6.575
 8622SOL    HW226766   5.351   5.539   6.594
 8623SOL     OW26767   6.350   2.442   3.037
 8623SOL    HW126768   6.431   2.493   3.065
 8623SOL    HW226769   6.333   2.457   2.940
 8624SOL     OW26770   6.998   4.180   4.230
 8624SOL    HW126771   0.020   4.262   4.188
 8624SOL    HW226772   0.025   4.163   4.318
 8625SOL     OW26773   3.784   0.770   6.106
 8625SOL    HW126774   3.722   0.791   6.032
 8625SOL    HW226775   3.772   0.675   6.134
 8626SOL     OW26776   3.435   3.592   2.757
 8626SOL    HW126777   3.460   3.498   2.733
 8626SOL    HW226778   3.407   3.596   2.853
 8627SOL     OW26779   2.376   7.017   6.397
 8627SOL    HW126780   2.432   0.027   6.476
 8627SOL    HW226781   2.298   6.964   6.429
 8628SOL     OW26782   5.941   0.884   0.210
 8628SOL    HW126783   5.946   0.979   0.178
 8628SOL    HW226784   5.848   0.850   0.200
 8629SOL     OW26785   1.404   5.155   3.569
 8629SOL    HW126786   1.311   5.138   3.600
 8629SOL    HW226787   1.420   5.104   3.484
 8630SOL     OW26788   5.594   4.773   4.277
 8630SOL    HW126789   5.689   4.769   4.306
 8630SOL    HW226790   5.575   4.862   4.235
 8631SOL     OW26791   4.686   6.024   3.752
 8631SOL    HW126792   4.592   6.018   3.718
 8631SOL    HW226793   4.734   5.939   3.731
 8632SOL     OW26794   4.051   0.836   3.489
 8632SOL    HW126795   3.986   0.782   3.542
 8632SOL    HW226796   4.134   0.852   3.542
 8633SOL     OW26797   6.090   0.051   3.414
 8633SOL    HW126798   6.181   0.013   3.400
 8633SOL    HW226799   6.085   0.143   3.375
 8634SOL     OW26800   6.290   5.577   1.484
 8634SOL    HW126801   6.300   5.570   1.385
 8634SOL    HW226802   6.193   5.575   1.508
 8635SOL     OW26803   6.160   3.509   6.077
 8635SOL    HW126804   6.078   3.472   6.118
 8635SOL    HW226805   6.208   3.438   6.027
 8636SOL     OW26806   5.309   5.741   0.403
 8636SOL    HW126807   5.383   5.676   0.387
 8636SOL    HW226808   5.328   5.826   0.355
 8637SOL     OW26809   1.916   0.503   1.408
 8637SOL    HW126810   1.902   0.594   1.448
 8637SOL    HW226811   1.977   0.450   1.467
 8638SOL     OW26812   4.717   5.337   0.689
 8638SOL    HW126813   4.801   5.304   0.732
 8638SOL    HW226814   4.707   5.435   0.706
 8639SOL     OW26815   6.336   2.926   1.892
 8639SOL    HW126816   6.356   2.845   1.947
 8639SOL    HW226817   6.413   2.945   1.831
 8640SOL     OW26818   5.050   6.299   1.231
 8640SOL    HW126819   4.987   6.372   1.204
 8640SOL    HW226820   5.031   6.217   1.176
 8641SOL     OW26821   5.414   4.975   3.379
 8641SOL    HW126822   5.464   4.946   3.460
 8641SOL    HW226823   5.316   4.961   3.393
 8642SOL     OW26824   4.633   1.696   1.497
 8642SOL    HW126825   4.719   1.736   1.466
 8642SOL    HW226826   4.648   1.649   1.584
 8643SOL     OW26827   4.477   0.549   6.677
 8643SOL    HW126828   4.493   0.519   6.771
 8643SOL    HW226829   4.379   0.563   6.662
 8644SOL     OW26830   6.496   3.500   5.523
 8644SOL    HW126831   6.580   3.555   5.526
 8644SOL    HW226832   6.434   3.532   5.595
 8645SOL     OW26833   5.734   4.281   1.666
 8645SOL    HW126834   5.699   4.197   1.709
 8645SOL    HW226835   5.682   4.359   1.700
 8646SOL     OW26836   5.371   0.099   0.879
 8646SOL    HW126837   5.457   0.055   0.905
 8646SOL    HW226838   5.380   0.198   0.888
 8647SOL     OW26839   4.487   5.019   1.700
 8647SOL    HW126840   4.441   5.091   1.648
 8647SOL    HW226841   4.490   4.935   1.644
 8648SOL     OW26842   5.730   1.430   4.816
 8648SOL    HW126843   5.741   1.462   4.722
 8648SOL    HW226844   5.728   1.330   4.817
 8649SOL     OW26845   0.336   4.631   5.714
 8649SOL    HW126846   0.400   4.701   5.683
 8649SOL    HW226847   0.269   4.672   5.776
 8650SOL     OW26848   0.563   4.526   1.571
 8650SOL    HW126849   0.525   4.564   1.487
 8650SOL    HW226850   0.533   4.431   1.581
 8651SOL     OW26851   3.550   2.999   1.241
 8651SOL    HW126852   3.503   3.010   1.154
 8651SOL    HW226853   3.515   2.918   1.289
 8652SOL     OW26854   1.120   2.936   3.589
 8652SOL    HW126855   1.082   2.968   3.676
 8652SOL    HW226856   1.220   2.945   3.591
 8653SOL     OW26857   6.040   3.140   6.742
 8653SOL    HW126858   6.104   3.077   6.699
 8653SOL    HW226859   5.959   3.151   6.683
 8654SOL     OW26860   0.565   5.817   2.495
 8654SOL    HW126861   0.547   5.773   2.407
 8654SOL    HW226862   0.551   5.750   2.568
 8655SOL     OW26863   6.095   6.207   3.108
 8655SOL    HW126864   6.030   6.211   3.184
 8655SOL    HW226865   6.188   6.223   3.142
 8656SOL     OW26866   6.398   1.962   1.298
 8656SOL    HW126867   6.350   2.026   1.358
 8656SOL    HW226868   6.496   1.976   1.306
 8657SOL     OW26869   3.077   4.029   0.629
 8657SOL    HW126870   3.062   4.117   0.583
 8657SOL    HW226871   3.033   4.031   0.718
 8658SOL     OW26872   0.566   5.297   6.534
 8658SOL    HW126873   0.596   5.210   6.575
 8658SOL    HW226874   0.491   5.279   6.470
 8659SOL     OW26875   4.293   0.693   3.741
 8659SOL    HW126876   4.340   0.730   3.821
 8659SOL    HW226877   4.309   0.754   3.663
 8660SOL     OW26878   5.401   4.633   0.547
 8660SOL    HW126879   5.414   4.702   0.619
 8660SOL    HW226880   5.466   4.559   0.559
 8661SOL     OW26881   6.327   3.547   1.262
 8661SOL    HW126882   6.348   3.610   1.337
 8661SOL    HW226883   6.383   3.464   1.272
 8662SOL     OW26884   0.191   0.531   0.703
 8662SOL    HW126885   0.279   0.484   0.711
 8662SOL    HW226886   0.171   0.579   0.788
 8663SOL     OW26887   2.049   5.850   0.661
 8663SOL    HW126888   2.123   5.916   0.674
 8663SOL    HW226889   1.975   5.870   0.724
 8664SOL     OW26890   4.506   5.430   1.523
 8664SOL    HW126891   4.549   5.406   1.436
 8664SOL    HW226892   4.408   5.409   1.519
 8665SOL     OW26893   5.078   5.367   4.647
 8665SOL    HW126894   5.085   5.271   4.619
 8665SOL    HW226895   5.168   5.411   4.640
 8666SOL     OW26896   5.796   3.941   4.746
 8666SOL    HW126897   5.725   3.937   4.675
 8666SOL    HW226898   5.886   3.929   4.704
 8667SOL     OW26899   5.446   2.756   3.107
 8667SOL    HW126900   5.521   2.738   3.170
 8667SOL    HW226901   5.411   2.669   3.071
 8668SOL     OW26902   3.251   1.305   4.166
 8668SOL    HW126903   3.329   1.251   4.135
 8668SOL    HW226904   3.220   1.365   4.093
 8669SOL     OW26905   4.466   6.850   5.658
 8669SOL    HW126906   4.532   6.777   5.641
 8669SOL    HW226907   4.460   6.910   5.578
 8670SOL     OW26908   3.944   4.869   3.449
 8670SOL    HW126909   3.959   4.853   3.546
 8670SOL    HW226910   4.014   4.823   3.395
 8671SOL     OW26911   6.113   6.210   2.606
 8671SOL    HW126912   6.124   6.179   2.512
 8671SOL    HW226913   6.042   6.280   2.610
 8672SOL     OW26914   3.505   4.878   5.721
 8672SOL    HW126915   3.577   4.927   5.672
 8672SOL    HW226916   3.457   4.941   5.782
 8673SOL     OW26917   5.460   1.955   0.467
 8673SOL    HW126918   5.447   1.856   0.461
 8673SOL    HW226919   5.556   1.977   0.453
 8674SOL     OW26920   0.606   0.420   2.554
 8674SOL    HW126921   0.596   0.432   2.653
 8674SOL    HW226922   0.612   0.509   2.510
 8675SOL     OW26923   1.943   2.259   2.546
 8675SOL    HW126924   2.042   2.251   2.542
 8675SOL    HW226925   1.917   2.355   2.552
 8676SOL     OW26926   4.552   0.270   3.951
 8676SOL    HW126927   4.601   0.278   4.037
 8676SOL    HW226928   4.454   0.265   3.968
 8677SOL     OW26929   2.224   4.376   5.312
 8677SOL    HW126930   2.231   4.458   5.369
 8677SOL    HW226931   2.226   4.295   5.369
 8678SOL     OW26932   1.502   0.992   6.192
 8678SOL    HW126933   1.584   0.942   6.162
 8678SOL    HW226934   1.433   0.927   6.223
 8679SOL     OW26935   6.753   2.441   4.696
 8679SOL    HW126936   6.665   2.395   4.713
 8679SOL    HW226937   6.811   2.432   4.777
 8680SOL     OW26938   0.901   3.868   1.001
 8680SOL    HW126939   0.917   3.906   0.910
 8680SOL    HW226940   0.956   3.785   1.013
 8681SOL     OW26941   4.107   3.595   1.440
 8681SOL    HW126942   4.162   3.513   1.454
 8681SOL    HW226943   4.166   3.673   1.419
 8682SOL     OW26944   2.253   5.900   2.896
 8682SOL    HW126945   2.298   5.941   2.816
 8682SOL    HW226946   2.168   5.856   2.868
 8683SOL     OW26947   5.889   2.623   6.791
 8683SOL    HW126948   5.829   2.545   6.773
 8683SOL    HW226949   5.984   2.596   6.776
 8684SOL     OW26950   6.497   2.885   4.366
 8684SOL    HW126951   6.487   2.831   4.282
 8684SOL    HW226952   6.496   2.982   4.345
 8685SOL     OW26953   0.169   1.952   5.500
 8685SOL    HW126954   0.146   1.943   5.404
 8685SOL    HW226955   0.195   1.863   5.537
 8686SOL     OW26956   6.484   1.594   3.720
 8686SOL    HW126957   6.524   1.503   3.711
 8686SOL    HW226958   6.509   1.649   3.641
 8687SOL     OW26959   3.810   0.808   2.839
 8687SOL    HW126960   3.892   0.787   2.894
 8687SOL    HW226961   3.803   0.744   2.763
 8688SOL     OW26962   1.363   0.277   2.020
 8688SOL    HW126963   1.392   0.263   2.115
 8688SOL    HW226964   1.275   0.325   2.019
 8689SOL     OW26965   4.593   5.734   0.512
 8689SOL    HW126966   4.547   5.684   0.439
 8689SOL    HW226967   4.542   5.817   0.533
 8690SOL     OW26968   1.334   0.642   2.696
 8690SOL    HW126969   1.430   0.660   2.677
 8690SOL    HW226970   1.312   0.672   2.789
 8691SOL     OW26971   6.041   1.560   0.530
 8691SOL    HW126972   5.941   1.555   0.523
 8691SOL    HW226973   6.072   1.507   0.609
 8692SOL     OW26974   1.667   1.281   4.008
 8692SOL    HW126975   1.673   1.267   4.107
 8692SOL    HW226976   1.664   1.379   3.989
 8693SOL     OW26977   5.572   2.086   0.033
 8693SOL    HW126978   5.633   2.125   0.101
 8693SOL    HW226979   5.491   2.048   0.079
 8694SOL     OW26980   3.614   6.525   6.757
 8694SOL    HW126981   3.514   6.526   6.758
 8694SOL    HW226982   3.647   6.554   6.667
 8695SOL     OW26983   4.434   4.233   5.256
 8695SOL    HW126984   4.374   4.289   5.199
 8695SOL    HW226985   4.516   4.209   5.205
 8696SOL     OW26986   1.711   5.167   0.888
 8696SOL    HW126987   1.810   5.157   0.881
 8696SOL    HW226988   1.684   5.257   0.854
 8697SOL     OW26989   5.266   4.628   6.974
 8697SOL    HW126990   5.278   4.656   6.879
 8697SOL    HW226991   5.280   4.707   0.017
 8698SOL     OW26992   5.836   6.525   4.235
 8698SOL    HW126993   5.859   6.512   4.331
 8698SOL    HW226994   5.846   6.622   4.212
 8699SOL     OW26995   1.581   1.158   5.268
 8699SOL    HW126996   1.647   1.108   5.323
 8699SOL    HW226997   1.601   1.146   5.171
 8700SOL     OW26998   2.134   1.682   5.957
 8700SOL    HW126999   2.138   1.582   5.957
 8700SOL    HW227000   2.220   1.719   5.922
 8701SOL     OW27001   1.354   2.074   3.918
 8701SOL    HW127002   1.281   2.080   3.987
 8701SOL    HW227003   1.441   2.056   3.964
 8702SOL     OW27004   5.201   5.777   0.025
 8702SOL    HW127005   5.171   5.687   0.055
 8702SOL    HW227006   5.132   5.816   6.981
 8703SOL     OW27007   1.260   5.561   1.389
 8703SOL    HW127008   1.216   5.611   1.463
 8703SOL    HW227009   1.285   5.625   1.316
 8704SOL     OW27010   0.495   4.006   1.880
 8704SOL    HW127011   0.470   4.005   1.784
 8704SOL    HW227012   0.422   3.965   1.935
 8705SOL     OW27013   5.266   6.514   4.683
 8705SOL    HW127014   5.276   6.456   4.764
 8705SOL    HW227015   5.351   6.565   4.668
 8706SOL     OW27016   5.064   1.949   5.718
 8706SOL    HW127017   5.154   1.913   5.692
 8706SOL    HW227018   4.997   1.875   5.716
 8707SOL     OW27019   4.849   2.246   5.663
 8707SOL    HW127020   4.845   2.345   5.653
 8707SOL    HW227021   4.886   2.223   5.753
 8708SOL     OW27022   3.922   1.682   0.751
 8708SOL    HW127023   3.904   1.584   0.745
 8708SOL    HW227024   3.869   1.721   0.826
 8709SOL     OW27025   6.171   3.433   1.064
 8709SOL    HW127026   6.164   3.496   0.987
 8709SOL    HW227027   6.195   3.484   1.147
 8710SOL     OW27028   6.966   2.952   3.540
 8710SOL    HW127029   0.034   2.956   3.593
 8710SOL    HW227030   6.944   3.043   3.505
 8711SOL     OW27031   0.792   1.748   4.064
 8711SOL    HW127032   0.708   1.707   4.029
 8711SOL    HW227033   0.793   1.743   4.164
 8712SOL     OW27034   3.706   1.498   6.054
 8712SOL    HW127035   3.721   1.533   5.962
 8712SOL    HW227036   3.759   1.414   6.067
 8713SOL     OW27037   5.741   4.731   2.688
 8713SOL    HW127038   5.676   4.747   2.763
 8713SOL    HW227039   5.827   4.777   2.708
 8714SOL     OW27040   1.898   1.220   4.654
 8714SOL    HW127041   1.941   1.310   4.652
 8714SOL    HW227042   1.908   1.176   4.565
 8715SOL     OW27043   6.126   1.354   2.013
 8715SOL    HW127044   6.187   1.427   2.043
 8715SOL    HW227045   6.120   1.354   1.914
 8716SOL     OW27046   1.168   1.685   1.953
 8716SOL    HW127047   1.209   1.775   1.966
 8716SOL    HW227048   1.233   1.614   1.980
 8717SOL     OW27049   3.856   3.035   0.618
 8717SOL    HW127050   3.929   3.042   0.550
 8717SOL    HW227051   3.808   3.122   0.624
 8718SOL     OW27052   0.136   3.247   6.082
 8718SOL    HW127053   0.068   3.180   6.113
 8718SOL    HW227054   0.094   3.311   6.019
 8719SOL     OW27055   6.786   0.704   5.879
 8719SOL    HW127056   6.828   0.781   5.928
 8719SOL    HW227057   6.719   0.660   5.938
 8720SOL     OW27058   4.732   3.895   6.009
 8720SOL    HW127059   4.693   3.805   5.987
 8720SOL    HW227060   4.701   3.962   5.943
 8721SOL     OW27061   6.977   1.405   4.744
 8721SOL    HW127062   7.016   1.455   4.666
 8721SOL    HW227063   0.034   1.360   4.794
 8722SOL     OW27064   3.146   3.050   0.790
 8722SOL    HW127065   3.181   3.079   0.880
 8722SOL    HW227066   3.219   3.055   0.723
 8723SOL     OW27067   0.278   5.304   6.960
 8723SOL    HW127068   0.179   5.312   6.947
 8723SOL    HW227069   0.325   5.361   6.893
 8724SOL     OW27070   5.765   5.745   6.580
 8724SOL    HW127071   5.802   5.684   6.510
 8724SOL    HW227072   5.831   5.817   6.600
 8725SOL     OW27073   2.163   6.255   1.131
 8725SOL    HW127074   2.094   6.297   1.072
 8725SOL    HW227075   2.119   6.191   1.194
 8726SOL     OW27076   5.666   0.426   1.272
 8726SOL    HW127077   5.587   0.382   1.315
 8726SOL    HW227078   5.749   0.376   1.296
 8727SOL     OW27079   5.978   5.786   0.872
 8727SOL    HW127080   5.975   5.702   0.817
 8727SOL    HW227081   5.921   5.774   0.953
 8728SOL     OW27082   2.133   6.901   5.509
 8728SOL    HW127083   2.175   6.821   5.465
 8728SOL    HW227084   2.172   6.984   5.470
 8729SOL     OW27085   5.803   6.821   4.235
 8729SOL    HW127086   5.733   6.836   4.165
 8729SOL    HW227087   5.760   6.793   4.321
 8730SOL     OW27088   6.988   6.776   0.966
 8730SOL    HW127089   6.982   6.788   1.066
 8730SOL    HW227090   0.060   6.738   0.942
 8731SOL     OW27091   0.721   2.132   2.460
 8731SOL    HW127092   0.802   2.138   2.518
 8731SOL    HW227093   0.730   2.055   2.398
 8732SOL     OW27094   6.071   5.048   1.722
 8732SOL    HW127095   6.055   4.959   1.679
 8732SOL    HW227096   6.165   5.077   1.705
 8733SOL     OW27097   0.198   6.572   1.524
 8733SOL    HW127098   0.232   6.664   1.542
 8733SOL    HW227099   0.171   6.564   1.429
 8734SOL     OW27100   6.999   5.399   0.345
 8734SOL    HW127101   7.005   5.359   0.436
 8734SOL    HW227102   0.057   5.365   0.288
 8735SOL     OW27103   6.780   2.306   6.810
 8735SOL    HW127104   6.869   2.332   6.847
 8735SOL    HW227105   6.742   2.230   6.864
 8736SOL     OW27106   0.474   4.616   6.489
 8736SOL    HW127107   0.375   4.619   6.471
 8736SOL    HW227108   0.523   4.645   6.407
 8737SOL     OW27109   3.542   6.194   6.783
 8737SOL    HW127110   3.638   6.213   6.761
 8737SOL    HW227111   3.530   6.195   6.882
 8738SOL     OW27112   1.424   3.566   4.980
 8738SOL    HW127113   1.415   3.477   5.025
 8738SOL    HW227114   1.472   3.629   5.040
 8739SOL     OW27115   1.159   2.854   5.306
 8739SOL    HW127116   1.187   2.787   5.237
 8739SOL    HW227117   1.236   2.913   5.330
 8740SOL     OW27118   1.626   6.699   1.441
 8740SOL    HW127119   1.696   6.635   1.471
 8740SOL    HW227120   1.607   6.765   1.514
 8741SOL     OW27121   1.467   3.521   1.938
 8741SOL    HW127122   1.461   3.614   1.904
 8741SOL    HW227123   1.552   3.509   1.990
 8742SOL     OW27124   4.885   6.420   2.131
 8742SOL    HW127125   4.861   6.328   2.101
 8742SOL    HW227126   4.982   6.424   2.155
 8743SOL     OW27127   2.388   4.619   3.376
 8743SOL    HW127128   2.326   4.695   3.359
 8743SOL    HW227129   2.365   4.543   3.316
 8744SOL     OW27130   3.246   3.446   5.653
 8744SOL    HW127131   3.308   3.519   5.623
 8744SOL    HW227132   3.201   3.406   5.573
 8745SOL     OW27133   6.610   1.679   0.029
 8745SOL    HW127134   6.536   1.745   0.015
 8745SOL    HW227135   6.645   1.688   0.122
 8746SOL     OW27136   5.185   4.143   5.410
 8746SOL    HW127137   5.173   4.210   5.337
 8746SOL    HW227138   5.108   4.079   5.410
 8747SOL     OW27139   1.397   2.515   3.665
 8747SOL    HW127140   1.492   2.508   3.694
 8747SOL    HW227141   1.359   2.424   3.650
 8748SOL     OW27142   3.041   0.184   0.162
 8748SOL    HW127143   3.104   0.262   0.159
 8748SOL    HW227144   2.950   0.214   0.135
 8749SOL     OW27145   3.879   1.376   3.999
 8749SOL    HW127146   3.828   1.342   4.078
 8749SOL    HW227147   3.972   1.401   4.027
 8750SOL     OW27148   2.232   0.690   5.054
 8750SOL    HW127149   2.260   0.595   5.038
 8750SOL    HW227150   2.312   0.749   5.049
 8751SOL     OW27151   2.323   0.237   3.001
 8751SOL    HW127152   2.272   0.201   3.079
 8751SOL    HW227153   2.319   0.171   2.926
 8752SOL     OW27154   1.963   2.496   6.230
 8752SOL    HW127155   1.957   2.595   6.221
 8752SOL    HW227156   1.909   2.452   6.157
 8753SOL     OW27157   6.231   1.549   5.055
 8753SOL    HW127158   6.315   1.506   5.023
 8753SOL    HW227159   6.152   1.508   5.009
 8754SOL     OW27160   2.176   1.017   4.887
 8754SOL    HW127161   2.081   1.020   4.857
 8754SOL    HW227162   2.179   1.004   4.986
 8755SOL     OW27163   2.351   2.098   0.844
 8755SOL    HW127164   2.344   2.175   0.780
 8755SOL    HW227165   2.413   2.029   0.806
 8756SOL     OW27166   1.548   3.784   3.498
 8756SOL    HW127167   1.642   3.787   3.464
 8756SOL    HW227168   1.549   3.783   3.598
 8757SOL     OW27169   4.886   6.142   4.228
 8757SOL    HW127170   4.911   6.214   4.292
 8757SOL    HW227171   4.808   6.091   4.264
 8758SOL     OW27172   5.222   6.435   1.950
 8758SOL    HW127173   5.277   6.513   1.921
 8758SOL    HW227174   5.189   6.450   2.043
 8759SOL     OW27175   4.855   1.437   5.407
 8759SOL    HW127176   4.849   1.371   5.482
 8759SOL    HW227177   4.887   1.525   5.443
 8760SOL     OW27178   1.458   2.787   3.714
 8760SOL    HW127179   1.558   2.788   3.708
 8760SOL    HW227180   1.423   2.698   3.686
 8761SOL     OW27181   4.552   6.468   0.611
 8761SOL    HW127182   4.492   6.479   0.532
 8761SOL    HW227183   4.645   6.446   0.579
 8762SOL     OW27184   0.971   3.913   0.417
 8762SOL    HW127185   0.873   3.927   0.429
 8762SOL    HW227186   0.991   3.816   0.410
 8763SOL     OW27187   6.898   6.136   5.910
 8763SOL    HW127188   6.900   6.120   6.009
 8763SOL    HW227189   6.808   6.172   5.884
 8764SOL     OW27190   3.401   2.100   5.170
 8764SOL    HW127191   3.305   2.126   5.180
 8764SOL    HW227192   3.411   2.001   5.182
 8765SOL     OW27193   0.308   0.327   4.998
 8765SOL    HW127194   0.243   0.251   5.003
 8765SOL    HW227195   0.294   0.388   5.076
 8766SOL     OW27196   2.312   4.470   2.833
 8766SOL    HW127197   2.390   4.489   2.773
 8766SOL    HW227198   2.229   4.509   2.794
 8767SOL     OW27199   4.669   1.763   4.790
 8767SOL    HW127200   4.671   1.834   4.860
 8767SOL    HW227201   4.755   1.711   4.793
 8768SOL     OW27202   1.449   4.052   6.967
 8768SOL    HW127203   1.421   4.132   0.002
 8768SOL    HW227204   1.412   4.056   6.874
 8769SOL     OW27205   2.379   0.823   5.355
 8769SOL    HW127206   2.414   0.851   5.265
 8769SOL    HW227207   2.353   0.727   5.351
 8770SOL     OW27208   5.340   1.776   2.528
 8770SOL    HW127209   5.323   1.834   2.449
 8770SOL    HW227210   5.259   1.773   2.587
 8771SOL     OW27211   2.287   2.550   5.708
 8771SOL    HW127212   2.332   2.639   5.698
 8771SOL    HW227213   2.208   2.546   5.646
 8772SOL     OW27214   5.994   5.998   6.522
 8772SOL    HW127215   6.079   6.050   6.514
 8772SOL    HW227216   6.003   5.911   6.474
 8773SOL     OW27217   3.417   1.925   2.888
 8773SOL    HW127218   3.400   1.991   2.961
 8773SOL    HW227219   3.479   1.854   2.920
 8774SOL     OW27220   1.260   0.974   0.452
 8774SOL    HW127221   1.273   1.046   0.521
 8774SOL    HW227222   1.349   0.943   0.420
 8775SOL     OW27223   6.722   6.857   4.154
 8775SOL    HW127224   6.737   6.902   4.243
 8775SOL    HW227225   6.757   6.916   4.081
 8776SOL     OW27226   3.056   3.819   4.597
 8776SOL    HW127227   2.989   3.762   4.549
 8776SOL    HW227228   3.118   3.861   4.530
 8777SOL     OW27229   6.543   5.651   2.360
 8777SOL    HW127230   6.551   5.557   2.394
 8777SOL    HW227231   6.619   5.671   2.298
 8778SOL     OW27232   0.727   2.031   3.208
 8778SOL    HW127233   0.685   2.052   3.297
 8778SOL    HW227234   0.746   1.933   3.203
 8779SOL     OW27235   1.357   4.805   1.204
 8779SOL    HW127236   1.424   4.864   1.250
 8779SOL    HW227237   1.299   4.760   1.273
 8780SOL     OW27238   2.205   6.096   4.563
 8780SOL    HW127239   2.297   6.134   4.551
 8780SOL    HW227240   2.210   6.015   4.621
 8781SOL     OW27241   0.657   2.468   2.828
 8781SOL    HW127242   0.754   2.452   2.814
 8781SOL    HW227243   0.642   2.563   2.857
 8782SOL     OW27244   4.751   1.452   2.966
 8782SOL    HW127245   4.808   1.407   3.035
 8782SOL    HW227246   4.807   1.480   2.889
 8783SOL     OW27247   5.399   2.226   5.405
 8783SOL    HW127248   5.356   2.242   5.494
 8783SOL    HW227249   5.349   2.153   5.357
 8784SOL     OW27250   5.312   3.991   6.045
 8784SOL    HW127251   5.271   4.014   6.133
 8784SOL    HW227252   5.294   4.065   5.980
 8785SOL     OW27253   5.403   4.857   6.256
 8785SOL    HW127254   5.351   4.842   6.340
 8785SOL    HW227255   5.421   4.769   6.211
 8786SOL     OW27256   1.098   6.424   0.456
 8786SOL    HW127257   1.184   6.447   0.411
 8786SOL    HW227258   1.055   6.348   0.408
 8787SOL     OW27259   1.460   2.914   0.073
 8787SOL    HW127260   1.544   2.967   0.063
 8787SOL    HW227261   1.443   2.862   7.006
 8788SOL     OW27262   1.199   1.325   5.165
 8788SOL    HW127263   1.126   1.341   5.098
 8788SOL    HW227264   1.278   1.382   5.143
 8789SOL     OW27265   0.273   0.319   6.508
 8789SOL    HW127266   0.344   0.297   6.575
 8789SOL    HW227267   0.213   0.240   6.496
 8790SOL     OW27268   4.713   1.204   0.052
 8790SOL    HW127269   4.734   1.159   6.983
 8790SOL    HW227270   4.785   1.271   0.073
 8791SOL     OW27271   4.538   6.212   5.288
 8791SOL    HW127272   4.448   6.244   5.318
 8791SOL    HW227273   4.575   6.275   5.219
 8792SOL     OW27274   5.378   6.936   2.924
 8792SOL    HW127275   5.298   6.929   2.984
 8792SOL    HW227276   5.461   6.917   2.977
 8793SOL     OW27277   1.122   4.348   3.763
 8793SOL    HW127278   1.198   4.399   3.803
 8793SOL    HW227279   1.127   4.253   3.794
 8794SOL     OW27280   2.847   6.287   2.657
 8794SOL    HW127281   2.840   6.189   2.637
 8794SOL    HW227282   2.823   6.304   2.752
 8795SOL     OW27283   2.210   5.986   5.220
 8795SOL    HW127284   2.142   5.964   5.291
 8795SOL    HW227285   2.166   5.986   5.131
 8796SOL     OW27286   5.624   2.708   5.488
 8796SOL    HW127287   5.651   2.668   5.575
 8796SOL    HW227288   5.637   2.808   5.491
 8797SOL     OW27289   0.796   6.595   6.413
 8797SOL    HW127290   0.741   6.631   6.488
 8797SOL    HW227291   0.812   6.667   6.345
 8798SOL     OW27292   3.602   3.054   6.119
 8798SOL    HW127293   3.548   3.003   6.186
 8798SOL    HW227294   3.632   3.140   6.158
 8799SOL     OW27295   4.061   7.003   3.087
 8799SOL    HW127296   4.034   6.959   3.173
 8799SOL    HW227297   3.980   0.028   3.045
 8800SOL     OW27298   4.280   5.109   0.320
 8800SOL    HW127299   4.268   5.034   0.255
 8800SOL    HW227300   4.196   5.122   0.373
 8801SOL     OW27301   3.166   6.655   5.117
 8801SOL    HW127302   3.157   6.671   5.019
 8801SOL    HW227303   3.150   6.741   5.166
 8802SOL     OW27304   2.123   6.650   1.877
 8802SOL    HW127305   2.138   6.615   1.785
 8802SOL    HW227306   2.211   6.665   1.922
 8803SOL     OW27307   3.815   6.215   0.657
 8803SOL    HW127308   3.872   6.191   0.578
 8803SOL    HW227309   3.850   6.169   0.738
 8804SOL     OW27310   3.190   0.735   1.013
 8804SOL    HW127311   3.144   0.736   0.925
 8804SOL    HW227312   3.167   0.818   1.064
 8805SOL     OW27313   0.214   0.305   3.163
 8805SOL    HW127314   0.206   0.207   3.149
 8805SOL    HW227315   0.282   0.323   3.234
 8806SOL     OW27316   2.519   4.998   0.576
 8806SOL    HW127317   2.498   5.035   0.485
 8806SOL    HW227318   2.617   4.982   0.584
 8807SOL     OW27319   1.916   6.236   6.106
 8807SOL    HW127320   1.876   6.280   6.026
 8807SOL    HW227321   2.015   6.230   6.095
 8808SOL     OW27322   6.024   1.585   1.017
 8808SOL    HW127323   6.054   1.575   1.112
 8808SOL    HW227324   6.073   1.661   0.975
 8809SOL     OW27325   6.031   4.229   1.013
 8809SOL    HW127326   6.045   4.135   1.044
 8809SOL    HW227327   5.933   4.246   1.003
 8810SOL     OW27328   5.174   1.478   3.621
 8810SOL    HW127329   5.272   1.455   3.613
 8810SOL    HW227330   5.162   1.548   3.691
 8811SOL     OW27331   1.460   1.616   3.882
 8811SOL    HW127332   1.543   1.629   3.937
 8811SOL    HW227333   1.431   1.520   3.889
 8812SOL     OW27334   1.970   0.840   0.267
 8812SOL    HW127335   2.043   0.772   0.262
 8812SOL    HW227336   1.970   0.896   0.184
 8813SOL     OW27337   1.092   5.868   0.964
 8813SOL    HW127338   1.175   5.825   0.930
 8813SOL    HW227339   1.065   5.943   0.903
 8814SOL     OW27340   5.501   6.242   0.456
 8814SOL    HW127341   5.444   6.257   0.375
 8814SOL    HW227342   5.593   6.277   0.439
 8815SOL     OW27343   6.595   5.599   3.106
 8815SOL    HW127344   6.507   5.552   3.111
 8815SOL    HW227345   6.601   5.668   3.178
 8816SOL     OW27346   0.867   6.162   2.263
 8816SOL    HW127347   0.837   6.238   2.320
 8816SOL    HW227348   0.813   6.081   2.284
 8817SOL     OW27349   2.870   4.456   5.437
 8817SOL    HW127350   2.904   4.468   5.344
 8817SOL    HW227351   2.806   4.530   5.459
 8818SOL     OW27352   0.147   5.107   4.770
 8818SOL    HW127353   0.070   5.149   4.817
 8818SOL    HW227354   0.219   5.086   4.837
 8819SOL     OW27355   5.947   0.277   4.071
 8819SOL    HW127356   5.941   0.267   3.972
 8819SOL    HW227357   5.918   0.192   4.115
 8820SOL     OW27358   1.166   3.118   4.008
 8820SOL    HW127359   1.099   3.135   3.936
 8820SOL    HW227360   1.257   3.106   3.967
 8821SOL     OW27361   1.587   6.778   6.528
 8821SOL    HW127362   1.491   6.766   6.554
 8821SOL    HW227363   1.642   6.792   6.610
 8822SOL     OW27364   0.467   1.776   4.015
 8822SOL    HW127365   0.371   1.761   4.039
 8822SOL    HW227366   0.474   1.853   3.952
 8823SOL     OW27367   2.497   4.987   1.924
 8823SOL    HW127368   2.563   4.919   1.892
 8823SOL    HW227369   2.521   5.015   2.017
 8824SOL     OW27370   4.822   3.873   0.864
 8824SOL    HW127371   4.789   3.804   0.798
 8824SOL    HW227372   4.749   3.894   0.928
 8825SOL     OW27373   1.795   2.231   1.153
 8825SOL    HW127374   1.796   2.133   1.132
 8825SOL    HW227375   1.884   2.258   1.190
 8826SOL     OW27376   5.425   0.509   0.146
 8826SOL    HW127377   5.357   0.520   0.218
 8826SOL    HW227378   5.459   0.599   0.118
 8827SOL     OW27379   0.254   1.429   3.582
 8827SOL    HW127380   0.167   1.464   3.546
 8827SOL    HW227381   0.254   1.329   3.579
 8828SOL     OW27382   1.338   6.317   2.728
 8828SOL    HW127383   1.356   6.410   2.698
 8828SOL    HW227384   1.366   6.253   2.657
 8829SOL     OW27385   0.736   1.645   0.604
 8829SOL    HW127386   0.671   1.718   0.622
 8829SOL    HW227387   0.787   1.624   0.688
 8830SOL     OW27388   0.994   1.551   0.465
 8830SOL    HW127389   0.902   1.571   0.497
 8830SOL    HW227390   1.019   1.613   0.391
 8831SOL     OW27391   0.262   1.160   1.965
 8831SOL    HW127392   0.248   1.254   1.995
 8831SOL    HW227393   0.178   1.107   1.981
 8832SOL     OW27394   0.024   1.062   2.085
 8832SOL    HW127395   0.034   0.978   2.032
 8832SOL    HW227396   0.019   1.039   2.182
 8833SOL     OW27397   1.282   4.673   3.226
 8833SOL    HW127398   1.316   4.760   3.192
 8833SOL    HW227399   1.322   4.655   3.316
 8834SOL     OW27400   5.784   4.137   3.987
 8834SOL    HW127401   5.720   4.060   3.995
 8834SOL    HW227402   5.834   4.148   4.073
 8835SOL     OW27403   0.558   0.465   6.430
 8835SOL    HW127404   0.590   0.506   6.345
 8835SOL    HW227405   0.458   0.466   6.432
 8836SOL     OW27406   4.888   1.803   1.357
 8836SOL    HW127407   4.908   1.730   1.291
 8836SOL    HW227408   4.873   1.889   1.308
 8837SOL     OW27409   0.411   1.726   2.528
 8837SOL    HW127410   0.507   1.746   2.509
 8837SOL    HW227411   0.404   1.684   2.619
 8838SOL     OW27412   2.310   6.176   3.271
 8838SOL    HW127413   2.406   6.165   3.298
 8838SOL    HW227414   2.276   6.089   3.235
 8839SOL     OW27415   5.502   6.503   4.152
 8839SOL    HW127416   5.440   6.483   4.228
 8839SOL    HW227417   5.597   6.497   4.184
 8840SOL     OW27418   5.069   1.236   2.527
 8840SOL    HW127419   5.104   1.276   2.443
 8840SOL    HW227420   5.119   1.273   2.605
 8841SOL     OW27421   2.205   6.802   3.990
 8841SOL    HW127422   2.262   6.846   4.060
 8841SOL    HW227423   2.264   6.755   3.924
 8842SOL     OW27424   1.762   2.781   1.986
 8842SOL    HW127425   1.729   2.872   1.964
 8842SOL    HW227426   1.846   2.762   1.935
 8843SOL     OW27427   0.218   3.291   4.882
 8843SOL    HW127428   0.254   3.381   4.860
 8843SOL    HW227429   0.293   3.225   4.888
 8844SOL     OW27430   5.799   1.142   6.071
 8844SOL    HW127431   5.862   1.219   6.085
 8844SOL    HW227432   5.729   1.143   6.142
 8845SOL     OW27433   5.668   3.340   0.233
 8845SOL    HW127434   5.586   3.397   0.226
 8845SOL    HW227435   5.668   3.292   0.320
 8846SOL     OW27436   2.787   4.733   3.420
 8846SOL    HW127437   2.795   4.641   3.381
 8846SOL    HW227438   2.701   4.742   3.469
 8847SOL     OW27439   1.616   0.641   2.590
 8847SOL    HW127440   1.634   0.732   2.553
 8847SOL    HW227441   1.612   0.574   2.516
 8848SOL     OW27442   1.187   0.400   3.312
 8848SOL    HW127443   1.245   0.380   3.233
 8848SOL    HW227444   1.244   0.427   3.390
 8849SOL     OW27445   2.332   6.748   1.452
 8849SOL    HW127446   2.375   6.837   1.463
 8849SOL    HW227447   2.329   6.724   1.355
 8850SOL     OW27448   2.930   2.669   6.962
 8850SOL    HW127449   2.939   2.611   6.881
 8850SOL    HW227450   3.020   2.703   6.989
 8851SOL     OW27451   1.857   3.806   2.154
 8851SOL    HW127452   1.931   3.768   2.210
 8851SOL    HW227453   1.771   3.760   2.176
 8852SOL     OW27454   0.963   1.981   5.201
 8852SOL    HW127455   0.951   1.885   5.227
 8852SOL    HW227456   1.061   2.003   5.199
 8853SOL     OW27457   5.492   0.755   1.410
 8853SOL    HW127458   5.508   0.824   1.481
 8853SOL    HW227459   5.450   0.674   1.451
 8854SOL     OW27460   0.768   2.890   4.943
 8854SOL    HW127461   0.779   2.914   5.039
 8854SOL    HW227462   0.785   2.970   4.886
 8855SOL     OW27463   5.291   4.817   1.417
 8855SOL    HW127464   5.375   4.813   1.362
 8855SOL    HW227465   5.255   4.910   1.415
 8856SOL     OW27466   6.511   0.565   5.669
 8856SOL    HW127467   6.525   0.472   5.636
 8856SOL    HW227468   6.563   0.578   5.754
 8857SOL     OW27469   6.830   1.834   6.266
 8857SOL    HW127470   6.831   1.826   6.366
 8857SOL    HW227471   6.790   1.922   6.241
 8858SOL     OW27472   6.672   5.491   5.056
 8858SOL    HW127473   6.677   5.574   4.999
 8858SOL    HW227474   6.681   5.410   4.997
 8859SOL     OW27475   1.431   6.120   2.875
 8859SOL    HW127476   1.398   6.203   2.830
 8859SOL    HW227477   1.400   6.039   2.825
 8860SOL     OW27478   0.409   3.658   2.583
 8860SOL    HW127479   0.407   3.595   2.506
 8860SOL    HW227480   0.329   3.641   2.642
 8861SOL     OW27481   3.868   2.712   1.679
 8861SOL    HW127482   3.908   2.706   1.588
 8861SOL    HW227483   3.891   2.801   1.720
 8862SOL     OW27484   4.356   4.679   4.702
 8862SOL    HW127485   4.379   4.632   4.787
 8862SOL    HW227486   4.259   4.703   4.703
 8863SOL     OW27487   1.627   3.633   2.763
 8863SOL    HW127488   1.622   3.576   2.681
 8863SOL    HW227489   1.713   3.685   2.763
 8864SOL     OW27490   6.415   2.264   5.626
 8864SOL    HW127491   6.497   2.286   5.679
 8864SOL    HW227492   6.440   2.203   5.551
 8865SOL     OW27493   2.760   2.126   0.402
 8865SOL    HW127494   2.853   2.159   0.383
 8865SOL    HW227495   2.695   2.200   0.386
 8866SOL     OW27496   5.775   6.600   2.174
 8866SOL    HW127497   5.746   6.666   2.105
 8866SOL    HW227498   5.852   6.547   2.140
 8867SOL     OW27499   6.334   3.265   2.694
 8867SOL    HW127500   6.286   3.345   2.657
 8867SOL    HW227501   6.268   3.206   2.742
 8868SOL     OW27502   6.907   3.769   3.678
 8868SOL    HW127503   6.943   3.698   3.739
 8868SOL    HW227504   6.811   3.785   3.699
 8869SOL     OW27505   4.971   0.710   3.479
 8869SOL    HW127506   5.057   0.688   3.527
 8869SOL    HW227507   4.959   0.646   3.403
 8870SOL     OW27508   1.518   1.003   2.034
 8870SOL    HW127509   1.567   1.090   2.029
 8870SOL    HW227510   1.544   0.946   1.957
 8871SOL     OW27511   0.346   0.536   1.486
 8871SOL    HW127512   0.280   0.496   1.550
 8871SOL    HW227513   0.368   0.629   1.514
 8872SOL     OW27514   6.756   3.595   3.422
 8872SOL    HW127515   6.787   3.646   3.503
 8872SOL    HW227516   6.770   3.497   3.438
 8873SOL     OW27517   2.534   2.266   2.910
 8873SOL    HW127518   2.511   2.175   2.875
 8873SOL    HW227519   2.483   2.283   2.994
 8874SOL     OW27520   3.155   6.265   0.586
 8874SOL    HW127521   3.216   6.340   0.562
 8874SOL    HW227522   3.176   6.232   0.678
 8875SOL     OW27523   6.726   3.214   4.828
 8875SOL    HW127524   6.704   3.173   4.916
 8875SOL    HW227525   6.709   3.148   4.755
 8876SOL     OW27526   3.798   0.623   0.409
 8876SOL    HW127527   3.709   0.592   0.373
 8876SOL    HW227528   3.785   0.662   0.500
 8877SOL     OW27529   0.523   4.881   1.238
 8877SOL    HW127530   0.617   4.892   1.268
 8877SOL    HW227531   0.466   4.953   1.276
 8878SOL     OW27532   4.818   4.089   1.507
 8878SOL    HW127533   4.732   4.114   1.551
 8878SOL    HW227534   4.893   4.135   1.554
 8879SOL     OW27535   6.989   3.667   2.762
 8879SOL    HW127536   7.006   3.694   2.856
 8879SOL    HW227537   6.905   3.613   2.757
 8880SOL     OW27538   4.473   2.279   2.941
 8880SOL    HW127539   4.376   2.280   2.968
 8880SOL    HW227540   4.482   2.312   2.847
 8881SOL     OW27541   3.780   5.065   3.053
 8881SOL    HW127542   3.816   4.989   3.107
 8881SOL    HW227543   3.758   5.033   2.960
 8882SOL     OW27544   3.895   0.783   0.924
 8882SOL    HW127545   3.861   0.863   0.875
 8882SOL    HW227546   3.836   0.765   1.003
 8883SOL     OW27547   6.890   6.668   3.497
 8883SOL    HW127548   6.791   6.682   3.489
 8883SOL    HW227549   6.909   6.570   3.501
 8884SOL     OW27550   4.492   3.004   5.664
 8884SOL    HW127551   4.462   3.099   5.663
 8884SOL    HW227552   4.479   2.964   5.573
 8885SOL     OW27553   5.643   6.039   0.575
 8885SOL    HW127554   5.637   6.032   0.675
 8885SOL    HW227555   5.565   6.091   0.540
 8886SOL     OW27556   4.108   6.152   6.867
 8886SOL    HW127557   4.155   6.121   6.784
 8886SOL    HW227558   4.134   6.247   6.886
 8887SOL     OW27559   4.159   0.515   1.890
 8887SOL    HW127560   4.192   0.420   1.885
 8887SOL    HW227561   4.060   0.516   1.896
 8888SOL     OW27562   3.530   1.844   2.486
 8888SOL    HW127563   3.578   1.931   2.501
 8888SOL    HW227564   3.435   1.853   2.518
 8889SOL     OW27565   1.427   4.911   0.409
 8889SOL    HW127566   1.375   4.996   0.393
 8889SOL    HW227567   1.518   4.934   0.444
 8890SOL     OW27568   1.090   6.658   6.717
 8890SOL    HW127569   1.069   6.573   6.670
 8890SOL    HW227570   1.126   6.638   6.808
 8891SOL     OW27571   6.588   4.048   5.795
 8891SOL    HW127572   6.617   4.133   5.839
 8891SOL    HW227573   6.544   4.069   5.708
 8892SOL     OW27574   2.875   5.296   4.761
 8892SOL    HW127575   2.951   5.237   4.788
 8892SOL    HW227576   2.789   5.259   4.796
 8893SOL     OW27577   1.042   4.587   5.786
 8893SOL    HW127578   1.056   4.496   5.824
 8893SOL    HW227579   1.094   4.654   5.839
 8894SOL     OW27580   5.033   1.553   1.610
 8894SOL    HW127581   5.085   1.562   1.525
 8894SOL    HW227582   5.040   1.637   1.663
 8895SOL     OW27583   6.688   3.113   1.010
 8895SOL    HW127584   6.710   3.208   0.988
 8895SOL    HW227585   6.647   3.107   1.101
 8896SOL     OW27586   1.137   1.371   3.863
 8896SOL    HW127587   1.231   1.388   3.893
 8896SOL    HW227588   1.086   1.457   3.865
 8897SOL     OW27589   1.651   5.671   3.808
 8897SOL    HW127590   1.735   5.618   3.809
 8897SOL    HW227591   1.592   5.642   3.884
 8898SOL     OW27592   5.137   3.803   2.203
 8898SOL    HW127593   5.147   3.834   2.108
 8898SOL    HW227594   5.100   3.878   2.259
 8899SOL     OW27595   1.861   3.661   3.130
 8899SOL    HW127596   1.878   3.758   3.116
 8899SOL    HW227597   1.842   3.644   3.226
 8900SOL     OW27598   4.257   1.788   4.324
 8900SOL    HW127599   4.312   1.868   4.347
 8900SOL    HW227600   4.257   1.775   4.225
 8901SOL     OW27601   1.681   5.253   4.905
 8901SOL    HW127602   1.679   5.194   4.986
 8901SOL    HW227603   1.694   5.197   4.824
 8902SOL     OW27604   0.489   5.143   6.904
 8902SOL    HW127605   0.421   5.215   6.893
 8902SOL    HW227606   0.453   5.073   6.966
 8903SOL     OW27607   1.080   0.314   5.178
 8903SOL    HW127608   1.013   0.252   5.219
 8903SOL    HW227609   1.059   0.327   5.081
 8904SOL     OW27610   0.813   1.271   3.796
 8904SOL    HW127611   0.817   1.176   3.763
 8904SOL    HW227612   0.760   1.326   3.731
 8905SOL     OW27613   1.375   4.305   2.411
 8905SOL    HW127614   1.383   4.209   2.439
 8905SOL    HW227615   1.328   4.310   2.323
 8906SOL     OW27616   5.773   6.900   6.949
 8906SOL    HW127617   5.743   6.807   6.927
 8906SOL    HW227618   5.863   6.916   6.909
 8907SOL     OW27619   2.996   3.060   5.152
 8907SOL    HW127620   3.077   3.034   5.204
 8907SOL    HW227621   3.024   3.100   5.065
 8908SOL     OW27622   1.434   4.799   6.576
 8908SOL    HW127623   1.529   4.774   6.594
 8908SOL    HW227624   1.431   4.890   6.533
 8909SOL     OW27625   1.939   5.422   1.398
 8909SOL    HW127626   1.942   5.411   1.498
 8909SOL    HW227627   2.031   5.407   1.360
 8910SOL     OW27628   0.983   0.730   3.472
 8910SOL    HW127629   0.953   0.720   3.377
 8910SOL    HW227630   1.077   0.696   3.481
 8911SOL     OW27631   5.250   2.448   4.335
 8911SOL    HW127632   5.217   2.372   4.392
 8911SOL    HW227633   5.250   2.532   4.388
 8912SOL     OW27634   3.540   3.437   3.970
 8912SOL    HW127635   3.459   3.433   4.029
 8912SOL    HW227636   3.620   3.462   4.024
 8913SOL     OW27637   5.030   6.073   1.095
 8913SOL    HW127638   5.066   6.112   1.010
 8913SOL    HW227639   4.953   6.013   1.074
 8914SOL     OW27640   4.497   5.878   5.508
 8914SOL    HW127641   4.562   5.810   5.541
 8914SOL    HW227642   4.405   5.856   5.541
 8915SOL     OW27643   1.778   0.782   3.420
 8915SOL    HW127644   1.816   0.800   3.329
 8915SOL    HW227645   1.839   0.821   3.489
 8916SOL     OW27646   5.294   1.101   1.174
 8916SOL    HW127647   5.249   1.185   1.205
 8916SOL    HW227648   5.245   1.021   1.210
 8917SOL     OW27649   5.640   1.688   0.278
 8917SOL    HW127650   5.652   1.757   0.207
 8917SOL    HW227651   5.690   1.715   0.360
 8918SOL     OW27652   0.924   3.358   2.802
 8918SOL    HW127653   0.888   3.317   2.886
 8918SOL    HW227654   0.851   3.369   2.735
 8919SOL     OW27655   5.863   2.722   2.245
 8919SOL    HW127656   5.932   2.695   2.312
 8919SOL    HW227657   5.808   2.797   2.281
 8920SOL     OW27658   0.298   1.295   0.088
 8920SOL    HW127659   0.316   1.198   0.103
 8920SOL    HW227660   0.289   1.342   0.176
 8921SOL     OW27661   0.944   3.058   2.610
 8921SOL    HW127662   0.952   3.105   2.522
 8921SOL    HW227663   0.925   2.961   2.595
 8922SOL     OW27664   3.989   5.140   3.994
 8922SOL    HW127665   4.081   5.175   3.973
 8922SOL    HW227666   3.921   5.209   3.968
 8923SOL     OW27667   2.358   1.629   3.957
 8923SOL    HW127668   2.413   1.663   4.033
 8923SOL    HW227669   2.342   1.702   3.891
 8924SOL     OW27670   6.344   4.840   5.220
 8924SOL    HW127671   6.384   4.753   5.246
 8924SOL    HW227672   6.287   4.828   5.138
 8925SOL     OW27673   0.859   6.551   2.875
 8925SOL    HW127674   0.935   6.573   2.814
 8925SOL    HW227675   0.777   6.531   2.820
 8926SOL     OW27676   6.123   0.679   6.914
 8926SOL    HW127677   6.132   0.586   6.948
 8926SOL    HW227678   6.046   0.724   6.959
 8927SOL     OW27679   1.768   1.127   6.790
 8927SOL    HW127680   1.799   1.221   6.785
 8927SOL    HW227681   1.764   1.088   6.697
 8928SOL     OW27682   1.210   6.869   5.603
 8928SOL    HW127683   1.247   6.896   5.693
 8928SOL    HW227684   1.286   6.855   5.539
 8929SOL     OW27685   0.206   1.725   4.043
 8929SOL    HW127686   0.155   1.668   4.107
 8929SOL    HW227687   0.228   1.671   3.961
 8930SOL     OW27688   1.850   5.096   4.072
 8930SOL    HW127689   1.872   4.999   4.063
 8930SOL    HW227690   1.932   5.146   4.103
 8931SOL     OW27691   4.061   3.584   0.248
 8931SOL    HW127692   4.073   3.640   0.330
 8931SOL    HW227693   4.091   3.636   0.168
 8932SOL     OW27694   0.512   3.223   3.616
 8932SOL    HW127695   0.531   3.166   3.537
 8932SOL    HW227696   0.429   3.191   3.661
 8933SOL     OW27697   4.007   1.587   5.680
 8933SOL    HW127698   4.059   1.663   5.718
 8933SOL    HW227699   4.052   1.552   5.598
 8934SOL     OW27700   2.728   6.262   2.931
 8934SOL    HW127701   2.669   6.196   2.884
 8934SOL    HW227702   2.694   6.276   3.024
 8935SOL     OW27703   6.476   5.058   0.287
 8935SOL    HW127704   6.431   4.984   0.335
 8935SOL    HW227705   6.558   5.024   0.241
 8936SOL     OW27706   3.807   2.774   0.302
 8936SOL    HW127707   3.861   2.800   0.382
 8936SOL    HW227708   3.844   2.690   0.262
 8937SOL     OW27709   0.903   0.270   5.805
 8937SOL    HW127710   0.922   0.345   5.741
 8937SOL    HW227711   0.829   0.296   5.866
 8938SOL     OW27712   5.065   6.296   1.560
 8938SOL    HW127713   5.048   6.274   1.465
 8938SOL    HW227714   5.095   6.214   1.609
 8939SOL     OW27715   4.885   1.918   5.171
 8939SOL    HW127716   4.947   1.926   5.249
 8939SOL    HW227717   4.821   1.843   5.188
 8940SOL     OW27718   5.767   6.971   2.323
 8940SOL    HW127719   5.834   6.902   2.297
 8940SOL    HW227720   5.685   6.962   2.266
 8941SOL     OW27721   4.445   1.417   6.500
 8941SOL    HW127722   4.393   1.332   6.511
 8941SOL    HW227723   4.529   1.398   6.450
 8942SOL     OW27724   1.841   2.548   5.223
 8942SOL    HW127725   1.821   2.637   5.265
 8942SOL    HW227726   1.787   2.537   5.140
 8943SOL     OW27727   4.768   3.402   0.959
 8943SOL    HW127728   4.830   3.481   0.967
 8943SOL    HW227729   4.719   3.390   1.046
 8944SOL     OW27730   4.146   5.550   1.365
 8944SOL    HW127731   4.193   5.603   1.295
 8944SOL    HW227732   4.047   5.560   1.354
 8945SOL     OW27733   2.275   1.299   4.347
 8945SOL    HW127734   2.354   1.359   4.331
 8945SOL    HW227735   2.299   1.228   4.413
 8946SOL     OW27736   3.865   1.597   4.649
 8946SOL    HW127737   3.880   1.649   4.565
 8946SOL    HW227738   3.813   1.653   4.715
 8947SOL     OW27739   3.781   3.853   5.089
 8947SOL    HW127740   3.848   3.779   5.089
 8947SOL    HW227741   3.727   3.848   5.174
 8948SOL     OW27742   5.580   4.818   2.896
 8948SOL    HW127743   5.557   4.886   2.826
 8948SOL    HW227744   5.496   4.785   2.939
 8949SOL     OW27745   2.238   5.587   5.891
 8949SOL    HW127746   2.297   5.510   5.866
 8949SOL    HW227747   2.279   5.672   5.858
 8950SOL     OW27748   4.828   2.326   4.730
 8950SOL    HW127749   4.862   2.407   4.684
 8950SOL    HW227750   4.855   2.328   4.826
 8951SOL     OW27751   2.219   1.637   5.560
 8951SOL    HW127752   2.262   1.650   5.650
 8951SOL    HW227753   2.167   1.552   5.560
 8952SOL     OW27754   6.348   6.938   3.396
 8952SOL    HW127755   6.432   6.977   3.359
 8952SOL    HW227756   6.364   6.908   3.490
 8953SOL     OW27757   1.385   5.292   6.692
 8953SOL    HW127758   1.356   5.320   6.784
 8953SOL    HW227759   1.311   5.312   6.627
 8954SOL     OW27760   2.104   6.650   5.627
 8954SOL    HW127761   2.045   6.589   5.575
 8954SOL    HW227762   2.103   6.741   5.585
 8955SOL     OW27763   6.166   3.712   4.292
 8955SOL    HW127764   6.092   3.774   4.268
 8955SOL    HW227765   6.184   3.719   4.390
 8956SOL     OW27766   1.373   0.600   4.790
 8956SOL    HW127767   1.283   0.637   4.770
 8956SOL    HW227768   1.365   0.526   4.856
 8957SOL     OW27769   2.501   5.698   1.837
 8957SOL    HW127770   2.422   5.649   1.800
 8957SOL    HW227771   2.554   5.737   1.761
 8958SOL     OW27772   2.498   0.272   4.054
 8958SOL    HW127773   2.432   0.320   4.111
 8958SOL    HW227774   2.557   0.338   4.007
 8959SOL     OW27775   3.143   5.168   0.390
 8959SOL    HW127776   3.110   5.180   0.297
 8959SOL    HW227777   3.066   5.171   0.454
 8960SOL     OW27778   3.544   5.310   0.939
 8960SOL    HW127779   3.600   5.385   0.904
 8960SOL    HW227780   3.588   5.272   1.020
 8961SOL     OW27781   1.520   2.628   4.092
 8961SOL    HW127782   1.430   2.672   4.096
 8961SOL    HW227783   1.590   2.698   4.078
 8962SOL     OW27784   4.919   0.533   3.280
 8962SOL    HW127785   4.909   0.584   3.194
 8962SOL    HW227786   4.829   0.500   3.309
 8963SOL     OW27787   0.194   0.910   3.644
 8963SOL    HW127788   0.167   0.876   3.734
 8963SOL    HW227789   0.254   0.844   3.600
 8964SOL     OW27790   6.807   3.537   3.127
 8964SOL    HW127791   6.853   3.624   3.106
 8964SOL    HW227792   6.746   3.550   3.205
 8965SOL     OW27793   1.147   5.253   1.638
 8965SOL    HW127794   1.227   5.240   1.697
 8965SOL    HW227795   1.177   5.271   1.545
 8966SOL     OW27796   3.515   2.396   5.487
 8966SOL    HW127797   3.494   2.383   5.390
 8966SOL    HW227798   3.461   2.472   5.523
 8967SOL     OW27799   4.467   6.921   0.707
 8967SOL    HW127800   4.404   6.875   0.645
 8967SOL    HW227801   4.415   6.984   0.765
 8968SOL     OW27802   5.071   4.504   3.385
 8968SOL    HW127803   4.997   4.457   3.433
 8968SOL    HW227804   5.054   4.503   3.287
 8969SOL     OW27805   6.201   0.721   4.036
 8969SOL    HW127806   6.249   0.638   4.064
 8969SOL    HW227807   6.103   0.704   4.034
 8970SOL     OW27808   3.740   2.104   1.467
 8970SOL    HW127809   3.828   2.122   1.511
 8970SOL    HW227810   3.672   2.167   1.504
 8971SOL     OW27811   4.643   6.143   3.320
 8971SOL    HW127812   4.706   6.120   3.395
 8971SOL    HW227813   4.624   6.241   3.321
 8972SOL     OW27814   5.536   0.606   4.618
 8972SOL    HW127815   5.547   0.541   4.693
 8972SOL    HW227816   5.548   0.699   4.653
 8973SOL     OW27817   1.636   4.630   6.912
 8973SOL    HW127818   1.572   4.559   6.883
 8973SOL    HW227819   1.698   4.594   6.981
 8974SOL     OW27820   0.466   3.009   3.954
 8974SOL    HW127821   0.388   2.949   3.971
 8974SOL    HW227822   0.486   3.009   3.856
 8975SOL     OW27823   3.612   0.511   6.741
 8975SOL    HW127824   3.640   0.447   6.670
 8975SOL    HW227825   3.651   0.483   6.829
 8976SOL     OW27826   1.138   4.796   4.616
 8976SOL    HW127827   1.149   4.749   4.528
 8976SOL    HW227828   1.097   4.733   4.682
 8977SOL     OW27829   5.659   0.952   6.449
 8977SOL    HW127830   5.683   0.855   6.449
 8977SOL    HW227831   5.637   0.982   6.542
 8978SOL     OW27832   5.549   5.339   0.977
 8978SOL    HW127833   5.622   5.383   0.925
 8978SOL    HW227834   5.461   5.354   0.930
 8979SOL     OW27835   1.780   4.973   4.851
 8979SOL    HW127836   1.744   5.009   4.765
 8979SOL    HW227837   1.836   4.892   4.833
 8980SOL     OW27838   3.841   3.027   4.631
 8980SOL    HW127839   3.860   2.991   4.722
 8980SOL    HW227840   3.915   3.087   4.602
 8981SOL     OW27841   2.647   1.262   5.622
 8981SOL    HW127842   2.556   1.289   5.652
 8981SOL    HW227843   2.716   1.321   5.665
 8982SOL     OW27844   4.556   4.154   0.833
 8982SOL    HW127845   4.480   4.213   0.858
 8982SOL    HW227846   4.532   4.059   0.851
 8983SOL     OW27847   5.022   5.378   0.764
 8983SOL    HW127848   5.049   5.354   0.858
 8983SOL    HW227849   5.074   5.322   0.699
 8984SOL     OW27850   1.721   6.831   3.369
 8984SOL    HW127851   1.685   6.738   3.377
 8984SOL    HW227852   1.758   6.859   3.457
 8985SOL     OW27853   2.959   3.160   6.128
 8985SOL    HW127854   3.004   3.091   6.185
 8985SOL    HW227855   2.926   3.235   6.186
 8986SOL     OW27856   3.709   6.354   2.869
 8986SOL    HW127857   3.727   6.285   2.799
 8986SOL    HW227858   3.745   6.442   2.839
 8987SOL     OW27859   5.048   6.046   1.731
 8987SOL    HW127860   5.124   5.989   1.762
 8987SOL    HW227861   5.029   6.027   1.635
 8988SOL     OW27862   0.835   5.664   5.205
 8988SOL    HW127863   0.927   5.689   5.233
 8988SOL    HW227864   0.778   5.651   5.286
 8989SOL     OW27865   2.980   3.103   6.861
 8989SOL    HW127866   2.918   3.182   6.858
 8989SOL    HW227867   3.012   3.083   6.768
 8990SOL     OW27868   0.287   5.812   3.466
 8990SOL    HW127869   0.378   5.796   3.428
 8990SOL    HW227870   0.262   5.908   3.455
 8991SOL     OW27871   1.161   2.197   5.155
 8991SOL    HW127872   1.233   2.263   5.134
 8991SOL    HW227873   1.145   2.139   5.075
 8992SOL     OW27874   6.899   2.133   0.786
 8992SOL    HW127875   6.993   2.099   0.782
 8992SOL    HW227876   6.843   2.069   0.838
 8993SOL     OW27877   4.924   2.392   0.727
 8993SOL    HW127878   4.884   2.357   0.642
 8993SOL    HW227879   4.972   2.478   0.709
 8994SOL     OW27880   1.897   5.936   3.245
 8994SOL    HW127881   1.922   6.028   3.215
 8994SOL    HW227882   1.981   5.881   3.255
 8995SOL     OW27883   0.245   0.326   1.003
 8995SOL    HW127884   0.309   0.385   0.954
 8995SOL    HW227885   0.230   0.363   1.095
 8996SOL     OW27886   3.969   6.636   5.713
 8996SOL    HW127887   3.919   6.559   5.674
 8996SOL    HW227888   4.059   6.606   5.743
 8997SOL     OW27889   6.235   1.069   4.650
 8997SOL    HW127890   6.298   1.097   4.578
 8997SOL    HW227891   6.285   1.020   4.722
 8998SOL     OW27892   6.485   3.369   4.838
 8998SOL    HW127893   6.577   3.331   4.837
 8998SOL    HW227894   6.443   3.350   4.927
 8999SOL     OW27895   3.812   6.843   5.870
 8999SOL    HW127896   3.849   6.929   5.835
 8999SOL    HW227897   3.866   6.766   5.834
 9000SOL     OW27898   1.527   4.126   1.156
 9000SOL    HW127899   1.473   4.129   1.240
 9000SOL    HW227900   1.570   4.215   1.141
 9001SOL     OW27901   1.021   5.720   2.135
 9001SOL    HW127902   0.971   5.804   2.114
 9001SOL    HW227903   1.044   5.674   2.049
 9002SOL     OW27904   0.804   4.549   6.615
 9002SOL    HW127905   0.731   4.486   6.589
 9002SOL    HW227906   0.888   4.498   6.631
 9003SOL     OW27907   5.308   0.262   1.429
 9003SOL    HW127908   5.228   0.322   1.428
 9003SOL    HW227909   5.359   0.276   1.513
 9004SOL     OW27910   4.823   5.034   0.245
 9004SOL    HW127911   4.804   5.130   0.228
 9004SOL    HW227912   4.767   5.002   0.322
 9005SOL     OW27913   5.411   1.623   5.513
 9005SOL    HW127914   5.446   1.687   5.445
 9005SOL    HW227915   5.355   1.554   5.467
 9006SOL     OW27916   3.606   6.292   0.468
 9006SOL    HW127917   3.667   6.270   0.544
 9006SOL    HW227918   3.601   6.214   0.405
 9007SOL     OW27919   1.797   1.178   3.123
 9007SOL    HW127920   1.837   1.157   3.034
 9007SOL    HW227921   1.779   1.092   3.172
 9008SOL     OW27922   0.952   5.856   2.427
 9008SOL    HW127923   0.936   5.925   2.498
 9008SOL    HW227924   0.912   5.887   2.341
 9009SOL     OW27925   3.607   6.051   1.410
 9009SOL    HW127926   3.608   6.135   1.356
 9009SOL    HW227927   3.700   6.030   1.441
 9010SOL     OW27928   1.392   5.970   3.958
 9010SOL    HW127929   1.300   5.950   3.924
 9010SOL    HW227930   1.451   5.994   3.882
 9011SOL     OW27931   2.481   2.465   1.913
 9011SOL    HW127932   2.456   2.393   1.978
 9011SOL    HW227933   2.560   2.435   1.859
 9012SOL     OW27934   1.928   6.523   0.016
 9012SOL    HW127935   1.998   6.508   6.964
 9012SOL    HW227936   1.874   6.604   7.010
 9013SOL     OW27937   2.266   6.558   4.340
 9013SOL    HW127938   2.224   6.635   4.388
 9013SOL    HW227939   2.227   6.473   4.373
 9014SOL     OW27940   5.238   3.062   3.753
 9014SOL    HW127941   5.143   3.081   3.728
 9014SOL    HW227942   5.298   3.097   3.681
 9015SOL     OW27943   5.042   1.263   6.117
 9015SOL    HW127944   5.033   1.163   6.120
 9015SOL    HW227945   5.138   1.287   6.112
 9016SOL     OW27946   5.044   5.190   6.217
 9016SOL    HW127947   5.073   5.254   6.288
 9016SOL    HW227948   5.085   5.217   6.129
 9017SOL     OW27949   4.243   6.954   4.623
 9017SOL    HW127950   4.329   6.960   4.572
 9017SOL    HW227951   4.170   6.924   4.561
 9018SOL     OW27952   4.117   4.700   6.361
 9018SOL    HW127953   4.171   4.627   6.320
 9018SOL    HW227954   4.023   4.695   6.326
 9019SOL     OW27955   0.454   3.314   3.950
 9019SOL    HW127956   0.510   3.235   3.976
 9019SOL    HW227957   0.397   3.341   4.027
 9020SOL     OW27958   5.309   5.039   3.044
 9020SOL    HW127959   5.400   5.063   3.078
 9020SOL    HW227960   5.318   4.982   2.961
 9021SOL     OW27961   0.714   1.315   4.423
 9021SOL    HW127962   0.763   1.257   4.488
 9021SOL    HW227963   0.625   1.339   4.461
 9022SOL     OW27964   4.642   4.025   6.249
 9022SOL    HW127965   4.646   4.115   6.205
 9022SOL    HW227966   4.654   3.954   6.180
 9023SOL     OW27967   6.255   4.214   0.523
 9023SOL    HW127968   6.178   4.183   0.577
 9023SOL    HW227969   6.292   4.298   0.563
 9024SOL     OW27970   2.270   5.980   6.012
 9024SOL    HW127971   2.225   6.051   5.957
 9024SOL    HW227972   2.309   5.911   5.951
 9025SOL     OW27973   1.023   5.940   1.234
 9025SOL    HW127974   1.022   5.917   1.137
 9025SOL    HW227975   1.116   5.964   1.262
 9026SOL     OW27976   4.977   1.159   0.342
 9026SOL    HW127977   5.018   1.173   0.432
 9026SOL    HW227978   4.958   1.247   0.300
 9027SOL     OW27979   0.944   4.075   3.579
 9027SOL    HW127980   0.869   4.134   3.551
 9027SOL    HW227981   0.934   3.985   3.536
 9028SOL     OW27982   3.280   4.959   6.175
 9028SOL    HW127983   3.332   4.903   6.240
 9028SOL    HW227984   3.212   5.013   6.225
 9029SOL     OW27985   4.947   0.114   4.442
 9029SOL    HW127986   4.903   0.093   4.354
 9029SOL    HW227987   4.897   0.187   4.488
 9030SOL     OW27988   2.848   1.354   2.227
 9030SOL    HW127989   2.896   1.267   2.236
 9030SOL    HW227990   2.831   1.373   2.130
 9031SOL     OW27991   4.542   6.826   4.774
 9031SOL    HW127992   4.568   6.785   4.687
 9031SOL    HW227993   4.444   6.813   4.790
 9032SOL     OW27994   4.988   3.231   2.128
 9032SOL    HW127995   4.954   3.190   2.044
 9032SOL    HW227996   4.957   3.177   2.207
 9033SOL     OW27997   0.448   6.986   3.112
 9033SOL    HW127998   0.468   0.013   3.025
 9033SOL    HW227999   0.432   6.889   3.098
 9034SOL     OW28000   4.749   6.871   4.496
 9034SOL    HW128001   4.827   6.868   4.559
 9034SOL    HW228002   4.780   6.903   4.406
 9035SOL     OW28003   2.469   5.058   6.797
 9035SOL    HW128004   2.519   5.037   6.713
 9035SOL    HW228005   2.526   5.039   6.877
 9036SOL     OW28006   1.656   4.289   5.234
 9036SOL    HW128007   1.592   4.316   5.305
 9036SOL    HW228008   1.731   4.236   5.274
 9037SOL     OW28009   0.693   0.990   3.262
 9037SOL    HW128010   0.683   0.893   3.286
 9037SOL    HW228011   0.751   0.997   3.180
 9038SOL     OW28012   4.399   2.839   5.390
 9038SOL    HW128013   4.492   2.868   5.409
 9038SOL    HW228014   4.400   2.759   5.330
 9039SOL     OW28015   4.280   5.793   6.580
 9039SOL    HW128016   4.373   5.757   6.589
 9039SOL    HW228017   4.217   5.738   6.635
 9040SOL     OW28018   2.163   1.931   1.492
 9040SOL    HW128019   2.239   1.991   1.514
 9040SOL    HW228020   2.154   1.861   1.563
 9041SOL     OW28021   6.821   2.292   2.277
 9041SOL    HW128022   6.767   2.209   2.294
 9041SOL    HW228023   6.856   2.327   2.364
 9042SOL     OW28024   3.778   6.448   0.301
 9042SOL    HW128025   3.714   6.390   0.351
 9042SOL    HW228026   3.742   6.468   0.210
 9043SOL     OW28027   3.321   2.735   0.755
 9043SOL    HW128028   3.364   2.663   0.808
 9043SOL    HW228029   3.389   2.781   0.699
 9044SOL     OW28030   0.530   1.067   0.511
 9044SOL    HW128031   0.572   1.096   0.597
 9044SOL    HW228032   0.534   1.142   0.445
 9045SOL     OW28033   4.367   1.623   3.017
 9045SOL    HW128034   4.396   1.529   3.003
 9045SOL    HW228035   4.348   1.666   2.928
 9046SOL     OW28036   2.851   3.163   1.910
 9046SOL    HW128037   2.827   3.225   1.985
 9046SOL    HW228038   2.938   3.118   1.931
 9047SOL     OW28039   1.349   4.185   6.668
 9047SOL    HW128040   1.329   4.242   6.588
 9047SOL    HW228041   1.263   4.164   6.715
 9048SOL     OW28042   6.588   1.305   6.124
 9048SOL    HW128043   6.667   1.286   6.067
 9048SOL    HW228044   6.604   1.271   6.217
 9049SOL     OW28045   2.673   6.861   5.798
 9049SOL    HW128046   2.588   6.810   5.786
 9049SOL    HW228047   2.701   6.900   5.710
 9050SOL     OW28048   0.630   4.381   0.912
 9050SOL    HW128049   0.711   4.417   0.865
 9050SOL    HW228050   0.578   4.456   0.952
 9051SOL     OW28051   2.482   1.182   1.370
 9051SOL    HW128052   2.429   1.142   1.296
 9051SOL    HW228053   2.524   1.268   1.339
 9052SOL     OW28054   1.521   2.314   5.688
 9052SOL    HW128055   1.504   2.407   5.655
 9052SOL    HW228056   1.463   2.250   5.639
 9053SOL     OW28057   0.935   0.955   0.125
 9053SOL    HW128058   1.034   0.969   0.134
 9053SOL    HW228059   0.886   1.031   0.166
 9054SOL     OW28060   2.368   5.945   2.607
 9054SOL    HW128061   2.444   5.947   2.542
 9054SOL    HW228062   2.292   5.892   2.568
 9055SOL     OW28063   6.993   3.009   5.377
 9055SOL    HW128064   0.055   3.001   5.438
 9055SOL    HW228065   6.992   3.100   5.335
 9056SOL     OW28066   6.177   2.877   2.880
 9056SOL    HW128067   6.124   2.929   2.947
 9056SOL    HW228068   6.255   2.833   2.925
 9057SOL     OW28069   4.504   2.173   3.823
 9057SOL    HW128070   4.453   2.142   3.743
 9057SOL    HW228071   4.602   2.166   3.806
 9058SOL     OW28072   2.670   1.078   5.881
 9058SOL    HW128073   2.666   1.168   5.924
 9058SOL    HW228074   2.735   1.079   5.806
 9059SOL     OW28075   1.479   2.213   3.020
 9059SOL    HW128076   1.562   2.242   3.066
 9059SOL    HW228077   1.494   2.213   2.921
 9060SOL     OW28078   5.198   2.644   5.593
 9060SOL    HW128079   5.207   2.601   5.683
 9060SOL    HW228080   5.123   2.602   5.543
 9061SOL     OW28081   3.007   5.928   2.964
 9061SOL    HW128082   3.014   6.028   2.961
 9061SOL    HW228083   3.089   5.888   2.925
 9062SOL     OW28084   1.625   5.860   1.205
 9062SOL    HW128085   1.704   5.921   1.218
 9062SOL    HW228086   1.654   5.765   1.215
 9063SOL     OW28087   2.699   1.980   2.185
 9063SOL    HW128088   2.735   2.039   2.112
 9063SOL    HW228089   2.645   2.035   2.249
 9064SOL     OW28090   5.014   3.166   0.604
 9064SOL    HW128091   5.114   3.165   0.612
 9064SOL    HW228092   4.982   3.260   0.591
 9065SOL     OW28093   2.773   0.623   0.194
 9065SOL    HW128094   2.780   0.621   0.294
 9065SOL    HW228095   2.811   0.709   0.160
 9066SOL     OW28096   4.862   6.711   0.061
 9066SOL    HW128097   4.883   6.797   0.015
 9066SOL    HW228098   4.773   6.718   0.106
 9067SOL     OW28099   1.115   0.418   1.958
 9067SOL    HW128100   1.089   0.330   1.999
 9067SOL    HW228101   1.079   0.493   2.014
 9068SOL     OW28102   1.648   6.144   6.566
 9068SOL    HW128103   1.583   6.068   6.560
 9068SOL    HW228104   1.723   6.119   6.627
 9069SOL     OW28105   1.303   2.236   6.083
 9069SOL    HW128106   1.282   2.286   5.999
 9069SOL    HW228107   1.391   2.190   6.074
 9070SOL     OW28108   1.307   4.292   3.276
 9070SOL    HW128109   1.311   4.262   3.180
 9070SOL    HW228110   1.385   4.253   3.326
 9071SOL     OW28111   4.417   5.740   0.283
 9071SOL    HW128112   4.421   5.788   0.195
 9071SOL    HW228113   4.377   5.649   0.268
 9072SOL     OW28114   5.303   4.861   0.145
 9072SOL    HW128115   5.314   4.773   0.191
 9072SOL    HW228116   5.384   4.880   0.090
 9073SOL     OW28117   1.714   0.663   1.224
 9073SOL    HW128118   1.790   0.651   1.160
 9073SOL    HW228119   1.747   0.647   1.317
 9074SOL     OW28120   0.448   0.345   3.290
 9074SOL    HW128121   0.514   0.372   3.360
 9074SOL    HW228122   0.438   0.246   3.289
 9075SOL     OW28123   0.373   0.581   1.817
 9075SOL    HW128124   0.464   0.606   1.784
 9075SOL    HW228125   0.308   0.651   1.790
 9076SOL     OW28126   0.647   1.378   5.337
 9076SOL    HW128127   0.638   1.429   5.251
 9076SOL    HW228128   0.657   1.442   5.413
 9077SOL     OW28129   6.244   6.049   1.452
 9077SOL    HW128130   6.327   6.009   1.490
 9077SOL    HW228131   6.225   6.136   1.497
 9078SOL     OW28132   4.076   3.106   5.465
 9078SOL    HW128133   4.167   3.142   5.483
 9078SOL    HW228134   4.028   3.168   5.401
 9079SOL     OW28135   4.110   0.871   5.355
 9079SOL    HW128136   4.027   0.923   5.336
 9079SOL    HW228137   4.190   0.921   5.322
 9080SOL     OW28138   4.948   1.352   7.005
 9080SOL    HW128139   4.930   1.372   6.909
 9080SOL    HW228140   5.033   1.300   7.013
 9081SOL     OW28141   5.491   0.211   3.281
 9081SOL    HW128142   5.441   0.163   3.209
 9081SOL    HW228143   5.426   0.248   3.348
 9082SOL     OW28144   2.846   0.693   2.658
 9082SOL    HW128145   2.910   0.748   2.712
 9082SOL    HW228146   2.772   0.661   2.717
 9083SOL     OW28147   4.680   4.287   4.010
 9083SOL    HW128148   4.666   4.385   3.998
 9083SOL    HW228149   4.683   4.265   4.107
 9084SOL     OW28150   3.979   3.901   2.779
 9084SOL    HW128151   4.052   3.869   2.839
 9084SOL    HW228152   3.981   3.850   2.693
 9085SOL     OW28153   0.957   2.295   0.728
 9085SOL    HW128154   0.968   2.203   0.690
 9085SOL    HW228155   1.046   2.331   0.752
 9086SOL     OW28156   6.768   4.017   0.307
 9086SOL    HW128157   6.763   3.919   0.287
 9086SOL    HW228158   6.698   4.066   0.255
 9087SOL     OW28159   5.545   3.786   2.163
 9087SOL    HW128160   5.474   3.719   2.139
 9087SOL    HW228161   5.502   3.866   2.204
 9088SOL     OW28162   4.832   6.294   0.573
 9088SOL    HW128163   4.778   6.215   0.544
 9088SOL    HW228164   4.928   6.280   0.550
 9089SOL     OW28165   4.300   0.534   5.801
 9089SOL    HW128166   4.335   0.441   5.804
 9089SOL    HW228167   4.261   0.552   5.710
 9090SOL     OW28168   6.050   1.623   3.336
 9090SOL    HW128169   6.067   1.662   3.427
 9090SOL    HW228170   6.115   1.661   3.271
 9091SOL     OW28171   3.930   2.669   6.025
 9091SOL    HW128172   3.979   2.679   6.112
 9091SOL    HW228173   3.875   2.750   6.008
 9092SOL     OW28174   6.940   3.379   6.612
 9092SOL    HW128175   6.964   3.351   6.705
 9092SOL    HW228176   6.876   3.456   6.615
 9093SOL     OW28177   2.238   6.600   4.883
 9093SOL    HW128178   2.216   6.697   4.876
 9093SOL    HW228179   2.241   6.560   4.791
 9094SOL     OW28180   1.723   3.662   1.254
 9094SOL    HW128181   1.711   3.660   1.353
 9094SOL    HW228182   1.818   3.641   1.231
 9095SOL     OW28183   6.661   6.928   6.200
 9095SOL    HW128184   6.667   6.921   6.101
 9095SOL    HW228185   6.597   6.858   6.234
 9096SOL     OW28186   5.588   5.358   4.703
 9096SOL    HW128187   5.671   5.391   4.747
 9096SOL    HW228188   5.520   5.431   4.701
 9097SOL     OW28189   1.342   2.165   5.563
 9097SOL    HW128190   1.352   2.105   5.484
 9097SOL    HW228191   1.252   2.210   5.560
 9098SOL     OW28192   1.844   4.543   3.944
 9098SOL    HW128193   1.864   4.641   3.946
 9098SOL    HW228194   1.929   4.492   3.951
 9099SOL     OW28195   2.070   1.681   6.706
 9099SOL    HW128196   2.101   1.622   6.780
 9099SOL    HW228197   2.077   1.633   6.619
 9100SOL     OW28198   1.573   4.674   3.966
 9100SOL    HW128199   1.581   4.746   3.897
 9100SOL    HW228200   1.657   4.619   3.966
 9101SOL     OW28201   0.359   2.459   0.355
 9101SOL    HW128202   0.302   2.420   0.282
 9101SOL    HW228203   0.307   2.461   0.440
 9102SOL     OW28204   3.860   0.282   3.159
 9102SOL    HW128205   3.865   0.221   3.080
 9102SOL    HW228206   3.869   0.377   3.128
 9103SOL     OW28207   6.095   1.287   1.464
 9103SOL    HW128208   6.141   1.202   1.438
 9103SOL    HW228209   6.132   1.319   1.552
 9104SOL     OW28210   5.971   1.855   6.048
 9104SOL    HW128211   5.930   1.863   5.957
 9104SOL    HW228212   6.063   1.815   6.040
 9105SOL     OW28213   3.047   1.336   5.815
 9105SOL    HW128214   2.999   1.250   5.831
 9105SOL    HW228215   3.013   1.406   5.878
 9106SOL     OW28216   1.750   3.678   0.079
 9106SOL    HW128217   1.826   3.667   0.143
 9106SOL    HW228218   1.721   3.774   0.078
 9107SOL     OW28219   3.196   1.212   0.652
 9107SOL    HW128220   3.164   1.119   0.666
 9107SOL    HW228221   3.221   1.226   0.557
 9108SOL     OW28222   0.050   5.784   5.626
 9108SOL    HW128223   7.000   5.851   5.659
 9108SOL    HW228224   0.050   5.704   5.686
 9109SOL     OW28225   5.769   3.956   2.597
 9109SOL    HW128226   5.689   3.936   2.653
 9109SOL    HW228227   5.740   3.971   2.502
 9110SOL     OW28228   1.519   6.533   3.120
 9110SOL    HW128229   1.579   6.588   3.062
 9110SOL    HW228230   1.436   6.510   3.069
 9111SOL     OW28231   3.693   2.455   5.767
 9111SOL    HW128232   3.655   2.375   5.721
 9111SOL    HW228233   3.732   2.427   5.855
 9112SOL     OW28234   0.388   5.258   2.134
 9112SOL    HW128235   0.290   5.235   2.141
 9112SOL    HW228236   0.405   5.343   2.183
 9113SOL     OW28237   5.766   0.704   4.188
 9113SOL    HW128238   5.845   0.765   4.201
 9113SOL    HW228239   5.699   0.749   4.128
 9114SOL     OW28240   0.931   6.885   5.559
 9114SOL    HW128241   1.007   6.822   5.577
 9114SOL    HW228242   0.901   6.875   5.464
 9115SOL     OW28243   4.851   4.342   5.358
 9115SOL    HW128244   4.935   4.333   5.304
 9115SOL    HW228245   4.875   4.349   5.455
 9116SOL     OW28246   1.814   6.839   4.064
 9116SOL    HW128247   1.860   6.905   4.005
 9116SOL    HW228248   1.877   6.764   4.084
 9117SOL     OW28249   1.909   6.716   0.267
 9117SOL    HW128250   1.905   6.654   0.189
 9117SOL    HW228251   1.837   6.692   0.332
 9118SOL     OW28252   6.681   3.770   1.784
 9118SOL    HW128253   6.636   3.698   1.837
 9118SOL    HW228254   6.626   3.853   1.788
 9119SOL     OW28255   3.051   1.238   0.871
 9119SOL    HW128256   3.094   1.247   0.781
 9119SOL    HW228257   3.087   1.309   0.932
 9120SOL     OW28258   6.286   3.756   4.531
 9120SOL    HW128259   6.362   3.818   4.517
 9120SOL    HW228260   6.275   3.738   4.629
 9121SOL     OW28261   4.088   1.106   4.330
 9121SOL    HW128262   4.096   1.126   4.428
 9121SOL    HW228263   4.006   1.050   4.315
 9122SOL     OW28264   0.238   2.653   1.710
 9122SOL    HW128265   0.336   2.664   1.693
 9122SOL    HW228266   0.201   2.737   1.750
 9123SOL     OW28267   0.759   5.755   4.114
 9123SOL    HW128268   0.666   5.717   4.107
 9123SOL    HW228269   0.815   5.696   4.171
 9124SOL     OW28270   3.784   5.690   0.661
 9124SOL    HW128271   3.867   5.734   0.693
 9124SOL    HW228272   3.763   5.721   0.568
 9125SOL     OW28273   5.381   6.311   1.554
 9125SOL    HW128274   5.345   6.295   1.646
 9125SOL    HW228275   5.452   6.244   1.534
 9126SOL     OW28276   4.409   4.773   0.682
 9126SOL    HW128277   4.355   4.692   0.707
 9126SOL    HW228278   4.375   4.852   0.732
 9127SOL     OW28279   6.347   4.363   5.366
 9127SOL    HW128280   6.433   4.341   5.320
 9127SOL    HW228281   6.367   4.409   5.453
 9128SOL     OW28282   5.633   3.984   6.137
 9128SOL    HW128283   5.696   3.919   6.097
 9128SOL    HW228284   5.544   3.978   6.092
 9129SOL     OW28285   0.868   2.915   0.833
 9129SOL    HW128286   0.848   2.944   0.740
 9129SOL    HW228287   0.789   2.932   0.892
 9130SOL     OW28288   3.052   3.762   5.337
 9130SOL    HW128289   3.099   3.827   5.277
 9130SOL    HW228290   2.973   3.724   5.289
 9131SOL     OW28291   5.560   2.499   0.793
 9131SOL    HW128292   5.478   2.508   0.850
 9131SOL    HW228293   5.597   2.407   0.802
 9132SOL     OW28294   0.896   3.983   4.055
 9132SOL    HW128295   0.855   3.908   4.003
 9132SOL    HW228296   0.854   3.989   4.145
 9133SOL     OW28297   5.806   6.718   1.166
 9133SOL    HW128298   5.767   6.705   1.075
 9133SOL    HW228299   5.892   6.768   1.159
 9134SOL     OW28300   5.151   4.908   6.774
 9134SOL    HW128301   5.178   4.950   6.860
 9134SOL    HW228302   5.065   4.858   6.787
 9135SOL     OW28303   6.508   5.368   2.393
 9135SOL    HW128304   6.494   5.382   2.295
 9135SOL    HW228305   6.420   5.347   2.437
 9136SOL     OW28306   0.594   4.952   0.385
 9136SOL    HW128307   0.672   4.942   0.447
 9136SOL    HW228308   0.517   4.993   0.434
 9137SOL     OW28309   5.688   5.861   5.426
 9137SOL    HW128310   5.653   5.927   5.493
 9137SOL    HW228311   5.750   5.908   5.364
 9138SOL     OW28312   2.185   4.381   5.979
 9138SOL    HW128313   2.137   4.335   6.053
 9138SOL    HW228314   2.223   4.314   5.916
 9139SOL     OW28315   0.192   0.378   1.767
 9139SOL    HW128316   0.107   0.429   1.782
 9139SOL    HW228317   0.270   0.441   1.774
 9140SOL     OW28318   1.935   4.270   2.260
 9140SOL    HW128319   1.925   4.199   2.190
 9140SOL    HW228320   1.863   4.338   2.249
 9141SOL     OW28321   0.171   5.694   4.415
 9141SOL    HW128322   0.104   5.664   4.483
 9141SOL    HW228323   0.150   5.787   4.386
 9142SOL     OW28324   1.331   4.214   3.019
 9142SOL    HW128325   1.401   4.220   2.947
 9142SOL    HW228326   1.313   4.118   3.040
 9143SOL     OW28327   6.355   3.779   2.972
 9143SOL    HW128328   6.255   3.784   2.972
 9143SOL    HW228329   6.390   3.797   3.064
 9144SOL     OW28330   3.117   3.901   5.115
 9144SOL    HW128331   3.092   3.840   5.039
 9144SOL    HW228332   3.203   3.947   5.094
 9145SOL     OW28333   1.701   6.428   5.650
 9145SOL    HW128334   1.727   6.409   5.744
 9145SOL    HW228335   1.616   6.380   5.628
 9146SOL     OW28336   6.155   2.229   3.862
 9146SOL    HW128337   6.140   2.188   3.952
 9146SOL    HW228338   6.087   2.194   3.798
 9147SOL     OW28339   4.019   0.912   5.891
 9147SOL    HW128340   3.977   0.821   5.894
 9147SOL    HW228341   4.048   0.932   5.797
 9148SOL     OW28342   4.469   5.697   1.547
 9148SOL    HW128343   4.495   5.741   1.461
 9148SOL    HW228344   4.483   5.599   1.540
 9149SOL     OW28345   0.862   3.524   1.625
 9149SOL    HW128346   0.804   3.468   1.565
 9149SOL    HW228347   0.936   3.563   1.571
 9150SOL     OW28348   2.788   3.780   6.900
 9150SOL    HW128349   2.732   3.704   6.869
 9150SOL    HW228350   2.740   3.866   6.882
 9151SOL     OW28351   2.179   2.977   3.554
 9151SOL    HW128352   2.231   3.013   3.476
 9151SOL    HW228353   2.223   2.895   3.589
 9152SOL     OW28354   1.965   4.807   2.279
 9152SOL    HW128355   1.898   4.869   2.239
 9152SOL    HW228356   2.042   4.795   2.216
 9153SOL     OW28357   0.411   3.173   0.375
 9153SOL    HW128358   0.499   3.155   0.419
 9153SOL    HW228359   0.337   3.134   0.430
 9154SOL     OW28360   4.810   4.720   3.526
 9154SOL    HW128361   4.873   4.771   3.584
 9154SOL    HW228362   4.719   4.761   3.532
 9155SOL     OW28363   0.890   6.273   2.990
 9155SOL    HW128364   0.914   6.276   3.087
 9155SOL    HW228365   0.865   6.365   2.958
 9156SOL     OW28366   0.117   3.966   5.829
 9156SOL    HW128367   0.154   3.922   5.911
 9156SOL    HW228368   0.170   3.939   5.749
 9157SOL     OW28369   1.905   4.631   5.435
 9157SOL    HW128370   1.881   4.572   5.358
 9157SOL    HW228371   1.975   4.696   5.406
 9158SOL     OW28372   7.007   3.145   4.800
 9158SOL    HW128373   0.075   3.168   4.847
 9158SOL    HW228374   0.003   3.151   4.701
 9159SOL     OW28375   2.522   1.387   3.994
 9159SOL    HW128376   2.493   1.479   3.967
 9159SOL    HW228377   2.459   1.320   3.956
 9160SOL     OW28378   0.958   2.844   6.743
 9160SOL    HW128379   0.870   2.824   6.786
 9160SOL    HW228380   1.029   2.854   6.813
 9161SOL     OW28381   6.040   3.002   3.051
 9161SOL    HW128382   5.968   2.939   3.079
 9161SOL    HW228383   6.011   3.096   3.067
 9162SOL     OW28384   3.838   2.319   1.646
 9162SOL    HW128385   3.787   2.318   1.732
 9162SOL    HW228386   3.787   2.370   1.577
 9163SOL     OW28387   1.731   2.780   4.072
 9163SOL    HW128388   1.780   2.750   3.990
 9163SOL    HW228389   1.793   2.778   4.150
 9164SOL     OW28390   2.579   6.487   6.779
 9164SOL    HW128391   2.508   6.424   6.748
 9164SOL    HW228392   2.614   6.458   6.868
 9165SOL     OW28393   5.941   0.771   6.231
 9165SOL    HW128394   5.950   0.839   6.303
 9165SOL    HW228395   5.873   0.703   6.257
 9166SOL     OW28396   4.400   6.421   1.874
 9166SOL    HW128397   4.481   6.367   1.850
 9166SOL    HW228398   4.397   6.503   1.817
 9167SOL     OW28399   1.605   1.763   4.244
 9167SOL    HW128400   1.616   1.706   4.325
 9167SOL    HW228401   1.521   1.817   4.253
 9168SOL     OW28402   6.347   5.768   5.131
 9168SOL    HW128403   6.291   5.752   5.212
 9168SOL    HW228404   6.415   5.838   5.151
 9169SOL     OW28405   6.501   5.889   0.057
 9169SOL    HW128406   6.480   5.962   0.122
 9169SOL    HW228407   6.526   5.929   6.986
 9170SOL     OW28408   2.314   0.723   5.767
 9170SOL    HW128409   2.334   0.628   5.790
 9170SOL    HW228410   2.319   0.780   5.849
 9171SOL     OW28411   3.276   5.916   0.093
 9171SOL    HW128412   3.212   5.841   0.107
 9171SOL    HW228413   3.335   5.896   0.015
 9172SOL     OW28414   4.536   1.554   5.510
 9172SOL    HW128415   4.578   1.500   5.437
 9172SOL    HW228416   4.534   1.501   5.594
 9173SOL     OW28417   5.986   3.633   5.351
 9173SOL    HW128418   5.946   3.635   5.259
 9173SOL    HW228419   5.940   3.700   5.409
 9174SOL     OW28420   6.092   4.385   0.807
 9174SOL    HW128421   6.189   4.408   0.808
 9174SOL    HW228422   6.072   4.324   0.884
 9175SOL     OW28423   2.145   0.852   1.319
 9175SOL    HW128424   2.148   0.755   1.296
 9175SOL    HW228425   2.197   0.904   1.251
 9176SOL     OW28426   1.674   0.847   2.417
 9176SOL    HW128427   1.737   0.925   2.418
 9176SOL    HW228428   1.585   0.877   2.383
 9177SOL     OW28429   0.970   5.652   3.612
 9177SOL    HW128430   0.934   5.744   3.627
 9177SOL    HW228431   0.966   5.600   3.698
 9178SOL     OW28432   1.232   3.912   1.167
 9178SOL    HW128433   1.184   3.982   1.114
 9178SOL    HW228434   1.286   3.956   1.239
 9179SOL     OW28435   4.345   5.042   3.660
 9179SOL    HW128436   4.271   4.985   3.622
 9179SOL    HW228437   4.342   5.038   3.760
 9180SOL     OW28438   0.639   0.509   5.291
 9180SOL    HW128439   0.681   0.571   5.225
 9180SOL    HW228440   0.612   0.424   5.246
 9181SOL     OW28441   2.757   1.732   3.716
 9181SOL    HW128442   2.678   1.776   3.759
 9181SOL    HW228443   2.835   1.735   3.779
 9182SOL     OW28444   6.918   1.735   2.824
 9182SOL    HW128445   6.981   1.745   2.747
 9182SOL    HW228446   6.881   1.642   2.825
 9183SOL     OW28447   2.118   1.282   5.723
 9183SOL    HW128448   2.068   1.200   5.696
 9183SOL    HW228449   2.197   1.294   5.662
 9184SOL     OW28450   2.592   4.516   1.384
 9184SOL    HW128451   2.635   4.592   1.335
 9184SOL    HW228452   2.640   4.502   1.471
 9185SOL     OW28453   1.536   0.691   5.940
 9185SOL    HW128454   1.494   0.601   5.955
 9185SOL    HW228455   1.512   0.723   5.848
 9186SOL     OW28456   5.556   6.073   6.320
 9186SOL    HW128457   5.652   6.097   6.332
 9186SOL    HW228458   5.514   6.136   6.255
 9187SOL     OW28459   4.903   2.614   1.241
 9187SOL    HW128460   4.864   2.681   1.304
 9187SOL    HW228461   4.991   2.647   1.206
 9188SOL     OW28462   1.198   0.422   1.685
 9188SOL    HW128463   1.141   0.419   1.767
 9188SOL    HW228464   1.248   0.336   1.676
 9189SOL     OW28465   3.015   0.560   5.690
 9189SOL    HW128466   3.046   0.505   5.613
 9189SOL    HW228467   3.079   0.636   5.705
 9190SOL     OW28468   4.372   1.056   5.633
 9190SOL    HW128469   4.404   1.072   5.540
 9190SOL    HW228470   4.450   1.045   5.695
 9191SOL     OW28471   5.352   6.628   1.690
 9191SOL    HW128472   5.374   6.619   1.787
 9191SOL    HW228473   5.253   6.620   1.677
 9192SOL     OW28474   4.749   4.207   4.790
 9192SOL    HW128475   4.785   4.157   4.869
 9192SOL    HW228476   4.693   4.283   4.821
 9193SOL     OW28477   4.080   3.751   2.974
 9193SOL    HW128478   4.068   3.761   3.073
 9193SOL    HW228479   4.142   3.674   2.956
 9194SOL     OW28480   3.914   4.796   2.949
 9194SOL    HW128481   3.989   4.854   2.916
 9194SOL    HW228482   3.834   4.809   2.891
 9195SOL     OW28483   0.838   2.449   3.337
 9195SOL    HW128484   0.878   2.359   3.356
 9195SOL    HW228485   0.758   2.438   3.277
 9196SOL     OW28486   5.225   5.748   3.747
 9196SOL    HW128487   5.195   5.840   3.773
 9196SOL    HW228488   5.159   5.709   3.682
 9197SOL     OW28489   4.680   1.651   0.042
 9197SOL    HW128490   4.634   1.569   0.010
 9197SOL    HW228491   4.779   1.638   0.041
 9198SOL     OW28492   5.869   2.709   5.177
 9198SOL    HW128493   5.898   2.781   5.239
 9198SOL    HW228494   5.777   2.728   5.144
 9199SOL     OW28495   1.007   3.600   6.638
 9199SOL    HW128496   0.940   3.645   6.579
 9199SOL    HW228497   1.067   3.542   6.582
 9200SOL     OW28498   5.329   5.828   1.385
 9200SOL    HW128499   5.294   5.907   1.335
 9200SOL    HW228500   5.377   5.859   1.467
 9201SOL     OW28501   0.261   3.204   1.896
 9201SOL    HW128502   0.244   3.179   1.992
 9201SOL    HW228503   0.235   3.128   1.837
 9202SOL     OW28504   2.754   6.346   4.467
 9202SOL    HW128505   2.785   6.315   4.377
 9202SOL    HW228506   2.765   6.272   4.534
 9203SOL     OW28507   4.870   0.930   0.157
 9203SOL    HW128508   4.827   0.862   0.098
 9203SOL    HW228509   4.816   1.014   0.157
 9204SOL     OW28510   4.898   4.786   2.888
 9204SOL    HW128511   4.844   4.728   2.949
 9204SOL    HW228512   4.995   4.776   2.909
 9205SOL     OW28513   4.287   2.534   1.463
 9205SOL    HW128514   4.350   2.471   1.508
 9205SOL    HW228515   4.326   2.561   1.374
 9206SOL     OW28516   6.356   6.199   4.960
 9206SOL    HW128517   6.424   6.238   4.898
 9206SOL    HW228518   6.279   6.164   4.906
 9207SOL     OW28519   4.296   6.716   0.379
 9207SOL    HW128520   4.262   6.734   0.472
 9207SOL    HW228521   4.328   6.622   0.372
 9208SOL     OW28522   4.585   4.286   1.165
 9208SOL    HW128523   4.554   4.258   1.074
 9208SOL    HW228524   4.508   4.326   1.215
 9209SOL     OW28525   4.308   0.278   4.074
 9209SOL    HW128526   4.285   0.374   4.090
 9209SOL    HW228527   4.260   0.221   4.140
 9210SOL     OW28528   1.065   6.991   6.821
 9210SOL    HW128529   1.072   0.065   6.862
 9210SOL    HW228530   1.127   6.928   6.868
 9211SOL     OW28531   4.892   0.839   6.829
 9211SOL    HW128532   4.808   0.785   6.833
 9211SOL    HW228533   4.870   0.936   6.823
 9212SOL     OW28534   6.005   3.409   5.757
 9212SOL    HW128535   5.906   3.400   5.767
 9212SOL    HW228536   6.031   3.505   5.772
 9213SOL     OW28537   6.437   5.691   1.959
 9213SOL    HW128538   6.467   5.672   2.053
 9213SOL    HW228539   6.338   5.702   1.957
 9214SOL     OW28540   1.719   1.848   6.250
 9214SOL    HW128541   1.764   1.830   6.163
 9214SOL    HW228542   1.788   1.853   6.323
 9215SOL     OW28543   0.196   3.784   3.780
 9215SOL    HW128544   0.267   3.770   3.850
 9215SOL    HW228545   0.114   3.822   3.822
 9216SOL     OW28546   2.596   6.493   3.754
 9216SOL    HW128547   2.665   6.565   3.740
 9216SOL    HW228548   2.551   6.472   3.668
 9217SOL     OW28549   3.721   2.054   6.946
 9217SOL    HW128550   3.775   1.972   6.926
 9217SOL    HW228551   3.754   2.131   6.893
 9218SOL     OW28552   4.845   6.001   5.692
 9218SOL    HW128553   4.880   5.952   5.771
 9218SOL    HW228554   4.784   5.942   5.640
 9219SOL     OW28555   3.372   2.040   5.593
 9219SOL    HW128556   3.392   2.106   5.522
 9219SOL    HW228557   3.308   1.972   5.558
 9220SOL     OW28558   0.568   6.357   3.209
 9220SOL    HW128559   0.475   6.391   3.224
 9220SOL    HW228560   0.633   6.431   3.224
 9221SOL     OW28561   2.615   1.659   1.477
 9221SOL    HW128562   2.583   1.754   1.471
 9221SOL    HW228563   2.655   1.632   1.390
 9222SOL     OW28564   1.736   5.281   3.134
 9222SOL    HW128565   1.794   5.274   3.215
 9222SOL    HW228566   1.682   5.365   3.139
 9223SOL     OW28567   6.913   2.979   5.003
 9223SOL    HW128568   6.814   2.992   4.994
 9223SOL    HW228569   6.959   3.016   4.922
 9224SOL     OW28570   1.717   4.972   2.203
 9224SOL    HW128571   1.694   4.902   2.136
 9224SOL    HW228572   1.647   4.974   2.275
 9225SOL     OW28573   0.774   5.807   6.056
 9225SOL    HW128574   0.726   5.878   6.006
 9225SOL    HW228575   0.870   5.834   6.069
 9226SOL     OW28576   0.787   0.638   4.720
 9226SOL    HW128577   0.770   0.722   4.771
 9226SOL    HW228578   0.834   0.659   4.634
 9227SOL     OW28579   3.635   3.834   0.587
 9227SOL    HW128580   3.537   3.823   0.599
 9227SOL    HW228581   3.684   3.761   0.634
 9228SOL     OW28582   3.740   3.529   5.062
 9228SOL    HW128583   3.662   3.512   5.122
 9228SOL    HW228584   3.718   3.499   4.969
 9229SOL     OW28585   0.177   5.247   0.239
 9229SOL    HW128586   0.186   5.149   0.259
 9229SOL    HW228587   0.203   5.264   0.144
 9230SOL     OW28588   4.310   6.725   5.145
 9230SOL    HW128589   4.328   6.774   5.060
 9230SOL    HW228590   4.353   6.635   5.143
 9231SOL     OW28591   6.425   6.103   1.752
 9231SOL    HW128592   6.358   6.029   1.755
 9231SOL    HW228593   6.461   6.111   1.659
 9232SOL     OW28594   1.634   5.790   2.462
 9232SOL    HW128595   1.702   5.749   2.523
 9232SOL    HW228596   1.600   5.720   2.399
 9233SOL     OW28597   1.157   0.139   5.419
 9233SOL    HW128598   1.087   0.138   5.490
 9233SOL    HW228599   1.159   0.051   5.372
 9234SOL     OW28600   3.626   4.446   6.062
 9234SOL    HW128601   3.531   4.424   6.044
 9234SOL    HW228602   3.677   4.447   5.976
 9235SOL     OW28603   2.439   2.640   3.082
 9235SOL    HW128604   2.399   2.713   3.137
 9235SOL    HW228605   2.503   2.587   3.137
 9236SOL     OW28606   1.242   3.263   5.929
 9236SOL    HW128607   1.340   3.276   5.917
 9236SOL    HW228608   1.203   3.342   5.977
 9237SOL     OW28609   6.568   4.743   3.591
 9237SOL    HW128610   6.649   4.769   3.539
 9237SOL    HW228611   6.528   4.660   3.553
 9238SOL     OW28612   1.560   2.822   5.099
 9238SOL    HW128613   1.511   2.865   5.023
 9238SOL    HW228614   1.591   2.731   5.071
 9239SOL     OW28615   1.195   6.154   5.738
 9239SOL    HW128616   1.115   6.165   5.679
 9239SOL    HW228617   1.273   6.203   5.700
 9240SOL     OW28618   3.148   1.783   4.193
 9240SOL    HW128619   3.106   1.696   4.221
 9240SOL    HW228620   3.202   1.820   4.268
 9241SOL     OW28621   5.850   6.147   0.159
 9241SOL    HW128622   5.823   6.052   0.141
 9241SOL    HW228623   5.867   6.194   0.072
 9242SOL     OW28624   2.068   2.764   0.520
 9242SOL    HW128625   2.154   2.787   0.473
 9242SOL    HW228626   2.065   2.665   0.536
 9243SOL     OW28627   2.024   0.045   0.841
 9243SOL    HW128628   1.926   0.030   0.833
 9243SOL    HW228629   2.073   6.978   0.817
 9244SOL     OW28630   2.436   6.072   6.867
 9244SOL    HW128631   2.341   6.099   6.883
 9244SOL    HW228632   2.468   6.113   6.783
 9245SOL     OW28633   0.826   5.027   2.731
 9245SOL    HW128634   0.733   5.053   2.755
 9245SOL    HW228635   0.882   5.110   2.720
 9246SOL     OW28636   4.558   6.646   0.041
 9246SOL    HW128637   4.561   6.690   0.131
 9246SOL    HW228638   4.477   6.678   7.008
 9247SOL     OW28639   3.851   6.639   2.529
 9247SOL    HW128640   3.763   6.594   2.512
 9247SOL    HW228641   3.855   6.725   2.478
 9248SOL     OW28642   3.082   0.206   6.689
 9248SOL    HW128643   3.162   0.148   6.680
 9248SOL    HW228644   3.005   0.153   6.724
 9249SOL     OW28645   3.152   0.400   0.477
 9249SOL    HW128646   3.145   0.307   0.515
 9249SOL    HW228647   3.205   0.457   0.540
 9250SOL     OW28648   0.490   3.784   3.015
 9250SOL    HW128649   0.472   3.847   2.939
 9250SOL    HW228650   0.538   3.703   2.981
 9251SOL     OW28651   3.852   1.922   1.247
 9251SOL    HW128652   3.788   1.921   1.323
 9251SOL    HW228653   3.821   1.859   1.176
 9252SOL     OW28654   5.341   1.356   4.726
 9252SOL    HW128655   5.281   1.400   4.659
 9252SOL    HW228656   5.407   1.422   4.760
 9253SOL     OW28657   2.219   5.136   4.051
 9253SOL    HW128658   2.262   5.047   4.066
 9253SOL    HW228659   2.243   5.170   3.959
 9254SOL     OW28660   0.015   5.686   2.238
 9254SOL    HW128661   6.934   5.691   2.217
 9254SOL    HW228662   0.067   5.710   2.157
 9255SOL     OW28663   5.844   3.408   1.028
 9255SOL    HW128664   5.867   3.402   0.931
 9255SOL    HW228665   5.927   3.398   1.083
 9256SOL     OW28666   2.488   6.591   0.989
 9256SOL    HW128667   2.438   6.603   0.903
 9256SOL    HW228668   2.521   6.496   0.995
 9257SOL     OW28669   6.533   6.005   4.778
 9257SOL    HW128670   6.487   6.021   4.691
 9257SOL    HW228671   6.465   5.989   4.849
 9258SOL     OW28672   5.018   4.765   2.235
 9258SOL    HW128673   4.999   4.862   2.222
 9258SOL    HW228674   5.004   4.742   2.332
 9259SOL     OW28675   0.802   2.262   6.958
 9259SOL    HW128676   0.740   2.327   7.001
 9259SOL    HW228677   0.860   2.309   6.891
 9260SOL     OW28678   4.789   4.036   4.989
 9260SOL    HW128679   4.811   3.973   5.063
 9260SOL    HW228680   4.757   3.984   4.909
 9261SOL     OW28681   1.700   3.461   2.043
 9261SOL    HW128682   1.747   3.374   2.036
 9261SOL    HW228683   1.748   3.530   1.988
 9262SOL     OW28684   6.967   6.589   5.921
 9262SOL    HW128685   7.002   6.683   5.913
 9262SOL    HW228686   0.013   6.534   5.977
 9263SOL     OW28687   2.588   4.532   2.917
 9263SOL    HW128688   2.679   4.570   2.932
 9263SOL    HW228689   2.567   4.533   2.819
 9264SOL     OW28690   4.978   3.531   5.585
 9264SOL    HW128691   4.944   3.532   5.491
 9264SOL    HW228692   5.013   3.440   5.607
 9265SOL     OW28693   5.126   0.517   1.827
 9265SOL    HW128694   5.077   0.503   1.914
 9265SOL    HW228695   5.092   0.599   1.783
 9266SOL     OW28696   1.073   4.881   1.144
 9266SOL    HW128697   1.138   4.807   1.124
 9266SOL    HW228698   1.123   4.964   1.167
 9267SOL     OW28699   6.880   1.500   4.007
 9267SOL    HW128700   6.968   1.506   4.054
 9267SOL    HW228701   6.820   1.574   4.039
 9268SOL     OW28702   0.735   1.445   1.649
 9268SOL    HW128703   0.642   1.451   1.685
 9268SOL    HW228704   0.798   1.422   1.723
 9269SOL     OW28705   4.291   0.304   1.144
 9269SOL    HW128706   4.302   0.402   1.130
 9269SOL    HW228707   4.194   0.281   1.149
 9270SOL     OW28708   2.808   1.130   5.464
 9270SOL    HW128709   2.758   1.187   5.530
 9270SOL    HW228710   2.822   1.182   5.379
 9271SOL     OW28711   1.288   4.229   5.630
 9271SOL    HW128712   1.200   4.242   5.584
 9271SOL    HW228713   1.275   4.171   5.710
 9272SOL     OW28714   6.371   6.184   5.377
 9272SOL    HW128715   6.299   6.179   5.447
 9272SOL    HW228716   6.343   6.248   5.305
 9273SOL     OW28717   5.642   3.575   4.311
 9273SOL    HW128718   5.597   3.486   4.307
 9273SOL    HW228719   5.660   3.599   4.407
 9274SOL     OW28720   0.232   3.800   6.872
 9274SOL    HW128721   0.179   3.826   6.953
 9274SOL    HW228722   0.171   3.792   6.794
 9275SOL     OW28723   5.762   1.296   0.687
 9275SOL    HW128724   5.784   1.376   0.744
 9275SOL    HW228725   5.662   1.290   0.677
 9276SOL     OW28726   2.417   4.022   0.033
 9276SOL    HW128727   2.352   4.035   0.108
 9276SOL    HW228728   2.467   3.936   0.046
 9277SOL     OW28729   4.408   5.725   2.301
 9277SOL    HW128730   4.387   5.731   2.398
 9277SOL    HW228731   4.378   5.808   2.254
 9278SOL     OW28732   1.043   0.027   5.846
 9278SOL    HW128733   1.036   6.994   5.760
 9278SOL    HW228734   0.993   0.114   5.838
 9279SOL     OW28735   2.939   6.050   1.908
 9279SOL    HW128736   2.875   6.024   1.836
 9279SOL    HW228737   3.008   6.112   1.871
 9280SOL     OW28738   1.209   5.518   2.274
 9280SOL    HW128739   1.275   5.459   2.228
 9280SOL    HW228740   1.160   5.573   2.206
 9281SOL     OW28741   1.301   5.647   0.934
 9281SOL    HW128742   1.295   5.661   0.836
 9281SOL    HW228743   1.329   5.552   0.953
 9282SOL     OW28744   2.298   0.253   4.735
 9282SOL    HW128745   2.292   0.192   4.656
 9282SOL    HW228746   2.220   0.316   4.735
 9283SOL     OW28747   4.463   5.854   0.002
 9283SOL    HW128748   4.475   5.949   6.988
 9283SOL    HW228749   4.380   5.816   6.980
 9284SOL     OW28750   4.062   6.599   0.889
 9284SOL    HW128751   4.127   6.563   0.957
 9284SOL    HW228752   4.075   6.697   0.879
 9285SOL     OW28753   6.865   6.012   3.688
 9285SOL    HW128754   6.961   6.027   3.710
 9285SOL    HW228755   6.829   5.938   3.745
 9286SOL     OW28756   4.863   6.753   1.652
 9286SOL    HW128757   4.802   6.704   1.589
 9286SOL    HW228758   4.831   6.846   1.664
 9287SOL     OW28759   4.621   4.092   6.712
 9287SOL    HW128760   4.572   4.077   6.626
 9287SOL    HW228761   4.555   4.113   6.784
 9288SOL     OW28762   4.026   1.819   2.459
 9288SOL    HW128763   3.945   1.761   2.472
 9288SOL    HW228764   4.107   1.762   2.446
 9289SOL     OW28765   4.484   5.974   1.846
 9289SOL    HW128766   4.542   5.962   1.765
 9289SOL    HW228767   4.401   6.023   1.821
 9290SOL     OW28768   5.478   1.129   3.414
 9290SOL    HW128769   5.568   1.095   3.386
 9290SOL    HW228770   5.488   1.220   3.455
 9291SOL     OW28771   0.475   4.171   5.605
 9291SOL    HW128772   0.430   4.153   5.517
 9291SOL    HW228773   0.500   4.085   5.648
 9292SOL     OW28774   0.763   1.799   6.901
 9292SOL    HW128775   0.682   1.791   6.842
 9292SOL    HW228776   0.765   1.889   6.944
 9293SOL     OW28777   4.588   1.434   5.745
 9293SOL    HW128778   4.492   1.419   5.767
 9293SOL    HW228779   4.621   1.515   5.795
 9294SOL     OW28780   4.889   6.455   6.884
 9294SOL    HW128781   4.834   6.518   6.939
 9294SOL    HW228782   4.850   6.449   6.792
 9295SOL     OW28783   6.496   0.518   3.335
 9295SOL    HW128784   6.581   0.471   3.314
 9295SOL    HW228785   6.430   0.503   3.261
 9296SOL     OW28786   1.982   4.357   5.650
 9296SOL    HW128787   1.984   4.356   5.550
 9296SOL    HW228788   2.064   4.313   5.685
 9297SOL     OW28789   6.917   4.748   1.898
 9297SOL    HW128790   6.981   4.785   1.965
 9297SOL    HW228791   6.823   4.774   1.922
 9298SOL     OW28792   0.364   4.088   6.195
 9298SOL    HW128793   0.269   4.102   6.166
 9298SOL    HW228794   0.368   4.012   6.259
 9299SOL     OW28795   3.093   2.042   4.085
 9299SOL    HW128796   3.154   2.058   4.007
 9299SOL    HW228797   3.111   1.951   4.123
 9300SOL     OW28798   2.942   5.933   5.392
 9300SOL    HW128799   2.945   6.020   5.442
 9300SOL    HW228800   3.034   5.910   5.361
 9301SOL     OW28801   0.972   4.157   4.364
 9301SOL    HW128802   1.033   4.195   4.433
 9301SOL    HW228803   0.971   4.217   4.283
 9302SOL     OW28804   3.173   5.494   4.038
 9302SOL    HW128805   3.198   5.445   3.954
 9302SOL    HW228806   3.205   5.589   4.032
 9303SOL     OW28807   2.433   4.725   0.316
 9303SOL    HW128808   2.338   4.735   0.286
 9303SOL    HW228809   2.474   4.816   0.326
 9304SOL     OW28810   5.328   5.658   6.460
 9304SOL    HW128811   5.399   5.676   6.391
 9304SOL    HW228812   5.248   5.618   6.416
 9305SOL     OW28813   1.654   1.702   1.046
 9305SOL    HW128814   1.566   1.740   1.077
 9305SOL    HW228815   1.651   1.689   0.947
 9306SOL     OW28816   6.862   6.031   4.495
 9306SOL    HW128817   6.845   5.935   4.515
 9306SOL    HW228818   6.826   6.088   4.569
 9307SOL     OW28819   2.099   3.546   1.535
 9307SOL    HW128820   2.015   3.532   1.483
 9307SOL    HW228821   2.121   3.465   1.588
 9308SOL     OW28822   2.366   3.645   1.656
 9308SOL    HW128823   2.378   3.572   1.723
 9308SOL    HW228824   2.455   3.670   1.618
 9309SOL     OW28825   4.789   5.055   6.251
 9309SOL    HW128826   4.855   5.129   6.257
 9309SOL    HW228827   4.818   4.989   6.182
 9310SOL     OW28828   6.014   6.344   5.305
 9310SOL    HW128829   6.050   6.251   5.315
 9310SOL    HW228830   6.039   6.398   5.385
 9311SOL     OW28831   5.780   4.177   0.646
 9311SOL    HW128832   5.704   4.225   0.690
 9311SOL    HW228833   5.744   4.101   0.591
 9312SOL     OW28834   6.508   2.766   4.087
 9312SOL    HW128835   6.606   2.787   4.086
 9312SOL    HW228836   6.492   2.674   4.052
 9313SOL     OW28837   0.610   1.029   2.396
 9313SOL    HW128838   0.675   1.025   2.471
 9313SOL    HW228839   0.656   1.062   2.313
 9314SOL     OW28840   5.344   5.274   1.334
 9314SOL    HW128841   5.380   5.313   1.419
 9314SOL    HW228842   5.356   5.339   1.259
 9315SOL     OW28843   5.743   5.448   5.724
 9315SOL    HW128844   5.707   5.536   5.692
 9315SOL    HW228845   5.785   5.400   5.647
 9316SOL     OW28846   4.936   6.906   0.880
 9316SOL    HW128847   4.838   6.921   0.864
 9316SOL    HW228848   4.989   6.973   0.827
 9317SOL     OW28849   2.427   6.111   3.629
 9317SOL    HW128850   2.438   6.033   3.690
 9317SOL    HW228851   2.346   6.097   3.571
 9318SOL     OW28852   3.275   6.763   2.788
 9318SOL    HW128853   3.306   6.837   2.728
 9318SOL    HW228854   3.298   6.675   2.747
 9319SOL     OW28855   4.123   1.971   0.199
 9319SOL    HW128856   4.135   1.896   0.134
 9319SOL    HW228857   4.135   2.059   0.152
 9320SOL     OW28858   6.680   6.819   6.628
 9320SOL    HW128859   6.598   6.771   6.596
 9320SOL    HW228860   6.745   6.828   6.553
 9321SOL     OW28861   0.735   2.916   3.577
 9321SOL    HW128862   0.790   2.840   3.543
 9321SOL    HW228863   0.760   2.935   3.672
 9322SOL     OW28864   4.922   2.321   0.470
 9322SOL    HW128865   4.823   2.334   0.460
 9322SOL    HW228866   4.968   2.410   0.470
 9323SOL     OW28867   0.202   2.476   5.741
 9323SOL    HW128868   0.193   2.390   5.791
 9323SOL    HW228869   0.220   2.458   5.644
 9324SOL     OW28870   0.347   5.049   1.392
 9324SOL    HW128871   0.272   5.115   1.401
 9324SOL    HW228872   0.327   4.969   1.449
 9325SOL     OW28873   0.899   4.891   3.297
 9325SOL    HW128874   0.839   4.933   3.365
 9325SOL    HW228875   0.900   4.947   3.214
 9326SOL     OW28876   4.915   4.456   0.670
 9326SOL    HW128877   4.998   4.428   0.622
 9326SOL    HW228878   4.873   4.533   0.622
 9327SOL     OW28879   2.601   1.632   3.246
 9327SOL    HW128880   2.567   1.726   3.253
 9327SOL    HW228881   2.700   1.631   3.262
 9328SOL     OW28882   1.896   0.487   3.282
 9328SOL    HW128883   1.825   0.436   3.235
 9328SOL    HW228884   1.857   0.570   3.322
 9329SOL     OW28885   1.198   5.738   6.148
 9329SOL    HW128886   1.115   5.794   6.137
 9329SOL    HW228887   1.175   5.656   6.200
 9330SOL     OW28888   0.817   6.722   0.953
 9330SOL    HW128889   0.816   6.773   1.038
 9330SOL    HW228890   0.837   6.783   0.877
 9331SOL     OW28891   1.905   4.627   4.319
 9331SOL    HW128892   1.928   4.686   4.241
 9331SOL    HW228893   1.929   4.533   4.298
 9332SOL     OW28894   6.674   5.316   0.097
 9332SOL    HW128895   6.591   5.322   0.152
 9332SOL    HW228896   6.751   5.355   0.149
 9333SOL     OW28897   2.388   4.995   1.362
 9333SOL    HW128898   2.485   4.971   1.369
 9333SOL    HW228899   2.360   5.048   1.442
 9334SOL     OW28900   6.644   5.568   6.686
 9334SOL    HW128901   6.630   5.604   6.778
 9334SOL    HW228902   6.707   5.627   6.636
 9335SOL     OW28903   0.229   3.440   1.058
 9335SOL    HW128904   0.236   3.384   1.141
 9335SOL    HW228905   0.291   3.519   1.066
 9336SOL     OW28906   4.572   5.911   5.239
 9336SOL    HW128907   4.672   5.913   5.246
 9336SOL    HW228908   4.532   5.922   5.330
 9337SOL     OW28909   2.744   1.732   5.475
 9337SOL    HW128910   2.786   1.776   5.554
 9337SOL    HW228911   2.692   1.651   5.505
 9338SOL     OW28912   4.924   6.583   0.864
 9338SOL    HW128913   5.002   6.524   0.886
 9338SOL    HW228914   4.901   6.639   0.943
 9339SOL     OW28915   6.660   3.393   5.292
 9339SOL    HW128916   6.618   3.451   5.363
 9339SOL    HW228917   6.592   3.330   5.256
 9340SOL     OW28918   2.730   4.675   2.514
 9340SOL    HW128919   2.764   4.667   2.420
 9340SOL    HW228920   2.805   4.702   2.574
 9341SOL     OW28921   5.622   5.301   0.277
 9341SOL    HW128922   5.691   5.232   0.257
 9341SOL    HW228923   5.634   5.334   0.371
 9342SOL     OW28924   3.027   0.468   5.228
 9342SOL    HW128925   3.001   0.391   5.170
 9342SOL    HW228926   3.043   0.549   5.172
 9343SOL     OW28927   4.912   3.842   1.445
 9343SOL    HW128928   4.887   3.931   1.484
 9343SOL    HW228929   4.833   3.802   1.399
 9344SOL     OW28930   5.831   0.217   4.755
 9344SOL    HW128931   5.886   0.134   4.744
 9344SOL    HW228932   5.877   0.293   4.709
 9345SOL     OW28933   0.314   4.975   6.728
 9345SOL    HW128934   0.379   4.901   6.749
 9345SOL    HW228935   0.360   5.063   6.737
 9346SOL     OW28936   5.492   0.345   2.155
 9346SOL    HW128937   5.450   0.369   2.243
 9346SOL    HW228938   5.463   0.252   2.130
 9347SOL     OW28939   4.787   6.082   1.795
 9347SOL    HW128940   4.881   6.077   1.764
 9347SOL    HW228941   4.735   6.006   1.755
 9348SOL     OW28942   2.624   5.007   2.172
 9348SOL    HW128943   2.603   5.100   2.203
 9348SOL    HW228944   2.569   4.941   2.223
 9349SOL     OW28945   6.420   5.897   0.712
 9349SOL    HW128946   6.327   5.922   0.740
 9349SOL    HW228947   6.477   5.979   0.713
 9350SOL     OW28948   6.447   6.935   0.313
 9350SOL    HW128949   6.406   7.003   0.254
 9350SOL    HW228950   6.529   6.973   0.356
 9351SOL     OW28951   4.517   3.429   6.569
 9351SOL    HW128952   4.431   3.417   6.518
 9351SOL    HW228953   4.581   3.357   6.543
 9352SOL     OW28954   2.368   2.352   6.541
 9352SOL    HW128955   2.296   2.380   6.477
 9352SOL    HW228956   2.326   2.304   6.619
 9353SOL     OW28957   1.187   2.860   1.546
 9353SOL    HW128958   1.219   2.937   1.489
 9353SOL    HW228959   1.128   2.801   1.492
 9354SOL     OW28960   5.268   1.940   2.332
 9354SOL    HW128961   5.184   1.988   2.357
 9354SOL    HW228962   5.266   1.917   2.235
 9355SOL     OW28963   0.111   1.671   2.264
 9355SOL    HW128964   0.125   1.611   2.342
 9355SOL    HW228965   0.200   1.707   2.233
 9356SOL     OW28966   5.642   2.970   2.788
 9356SOL    HW128967   5.632   2.988   2.690
 9356SOL    HW228968   5.551   2.963   2.830
 9357SOL     OW28969   2.354   4.792   0.685
 9357SOL    HW128970   2.419   4.866   0.670
 9357SOL    HW228971   2.392   4.707   0.647
 9358SOL     OW28972   4.982   3.604   2.288
 9358SOL    HW128973   5.029   3.689   2.265
 9358SOL    HW228974   4.937   3.568   2.206
 9359SOL     OW28975   4.873   5.442   6.048
 9359SOL    HW128976   4.957   5.404   6.088
 9359SOL    HW228977   4.840   5.518   6.104
 9360SOL     OW28978   1.253   1.018   4.963
 9360SOL    HW128979   1.291   0.973   5.043
 9360SOL    HW228980   1.281   1.114   4.961
 9361SOL     OW28981   2.321   1.182   2.361
 9361SOL    HW128982   2.340   1.269   2.404
 9361SOL    HW228983   2.329   1.191   2.262
 9362SOL     OW28984   2.089   1.833   3.314
 9362SOL    HW128985   2.074   1.785   3.227
 9362SOL    HW228986   2.002   1.872   3.346
 9363SOL     OW28987   1.374   6.613   2.154
 9363SOL    HW128988   1.387   6.704   2.115
 9363SOL    HW228989   1.463   6.569   2.168
 9364SOL     OW28990   5.327   4.741   1.101
 9364SOL    HW128991   5.270   4.679   1.047
 9364SOL    HW228992   5.423   4.724   1.082
 9365SOL     OW28993   2.223   1.068   4.157
 9365SOL    HW128994   2.258   1.119   4.235
 9365SOL    HW228995   2.123   1.078   4.153
 9366SOL     OW28996   3.141   1.293   2.120
 9366SOL    HW128997   3.130   1.393   2.120
 9366SOL    HW228998   3.171   1.263   2.211
 9367SOL     OW28999   6.527   6.516   4.079
 9367SOL    HW129000   6.548   6.613   4.064
 9367SOL    HW229001   6.611   6.464   4.084
 9368SOL     OW29002   4.453   2.788   0.473
 9368SOL    HW129003   4.449   2.857   0.545
 9368SOL    HW229004   4.376   2.800   0.411
 9369SOL     OW29005   0.158   2.212   5.596
 9369SOL    HW129006   0.166   2.118   5.561
 9369SOL    HW229007   0.241   2.263   5.572
 9370SOL     OW29008   5.758   5.658   2.906
 9370SOL    HW129009   5.761   5.633   2.809
 9370SOL    HW229010   5.829   5.607   2.956
 9371SOL     OW29011   1.206   6.711   0.374
 9371SOL    HW129012   1.216   6.640   0.304
 9371SOL    HW229013   1.295   6.730   0.414
 9372SOL     OW29014   5.701   6.343   0.291
 9372SOL    HW129015   5.760   6.422   0.310
 9372SOL    HW229016   5.757   6.269   0.252
 9373SOL     OW29017   5.580   2.298   4.661
 9373SOL    HW129018   5.601   2.324   4.566
 9373SOL    HW229019   5.481   2.291   4.672
 9374SOL     OW29020   4.585   4.388   0.616
 9374SOL    HW129021   4.643   4.310   0.595
 9374SOL    HW229022   4.642   4.469   0.631
 9375SOL     OW29023   6.800   1.221   4.319
 9375SOL    HW129024   6.840   1.289   4.381
 9375SOL    HW229025   6.701   1.234   4.315
 9376SOL     OW29026   1.895   2.736   1.576
 9376SOL    HW129027   1.797   2.752   1.584
 9376SOL    HW229028   1.937   2.738   1.667
 9377SOL     OW29029   6.304   4.824   2.671
 9377SOL    HW129030   6.379   4.795   2.730
 9377SOL    HW229031   6.341   4.863   2.587
 9378SOL     OW29032   3.518   5.947   1.140
 9378SOL    HW129033   3.603   5.945   1.087
 9378SOL    HW229034   3.539   5.968   1.236
 9379SOL     OW29035   5.687   4.933   5.192
 9379SOL    HW129036   5.644   4.940   5.102
 9379SOL    HW229037   5.786   4.925   5.182
 9380SOL     OW29038   6.291   5.625   6.345
 9380SOL    HW129039   6.345   5.660   6.268
 9380SOL    HW229040   6.265   5.531   6.327
 9381SOL     OW29041   1.181   1.031   0.181
 9381SOL    HW129042   1.202   0.971   0.258
 9381SOL    HW229043   1.202   1.126   0.204
 9382SOL     OW29044   5.044   2.064   2.481
 9382SOL    HW129045   5.099   2.147   2.478
 9382SOL    HW229046   4.950   2.085   2.452
 9383SOL     OW29047   6.320   5.317   5.713
 9383SOL    HW129048   6.327   5.385   5.641
 9383SOL    HW229049   6.311   5.226   5.673
 9384SOL     OW29050   3.982   6.279   3.176
 9384SOL    HW129051   3.941   6.193   3.146
 9384SOL    HW229052   4.011   6.333   3.097
 9385SOL     OW29053   3.889   0.942   4.286
 9385SOL    HW129054   3.890   0.964   4.189
 9385SOL    HW229055   3.837   0.857   4.300
 9386SOL     OW29056   3.957   0.443   5.466
 9386SOL    HW129057   3.972   0.354   5.423
 9386SOL    HW229058   3.860   0.465   5.463
 9387SOL     OW29059   3.741   5.943   0.953
 9387SOL    HW129060   3.841   5.951   0.945
 9387SOL    HW229061   3.708   5.879   0.883
 9388SOL     OW29062   6.345   6.620   2.353
 9388SOL    HW129063   6.423   6.583   2.302
 9388SOL    HW229064   6.330   6.716   2.326
 9389SOL     OW29065   3.568   1.813   6.989
 9389SOL    HW129066   3.581   1.740   6.922
 9389SOL    HW229067   3.474   1.847   6.983
 9390SOL     OW29068   3.114   5.595   1.330
 9390SOL    HW129069   3.074   5.656   1.399
 9390SOL    HW229070   3.065   5.606   1.243
 9391SOL     OW29071   6.828   1.234   5.492
 9391SOL    HW129072   6.905   1.185   5.449
 9391SOL    HW229073   6.752   1.170   5.507
 9392SOL     OW29074   1.301   6.863   4.508
 9392SOL    HW129075   1.369   6.919   4.556
 9392SOL    HW229076   1.348   6.798   4.449
 9393SOL     OW29077   3.860   1.874   5.269
 9393SOL    HW129078   3.803   1.892   5.350
 9393SOL    HW229079   3.803   1.880   5.187
 9394SOL     OW29080   5.495   2.536   1.634
 9394SOL    HW129081   5.592   2.553   1.616
 9394SOL    HW229082   5.483   2.518   1.732
 9395SOL     OW29083   1.852   2.902   6.427
 9395SOL    HW129084   1.766   2.881   6.475
 9395SOL    HW229085   1.858   2.849   6.343
 9396SOL     OW29086   6.760   0.971   6.577
 9396SOL    HW129087   6.755   1.010   6.486
 9396SOL    HW229088   6.855   0.974   6.609
 9397SOL     OW29089   2.852   1.719   1.276
 9397SOL    HW129090   2.855   1.638   1.334
 9397SOL    HW229091   2.921   1.785   1.307
 9398SOL     OW29092   2.414   1.479   0.774
 9398SOL    HW129093   2.419   1.381   0.795
 9398SOL    HW229094   2.344   1.495   0.705
 9399SOL     OW29095   6.412   0.430   5.374
 9399SOL    HW129096   6.427   0.374   5.455
 9399SOL    HW229097   6.416   0.373   5.292
 9400SOL     OW29098   4.125   1.632   3.651
 9400SOL    HW129099   4.094   1.641   3.557
 9400SOL    HW229100   4.106   1.540   3.685
 9401SOL     OW29101   4.218   0.117   3.662
 9401SOL    HW129102   4.202   0.089   3.567
 9401SOL    HW229103   4.252   0.038   3.714
 9402SOL     OW29104   2.118   4.964   0.410
 9402SOL    HW129105   2.119   4.955   0.509
 9402SOL    HW229106   2.148   5.055   0.384
 9403SOL     OW29107   5.772   0.694   5.111
 9403SOL    HW129108   5.743   0.730   5.200
 9403SOL    HW229109   5.761   0.594   5.110
 9404SOL     OW29110   1.294   3.850   5.653
 9404SOL    HW129111   1.276   3.916   5.726
 9404SOL    HW229112   1.265   3.888   5.565
 9405SOL     OW29113   0.225   0.063   0.931
 9405SOL    HW129114   0.192   0.051   0.837
 9405SOL    HW229115   0.248   0.159   0.946
 9406SOL     OW29116   6.528   0.893   5.346
 9406SOL    HW129117   6.623   0.887   5.377
 9406SOL    HW229118   6.525   0.884   5.247
 9407SOL     OW29119   3.666   5.937   3.302
 9407SOL    HW129120   3.590   6.000   3.317
 9407SOL    HW229121   3.725   5.972   3.229
 9408SOL     OW29122   4.271   1.769   6.993
 9408SOL    HW129123   4.248   1.688   6.940
 9408SOL    HW229124   4.266   1.749   0.073
 9409SOL     OW29125   5.923   3.493   3.586
 9409SOL    HW129126   5.923   3.515   3.683
 9409SOL    HW229127   6.000   3.433   3.565
 9410SOL     OW29128   4.355   6.567   2.135
 9410SOL    HW129129   4.359   6.631   2.058
 9410SOL    HW229130   4.376   6.474   2.102
 9411SOL     OW29131   4.588   5.803   1.323
 9411SOL    HW129132   4.646   5.733   1.282
 9411SOL    HW229133   4.638   5.889   1.329
 9412SOL     OW29134   5.798   2.939   2.397
 9412SOL    HW129135   5.862   3.014   2.417
 9412SOL    HW229136   5.712   2.956   2.446
 9413SOL     OW29137   3.734   5.054   4.150
 9413SOL    HW129138   3.815   5.014   4.194
 9413SOL    HW229139   3.764   5.125   4.086
 9414SOL     OW29140   2.207   0.980   2.510
 9414SOL    HW129141   2.202   1.068   2.463
 9414SOL    HW229142   2.230   0.908   2.444
 9415SOL     OW29143   2.513   1.019   2.113
 9415SOL    HW129144   2.508   1.008   2.213
 9415SOL    HW229145   2.478   0.936   2.069
 9416SOL     OW29146   1.833   1.958   1.114
 9416SOL    HW129147   1.928   1.948   1.143
 9416SOL    HW229148   1.786   1.870   1.121
 9417SOL     OW29149   2.013   0.344   4.545
 9417SOL    HW129150   1.987   0.372   4.638
 9417SOL    HW229151   2.080   0.409   4.509
 9418SOL     OW29152   4.332   4.331   1.280
 9418SOL    HW129153   4.304   4.270   1.206
 9418SOL    HW229154   4.258   4.394   1.302
 9419SOL     OW29155   3.517   5.467   4.567
 9419SOL    HW129156   3.492   5.374   4.540
 9419SOL    HW229157   3.572   5.464   4.651
 9420SOL     OW29158   1.240   1.416   4.584
 9420SOL    HW129159   1.269   1.323   4.559
 9420SOL    HW229160   1.317   1.479   4.571
 9421SOL     OW29161   1.621   5.328   4.361
 9421SOL    HW129162   1.594   5.234   4.338
 9421SOL    HW229163   1.683   5.363   4.292
 9422SOL     OW29164   4.474   1.211   2.565
 9422SOL    HW129165   4.441   1.155   2.489
 9422SOL    HW229166   4.423   1.187   2.648
 9423SOL     OW29167   4.975   6.915   4.660
 9423SOL    HW129168   4.979   6.987   4.591
 9423SOL    HW229169   4.964   6.956   4.751
 9424SOL     OW29170   3.160   6.118   4.503
 9424SOL    HW129171   3.126   6.212   4.518
 9424SOL    HW229172   3.148   6.065   4.587
 9425SOL     OW29173   1.236   4.915   3.063
 9425SOL    HW129174   1.297   4.979   3.016
 9425SOL    HW229175   1.142   4.933   3.035
 9426SOL     OW29176   3.452   5.723   0.983
 9426SOL    HW129177   3.427   5.752   0.890
 9426SOL    HW229178   3.462   5.804   1.041
 9427SOL     OW29179   3.121   4.887   4.465
 9427SOL    HW129180   3.108   4.887   4.565
 9427SOL    HW229181   3.044   4.841   4.422
 9428SOL     OW29182   4.950   5.971   2.186
 9428SOL    HW129183   4.968   6.031   2.263
 9428SOL    HW229184   4.951   5.876   2.217
 9429SOL     OW29185   6.916   3.089   2.837
 9429SOL    HW129186   6.879   3.174   2.873
 9429SOL    HW229187   7.015   3.098   2.825
 9430SOL     OW29188   5.556   6.959   2.138
 9430SOL    HW129189   5.470   6.985   2.182
 9430SOL    HW229190   5.564   7.008   2.051
 9431SOL     OW29191   6.268   3.787   1.149
 9431SOL    HW129192   6.314   3.703   1.180
 9431SOL    HW229193   6.170   3.779   1.167
 9432SOL     OW29194   6.716   6.949   4.404
 9432SOL    HW129195   6.722   0.014   4.460
 9432SOL    HW229196   6.783   6.882   4.435
 9433SOL     OW29197   3.197   4.924   4.801
 9433SOL    HW129198   3.108   4.890   4.831
 9433SOL    HW229199   3.270   4.874   4.849
 9434SOL     OW29200   5.873   4.487   3.058
 9434SOL    HW129201   5.865   4.489   2.958
 9434SOL    HW229202   5.953   4.433   3.084
 9435SOL     OW29203   1.858   1.847   4.629
 9435SOL    HW129204   1.916   1.826   4.550
 9435SOL    HW229205   1.807   1.931   4.611
 9436SOL     OW29206   2.258   2.023   5.956
 9436SOL    HW129207   2.161   2.044   5.949
 9436SOL    HW229208   2.305   2.098   6.002
 9437SOL     OW29209   0.935   5.176   4.000
 9437SOL    HW129210   0.984   5.243   4.055
 9437SOL    HW229211   0.837   5.196   4.003
 9438SOL     OW29212   0.736   6.770   2.286
 9438SOL    HW129213   0.725   6.860   2.244
 9438SOL    HW229214   0.718   6.699   2.218
 9439SOL     OW29215   1.629   2.880   1.682
 9439SOL    HW129216   1.678   2.936   1.749
 9439SOL    HW229217   1.534   2.871   1.711
 9440SOL     OW29218   4.380   5.803   4.844
 9440SOL    HW129219   4.413   5.880   4.898
 9440SOL    HW229220   4.304   5.833   4.786
 9441SOL     OW29221   1.505   5.840   5.195
 9441SOL    HW129222   1.494   5.742   5.212
 9441SOL    HW229223   1.431   5.872   5.135
 9442SOL     OW29224   0.566   3.631   1.392
 9442SOL    HW129225   0.626   3.706   1.417
 9442SOL    HW229226   0.596   3.547   1.438
 9443SOL     OW29227   1.909   3.135   1.539
 9443SOL    HW129228   1.832   3.177   1.586
 9443SOL    HW229229   1.920   3.176   1.449
 9444SOL     OW29230   1.190   4.050   5.810
 9444SOL    HW129231   1.121   4.067   5.741
 9444SOL    HW229232   1.146   4.021   5.895
 9445SOL     OW29233   6.304   3.531   1.624
 9445SOL    HW129234   6.347   3.446   1.594
 9445SOL    HW229235   6.281   3.524   1.721
 9446SOL     OW29236   5.965   4.395   0.570
 9446SOL    HW129237   5.890   4.328   0.568
 9446SOL    HW229238   6.016   4.385   0.655
 9447SOL     OW29239   5.916   2.266   1.467
 9447SOL    HW129240   5.995   2.326   1.486
 9447SOL    HW229241   5.949   2.176   1.439
 9448SOL     OW29242   6.064   6.224   0.347
 9448SOL    HW129243   6.107   6.308   0.312
 9448SOL    HW229244   5.984   6.201   0.292
 9449SOL     OW29245   6.717   5.162   5.307
 9449SOL    HW129246   6.671   5.115   5.382
 9449SOL    HW229247   6.696   5.260   5.310
 9450SOL     OW29248   2.699   5.819   4.371
 9450SOL    HW129249   2.709   5.725   4.404
 9450SOL    HW229250   2.788   5.865   4.374
 9451SOL     OW29251   4.294   4.210   5.726
 9451SOL    HW129252   4.227   4.136   5.722
 9451SOL    HW229253   4.349   4.200   5.810
 9452SOL     OW29254   3.183   4.569   1.372
 9452SOL    HW129255   3.185   4.654   1.321
 9452SOL    HW229256   3.276   4.537   1.389
 9453SOL     OW29257   3.059   5.317   1.331
 9453SOL    HW129258   3.031   5.315   1.235
 9453SOL    HW229259   3.091   5.409   1.354
 9454SOL     OW29260   1.944   1.783   5.419
 9454SOL    HW129261   2.010   1.830   5.478
 9454SOL    HW229262   1.974   1.790   5.324
 9455SOL     OW29263   2.581   2.130   2.372
 9455SOL    HW129264   2.513   2.202   2.385
 9455SOL    HW229265   2.585   2.073   2.455
 9456SOL     OW29266   1.151   3.770   0.875
 9456SOL    HW129267   1.227   3.766   0.939
 9456SOL    HW229268   1.154   3.691   0.815
 9457SOL     OW29269   6.787   3.305   0.509
 9457SOL    HW129270   6.699   3.351   0.518
 9457SOL    HW229271   6.773   3.206   0.510
 9458SOL     OW29272   0.937   5.594   4.216
 9458SOL    HW129273   0.902   5.526   4.153
 9458SOL    HW229274   1.011   5.554   4.271
 9459SOL     OW29275   4.109   6.253   1.493
 9459SOL    HW129276   4.064   6.297   1.415
 9459SOL    HW229277   4.186   6.198   1.461
 9460SOL     OW29278   1.044   2.325   5.759
 9460SOL    HW129279   1.040   2.229   5.787
 9460SOL    HW229280   0.964   2.347   5.704
 9461SOL     OW29281   1.618   0.483   2.373
 9461SOL    HW129282   1.626   0.528   2.284
 9461SOL    HW229283   1.671   0.398   2.372
 9462SOL     OW29284   6.958   3.101   3.115
 9462SOL    HW129285   6.952   3.043   3.034
 9462SOL    HW229286   0.033   3.139   3.122
 9463SOL     OW29287   5.482   1.944   6.558
 9463SOL    HW129288   5.407   1.965   6.495
 9463SOL    HW229289   5.566   1.931   6.507
 9464SOL     OW29290   4.296   6.873   5.903
 9464SOL    HW129291   4.349   6.860   5.819
 9464SOL    HW229292   4.355   6.863   5.982
 9465SOL     OW29293   5.604   0.099   4.360
 9465SOL    HW129294   5.668   0.161   4.314
 9465SOL    HW229295   5.533   0.071   4.295
 9466SOL     OW29296   2.244   2.072   6.857
 9466SOL    HW129297   2.213   2.014   6.782
 9466SOL    HW229298   2.258   2.165   6.823
 9467SOL     OW29299   2.112   3.274   2.106
 9467SOL    HW129300   2.140   3.362   2.070
 9467SOL    HW229301   2.118   3.275   2.206
 9468SOL     OW29302   0.638   2.538   6.448
 9468SOL    HW129303   0.594   2.501   6.531
 9468SOL    HW229304   0.686   2.622   6.471
 9469SOL     OW29305   6.709   3.931   2.801
 9469SOL    HW129306   6.639   3.963   2.737
 9469SOL    HW229307   6.679   3.846   2.844
 9470SOL     OW29308   6.038   3.545   1.527
 9470SOL    HW129309   5.992   3.457   1.528
 9470SOL    HW229310   6.136   3.532   1.540
 9471SOL     OW29311   0.594   2.740   6.225
 9471SOL    HW129312   0.519   2.686   6.186
 9471SOL    HW229313   0.661   2.679   6.267
 9472SOL     OW29314   6.474   2.263   4.439
 9472SOL    HW129315   6.534   2.331   4.397
 9472SOL    HW229316   6.382   2.300   4.448
 9473SOL     OW29317   3.705   5.573   4.754
 9473SOL    HW129318   3.692   5.543   4.848
 9473SOL    HW229319   3.725   5.671   4.753
 9474SOL     OW29320   3.708   5.187   3.851
 9474SOL    HW129321   3.677   5.093   3.837
 9474SOL    HW229322   3.742   5.224   3.764
 9475SOL     OW29323   1.848   3.445   1.437
 9475SOL    HW129324   1.855   3.432   1.536
 9475SOL    HW229325   1.787   3.377   1.398
 9476SOL     OW29326   3.714   3.227   5.573
 9476SOL    HW129327   3.642   3.282   5.529
 9476SOL    HW229328   3.724   3.140   5.524
 9477SOL     OW29329   0.246   2.023   1.199
 9477SOL    HW129330   0.278   1.995   1.108
 9477SOL    HW229331   0.323   2.030   1.261
 9478SOL     OW29332   5.321   3.756   5.610
 9478SOL    HW129333   5.381   3.836   5.619
 9478SOL    HW229334   5.286   3.752   5.516
 9479SOL     OW29335   6.410   5.508   5.066
 9479SOL    HW129336   6.367   5.598   5.074
 9479SOL    HW229337   6.502   5.511   5.105
 9480SOL     OW29338   5.519   4.027   6.392
 9480SOL    HW129339   5.576   4.008   6.312
 9480SOL    HW229340   5.483   3.941   6.429
 9481SOL     OW29341   6.562   3.699   2.491
 9481SOL    HW129342   6.660   3.681   2.498
 9481SOL    HW229343   6.539   3.720   2.397
 9482SOL     OW29344   4.625   0.298   3.095
 9482SOL    HW129345   4.675   0.301   3.008
 9482SOL    HW229346   4.579   0.210   3.104
 9483SOL     OW29347   1.890   1.884   0.537
 9483SOL    HW129348   1.955   1.921   0.470
 9483SOL    HW229349   1.918   1.791   0.562
 9484SOL     OW29350   6.150   0.947   2.531
 9484SOL    HW129351   6.051   0.950   2.520
 9484SOL    HW229352   6.173   0.936   2.627
 9485SOL     OW29353   1.031   0.368   2.661
 9485SOL    HW129354   1.055   0.271   2.661
 9485SOL    HW229355   0.952   0.383   2.720
 9486SOL     OW29356   2.819   5.850   2.390
 9486SOL    HW129357   2.765   5.779   2.346
 9486SOL    HW229358   2.904   5.811   2.425
 9487SOL     OW29359   3.048   3.133   3.126
 9487SOL    HW129360   3.070   3.111   3.221
 9487SOL    HW229361   3.054   3.232   3.112
 9488SOL     OW29362   1.231   1.528   1.512
 9488SOL    HW129363   1.257   1.623   1.494
 9488SOL    HW229364   1.311   1.478   1.545
 9489SOL     OW29365   3.275   4.331   0.474
 9489SOL    HW129366   3.317   4.385   0.401
 9489SOL    HW229367   3.276   4.234   0.448
 9490SOL     OW29368   5.463   1.468   0.300
 9490SOL    HW129369   5.477   1.383   0.351
 9490SOL    HW229370   5.522   1.539   0.338
 9491SOL     OW29371   0.110   4.979   5.123
 9491SOL    HW129372   0.142   4.936   5.207
 9491SOL    HW229373   0.189   5.004   5.066
 9492SOL     OW29374   2.961   4.268   1.460
 9492SOL    HW129375   2.998   4.315   1.380
 9492SOL    HW229376   2.999   4.309   1.543
 9493SOL     OW29377   5.484   6.381   2.124
 9493SOL    HW129378   5.411   6.433   2.080
 9493SOL    HW229379   5.573   6.411   2.090
 9494SOL     OW29380   3.198   3.160   5.910
 9494SOL    HW129381   3.101   3.153   5.884
 9494SOL    HW229382   3.249   3.086   5.867
 9495SOL     OW29383   5.811   2.158   4.766
 9495SOL    HW129384   5.729   2.208   4.738
 9495SOL    HW229385   5.792   2.107   4.850
 9496SOL     OW29386   5.603   3.640   0.154
 9496SOL    HW129387   5.595   3.661   0.056
 9496SOL    HW229388   5.686   3.680   0.190
 9497SOL     OW29389   0.207   6.677   6.164
 9497SOL    HW129390   0.156   6.683   6.250
 9497SOL    HW229391   0.216   6.581   6.138
 9498SOL     OW29392   4.124   0.523   6.083
 9498SOL    HW129393   4.186   0.445   6.079
 9498SOL    HW229394   4.051   0.504   6.149
 9499SOL     OW29395   4.650   4.551   6.346
 9499SOL    HW129396   4.674   4.634   6.397
 9499SOL    HW229397   4.559   4.561   6.305
 9500SOL     OW29398   5.101   5.490   1.981
 9500SOL    HW129399   5.188   5.479   2.029
 9500SOL    HW229400   5.076   5.586   1.978
 9501SOL     OW29401   3.303   1.630   4.798
 9501SOL    HW129402   3.335   1.709   4.851
 9501SOL    HW229403   3.203   1.621   4.808
 9502SOL     OW29404   4.709   3.454   5.871
 9502SOL    HW129405   4.786   3.487   5.926
 9502SOL    HW229406   4.652   3.392   5.926
 9503SOL     OW29407   1.075   6.980   1.078
 9503SOL    HW129408   1.102   6.986   1.174
 9503SOL    HW229409   1.097   0.048   1.031
 9504SOL     OW29410   0.977   3.340   0.022
 9504SOL    HW129411   0.940   3.427   7.008
 9504SOL    HW229412   1.060   3.318   6.988
 9505SOL     OW29413   4.849   3.555   2.711
 9505SOL    HW129414   4.889   3.509   2.790
 9505SOL    HW229415   4.785   3.494   2.665
 9506SOL     OW29416   6.609   2.540   1.011
 9506SOL    HW129417   6.552   2.462   1.039
 9506SOL    HW229418   6.697   2.535   1.058
 9507SOL     OW29419   1.189   2.058   4.206
 9507SOL    HW129420   1.223   2.152   4.211
 9507SOL    HW229421   1.090   2.059   4.209
 9508SOL     OW29422   5.034   1.795   6.323
 9508SOL    HW129423   5.003   1.828   6.233
 9508SOL    HW229424   4.979   1.837   6.395
 9509SOL     OW29425   2.953   6.343   5.427
 9509SOL    HW129426   2.876   6.399   5.458
 9509SOL    HW229427   3.038   6.394   5.439
 9510SOL     OW29428   6.672   4.328   3.333
 9510SOL    HW129429   6.703   4.246   3.286
 9510SOL    HW229430   6.604   4.375   3.276
 9511SOL     OW29431   1.760   1.333   0.964
 9511SOL    HW129432   1.830   1.395   1.000
 9511SOL    HW229433   1.796   1.239   0.964
 9512SOL     OW29434   1.283   2.871   4.645
 9512SOL    HW129435   1.248   2.959   4.614
 9512SOL    HW229436   1.297   2.874   4.744
 9513SOL     OW29437   2.398   4.359   4.035
 9513SOL    HW129438   2.350   4.278   4.067
 9513SOL    HW229439   2.417   4.419   4.113
 9514SOL     OW29440   2.524   2.979   6.040
 9514SOL    HW129441   2.527   3.000   6.137
 9514SOL    HW229442   2.459   3.039   5.994
 9515SOL     OW29443   2.407   5.191   5.621
 9515SOL    HW129444   2.479   5.176   5.553
 9515SOL    HW229445   2.318   5.186   5.577
 9516SOL     OW29446   5.490   4.067   5.372
 9516SOL    HW129447   5.415   4.001   5.381
 9516SOL    HW229448   5.460   4.142   5.314
 9517SOL     OW29449   1.004   5.837   1.751
 9517SOL    HW129450   1.014   5.830   1.652
 9517SOL    HW229451   0.912   5.871   1.773
 9518SOL     OW29452   0.831   2.858   5.199
 9518SOL    HW129453   0.781   2.879   5.283
 9518SOL    HW229454   0.929   2.867   5.216
 9519SOL     OW29455   3.702   2.904   3.555
 9519SOL    HW129456   3.631   2.869   3.494
 9519SOL    HW229457   3.667   2.907   3.648
 9520SOL     OW29458   5.056   0.029   6.266
 9520SOL    HW129459   4.996   0.012   6.345
 9520SOL    HW229460   5.145   7.005   6.283
 9521SOL     OW29461   3.390   1.275   1.130
 9521SOL    HW129462   3.397   1.238   1.037
 9521SOL    HW229463   3.380   1.200   1.195
 9522SOL     OW29464   3.291   6.023   1.907
 9522SOL    HW129465   3.377   6.054   1.866
 9522SOL    HW229466   3.311   5.970   1.989
 9523SOL     OW29467   2.661   4.698   3.944
 9523SOL    HW129468   2.757   4.699   3.973
 9523SOL    HW229469   2.632   4.791   3.923
 9524SOL     OW29470   2.143   3.791   0.979
 9524SOL    HW129471   2.075   3.864   0.969
 9524SOL    HW229472   2.162   3.777   1.076
 9525SOL     OW29473   2.538   3.385   5.282
 9525SOL    HW129474   2.524   3.287   5.266
 9525SOL    HW229475   2.635   3.404   5.291
 9526SOL     OW29476   5.470   5.412   6.917
 9526SOL    HW129477   5.513   5.502   6.925
 9526SOL    HW229478   5.433   5.401   6.825
 9527SOL     OW29479   4.114   6.494   4.231
 9527SOL    HW129480   4.023   6.535   4.224
 9527SOL    HW229481   4.179   6.564   4.261
 9528SOL     OW29482   5.475   2.181   0.654
 9528SOL    HW129483   5.458   2.085   0.630
 9528SOL    HW229484   5.388   2.230   0.661
 9529SOL     OW29485   5.683   0.960   1.938
 9529SOL    HW129486   5.732   0.927   2.018
 9529SOL    HW229487   5.746   0.971   1.861
 9530SOL     OW29488   1.439   5.442   3.477
 9530SOL    HW129489   1.423   5.511   3.548
 9530SOL    HW229490   1.435   5.351   3.517
 9531SOL     OW29491   3.564   5.647   2.463
 9531SOL    HW129492   3.663   5.642   2.455
 9531SOL    HW229493   3.540   5.698   2.546
 9532SOL     OW29494   6.504   4.962   3.750
 9532SOL    HW129495   6.518   4.871   3.711
 9532SOL    HW229496   6.416   4.998   3.717
 9533SOL     OW29497   1.809   3.850   3.407
 9533SOL    HW129498   1.853   3.809   3.487
 9533SOL    HW229499   1.836   3.946   3.401
 9534SOL     OW29500   5.597   5.157   4.512
 9534SOL    HW129501   5.526   5.087   4.525
 9534SOL    HW229502   5.591   5.224   4.585
 9535SOL     OW29503   0.329   1.620   4.815
 9535SOL    HW129504   0.304   1.702   4.867
 9535SOL    HW229505   0.396   1.645   4.745
 9536SOL     OW29506   3.592   3.993   4.907
 9536SOL    HW129507   3.511   3.977   4.964
 9536SOL    HW229508   3.667   3.936   4.939
 9537SOL     OW29509   6.798   1.689   4.187
 9537SOL    HW129510   6.716   1.643   4.220
 9537SOL    HW229511   6.860   1.705   4.265
 9538SOL     OW29512   5.202   6.906   4.851
 9538SOL    HW129513   5.153   6.928   4.767
 9538SOL    HW229514   5.138   6.908   4.928
 9539SOL     OW29515   2.861   3.562   2.536
 9539SOL    HW129516   2.961   3.556   2.535
 9539SOL    HW229517   2.826   3.540   2.445
 9540SOL     OW29518   4.464   4.967   3.271
 9540SOL    HW129519   4.555   4.987   3.235
 9540SOL    HW229520   4.396   4.977   3.199
 9541SOL     OW29521   2.198   5.140   5.400
 9541SOL    HW129522   2.230   5.054   5.359
 9541SOL    HW229523   2.137   5.120   5.476
 9542SOL     OW29524   6.167   4.269   3.996
 9542SOL    HW129525   6.186   4.346   3.935
 9542SOL    HW229526   6.223   4.191   3.970
 9543SOL     OW29527   2.514   0.070   5.968
 9543SOL    HW129528   2.590   0.010   5.945
 9543SOL    HW229529   2.479   0.114   5.885
 9544SOL     OW29530   5.737   3.324   4.626
 9544SOL    HW129531   5.660   3.347   4.685
 9544SOL    HW229532   5.808   3.394   4.635
 9545SOL     OW29533   6.746   4.409   1.877
 9545SOL    HW129534   6.842   4.427   1.898
 9545SOL    HW229535   6.693   4.408   1.962
 9546SOL     OW29536   2.810   2.866   0.596
 9546SOL    HW129537   2.743   2.890   0.526
 9546SOL    HW229538   2.899   2.904   0.571
 9547SOL     OW29539   4.429   0.288   3.602
 9547SOL    HW129540   4.332   0.268   3.614
 9547SOL    HW229541   4.459   0.257   3.512
 9548SOL     OW29542   1.223   5.094   6.329
 9548SOL    HW129543   1.152   5.058   6.390
 9548SOL    HW229544   1.208   5.057   6.237
 9549SOL     OW29545   4.712   1.662   1.111
 9549SOL    HW129546   4.654   1.628   1.037
 9549SOL    HW229547   4.674   1.747   1.147
 9550SOL     OW29548   5.684   3.241   1.822
 9550SOL    HW129549   5.594   3.211   1.856
 9550SOL    HW229550   5.747   3.164   1.823
 9551SOL     OW29551   6.116   3.531   6.538
 9551SOL    HW129552   6.202   3.581   6.547
 9551SOL    HW229553   6.100   3.475   6.619
 9552SOL     OW29554   3.120   1.639   0.112
 9552SOL    HW129555   3.116   1.734   0.083
 9552SOL    HW229556   3.180   1.587   0.051
 9553SOL     OW29557   5.382   1.368   6.540
 9553SOL    HW129558   5.432   1.405   6.462
 9553SOL    HW229559   5.284   1.368   6.521
 9554SOL     OW29560   3.177   1.168   3.784
 9554SOL    HW129561   3.264   1.162   3.833
 9554SOL    HW229562   3.146   1.077   3.758
 9555SOL     OW29563   6.891   0.198   3.918
 9555SOL    HW129564   6.876   0.101   3.899
 9555SOL    HW229565   6.987   0.221   3.900
 9556SOL     OW29566   2.013   4.877   6.519
 9556SOL    HW129567   1.948   4.867   6.595
 9556SOL    HW229568   2.005   4.969   6.480
 9557SOL     OW29569   5.636   0.370   1.676
 9557SOL    HW129570   5.653   0.469   1.675
 9557SOL    HW229571   5.556   0.351   1.734
 9558SOL     OW29572   5.029   6.759   6.582
 9558SOL    HW129573   5.004   6.673   6.536
 9558SOL    HW229574   5.038   6.742   6.680
 9559SOL     OW29575   1.823   4.469   0.055
 9559SOL    HW129576   1.742   4.426   0.095
 9559SOL    HW229577   1.884   4.397   0.020
 9560SOL     OW29578   3.325   6.981   2.577
 9560SOL    HW129579   3.284   0.004   2.495
 9560SOL    HW229580   3.349   0.037   2.641
 9561SOL     OW29581   0.234   1.070   0.431
 9561SOL    HW129582   0.225   1.153   0.487
 9561SOL    HW229583   0.329   1.062   0.400
 9562SOL     OW29584   2.404   6.468   2.910
 9562SOL    HW129585   2.409   6.381   2.860
 9562SOL    HW229586   2.393   6.449   3.008
 9563SOL     OW29587   0.462   5.960   6.433
 9563SOL    HW129588   0.440   5.886   6.368
 9563SOL    HW229589   0.376   6.000   6.466
 9564SOL     OW29590   1.801   0.757   0.011
 9564SOL    HW129591   1.761   0.745   0.102
 9564SOL    HW229592   1.886   0.706   0.006
 9565SOL     OW29593   3.055   1.553   4.323
 9565SOL    HW129594   3.132   1.511   4.370
 9565SOL    HW229595   2.976   1.558   4.384
 9566SOL     OW29596   3.422   0.717   6.709
 9566SOL    HW129597   3.323   0.700   6.705
 9566SOL    HW229598   3.467   0.643   6.758
 9567SOL     OW29599   0.062   3.715   1.152
 9567SOL    HW129600   0.125   3.690   1.225
 9567SOL    HW229601   0.113   3.731   1.068
 9568SOL     OW29602   4.778   1.123   6.818
 9568SOL    HW129603   4.825   1.195   6.768
 9568SOL    HW229604   4.715   1.076   6.757
 9569SOL     OW29605   5.754   0.336   2.023
 9569SOL    HW129606   5.781   0.405   1.956
 9569SOL    HW229607   5.675   0.369   2.074
 9570SOL     OW29608   0.608   3.162   1.687
 9570SOL    HW129609   0.681   3.163   1.754
 9570SOL    HW229610   0.595   3.068   1.654
 9571SOL     OW29611   1.743   2.167   6.579
 9571SOL    HW129612   1.682   2.240   6.549
 9571SOL    HW229613   1.803   2.201   6.652
 9572SOL     OW29614   2.261   4.131   4.123
 9572SOL    HW129615   2.165   4.151   4.143
 9572SOL    HW229616   2.272   4.034   4.101
 9573SOL     OW29617   6.441   0.601   4.592
 9573SOL    HW129618   6.438   0.693   4.631
 9573SOL    HW229619   6.460   0.606   4.494
 9574SOL     OW29620   3.797   3.088   1.164
 9574SOL    HW129621   3.824   3.031   1.086
 9574SOL    HW229622   3.700   3.074   1.184
 9575SOL     OW29623   5.572   6.062   1.444
 9575SOL    HW129624   5.569   5.967   1.413
 9575SOL    HW229625   5.664   6.098   1.434
 9576SOL     OW29626   1.357   0.502   6.481
 9576SOL    HW129627   1.309   0.585   6.509
 9576SOL    HW229628   1.326   0.425   6.536
 9577SOL     OW29629   6.268   5.334   2.492
 9577SOL    HW129630   6.220   5.258   2.535
 9577SOL    HW229631   6.206   5.412   2.482
 9578SOL     OW29632   2.116   3.416   2.696
 9578SOL    HW129633   2.132   3.415   2.795
 9578SOL    HW229634   2.130   3.508   2.661
 9579SOL     OW29635   6.375   5.810   2.249
 9579SOL    HW129636   6.317   5.862   2.311
 9579SOL    HW229637   6.430   5.745   2.301
 9580SOL     OW29638   5.447   3.993   3.442
 9580SOL    HW129639   5.546   4.007   3.442
 9580SOL    HW229640   5.400   4.081   3.434
 9581SOL     OW29641   5.901   0.872   6.926
 9581SOL    HW129642   5.901   0.913   6.835
 9581SOL    HW229643   5.921   0.943   6.994
 9582SOL     OW29644   5.483   6.320   4.485
 9582SOL    HW129645   5.424   6.239   4.492
 9582SOL    HW229646   5.439   6.388   4.426
 9583SOL     OW29647   3.792   4.850   1.745
 9583SOL    HW129648   3.712   4.790   1.751
 9583SOL    HW229649   3.824   4.871   1.837
 9584SOL     OW29650   2.276   5.600   4.007
 9584SOL    HW129651   2.218   5.599   4.089
 9584SOL    HW229652   2.358   5.655   4.024
 9585SOL     OW29653   4.326   5.888   0.992
 9585SOL    HW129654   4.288   5.954   0.927
 9585SOL    HW229655   4.426   5.892   0.987
 9586SOL     OW29656   4.213   4.917   2.844
 9586SOL    HW129657   4.266   4.832   2.839
 9586SOL    HW229658   4.247   4.981   2.775
 9587SOL     OW29659   3.109   6.061   1.184
 9587SOL    HW129660   3.151   6.150   1.165
 9587SOL    HW229661   3.156   6.017   1.260
 9588SOL     OW29662   6.626   5.742   0.256
 9588SOL    HW129663   6.704   5.688   0.224
 9588SOL    HW229664   6.594   5.801   0.181
 9589SOL     OW29665   1.522   3.509   6.671
 9589SOL    HW129666   1.472   3.595   6.657
 9589SOL    HW229667   1.488   3.465   6.754
 9590SOL     OW29668   6.145   0.606   1.219
 9590SOL    HW129669   6.231   0.564   1.245
 9590SOL    HW229670   6.069   0.556   1.260
 9591SOL     OW29671   3.886   0.653   6.976
 9591SOL    HW129672   3.902   0.691   0.050
 9591SOL    HW229673   3.906   0.723   6.907
 9592SOL     OW29674   2.284   6.354   5.653
 9592SOL    HW129675   2.234   6.423   5.704
 9592SOL    HW229676   2.361   6.322   5.708
 9593SOL     OW29677   2.083   2.137   4.030
 9593SOL    HW129678   2.038   2.142   4.119
 9593SOL    HW229679   2.033   2.193   3.964
 9594SOL     OW29680   0.137   6.350   4.398
 9594SOL    HW129681   0.097   6.272   4.445
 9594SOL    HW229682   0.156   6.325   4.303
 9595SOL     OW29683   0.368   3.468   3.435
 9595SOL    HW129684   0.334   3.414   3.512
 9595SOL    HW229685   0.291   3.509   3.386
 9596SOL     OW29686   0.484   6.543   0.669
 9596SOL    HW129687   0.457   6.458   0.623
 9596SOL    HW229688   0.577   6.533   0.705
 9597SOL     OW29689   1.401   3.297   2.409
 9597SOL    HW129690   1.422   3.202   2.384
 9597SOL    HW229691   1.367   3.300   2.503
 9598SOL     OW29692   1.779   4.284   3.991
 9598SOL    HW129693   1.783   4.384   3.988
 9598SOL    HW229694   1.702   4.253   3.934
 9599SOL     OW29695   4.589   6.772   4.013
 9599SOL    HW129696   4.530   6.779   3.933
 9599SOL    HW229697   4.580   6.854   4.069
 9600SOL     OW29698   3.073   0.804   1.546
 9600SOL    HW129699   3.023   0.734   1.596
 9600SOL    HW229700   3.027   0.892   1.558
 9601SOL     OW29701   0.993   3.460   1.154
 9601SOL    HW129702   1.055   3.382   1.158
 9601SOL    HW229703   0.969   3.478   1.059
 9602SOL     OW29704   4.603   5.157   5.321
 9602SOL    HW129705   4.520   5.152   5.378
 9602SOL    HW229706   4.650   5.068   5.324
 9603SOL     OW29707   5.032   6.034   5.214
 9603SOL    HW129708   4.950   6.079   5.247
 9603SOL    HW229709   5.007   5.950   5.165
 9604SOL     OW29710   5.039   6.521   0.490
 9604SOL    HW129711   5.037   6.426   0.521
 9604SOL    HW229712   4.984   6.577   0.551
 9605SOL     OW29713   6.096   5.566   2.453
 9605SOL    HW129714   6.173   5.624   2.480
 9605SOL    HW229715   6.037   5.551   2.533
 9606SOL     OW29716   1.727   1.433   0.198
 9606SOL    HW129717   1.730   1.520   0.247
 9606SOL    HW229718   1.736   1.449   0.100
 9607SOL     OW29719   2.767   2.372   6.061
 9607SOL    HW129720   2.687   2.389   6.005
 9607SOL    HW229721   2.784   2.450   6.121
 9608SOL     OW29722   6.719   3.205   4.319
 9608SOL    HW129723   6.751   3.210   4.224
 9608SOL    HW229724   6.693   3.297   4.349
 9609SOL     OW29725   4.245   3.353   6.456
 9609SOL    HW129726   4.216   3.308   6.540
 9609SOL    HW229727   4.239   3.288   6.380
 9610SOL     OW29728   0.976   4.799   2.936
 9610SOL    HW129729   0.902   4.863   2.955
 9610SOL    HW229730   0.982   4.731   3.009
 9611SOL     OW29731   1.940   0.442   0.519
 9611SOL    HW129732   1.932   0.538   0.543
 9611SOL    HW229733   1.850   0.398   0.527
 9612SOL     OW29734   6.412   2.912   3.830
 9612SOL    HW129735   6.401   2.874   3.922
 9612SOL    HW229736   6.400   2.839   3.762
 9613SOL     OW29737   6.208   5.679   3.193
 9613SOL    HW129738   6.142   5.674   3.118
 9613SOL    HW229739   6.255   5.767   3.191
 9614SOL     OW29740   4.698   2.677   3.863
 9614SOL    HW129741   4.761   2.690   3.939
 9614SOL    HW229742   4.749   2.675   3.777
 9615SOL     OW29743   2.847   3.997   1.199
 9615SOL    HW129744   2.793   3.932   1.145
 9615SOL    HW229745   2.787   4.070   1.233
 9616SOL     OW29746   4.143   3.742   0.031
 9616SOL    HW129747   4.222   3.702   7.002
 9616SOL    HW229748   4.099   3.809   6.987
 9617SOL     OW29749   1.828   2.600   3.241
 9617SOL    HW129750   1.868   2.688   3.215
 9617SOL    HW229751   1.785   2.558   3.161
 9618SOL     OW29752   2.151   1.662   0.981
 9618SOL    HW129753   2.197   1.743   1.018
 9618SOL    HW229754   2.219   1.603   0.937
 9619SOL     OW29755   3.333   1.050   5.318
 9619SOL    HW129756   3.260   0.991   5.351
 9619SOL    HW229757   3.294   1.132   5.275
 9620SOL     OW29758   5.947   0.727   5.616
 9620SOL    HW129759   5.983   0.765   5.531
 9620SOL    HW229760   6.023   0.696   5.674
 9621SOL     OW29761   1.704   2.793   3.631
 9621SOL    HW129762   1.768   2.863   3.601
 9621SOL    HW229763   1.751   2.704   3.635
 9622SOL     OW29764   5.437   6.751   1.336
 9622SOL    HW129765   5.480   6.771   1.424
 9622SOL    HW229766   5.390   6.832   1.303
 9623SOL     OW29767   2.403   3.706   6.692
 9623SOL    HW129768   2.377   3.802   6.698
 9623SOL    HW229769   2.336   3.657   6.636
 9624SOL     OW29770   6.382   3.315   3.602
 9624SOL    HW129771   6.350   3.315   3.507
 9624SOL    HW229772   6.444   3.238   3.617
 9625SOL     OW29773   5.623   5.719   0.770
 9625SOL    HW129774   5.656   5.733   0.676
 9625SOL    HW229775   5.681   5.652   0.816
 9626SOL     OW29776   3.226   6.473   6.935
 9626SOL    HW129777   3.192   6.381   6.957
 9626SOL    HW229778   3.249   6.521   0.002
 9627SOL     OW29779   1.295   6.850   6.646
 9627SOL    HW129780   1.372   6.844   6.710
 9627SOL    HW229781   1.218   6.796   6.680
 9628SOL     OW29782   3.752   6.498   2.210
 9628SOL    HW129783   3.758   6.402   2.235
 9628SOL    HW229784   3.841   6.529   2.174
 9629SOL     OW29785   2.130   6.814   1.128
 9629SOL    HW129786   2.056   6.764   1.172
 9629SOL    HW229787   2.217   6.766   1.144
 9630SOL     OW29788   6.853   0.996   5.984
 9630SOL    HW129789   6.858   1.079   6.039
 9630SOL    HW229790   6.774   1.001   5.923
 9631SOL     OW29791   6.164   6.433   0.209
 9631SOL    HW129792   6.152   6.497   0.285
 9631SOL    HW229793   6.128   6.473   0.125
 9632SOL     OW29794   1.561   6.065   1.574
 9632SOL    HW129795   1.461   6.069   1.571
 9632SOL    HW229796   1.590   5.969   1.568
 9633SOL     OW29797   0.158   5.071   6.032
 9633SOL    HW129798   0.113   5.015   5.962
 9633SOL    HW229799   0.092   5.095   6.103
 9634SOL     OW29800   1.363   6.096   5.090
 9634SOL    HW129801   1.447   6.092   5.035
 9634SOL    HW229802   1.286   6.061   5.037
 9635SOL     OW29803   1.332   5.772   5.457
 9635SOL    HW129804   1.384   5.823   5.526
 9635SOL    HW229805   1.395   5.717   5.402
 9636SOL     OW29806   4.072   1.748   6.588
 9636SOL    HW129807   4.141   1.819   6.583
 9636SOL    HW229808   4.024   1.741   6.501
 9637SOL     OW29809   2.159   1.368   6.687
 9637SOL    HW129810   2.221   1.326   6.753
 9637SOL    HW229811   2.212   1.406   6.611
 9638SOL     OW29812   6.644   2.136   5.978
 9638SOL    HW129813   6.739   2.167   5.971
 9638SOL    HW229814   6.614   2.099   5.890
 9639SOL     OW29815   3.987   1.016   2.707
 9639SOL    HW129816   3.931   1.000   2.789
 9639SOL    HW229817   3.951   0.963   2.631
 9640SOL     OW29818   2.125   2.248   2.165
 9640SOL    HW129819   2.187   2.323   2.140
 9640SOL    HW229820   2.175   2.179   2.216
 9641SOL     OW29821   6.002   5.620   0.139
 9641SOL    HW129822   5.916   5.601   0.091
 9641SOL    HW229823   6.064   5.542   0.127
 9642SOL     OW29824   3.580   0.057   3.779
 9642SOL    HW129825   3.569   6.978   3.755
 9642SOL    HW229826   3.677   0.079   3.786
 9643SOL     OW29827   3.805   4.818   3.210
 9643SOL    HW129828   3.826   4.750   3.140
 9643SOL    HW229829   3.872   4.810   3.285
 9644SOL     OW29830   2.589   2.210   6.599
 9644SOL    HW129831   2.671   2.238   6.549
 9644SOL    HW229832   2.518   2.280   6.590
 9645SOL     OW29833   3.165   5.189   5.286
 9645SOL    HW129834   3.242   5.253   5.287
 9645SOL    HW229835   3.189   5.106   5.336
 9646SOL     OW29836   4.080   5.370   3.763
 9646SOL    HW129837   4.046   5.421   3.842
 9646SOL    HW229838   4.179   5.360   3.769
 9647SOL     OW29839   6.537   3.074   0.206
 9647SOL    HW129840   6.458   3.134   0.220
 9647SOL    HW229841   6.617   3.130   0.185
 9648SOL     OW29842   4.094   3.625   1.161
 9648SOL    HW129843   4.076   3.541   1.110
 9648SOL    HW229844   4.064   3.613   1.255
 9649SOL     OW29845   1.928   6.060   0.945
 9649SOL    HW129846   1.880   5.987   0.896
 9649SOL    HW229847   1.939   6.138   0.884
 9650SOL     OW29848   0.259   0.013   1.869
 9650SOL    HW129849   0.273   0.045   1.775
 9650SOL    HW229850   0.344   6.989   1.903
 9651SOL     OW29851   0.474   1.880   5.563
 9651SOL    HW129852   0.467   1.929   5.476
 9651SOL    HW229853   0.441   1.939   5.637
 9652SOL     OW29854   0.264   5.514   2.516
 9652SOL    HW129855   0.164   5.509   2.517
 9652SOL    HW229856   0.297   5.504   2.422
 9653SOL     OW29857   6.455   6.095   4.214
 9653SOL    HW129858   6.532   6.110   4.153
 9653SOL    HW229859   6.404   6.180   4.226
 9654SOL     OW29860   2.119   3.076   2.445
 9654SOL    HW129861   2.193   3.009   2.441
 9654SOL    HW229862   2.079   3.077   2.537
 9655SOL     OW29863   5.724   1.939   6.836
 9655SOL    HW129864   5.693   1.844   6.829
 9655SOL    HW229865   5.665   1.988   6.901
 9656SOL     OW29866   3.549   1.160   2.940
 9656SOL    HW129867   3.590   1.182   3.029
 9656SOL    HW229868   3.450   1.147   2.951
 9657SOL     OW29869   0.689   6.981   5.073
 9657SOL    HW129870   0.605   6.943   5.033
 9657SOL    HW229871   0.764   6.971   5.007
 9658SOL     OW29872   5.528   2.020   3.097
 9658SOL    HW129873   5.533   1.963   3.178
 9658SOL    HW229874   5.611   2.074   3.089
 9659SOL     OW29875   0.907   4.956   6.903
 9659SOL    HW129876   0.986   4.895   6.892
 9659SOL    HW229877   0.830   4.904   6.940
 9660SOL     OW29878   0.418   5.136   0.498
 9660SOL    HW129879   0.332   5.084   0.503
 9660SOL    HW229880   0.401   5.223   0.453
 9661SOL     OW29881   4.533   6.647   0.840
 9661SOL    HW129882   4.514   6.564   0.787
 9661SOL    HW229883   4.548   6.724   0.778
 9662SOL     OW29884   4.743   0.994   4.823
 9662SOL    HW129885   4.729   0.956   4.914
 9662SOL    HW229886   4.659   1.040   4.793
 9663SOL     OW29887   2.320   6.434   3.176
 9663SOL    HW129888   2.301   6.337   3.193
 9663SOL    HW229889   2.268   6.490   3.241
 9664SOL     OW29890   2.305   5.948   1.443
 9664SOL    HW129891   2.296   5.848   1.442
 9664SOL    HW229892   2.307   5.979   1.538
 9665SOL     OW29893   5.166   4.185   3.879
 9665SOL    HW129894   5.206   4.274   3.856
 9665SOL    HW229895   5.149   4.133   3.795
 9666SOL     OW29896   5.421   4.362   4.761
 9666SOL    HW129897   5.458   4.438   4.708
 9666SOL    HW229898   5.335   4.389   4.804
 9667SOL     OW29899   3.390   3.152   3.256
 9667SOL    HW129900   3.383   3.185   3.162
 9667SOL    HW229901   3.402   3.053   3.255
 9668SOL     OW29902   0.633   1.139   4.969
 9668SOL    HW129903   0.611   1.236   4.959
 9668SOL    HW229904   0.715   1.129   5.026
 9669SOL     OW29905   1.738   6.176   0.363
 9669SOL    HW129906   1.777   6.084   0.362
 9669SOL    HW229907   1.666   6.183   0.294
 9670SOL     OW29908   6.226   4.409   6.794
 9670SOL    HW129909   6.238   4.311   6.781
 9670SOL    HW229910   6.307   4.457   6.761
 9671SOL     OW29911   0.424   0.561   6.984
 9671SOL    HW129912   0.345   0.531   6.931
 9671SOL    HW229913   0.394   0.623   0.039
 9672SOL     OW29914   1.558   6.562   4.661
 9672SOL    HW129915   1.559   6.582   4.563
 9672SOL    HW229916   1.470   6.587   4.700
 9673SOL     OW29917   2.574   2.400   5.864
 9673SOL    HW129918   2.496   2.350   5.827
 9673SOL    HW229919   2.591   2.481   5.807
 9674SOL     OW29920   2.824   6.921   2.311
 9674SOL    HW129921   2.843   6.878   2.223
 9674SOL    HW229922   2.741   6.881   2.350
 9675SOL     OW29923   0.334   2.126   1.869
 9675SOL    HW129924   0.402   2.168   1.808
 9675SOL    HW229925   0.243   2.160   1.846
 9676SOL     OW29926   0.292   3.294   5.159
 9676SOL    HW129927   0.321   3.389   5.147
 9676SOL    HW229928   0.234   3.266   5.083
 9677SOL     OW29929   1.795   3.220   5.178
 9677SOL    HW129930   1.881   3.236   5.226
 9677SOL    HW229931   1.790   3.278   5.097
 9678SOL     OW29932   3.821   3.317   2.884
 9678SOL    HW129933   3.841   3.338   2.788
 9678SOL    HW229934   3.835   3.219   2.900
 9679SOL     OW29935   0.543   3.606   0.793
 9679SOL    HW129936   0.567   3.683   0.852
 9679SOL    HW229937   0.585   3.620   0.703
 9680SOL     OW29938   5.060   5.136   3.508
 9680SOL    HW129939   5.124   5.188   3.451
 9680SOL    HW229940   5.063   5.040   3.482
 9681SOL     OW29941   0.896   1.196   4.050
 9681SOL    HW129942   0.868   1.227   3.960
 9681SOL    HW229943   0.969   1.128   4.040
 9682SOL     OW29944   0.030   5.077   2.975
 9682SOL    HW129945   0.082   5.008   2.924
 9682SOL    HW229946   0.072   5.091   3.065
 9683SOL     OW29947   4.517   6.585   6.303
 9683SOL    HW129948   4.432   6.604   6.253
 9683SOL    HW229949   4.506   6.611   6.399
 9684SOL     OW29950   0.746   4.255   3.511
 9684SOL    HW129951   0.814   4.312   3.467
 9684SOL    HW229952   0.695   4.309   3.579
 9685SOL     OW29953   1.499   2.335   0.193
 9685SOL    HW129954   1.540   2.246   0.213
 9685SOL    HW229955   1.400   2.330   0.203
 9686SOL     OW29956   5.771   0.841   1.650
 9686SOL    HW129957   5.830   0.920   1.636
 9686SOL    HW229958   5.675   0.869   1.642
 9687SOL     OW29959   3.886   1.027   4.036
 9687SOL    HW129960   3.803   0.998   3.990
 9687SOL    HW229961   3.943   1.079   3.973
 9688SOL     OW29962   6.403   1.870   3.812
 9688SOL    HW129963   6.438   1.782   3.779
 9688SOL    HW229964   6.467   1.942   3.785
 9689SOL     OW29965   1.403   5.890   6.049
 9689SOL    HW129966   1.318   5.842   6.073
 9689SOL    HW229967   1.430   5.950   6.124
 9690SOL     OW29968   6.092   4.117   0.709
 9690SOL    HW129969   6.111   4.100   0.806
 9690SOL    HW229970   5.998   4.150   0.699
 9691SOL     OW29971   1.415   4.164   1.633
 9691SOL    HW129972   1.413   4.161   1.733
 9691SOL    HW229973   1.410   4.259   1.603
 9692SOL     OW29974   2.139   5.598   0.684
 9692SOL    HW129975   2.100   5.690   0.693
 9692SOL    HW229976   2.226   5.594   0.733
 9693SOL     OW29977   6.268   5.352   1.663
 9693SOL    HW129978   6.188   5.395   1.703
 9693SOL    HW229979   6.308   5.413   1.594
 9694SOL     OW29980   1.533   1.763   0.359
 9694SOL    HW129981   1.477   1.739   0.439
 9694SOL    HW229982   1.572   1.854   0.373
 9695SOL     OW29983   6.306   3.890   0.877
 9695SOL    HW129984   6.291   3.861   0.971
 9695SOL    HW229985   6.351   3.980   0.877
 9696SOL     OW29986   3.517   4.239   0.899
 9696SOL    HW129987   3.462   4.318   0.929
 9696SOL    HW229988   3.574   4.208   0.975
 9697SOL     OW29989   0.527   6.207   6.590
 9697SOL    HW129990   0.586   6.179   6.515
 9697SOL    HW229991   0.574   6.194   6.677
 9698SOL     OW29992   5.173   1.439   5.487
 9698SOL    HW129993   5.159   1.439   5.586
 9698SOL    HW229994   5.106   1.499   5.444
 9699SOL     OW29995   1.903   2.860   0.315
 9699SOL    HW129996   1.957   2.853   0.399
 9699SOL    HW229997   1.816   2.812   0.328
 9700SOL     OW29998   3.223   4.080   4.030
 9700SOL    HW129999   3.279   4.156   4.064
 9700SOL    HW230000   3.140   4.072   4.086
 9701SOL     OW30001   4.678   4.234   5.180
 9701SOL    HW130002   4.748   4.276   5.239
 9701SOL    HW230003   4.721   4.202   5.096
 9702SOL     OW30004   4.420   0.277   0.753
 9702SOL    HW130005   4.375   0.285   0.664
 9702SOL    HW230006   4.442   0.368   0.787
 9703SOL     OW30007   3.531   6.220   4.275
 9703SOL    HW130008   3.460   6.278   4.236
 9703SOL    HW230009   3.556   6.255   4.365
 9704SOL     OW30010   2.485   0.503   3.544
 9704SOL    HW130011   2.493   0.546   3.454
 9704SOL    HW230012   2.447   0.569   3.609
 9705SOL     OW30013   3.992   3.962   0.832
 9705SOL    HW130014   4.009   4.060   0.833
 9705SOL    HW230015   3.899   3.944   0.799
 9706SOL     OW30016   6.248   2.539   2.814
 9706SOL    HW130017   6.161   2.588   2.804
 9706SOL    HW230018   6.273   2.498   2.727
 9707SOL     OW30019   2.642   5.563   2.879
 9707SOL    HW130020   2.627   5.489   2.814
 9707SOL    HW230021   2.555   5.589   2.920
 9708SOL     OW30022   2.211   2.035   2.711
 9708SOL    HW130023   2.198   2.131   2.686
 9708SOL    HW230024   2.279   2.029   2.784
 9709SOL     OW30025   2.143   4.929   2.838
 9709SOL    HW130026   2.209   4.876   2.785
 9709SOL    HW230027   2.073   4.966   2.776
 9710SOL     OW30028   0.419   0.515   3.891
 9710SOL    HW130029   0.332   0.557   3.916
 9710SOL    HW230030   0.466   0.485   3.974
 9711SOL     OW30031   1.499   3.094   6.111
 9711SOL    HW130032   1.490   3.146   6.026
 9711SOL    HW230033   1.517   3.158   6.187
 9712SOL     OW30034   5.032   2.954   4.575
 9712SOL    HW130035   4.988   3.028   4.625
 9712SOL    HW230036   4.970   2.921   4.503
 9713SOL     OW30037   6.665   5.128   2.471
 9713SOL    HW130038   6.601   5.063   2.430
 9713SOL    HW230039   6.638   5.221   2.445
 9714SOL     OW30040   1.171   2.599   2.179
 9714SOL    HW130041   1.101   2.571   2.113
 9714SOL    HW230042   1.220   2.519   2.212
 9715SOL     OW30043   5.579   5.680   5.178
 9715SOL    HW130044   5.601   5.756   5.240
 9715SOL    HW230045   5.503   5.628   5.216
 9716SOL     OW30046   3.832   2.401   6.005
 9716SOL    HW130047   3.809   2.346   6.085
 9716SOL    HW230048   3.845   2.496   6.032
 9717SOL     OW30049   6.381   4.687   3.166
 9717SOL    HW130050   6.455   4.737   3.211
 9717SOL    HW230051   6.296   4.701   3.217
 9718SOL     OW30052   4.490   3.395   1.655
 9718SOL    HW130053   4.585   3.401   1.686
 9718SOL    HW230054   4.440   3.477   1.681
 9719SOL     OW30055   0.469   1.739   0.607
 9719SOL    HW130056   0.427   1.809   0.551
 9719SOL    HW230057   0.472   1.653   0.557
 9720SOL     OW30058   0.930   0.663   0.854
 9720SOL    HW130059   0.892   0.686   0.764
 9720SOL    HW230060   0.962   0.747   0.899
 9721SOL     OW30061   6.542   2.943   2.859
 9721SOL    HW130062   6.490   2.863   2.828
 9721SOL    HW230063   6.628   2.912   2.900
 9722SOL     OW30064   6.714   0.179   4.870
 9722SOL    HW130065   6.648   0.250   4.846
 9722SOL    HW230066   6.789   0.220   4.922
 9723SOL     OW30067   6.409   1.162   3.675
 9723SOL    HW130068   6.400   1.079   3.620
 9723SOL    HW230069   6.416   1.241   3.614
 9724SOL     OW30070   3.889   2.934   0.885
 9724SOL    HW130071   3.882   2.976   0.794
 9724SOL    HW230072   3.812   2.871   0.898
 9725SOL     OW30073   4.386   3.641   5.559
 9725SOL    HW130074   4.467   3.605   5.604
 9725SOL    HW230075   4.411   3.680   5.470
 9726SOL     OW30076   5.835   5.500   5.055
 9726SOL    HW130077   5.755   5.550   5.089
 9726SOL    HW230078   5.832   5.496   4.956
 9727SOL     OW30079   1.248   1.369   6.494
 9727SOL    HW130080   1.347   1.372   6.507
 9727SOL    HW230081   1.221   1.279   6.460
 9728SOL     OW30082   3.109   5.705   0.043
 9728SOL    HW130083   3.045   5.773   0.008
 9728SOL    HW230084   3.058   5.631   0.087
 9729SOL     OW30085   2.780   5.296   2.493
 9729SOL    HW130086   2.784   5.200   2.465
 9729SOL    HW230087   2.768   5.354   2.413
 9730SOL     OW30088   5.727   3.742   3.035
 9730SOL    HW130089   5.674   3.701   2.961
 9730SOL    HW230090   5.720   3.842   3.031
 9731SOL     OW30091   5.075   5.746   1.238
 9731SOL    HW130092   5.148   5.806   1.207
 9731SOL    HW230093   5.084   5.730   1.337
 9732SOL     OW30094   6.236   5.329   3.801
 9732SOL    HW130095   6.231   5.335   3.901
 9732SOL    HW230096   6.317   5.378   3.769
 9733SOL     OW30097   5.946   4.509   6.453
 9733SOL    HW130098   5.960   4.443   6.379
 9733SOL    HW230099   6.035   4.543   6.484
 9734SOL     OW30100   5.606   2.517   4.812
 9734SOL    HW130101   5.578   2.450   4.743
 9734SOL    HW230102   5.623   2.470   4.899
 9735SOL     OW30103   2.604   4.187   0.233
 9735SOL    HW130104   2.551   4.130   0.170
 9735SOL    HW230105   2.659   4.128   0.292
 9736SOL     OW30106   3.253   1.712   1.751
 9736SOL    HW130107   3.226   1.739   1.843
 9736SOL    HW230108   3.294   1.791   1.705
 9737SOL     OW30109   4.197   2.278   4.829
 9737SOL    HW130110   4.209   2.350   4.898
 9737SOL    HW230111   4.100   2.254   4.822
 9738SOL     OW30112   1.866   0.669   2.346
 9738SOL    HW130113   1.847   0.613   2.265
 9738SOL    HW230114   1.785   0.724   2.368
 9739SOL     OW30115   5.438   4.785   1.646
 9739SOL    HW130116   5.374   4.756   1.574
 9739SOL    HW230117   5.512   4.838   1.605
 9740SOL     OW30118   6.366   3.771   3.234
 9740SOL    HW130119   6.376   3.838   3.308
 9740SOL    HW230120   6.404   3.683   3.263
 9741SOL     OW30121   3.919   1.692   1.564
 9741SOL    HW130122   3.994   1.739   1.612
 9741SOL    HW230123   3.855   1.654   1.630
 9742SOL     OW30124   4.754   1.484   3.756
 9742SOL    HW130125   4.764   1.471   3.855
 9742SOL    HW230126   4.659   1.469   3.729
 9743SOL     OW30127   1.687   1.782   5.308
 9743SOL    HW130128   1.774   1.756   5.350
 9743SOL    HW230129   1.653   1.866   5.351
 9744SOL     OW30130   2.292   0.560   1.993
 9744SOL    HW130131   2.211   0.614   2.017
 9744SOL    HW230132   2.360   0.569   2.065
 9745SOL     OW30133   0.338   1.115   4.746
 9745SOL    HW130134   0.283   1.032   4.734
 9745SOL    HW230135   0.432   1.097   4.714
 9746SOL     OW30136   6.169   0.849   3.814
 9746SOL    HW130137   6.191   0.942   3.846
 9746SOL    HW230138   6.178   0.785   3.890
 9747SOL     OW30139   0.178   0.075   6.418
 9747SOL    HW130140   0.202   0.138   6.345
 9747SOL    HW230141   0.243   7.017   6.421
 9748SOL     OW30142   0.755   4.860   4.513
 9748SOL    HW130143   0.735   4.814   4.600
 9748SOL    HW230144   0.814   4.939   4.531
 9749SOL     OW30145   0.402   4.381   4.281
 9749SOL    HW130146   0.502   4.383   4.284
 9749SOL    HW230147   0.373   4.309   4.217
 9750SOL     OW30148   3.483   5.629   2.876
 9750SOL    HW130149   3.444   5.579   2.799
 9750SOL    HW230150   3.562   5.579   2.911
 9751SOL     OW30151   1.716   2.485   0.472
 9751SOL    HW130152   1.673   2.538   0.398
 9751SOL    HW230153   1.808   2.519   0.488
 9752SOL     OW30154   3.792   2.091   5.953
 9752SOL    HW130155   3.845   2.146   6.017
 9752SOL    HW230156   3.714   2.050   6.000
 9753SOL     OW30157   6.591   6.279   5.525
 9753SOL    HW130158   6.494   6.268   5.505
 9753SOL    HW230159   6.646   6.241   5.450
 9754SOL     OW30160   0.023   2.597   6.509
 9754SOL    HW130161   6.980   2.583   6.431
 9754SOL    HW230162   0.004   2.686   6.550
 9755SOL     OW30163   3.689   5.028   5.571
 9755SOL    HW130164   3.728   5.016   5.480
 9755SOL    HW230165   3.719   5.115   5.610
 9756SOL     OW30166   4.833   2.436   5.295
 9756SOL    HW130167   4.775   2.501   5.344
 9756SOL    HW230168   4.776   2.364   5.256
 9757SOL     OW30169   6.203   1.669   3.560
 9757SOL    HW130170   6.163   1.694   3.648
 9757SOL    HW230171   6.303   1.682   3.564
 9758SOL     OW30172   3.050   0.639   0.328
 9758SOL    HW130173   3.056   0.624   0.230
 9758SOL    HW230174   3.079   0.557   0.377
 9759SOL     OW30175   3.250   5.940   1.389
 9759SOL    HW130176   3.281   5.845   1.381
 9759SOL    HW230177   3.278   5.977   1.477
 9760SOL     OW30178   5.949   4.290   6.246
 9760SOL    HW130179   6.000   4.204   6.246
 9760SOL    HW230180   6.013   4.366   6.235
 9761SOL     OW30181   5.320   5.470   2.919
 9761SOL    HW130182   5.394   5.528   2.955
 9761SOL    HW230183   5.334   5.455   2.821
 9762SOL     OW30184   3.016   1.065   3.242
 9762SOL    HW130185   2.945   1.092   3.177
 9762SOL    HW230186   3.071   1.146   3.265
 9763SOL     OW30187   2.171   1.793   1.959
 9763SOL    HW130188   2.208   1.712   2.006
 9763SOL    HW230189   2.072   1.796   1.971
 9764SOL     OW30190   1.130   2.851   2.322
 9764SOL    HW130191   1.168   2.772   2.273
 9764SOL    HW230192   1.047   2.824   2.370
 9765SOL     OW30193   0.438   1.036   5.117
 9765SOL    HW130194   0.501   1.081   5.053
 9765SOL    HW230195   0.474   0.947   5.143
 9766SOL     OW30196   1.885   0.306   2.516
 9766SOL    HW130197   1.864   0.276   2.609
 9766SOL    HW230198   1.941   0.389   2.519
 9767SOL     OW30199   4.921   7.016   5.482
 9767SOL    HW130200   4.832   0.044   5.485
 9767SOL    HW230201   4.928   6.949   5.555
 9768SOL     OW30202   5.065   2.698   3.768
 9768SOL    HW130203   5.100   2.618   3.817
 9768SOL    HW230204   5.101   2.782   3.811
 9769SOL     OW30205   0.564   1.720   1.682
 9769SOL    HW130206   0.552   1.621   1.682
 9769SOL    HW230207   0.504   1.760   1.612
 9770SOL     OW30208   6.740   3.559   5.937
 9770SOL    HW130209   6.669   3.513   5.883
 9770SOL    HW230210   6.799   3.611   5.875
 9771SOL     OW30211   2.727   5.610   4.096
 9771SOL    HW130212   2.694   5.559   4.175
 9771SOL    HW230213   2.807   5.665   4.123
 9772SOL     OW30214   6.697   0.121   1.340
 9772SOL    HW130215   6.646   0.121   1.425
 9772SOL    HW230216   6.735   0.212   1.324
 9773SOL     OW30217   4.979   5.130   3.786
 9773SOL    HW130218   4.882   5.111   3.771
 9773SOL    HW230219   5.031   5.099   3.707
 9774SOL     OW30220   0.432   4.798   3.499
 9774SOL    HW130221   0.359   4.783   3.432
 9774SOL    HW230222   0.498   4.863   3.462
 9775SOL     OW30223   2.822   2.271   5.005
 9775SOL    HW130224   2.797   2.235   4.915
 9775SOL    HW230225   2.920   2.291   5.006
 9776SOL     OW30226   0.340   4.753   4.299
 9776SOL    HW130227   0.316   4.847   4.277
 9776SOL    HW230228   0.440   4.742   4.298
 9777SOL     OW30229   5.870   4.969   6.146
 9777SOL    HW130230   5.835   4.890   6.097
 9777SOL    HW230231   5.899   4.942   6.238
 9778SOL     OW30232   3.966   0.737   3.973
 9778SOL    HW130233   3.944   0.732   3.876
 9778SOL    HW230234   3.988   0.832   3.997
 9779SOL     OW30235   3.008   1.988   6.644
 9779SOL    HW130236   3.023   1.920   6.571
 9779SOL    HW230237   2.917   2.026   6.636
 9780SOL     OW30238   3.355   4.072   0.434
 9780SOL    HW130239   3.401   4.059   0.522
 9780SOL    HW230240   3.324   3.983   0.400
 9781SOL     OW30241   1.523   6.273   4.078
 9781SOL    HW130242   1.588   6.207   4.041
 9781SOL    HW230243   1.433   6.258   4.037
 9782SOL     OW30244   6.167   0.421   0.965
 9782SOL    HW130245   6.189   0.502   1.020
 9782SOL    HW230246   6.163   0.447   0.868
 9783SOL     OW30247   6.175   1.160   2.954
 9783SOL    HW130248   6.119   1.078   2.967
 9783SOL    HW230249   6.193   1.173   2.856
 9784SOL     OW30250   5.660   0.901   4.422
 9784SOL    HW130251   5.617   0.868   4.506
 9784SOL    HW230252   5.592   0.907   4.349
 9785SOL     OW30253   0.485   2.655   0.867
 9785SOL    HW130254   0.565   2.702   0.905
 9785SOL    HW230255   0.409   2.661   0.931
 9786SOL     OW30256   2.610   0.658   4.958
 9786SOL    HW130257   2.678   0.730   4.955
 9786SOL    HW230258   2.568   0.647   4.868
 9787SOL     OW30259   6.294   4.248   1.426
 9787SOL    HW130260   6.337   4.338   1.418
 9787SOL    HW230261   6.353   4.179   1.383
 9788SOL     OW30262   6.981   0.998   5.371
 9788SOL    HW130263   0.012   0.931   5.427
 9788SOL    HW230264   0.011   1.010   5.284
 9789SOL     OW30265   1.838   5.362   4.538
 9789SOL    HW130266   1.826   5.417   4.620
 9789SOL    HW230267   1.766   5.384   4.472
 9790SOL     OW30268   6.827   0.906   4.015
 9790SOL    HW130269   6.870   0.996   4.007
 9790SOL    HW230270   6.728   0.916   4.008
 9791SOL     OW30271   1.042   2.652   1.418
 9791SOL    HW130272   1.111   2.599   1.467
 9791SOL    HW230273   1.051   2.636   1.320
 9792SOL     OW30274   3.662   5.684   2.121
 9792SOL    HW130275   3.722   5.664   2.198
 9792SOL    HW230276   3.615   5.601   2.092
 9793SOL     OW30277   5.196   6.017   1.967
 9793SOL    HW130278   5.118   6.020   2.029
 9793SOL    HW230279   5.235   5.925   1.967
 9794SOL     OW30280   2.761   3.304   6.783
 9794SOL    HW130281   2.799   3.359   6.708
 9794SOL    HW230282   2.689   3.246   6.747
 9795SOL     OW30283   2.253   4.858   4.160
 9795SOL    HW130284   2.323   4.885   4.227
 9795SOL    HW230285   2.262   4.760   4.141
 9796SOL     OW30286   3.402   4.517   0.632
 9796SOL    HW130287   3.350   4.447   0.582
 9796SOL    HW230288   3.421   4.593   0.570
 9797SOL     OW30289   5.402   2.689   4.966
 9797SOL    HW130290   5.459   2.629   4.910
 9797SOL    HW230291   5.393   2.778   4.923
 9798SOL     OW30292   2.556   1.634   1.839
 9798SOL    HW130293   2.640   1.627   1.787
 9798SOL    HW230294   2.493   1.698   1.794
 9799SOL     OW30295   3.180   4.057   2.329
 9799SOL    HW130296   3.128   4.142   2.326
 9799SOL    HW230297   3.277   4.078   2.347
 9800SOL     OW30298   3.853   5.195   0.081
 9800SOL    HW130299   3.756   5.179   0.101
 9800SOL    HW230300   3.888   5.121   0.024
 9801SOL     OW30301   4.996   5.675   0.811
 9801SOL    HW130302   4.975   5.578   0.804
 9801SOL    HW230303   5.056   5.703   0.735
 9802SOL     OW30304   0.515   5.168   1.726
 9802SOL    HW130305   0.571   5.120   1.658
 9802SOL    HW230306   0.426   5.123   1.733
 9803SOL     OW30307   4.898   0.207   6.508
 9803SOL    HW130308   4.927   0.111   6.505
 9803SOL    HW230309   4.863   0.229   6.599
 9804SOL     OW30310   5.545   5.564   4.424
 9804SOL    HW130311   5.589   5.583   4.512
 9804SOL    HW230312   5.586   5.482   4.383
 9805SOL     OW30313   3.723   4.207   1.101
 9805SOL    HW130314   3.644   4.194   1.162
 9805SOL    HW230315   3.788   4.271   1.143
 9806SOL     OW30316   0.020   1.733   2.568
 9806SOL    HW130317   0.084   1.790   2.518
 9806SOL    HW230318   0.070   1.661   2.617
 9807SOL     OW30319   2.788   3.104   0.972
 9807SOL    HW130320   2.758   3.011   0.951
 9807SOL    HW230321   2.724   3.145   1.038
 9808SOL     OW30322   1.486   1.713   4.831
 9808SOL    HW130323   1.464   1.773   4.908
 9808SOL    HW230324   1.468   1.618   4.857
 9809SOL     OW30325   0.697   0.599   4.357
 9809SOL    HW130326   0.666   0.538   4.430
 9809SOL    HW230327   0.768   0.661   4.393
 9810SOL     OW30328   4.790   1.803   2.596
 9810SOL    HW130329   4.820   1.720   2.550
 9810SOL    HW230330   4.697   1.825   2.568
 9811SOL     OW30331   1.104   0.089   2.600
 9811SOL    HW130332   1.047   0.037   2.663
 9811SOL    HW230333   1.200   0.081   2.628
 9812SOL     OW30334   5.519   2.618   5.250
 9812SOL    HW130335   5.476   2.689   5.195
 9812SOL    HW230336   5.549   2.658   5.337
 9813SOL     OW30337   6.417   4.037   0.454
 9813SOL    HW130338   6.345   4.105   0.466
 9813SOL    HW230339   6.414   3.972   0.530
 9814SOL     OW30340   6.896   0.689   5.638
 9814SOL    HW130341   6.874   0.702   5.734
 9814SOL    HW230342   6.928   0.596   5.623
 9815SOL     OW30343   0.341   3.935   2.616
 9815SOL    HW130344   0.429   3.981   2.630
 9815SOL    HW230345   0.357   3.841   2.587
 9816SOL     OW30346   5.715   0.856   5.780
 9816SOL    HW130347   5.791   0.815   5.731
 9816SOL    HW230348   5.722   0.956   5.775
 9817SOL     OW30349   2.374   0.972   0.866
 9817SOL    HW130350   2.429   0.889   0.863
 9817SOL    HW230351   2.431   1.050   0.839
 9818SOL     OW30352   0.344   6.844   2.468
 9818SOL    HW130353   0.300   6.907   2.531
 9818SOL    HW230354   0.367   6.891   2.383
 9819SOL     OW30355   6.746   2.093   4.422
 9819SOL    HW130356   6.657   2.076   4.464
 9819SOL    HW230357   6.765   2.023   4.353
 9820SOL     OW30358   3.623   1.991   6.137
 9820SOL    HW130359   3.609   1.893   6.151
 9820SOL    HW230360   3.570   2.042   6.204
 9821SOL     OW30361   4.023   2.987   0.410
 9821SOL    HW130362   3.974   3.025   0.331
 9821SOL    HW230363   4.100   2.933   0.377
 9822SOL     OW30364   3.266   5.279   4.174
 9822SOL    HW130365   3.222   5.245   4.257
 9822SOL    HW230366   3.236   5.373   4.158
 9823SOL     OW30367   4.004   6.324   3.590
 9823SOL    HW130368   4.029   6.300   3.684
 9823SOL    HW230369   4.083   6.308   3.530
 9824SOL     OW30370   1.786   5.786   5.594
 9824SOL    HW130371   1.744   5.707   5.549
 9824SOL    HW230372   1.855   5.755   5.659
 9825SOL     OW30373   0.397   6.080   5.214
 9825SOL    HW130374   0.471   6.088   5.147
 9825SOL    HW230375   0.323   6.024   5.176
 9826SOL     OW30376   1.758   5.619   5.990
 9826SOL    HW130377   1.810   5.675   6.054
 9826SOL    HW230378   1.712   5.678   5.924
 9827SOL     OW30379   2.164   4.705   1.711
 9827SOL    HW130380   2.253   4.681   1.750
 9827SOL    HW230381   2.154   4.662   1.621
 9828SOL     OW30382   4.548   1.981   4.902
 9828SOL    HW130383   4.603   2.040   4.961
 9828SOL    HW230384   4.508   2.036   4.829
 9829SOL     OW30385   5.637   4.469   5.419
 9829SOL    HW130386   5.714   4.406   5.429
 9829SOL    HW230387   5.559   4.419   5.381
 9830SOL     OW30388   5.642   1.628   3.800
 9830SOL    HW130389   5.603   1.662   3.886
 9830SOL    HW230390   5.639   1.701   3.731
 9831SOL     OW30391   0.283   4.393   1.964
 9831SOL    HW130392   0.351   4.464   1.944
 9831SOL    HW230393   0.248   4.406   2.057
 9832SOL     OW30394   4.853   5.480   4.540
 9832SOL    HW130395   4.928   5.443   4.595
 9832SOL    HW230396   4.883   5.489   4.445
 9833SOL     OW30397   4.019   3.199   4.551
 9833SOL    HW130398   4.091   3.193   4.482
 9833SOL    HW230399   4.027   3.284   4.602
 9834SOL     OW30400   3.496   5.926   5.465
 9834SOL    HW130401   3.475   5.990   5.391
 9834SOL    HW230402   3.516   5.836   5.427
 9835SOL     OW30403   4.095   3.431   3.748
 9835SOL    HW130404   3.996   3.423   3.760
 9835SOL    HW230405   4.115   3.511   3.692
 9836SOL     OW30406   6.326   3.305   5.431
 9836SOL    HW130407   6.360   3.362   5.507
 9836SOL    HW230408   6.381   3.222   5.424
 9837SOL     OW30409   6.382   1.127   3.125
 9837SOL    HW130410   6.405   1.192   3.196
 9837SOL    HW230411   6.299   1.157   3.077
 9838SOL     OW30412   0.361   6.014   0.501
 9838SOL    HW130413   0.388   5.918   0.500
 9838SOL    HW230414   0.266   6.022   0.531
 9839SOL     OW30415   4.579   6.378   3.436
 9839SOL    HW130416   4.526   6.416   3.361
 9839SOL    HW230417   4.574   6.439   3.515
 9840SOL     OW30418   6.394   1.583   6.637
 9840SOL    HW130419   6.434   1.552   6.551
 9840SOL    HW230420   6.316   1.525   6.660
 9841SOL     OW30421   0.084   5.786   2.668
 9841SOL    HW130422   0.062   5.698   2.627
 9841SOL    HW230423   0.058   5.785   2.765
 9842SOL     OW30424   3.580   0.223   0.275
 9842SOL    HW130425   3.506   0.206   0.209
 9842SOL    HW230426   3.666   0.235   0.225
 9843SOL     OW30427   6.961   0.482   1.208
 9843SOL    HW130428   6.954   0.525   1.118
 9843SOL    HW230429   0.036   0.444   1.219
 9844SOL     OW30430   5.029   0.450   5.382
 9844SOL    HW130431   5.071   0.387   5.447
 9844SOL    HW230432   5.038   0.413   5.289
 9845SOL     OW30433   0.990   3.876   2.243
 9845SOL    HW130434   1.039   3.791   2.266
 9845SOL    HW230435   0.992   3.938   2.322
 9846SOL     OW30436   5.675   1.592   1.984
 9846SOL    HW130437   5.592   1.625   1.939
 9846SOL    HW230438   5.679   1.493   1.976
 9847SOL     OW30439   4.009   4.498   6.797
 9847SOL    HW130440   3.930   4.444   6.769
 9847SOL    HW230441   4.064   4.447   6.862
 9848SOL     OW30442   3.117   4.402   5.510
 9848SOL    HW130443   3.167   4.380   5.426
 9848SOL    HW230444   3.022   4.421   5.488
 9849SOL     OW30445   1.924   2.300   3.856
 9849SOL    HW130446   1.878   2.367   3.916
 9849SOL    HW230447   1.860   2.269   3.786
 9850SOL     OW30448   1.157   0.128   4.449
 9850SOL    HW130449   1.239   0.133   4.507
 9850SOL    HW230450   1.120   0.035   4.452
 9851SOL     OW30451   3.860   5.627   3.809
 9851SOL    HW130452   3.875   5.537   3.850
 9851SOL    HW230453   3.875   5.622   3.711
 9852SOL     OW30454   1.725   6.260   0.069
 9852SOL    HW130455   1.798   6.286   0.005
 9852SOL    HW230456   1.676   6.341   0.099
 9853SOL     OW30457   0.506   4.444   3.849
 9853SOL    HW130458   0.521   4.352   3.887
 9853SOL    HW230459   0.476   4.505   3.922
 9854SOL     OW30460   6.818   3.589   6.842
 9854SOL    HW130461   6.746   3.596   6.774
 9854SOL    HW230462   6.862   3.500   6.835
 9855SOL     OW30463   0.704   6.152   6.792
 9855SOL    HW130464   0.747   6.239   6.818
 9855SOL    HW230465   0.750   6.077   6.838
 9856SOL     OW30466   4.958   3.450   2.922
 9856SOL    HW130467   5.008   3.537   2.927
 9856SOL    HW230468   4.928   3.424   3.014
 9857SOL     OW30469   4.901   0.093   5.968
 9857SOL    HW130470   4.874   0.135   6.055
 9857SOL    HW230471   4.820   0.053   5.925
 9858SOL     OW30472   6.351   5.659   2.553
 9858SOL    HW130473   6.352   5.570   2.599
 9858SOL    HW230474   6.417   5.657   2.477
 9859SOL     OW30475   1.037   5.597   2.485
 9859SOL    HW130476   1.010   5.692   2.474
 9859SOL    HW230477   1.113   5.576   2.425
 9860SOL     OW30478   1.436   3.043   3.910
 9860SOL    HW130479   1.420   2.947   3.887
 9860SOL    HW230480   1.529   3.054   3.945
 9861SOL     OW30481   3.928   2.120   3.555
 9861SOL    HW130482   4.012   2.119   3.608
 9861SOL    HW230483   3.948   2.096   3.460
 9862SOL     OW30484   1.627   3.572   6.394
 9862SOL    HW130485   1.611   3.541   6.487
 9862SOL    HW230486   1.725   3.579   6.377
 9863SOL     OW30487   4.295   6.386   2.478
 9863SOL    HW130488   4.325   6.482   2.479
 9863SOL    HW230489   4.196   6.382   2.463
 9864SOL     OW30490   2.776   6.546   5.170
 9864SOL    HW130491   2.708   6.475   5.187
 9864SOL    HW230492   2.863   6.520   5.213
 9865SOL     OW30493   2.135   5.972   5.683
 9865SOL    HW130494   2.112   6.056   5.634
 9865SOL    HW230495   2.128   5.894   5.620
 9866SOL     OW30496   6.664   5.188   5.969
 9866SOL    HW130497   6.671   5.282   6.004
 9866SOL    HW230498   6.619   5.131   6.038
 9867SOL     OW30499   4.487   1.309   2.050
 9867SOL    HW130500   4.586   1.295   2.045
 9867SOL    HW230501   4.442   1.222   2.067
 9868SOL     OW30502   2.147   4.932   3.808
 9868SOL    HW130503   2.076   4.995   3.776
 9868SOL    HW230504   2.107   4.843   3.829
 9869SOL     OW30505   6.379   2.455   2.268
 9869SOL    HW130506   6.446   2.444   2.195
 9869SOL    HW230507   6.426   2.456   2.356
 9870SOL     OW30508   2.094   2.119   3.059
 9870SOL    HW130509   2.023   2.170   3.108
 9870SOL    HW230510   2.071   2.117   2.961
 9871SOL     OW30511   5.337   5.899   3.379
 9871SOL    HW130512   5.415   5.931   3.326
 9871SOL    HW230513   5.334   5.799   3.378
 9872SOL     OW30514   0.560   6.107   5.427
 9872SOL    HW130515   0.637   6.165   5.400
 9872SOL    HW230516   0.481   6.126   5.368
 9873SOL     OW30517   0.847   1.082   5.150
 9873SOL    HW130518   0.870   1.124   5.238
 9873SOL    HW230519   0.801   0.994   5.166
 9874SOL     OW30520   0.236   2.261   3.992
 9874SOL    HW130521   0.163   2.247   4.059
 9874SOL    HW230522   0.210   2.336   3.930
 9875SOL     OW30523   6.521   6.166   0.705
 9875SOL    HW130524   6.583   6.202   0.775
 9875SOL    HW230525   6.445   6.229   0.692
 9876SOL     OW30526   0.023   6.761   3.873
 9876SOL    HW130527   0.051   6.675   3.916
 9876SOL    HW230528   0.050   6.759   3.777
 9877SOL     OW30529   1.188   6.027   4.891
 9877SOL    HW130530   1.105   6.053   4.941
 9877SOL    HW230531   1.181   5.931   4.865
 9878SOL     OW30532   3.200   2.617   7.009
 9878SOL    HW130533   3.254   2.540   6.975
 9878SOL    HW230534   3.222   2.633   0.088
 9879SOL     OW30535   6.496   5.701   4.477
 9879SOL    HW130536   6.415   5.744   4.517
 9879SOL    HW230537   6.514   5.739   4.387
 9880SOL     OW30538   3.526   1.480   1.236
 9880SOL    HW130539   3.482   1.390   1.230
 9880SOL    HW230540   3.609   1.473   1.290
 9881SOL     OW30541   5.874   0.589   3.125
 9881SOL    HW130542   5.787   0.635   3.142
 9881SOL    HW230543   5.862   0.519   3.056
 9882SOL     OW30544   3.492   3.397   4.913
 9882SOL    HW130545   3.512   3.307   4.873
 9882SOL    HW230546   3.432   3.385   4.992
 9883SOL     OW30547   1.698   6.461   2.420
 9883SOL    HW130548   1.713   6.384   2.483
 9883SOL    HW230549   1.647   6.429   2.340
 9884SOL     OW30550   3.244   2.615   5.275
 9884SOL    HW130551   3.212   2.533   5.226
 9884SOL    HW230552   3.314   2.661   5.220
 9885SOL     OW30553   4.482   2.405   5.522
 9885SOL    HW130554   4.422   2.355   5.459
 9885SOL    HW230555   4.562   2.438   5.471
 9886SOL     OW30556   2.484   6.147   1.390
 9886SOL    HW130557   2.406   6.084   1.394
 9886SOL    HW230558   2.552   6.111   1.326
 9887SOL     OW30559   3.255   1.223   0.369
 9887SOL    HW130560   3.322   1.176   0.311
 9887SOL    HW230561   3.188   1.270   0.310
 9888SOL     OW30562   6.382   6.772   3.698
 9888SOL    HW130563   6.419   6.736   3.784
 9888SOL    HW230564   6.348   6.864   3.713
 9889SOL     OW30565   6.829   5.475   3.046
 9889SOL    HW130566   6.750   5.530   3.070
 9889SOL    HW230567   6.851   5.412   3.120
 9890SOL     OW30568   1.295   3.270   2.689
 9890SOL    HW130569   1.235   3.194   2.713
 9890SOL    HW230570   1.309   3.329   2.768
 9891SOL     OW30571   4.800   6.656   1.918
 9891SOL    HW130572   4.821   6.559   1.906
 9891SOL    HW230573   4.782   6.698   1.829
 9892SOL     OW30574   1.774   6.039   3.507
 9892SOL    HW130575   1.757   6.087   3.421
 9892SOL    HW230576   1.733   6.090   3.583
 9893SOL     OW30577   6.089   4.449   5.418
 9893SOL    HW130578   6.078   4.543   5.452
 9893SOL    HW230579   6.172   4.444   5.363
 9894SOL     OW30580   4.462   3.976   5.322
 9894SOL    HW130581   4.369   3.943   5.310
 9894SOL    HW230582   4.464   4.076   5.308
 9895SOL     OW30583   5.287   1.986   6.144
 9895SOL    HW130584   5.266   1.909   6.083
 9895SOL    HW230585   5.371   2.031   6.114
 9896SOL     OW30586   3.963   3.456   6.633
 9896SOL    HW130587   4.032   3.397   6.674
 9896SOL    HW230588   4.007   3.520   6.570
 9897SOL     OW30589   0.678   1.464   3.348
 9897SOL    HW130590   0.592   1.429   3.313
 9897SOL    HW230591   0.716   1.400   3.415
 9898SOL     OW30592   0.882   4.746   0.213
 9898SOL    HW130593   0.907   4.678   0.144
 9898SOL    HW230594   0.784   4.766   0.205
 9899SOL     OW30595   4.269   5.230   2.253
 9899SOL    HW130596   4.189   5.247   2.195
 9899SOL    HW230597   4.326   5.312   2.256
 9900SOL     OW30598   2.004   4.766   4.027
 9900SOL    HW130599   2.007   4.834   4.100
 9900SOL    HW230600   2.081   4.704   4.036
 9901SOL     OW30601   2.367   1.856   5.757
 9901SOL    HW130602   2.453   1.896   5.725
 9901SOL    HW230603   2.338   1.903   5.840
 9902SOL     OW30604   4.349   3.875   6.838
 9902SOL    HW130605   4.251   3.890   6.826
 9902SOL    HW230606   4.385   3.824   6.760
 9903SOL     OW30607   3.184   1.702   1.380
 9903SOL    HW130608   3.265   1.656   1.418
 9903SOL    HW230609   3.117   1.717   1.453
 9904SOL     OW30610   0.203   6.583   2.475
 9904SOL    HW130611   0.240   6.509   2.532
 9904SOL    HW230612   0.272   6.655   2.466
 9905SOL     OW30613   2.091   0.122   5.697
 9905SOL    HW130614   2.140   0.066   5.764
 9905SOL    HW230615   2.031   0.064   5.642
 9906SOL     OW30616   3.333   4.070   6.025
 9906SOL    HW130617   3.249   4.065   5.971
 9906SOL    HW230618   3.410   4.092   5.965
 9907SOL     OW30619   1.276   6.975   2.860
 9907SOL    HW130620   1.296   6.878   2.847
 9907SOL    HW230621   1.189   6.985   2.909
 9908SOL     OW30622   6.160   3.204   5.657
 9908SOL    HW130623   6.206   3.238   5.575
 9908SOL    HW230624   6.101   3.276   5.695
 9909SOL     OW30625   3.350   6.711   2.448
 9909SOL    HW130626   3.364   6.717   2.349
 9909SOL    HW230627   3.335   6.802   2.486
 9910SOL     OW30628   0.914   5.488   0.795
 9910SOL    HW130629   0.943   5.409   0.849
 9910SOL    HW230630   0.827   5.468   0.749
 9911SOL     OW30631   3.710   4.967   2.800
 9911SOL    HW130632   3.628   4.910   2.808
 9911SOL    HW230633   3.684   5.057   2.765
 9912SOL     OW30634   4.688   7.006   0.854
 9912SOL    HW130635   4.626   6.959   0.790
 9912SOL    HW230636   4.649   7.003   0.946
 9913SOL     OW30637   4.984   2.160   2.786
 9913SOL    HW130638   4.892   2.160   2.745
 9913SOL    HW230639   5.053   2.164   2.714
 9914SOL     OW30640   2.380   5.712   4.559
 9914SOL    HW130641   2.375   5.632   4.619
 9914SOL    HW230642   2.434   5.690   4.478
 9915SOL     OW30643   6.186   4.169   4.537
 9915SOL    HW130644   6.188   4.185   4.636
 9915SOL    HW230645   6.268   4.209   4.496
 9916SOL     OW30646   2.783   3.818   0.377
 9916SOL    HW130647   2.799   3.912   0.348
 9916SOL    HW230648   2.853   3.792   0.444
 9917SOL     OW30649   2.117   2.975   4.807
 9917SOL    HW130650   2.134   3.002   4.902
 9917SOL    HW230651   2.172   2.894   4.785
 9918SOL     OW30652   2.417   0.746   4.414
 9918SOL    HW130653   2.447   0.697   4.332
 9918SOL    HW230654   2.466   0.833   4.421
 9919SOL     OW30655   0.616   5.396   1.952
 9919SOL    HW130656   0.594   5.335   1.876
 9919SOL    HW230657   0.639   5.342   2.033
 9920SOL     OW30658   4.450   0.047   2.746
 9920SOL    HW130659   4.377   0.052   2.813
 9920SOL    HW230660   4.427   0.103   2.667
 9921SOL     OW30661   4.947   0.264   2.618
 9921SOL    HW130662   4.931   0.324   2.539
 9921SOL    HW230663   5.036   0.286   2.658
 9922SOL     OW30664   5.169   2.537   2.151
 9922SOL    HW130665   5.182   2.527   2.249
 9922SOL    HW230666   5.194   2.452   2.105
 9923SOL     OW30667   5.671   0.411   6.741
 9923SOL    HW130668   5.607   0.481   6.708
 9923SOL    HW230669   5.730   0.450   6.812
 9924SOL     OW30670   5.158   1.031   4.140
 9924SOL    HW130671   5.193   0.994   4.054
 9924SOL    HW230672   5.117   1.121   4.124
 9925SOL     OW30673   3.745   2.038   4.634
 9925SOL    HW130674   3.764   2.023   4.731
 9925SOL    HW230675   3.671   1.977   4.604
 9926SOL     OW30676   1.918   0.983   5.398
 9926SOL    HW130677   1.822   0.976   5.422
 9926SOL    HW230678   1.929   1.044   5.319
 9927SOL     OW30679   0.849   2.979   2.952
 9927SOL    HW130680   0.885   2.891   2.920
 9927SOL    HW230681   0.787   3.016   2.883
 9928SOL     OW30682   6.940   3.137   2.292
 9928SOL    HW130683   6.964   3.066   2.358
 9928SOL    HW230684   7.007   3.212   2.298
 9929SOL     OW30685   0.541   4.893   5.411
 9929SOL    HW130686   0.574   4.978   5.450
 9929SOL    HW230687   0.615   4.825   5.411
 9930SOL     OW30688   6.658   5.421   6.103
 9930SOL    HW130689   6.706   5.508   6.115
 9930SOL    HW230690   6.597   5.405   6.180
 9931SOL     OW30691   1.898   4.892   6.792
 9931SOL    HW130692   1.923   4.835   6.870
 9931SOL    HW230693   1.800   4.913   6.796
 9932SOL     OW30694   2.463   2.648   1.125
 9932SOL    HW130695   2.551   2.619   1.087
 9932SOL    HW230696   2.478   2.707   1.204
 9933SOL     OW30697   1.015   1.419   2.799
 9933SOL    HW130698   0.988   1.381   2.710
 9933SOL    HW230699   0.957   1.382   2.871
 9934SOL     OW30700   5.185   0.280   6.225
 9934SOL    HW130701   5.130   0.363   6.211
 9934SOL    HW230702   5.124   0.202   6.243
 9935SOL     OW30703   2.646   2.869   0.872
 9935SOL    HW130704   2.677   2.801   0.807
 9935SOL    HW230705   2.556   2.903   0.846
 9936SOL     OW30706   5.145   6.387   7.012
 9936SOL    HW130707   5.061   6.414   6.965
 9936SOL    HW230708   5.154   6.440   0.080
 9937SOL     OW30709   1.497   6.675   3.826
 9937SOL    HW130710   1.430   6.602   3.840
 9937SOL    HW230711   1.590   6.636   3.827
 9938SOL     OW30712   6.908   1.220   3.357
 9938SOL    HW130713   6.931   1.283   3.432
 9938SOL    HW230714   6.992   1.175   3.325
 9939SOL     OW30715   2.567   3.838   1.362
 9939SOL    HW130716   2.594   3.826   1.267
 9939SOL    HW230717   2.595   3.928   1.394
 9940SOL     OW30718   0.188   0.358   3.517
 9940SOL    HW130719   0.271   0.363   3.572
 9940SOL    HW230720   0.109   0.352   3.577
 9941SOL     OW30721   5.450   3.557   0.869
 9941SOL    HW130722   5.518   3.589   0.935
 9941SOL    HW230723   5.491   3.486   0.811
 9942SOL     OW30724   6.290   5.444   2.855
 9942SOL    HW130725   6.223   5.493   2.911
 9942SOL    HW230726   6.294   5.348   2.883
 9943SOL     OW30727   1.786   3.954   5.288
 9943SOL    HW130728   1.695   3.957   5.328
 9943SOL    HW230729   1.818   3.859   5.285
 9944SOL     OW30730   2.241   5.442   6.680
 9944SOL    HW130731   2.191   5.404   6.603
 9944SOL    HW230732   2.332   5.469   6.651
 9945SOL     OW30733   6.521   3.458   6.823
 9945SOL    HW130734   6.481   3.368   6.839
 9945SOL    HW230735   6.457   3.529   6.853
 9946SOL     OW30736   5.030   2.695   1.838
 9946SOL    HW130737   5.012   2.598   1.857
 9946SOL    HW230738   5.129   2.710   1.836
 9947SOL     OW30739   1.155   1.155   2.752
 9947SOL    HW130740   1.156   1.250   2.782
 9947SOL    HW230741   1.159   1.151   2.652
 9948SOL     OW30742   5.675   0.816   5.358
 9948SOL    HW130743   5.703   0.909   5.383
 9948SOL    HW230744   5.652   0.765   5.441
 9949SOL     OW30745   6.758   3.504   2.705
 9949SOL    HW130746   6.680   3.541   2.754
 9949SOL    HW230747   6.793   3.423   2.752
 9950SOL     OW30748   4.397   5.234   6.102
 9950SOL    HW130749   4.441   5.265   6.186
 9950SOL    HW230750   4.456   5.251   6.024
 9951SOL     OW30751   0.396   2.324   3.028
 9951SOL    HW130752   0.403   2.365   2.937
 9951SOL    HW230753   0.369   2.228   3.020
 9952SOL     OW30754   1.112   4.848   1.598
 9952SOL    HW130755   1.114   4.793   1.682
 9952SOL    HW230756   1.143   4.792   1.522
 9953SOL     OW30757   6.262   4.611   4.713
 9953SOL    HW130758   6.254   4.512   4.706
 9953SOL    HW230759   6.326   4.635   4.786
 9954SOL     OW30760   4.147   1.469   1.200
 9954SOL    HW130761   4.122   1.379   1.235
 9954SOL    HW230762   4.175   1.462   1.104
 9955SOL     OW30763   6.025   4.983   0.941
 9955SOL    HW130764   6.092   4.908   0.942
 9955SOL    HW230765   6.057   5.057   1.000
 9956SOL     OW30766   1.483   3.221   3.668
 9956SOL    HW130767   1.466   3.161   3.747
 9956SOL    HW230768   1.478   3.316   3.697
 9957SOL     OW30769   5.015   6.991   0.092
 9957SOL    HW130770   5.057   6.961   0.178
 9957SOL    HW230771   5.082   0.026   0.039
 9958SOL     OW30772   5.891   5.897   5.948
 9958SOL    HW130773   5.932   5.950   6.022
 9958SOL    HW230774   5.845   5.959   5.884
 9959SOL     OW30775   5.776   4.668   0.047
 9959SOL    HW130776   5.771   4.571   0.023
 9959SOL    HW230777   5.729   4.722   6.994
 9960SOL     OW30778   6.819   0.475   6.781
 9960SOL    HW130779   6.887   0.462   6.853
 9960SOL    HW230780   6.783   0.568   6.787
 9961SOL     OW30781   3.037   5.972   0.391
 9961SOL    HW130782   3.011   6.007   0.481
 9961SOL    HW230783   3.125   5.926   0.396
 9962SOL     OW30784   3.481   0.691   1.403
 9962SOL    HW130785   3.550   0.618   1.403
 9962SOL    HW230786   3.525   0.779   1.389
 9963SOL     OW30787   1.111   0.506   6.311
 9963SOL    HW130788   1.031   0.542   6.264
 9963SOL    HW230789   1.104   0.528   6.409
 9964SOL     OW30790   4.659   5.128   5.015
 9964SOL    HW130791   4.618   5.127   5.106
 9964SOL    HW230792   4.694   5.037   4.993
 9965SOL     OW30793   2.785   4.769   4.379
 9965SOL    HW130794   2.796   4.778   4.478
 9965SOL    HW230795   2.725   4.691   4.359
 9966SOL     OW30796   3.072   6.040   2.619
 9966SOL    HW130797   3.086   6.128   2.664
 9966SOL    HW230798   2.974   6.020   2.612
 9967SOL     OW30799   0.553   0.384   2.821
 9967SOL    HW130800   0.457   0.378   2.850
 9967SOL    HW230801   0.593   0.468   2.858
 9968SOL     OW30802   4.570   6.668   6.571
 9968SOL    HW130803   4.628   6.729   6.625
 9968SOL    HW230804   4.591   6.573   6.594
 9969SOL     OW30805   7.012   5.711   3.225
 9969SOL    HW130806   6.959   5.719   3.309
 9969SOL    HW230807   6.963   5.652   3.160
 9970SOL     OW30808   6.813   3.320   2.133
 9970SOL    HW130809   6.882   3.270   2.185
 9970SOL    HW230810   6.726   3.271   2.138
 9971SOL     OW30811   0.197   5.206   4.525
 9971SOL    HW130812   0.173   5.204   4.622
 9971SOL    HW230813   0.284   5.254   4.513
 9972SOL     OW30814   2.719   4.652   5.971
 9972SOL    HW130815   2.748   4.600   5.890
 9972SOL    HW230816   2.799   4.683   6.022
 9973SOL     OW30817   3.128   1.910   2.795
 9973SOL    HW130818   3.053   1.845   2.782
 9973SOL    HW230819   3.207   1.862   2.835
 9974SOL     OW30820   0.904   2.510   3.096
 9974SOL    HW130821   0.837   2.441   3.070
 9974SOL    HW230822   0.916   2.509   3.195
 9975SOL     OW30823   2.471   4.312   6.257
 9975SOL    HW130824   2.410   4.237   6.230
 9975SOL    HW230825   2.416   4.392   6.282
 9976SOL     OW30826   3.901   6.230   5.289
 9976SOL    HW130827   3.905   6.317   5.338
 9976SOL    HW230828   3.983   6.176   5.310
 9977SOL     OW30829   4.329   0.383   5.373
 9977SOL    HW130830   4.339   0.435   5.459
 9977SOL    HW230831   4.404   0.407   5.311
 9978SOL     OW30832   0.013   2.788   0.021
 9978SOL    HW130833   6.938   2.756   0.043
 9978SOL    HW230834   0.079   2.742   0.079
 9979SOL     OW30835   3.623   3.807   4.505
 9979SOL    HW130836   3.559   3.806   4.428
 9979SOL    HW230837   3.573   3.803   4.591
 9980SOL     OW30838   0.545   0.839   6.930
 9980SOL    HW130839   0.610   0.905   6.892
 9980SOL    HW230840   0.591   0.783   6.999
 9981SOL     OW30841   5.670   0.768   0.164
 9981SOL    HW130842   5.738   0.697   0.184
 9981SOL    HW230843   5.633   0.804   0.250
 9982SOL     OW30844   2.728   2.404   4.392
 9982SOL    HW130845   2.806   2.376   4.448
 9982SOL    HW230846   2.720   2.344   4.313
 9983SOL     OW30847   0.715   2.912   2.098
 9983SOL    HW130848   0.639   2.866   2.053
 9983SOL    HW230849   0.799   2.898   2.045
 9984SOL     OW30850   0.515   4.615   1.019
 9984SOL    HW130851   0.555   4.667   1.095
 9984SOL    HW230852   0.430   4.659   0.990
 9985SOL     OW30853   4.784   4.519   0.135
 9985SOL    HW130854   4.884   4.517   0.125
 9985SOL    HW230855   4.746   4.433   0.101
 9986SOL     OW30856   5.335   4.946   0.640
 9986SOL    HW130857   5.325   5.022   0.704
 9986SOL    HW230858   5.246   4.905   0.622
 9987SOL     OW30859   5.052   2.137   1.393
 9987SOL    HW130860   5.029   2.090   1.308
 9987SOL    HW230861   5.059   2.070   1.467
 9988SOL     OW30862   6.019   6.619   3.801
 9988SOL    HW130863   6.057   6.709   3.824
 9988SOL    HW230864   6.094   6.552   3.799
 9989SOL     OW30865   6.543   5.427   1.847
 9989SOL    HW130866   6.496   5.511   1.876
 9989SOL    HW230867   6.633   5.451   1.811
 9990SOL     OW30868   0.281   6.085   3.362
 9990SOL    HW130869   0.241   6.124   3.278
 9990SOL    HW230870   0.258   6.144   3.440
 9991SOL     OW30871   2.206   4.251   2.416
 9991SOL    HW130872   2.110   4.278   2.414
 9991SOL    HW230873   2.264   4.332   2.402
 9992SOL     OW30874   2.681   5.384   0.532
 9992SOL    HW130875   2.678   5.321   0.609
 9992SOL    HW230876   2.647   5.473   0.560
 9993SOL     OW30877   4.280   0.202   4.694
 9993SOL    HW130878   4.302   0.105   4.678
 9993SOL    HW230879   4.228   0.211   4.779
 9994SOL     OW30880   6.029   5.229   4.909
 9994SOL    HW130881   6.057   5.217   5.005
 9994SOL    HW230882   6.078   5.165   4.851
 9995SOL     OW30883   4.438   1.805   6.248
 9995SOL    HW130884   4.376   1.842   6.178
 9995SOL    HW230885   4.389   1.798   6.335
 9996SOL     OW30886   3.071   4.280   0.974
 9996SOL    HW130887   3.092   4.182   0.969
 9996SOL    HW230888   3.050   4.305   1.068
 9997SOL     OW30889   6.803   1.346   3.035
 9997SOL    HW130890   6.732   1.278   3.019
 9997SOL    HW230891   6.798   1.416   2.963
 9998SOL     OW30892   5.056   4.026   2.337
 9998SOL    HW130893   5.090   4.110   2.379
 9998SOL    HW230894   4.969   4.045   2.291
 9999SOL     OW30895   0.523   0.002   4.646
 9999SOL    HW130896   0.452   0.066   4.617
 9999SOL    HW230897   0.592   0.051   4.700
10000SOL     OW30898   4.577   2.297   1.311
10000SOL    HW130899   4.509   2.368   1.293
10000SOL    HW230900   4.668   2.329   1.284
10001SOL     OW30901   3.966   6.304   1.729
10001SOL    HW130902   3.998   6.290   1.635
10001SOL    HW230903   3.868   6.324   1.728
10002SOL     OW30904   2.401   6.784   2.025
10002SOL    HW130905   2.390   6.693   2.065
10002SOL    HW230906   2.495   6.797   1.996
10003SOL     OW30907   1.376   1.305   2.572
10003SOL    HW130908   1.331   1.221   2.544
10003SOL    HW230909   1.463   1.314   2.524
10004SOL     OW30910   0.216   4.130   3.667
10004SOL    HW130911   0.307   4.163   3.641
10004SOL    HW230912   0.201   4.149   3.764
10005SOL     OW30913   2.576   5.768   3.236
10005SOL    HW130914   2.637   5.688   3.233
10005SOL    HW230915   2.501   5.750   3.299
10006SOL     OW30916   5.066   1.603   5.285
10006SOL    HW130917   5.118   1.610   5.201
10006SOL    HW230918   5.019   1.689   5.304
10007SOL     OW30919   1.635   5.253   3.995
10007SOL    HW130920   1.700   5.191   4.040
10007SOL    HW230921   1.628   5.229   3.898
10008SOL     OW30922   4.490   1.084   6.042
10008SOL    HW130923   4.390   1.090   6.049
10008SOL    HW230924   4.514   1.012   5.976
10009SOL     OW30925   0.631   4.870   2.168
10009SOL    HW130926   0.666   4.891   2.259
10009SOL    HW230927   0.674   4.930   2.101
10010SOL     OW30928   1.932   4.410   1.403
10010SOL    HW130929   1.944   4.490   1.343
10010SOL    HW230930   1.962   4.328   1.355
10011SOL     OW30931   2.971   2.996   0.255
10011SOL    HW130932   2.921   3.075   0.292
10011SOL    HW230933   3.043   2.970   0.319
10012SOL     OW30934   5.368   1.994   3.502
10012SOL    HW130935   5.317   2.033   3.579
10012SOL    HW230936   5.435   2.060   3.469
10013SOL     OW30937   0.672   6.469   4.529
10013SOL    HW130938   0.626   6.497   4.445
10013SOL    HW230939   0.604   6.461   4.602
10014SOL     OW30940   1.256   0.803   3.244
10014SOL    HW130941   1.349   0.832   3.220
10014SOL    HW230942   1.255   0.770   3.338
10015SOL     OW30943   4.011   6.874   6.463
10015SOL    HW130944   3.951   6.811   6.413
10015SOL    HW230945   4.106   6.844   6.455
10016SOL     OW30946   2.582   1.271   4.583
10016SOL    HW130947   2.627   1.344   4.635
10016SOL    HW230948   2.482   1.281   4.594
10017SOL     OW30949   3.126   1.644   2.575
10017SOL    HW130950   3.085   1.603   2.494
10017SOL    HW230951   3.054   1.676   2.637
10018SOL     OW30952   0.036   3.935   5.269
10018SOL    HW130953   6.959   3.962   5.287
10018SOL    HW230954   0.075   3.894   5.352
10019SOL     OW30955   6.932   2.144   1.935
10019SOL    HW130956   6.996   2.166   1.861
10019SOL    HW230957   6.933   2.046   1.951
10020SOL     OW30958   6.797   1.249   2.079
10020SOL    HW130959   6.849   1.164   2.081
10020SOL    HW230960   6.701   1.228   2.058
10021SOL     OW30961   0.790   3.155   1.871
10021SOL    HW130962   0.820   3.081   1.931
10021SOL    HW230963   0.860   3.226   1.869
10022SOL     OW30964   1.447   6.312   5.665
10022SOL    HW130965   1.472   6.240   5.730
10022SOL    HW230966   1.444   6.400   5.712
10023SOL     OW30967   0.189   1.818   5.931
10023SOL    HW130968   0.224   1.744   5.874
10023SOL    HW230969   0.183   1.787   6.026
10024SOL     OW30970   2.026   4.142   2.981
10024SOL    HW130971   1.939   4.107   3.016
10024SOL    HW230972   2.019   4.152   2.881
10025SOL     OW30973   1.044   3.187   1.190
10025SOL    HW130974   1.094   3.127   1.253
10025SOL    HW230975   1.053   3.152   1.097
10026SOL     OW30976   5.591   1.187   5.283
10026SOL    HW130977   5.677   1.234   5.305
10026SOL    HW230978   5.524   1.253   5.252
10027SOL     OW30979   3.499   1.559   5.152
10027SOL    HW130980   3.414   1.521   5.117
10027SOL    HW230981   3.576   1.528   5.096
10028SOL     OW30982   4.338   6.909   2.083
10028SOL    HW130983   4.248   6.930   2.120
10028SOL    HW230984   4.406   6.918   2.156
10029SOL     OW30985   0.054   4.451   4.099
10029SOL    HW130986   0.056   4.542   4.142
10029SOL    HW230987   0.086   4.458   4.005
10030SOL     OW30988   2.528   0.113   4.405
10030SOL    HW130989   2.498   0.203   4.371
10030SOL    HW230990   2.453   0.070   4.455
10031SOL     OW30991   2.057   6.148   2.978
10031SOL    HW130992   2.137   6.089   2.988
10031SOL    HW230993   2.008   6.153   3.065
10032SOL     OW30994   3.274   6.048   4.903
10032SOL    HW130995   3.185   6.038   4.948
10032SOL    HW230996   3.288   5.972   4.839
10033SOL     OW30997   3.551   1.136   5.193
10033SOL    HW130998   3.622   1.071   5.167
10033SOL    HW230999   3.501   1.101   5.272
10034SOL     OW31000   2.602   1.216   2.504
10034SOL    HW131001   2.573   1.308   2.481
10034SOL    HW231002   2.610   1.161   2.421
10035SOL     OW31003   6.617   3.075   2.386
10035SOL    HW131004   6.572   3.162   2.367
10035SOL    HW231005   6.709   3.092   2.422
10036SOL     OW31006   1.040   1.225   6.710
10036SOL    HW131007   1.007   1.298   6.769
10036SOL    HW231008   1.122   1.256   6.661
10037SOL     OW31009   5.390   6.399   6.241
10037SOL    HW131010   5.401   6.356   6.331
10037SOL    HW231011   5.412   6.496   6.248
10038SOL     OW31012   4.793   6.437   6.621
10038SOL    HW131013   4.882   6.467   6.588
10038SOL    HW231014   4.742   6.394   6.546
10039SOL     OW31015   0.386   6.008   2.049
10039SOL    HW131016   0.383   6.004   1.949
10039SOL    HW231017   0.301   6.049   2.083
10040SOL     OW31018   2.353   0.050   0.571
10040SOL    HW131019   2.434   0.056   0.630
10040SOL    HW231020   2.284   7.010   0.614
10041SOL     OW31021   5.491   5.691   4.932
10041SOL    HW131022   5.523   5.680   5.026
10041SOL    HW231023   5.408   5.636   4.918
10042SOL     OW31024   6.578   0.627   5.271
10042SOL    HW131025   6.539   0.542   5.307
10042SOL    HW231026   6.536   0.705   5.317
10043SOL     OW31027   0.681   0.556   3.754
10043SOL    HW131028   0.759   0.619   3.744
10043SOL    HW231029   0.654   0.552   3.850
10044SOL     OW31030   2.964   1.880   0.433
10044SOL    HW131031   3.001   1.972   0.443
10044SOL    HW231032   2.906   1.876   0.352
10045SOL     OW31033   4.050   6.710   4.750
10045SOL    HW131034   3.976   6.652   4.786
10045SOL    HW231035   4.024   6.744   4.660
10046SOL     OW31036   6.111   2.423   1.689
10046SOL    HW131037   6.179   2.421   1.617
10046SOL    HW231038   6.064   2.511   1.690
10047SOL     OW31039   0.272   2.248   3.337
10047SOL    HW131040   0.351   2.283   3.389
10047SOL    HW231041   0.304   2.184   3.267
10048SOL     OW31042   3.660   2.555   1.730
10048SOL    HW131043   3.750   2.599   1.721
10048SOL    HW231044   3.669   2.473   1.787
10049SOL     OW31045   1.974   6.429   4.272
10049SOL    HW131046   2.021   6.343   4.292
10049SOL    HW231047   1.948   6.431   4.176
10050SOL     OW31048   5.439   1.472   4.446
10050SOL    HW131049   5.504   1.437   4.514
10050SOL    HW231050   5.471   1.449   4.354
10051SOL     OW31051   6.379   1.844   7.017
10051SOL    HW131052   6.394   1.913   0.070
10051SOL    HW231053   6.285   1.849   6.984
10052SOL     OW31054   1.360   4.426   1.998
10052SOL    HW131055   1.270   4.431   1.956
10052SOL    HW231056   1.401   4.337   1.979
10053SOL     OW31057   3.133   6.746   3.245
10053SOL    HW131058   3.138   6.811   3.321
10053SOL    HW231059   3.207   6.765   3.180
10054SOL     OW31060   4.603   5.803   4.063
10054SOL    HW131061   4.613   5.902   4.069
10054SOL    HW231062   4.671   5.758   4.121
10055SOL     OW31063   6.478   3.277   6.557
10055SOL    HW131064   6.380   3.287   6.542
10055SOL    HW231065   6.511   3.349   6.618
10056SOL     OW31066   6.663   4.831   1.944
10056SOL    HW131067   6.601   4.909   1.956
10056SOL    HW231068   6.652   4.767   2.019
10057SOL     OW31069   2.504   2.176   3.734
10057SOL    HW131070   2.589   2.132   3.762
10057SOL    HW231071   2.438   2.172   3.809
10058SOL     OW31072   0.829   4.337   3.887
10058SOL    HW131073   0.900   4.297   3.829
10058SOL    HW231074   0.798   4.424   3.848
10059SOL     OW31075   5.801   6.698   1.450
10059SOL    HW131076   5.821   6.724   1.355
10059SOL    HW231077   5.748   6.770   1.493
10060SOL     OW31078   2.257   2.791   2.417
10060SOL    HW131079   2.316   2.715   2.391
10060SOL    HW231080   2.163   2.759   2.427
10061SOL     OW31081   6.148   2.047   4.925
10061SOL    HW131082   6.107   2.134   4.899
10061SOL    HW231083   6.089   2.001   4.991
10062SOL     OW31084   5.833   5.401   3.353
10062SOL    HW131085   5.769   5.472   3.384
10062SOL    HW231086   5.801   5.312   3.386
10063SOL     OW31087   1.023   2.707   2.932
10063SOL    HW131088   1.115   2.668   2.934
10063SOL    HW231089   0.963   2.654   2.992
10064SOL     OW31090   5.563   6.162   5.173
10064SOL    HW131091   5.526   6.089   5.117
10064SOL    HW231092   5.639   6.127   5.227
10065SOL     OW31093   0.348   6.507   3.288
10065SOL    HW131094   0.379   6.488   3.381
10065SOL    HW231095   0.251   6.483   3.280
10066SOL     OW31096   0.599   0.601   3.484
10066SOL    HW131097   0.564   0.694   3.491
10066SOL    HW231098   0.644   0.577   3.570
10067SOL     OW31099   4.666   6.746   3.297
10067SOL    HW131100   4.680   6.825   3.237
10067SOL    HW231101   4.736   6.747   3.368
10068SOL     OW31102   4.943   3.710   5.808
10068SOL    HW131103   4.854   3.755   5.795
10068SOL    HW231104   4.960   3.646   5.733
10069SOL     OW31105   4.653   1.162   3.635
10069SOL    HW131106   4.751   1.178   3.619
10069SOL    HW231107   4.606   1.250   3.637
10070SOL     OW31108   0.911   6.632   4.468
10070SOL    HW131109   0.831   6.572   4.476
10070SOL    HW231110   0.965   6.626   4.552
10071SOL     OW31111   5.261   5.213   5.008
10071SOL    HW131112   5.170   5.236   5.041
10071SOL    HW231113   5.319   5.186   5.086
10072SOL     OW31114   0.972   6.827   3.652
10072SOL    HW131115   1.054   6.808   3.707
10072SOL    HW231116   0.986   6.910   3.599
10073SOL     OW31117   0.646   5.026   6.681
10073SOL    HW131118   0.626   5.085   6.759
10073SOL    HW231119   0.616   4.933   6.702
10074SOL     OW31120   2.541   6.614   5.636
10074SOL    HW131121   2.507   6.531   5.680
10074SOL    HW231122   2.479   6.690   5.656
10075SOL     OW31123   1.643   2.534   3.857
10075SOL    HW131124   1.687   2.623   3.864
10075SOL    HW231125   1.587   2.518   3.938
10076SOL     OW31126   5.302   0.485   4.554
10076SOL    HW131127   5.374   0.548   4.582
10076SOL    HW231128   5.338   0.392   4.553
10077SOL     OW31129   3.314   1.040   6.834
10077SOL    HW131130   3.377   1.099   6.784
10077SOL    HW231131   3.264   0.983   6.769
10078SOL     OW31132   5.653   6.373   5.360
10078SOL    HW131133   5.593   6.318   5.302
10078SOL    HW231134   5.684   6.319   5.438
10079SOL     OW31135   6.421   3.239   6.226
10079SOL    HW131136   6.498   3.180   6.252
10079SOL    HW231137   6.383   3.283   6.307
10080SOL     OW31138   1.291   2.489   6.436
10080SOL    HW131139   1.304   2.550   6.357
10080SOL    HW231140   1.267   2.398   6.403
10081SOL     OW31141   0.328   1.043   6.825
10081SOL    HW131142   0.407   1.029   6.765
10081SOL    HW231143   0.246   1.003   6.783
10082SOL     OW31144   6.508   0.920   0.716
10082SOL    HW131145   6.456   0.917   0.801
10082SOL    HW231146   6.490   1.007   0.669
10083SOL     OW31147   4.984   1.252   4.395
10083SOL    HW131148   5.018   1.159   4.410
10083SOL    HW231149   5.000   1.279   4.301
10084SOL     OW31150   2.394   1.022   6.358
10084SOL    HW131151   2.378   0.992   6.264
10084SOL    HW231152   2.326   1.091   6.383
10085SOL     OW31153   0.788   5.411   2.476
10085SOL    HW131154   0.766   5.398   2.379
10085SOL    HW231155   0.849   5.490   2.486
10086SOL     OW31156   6.511   3.801   2.204
10086SOL    HW131157   6.600   3.836   2.175
10086SOL    HW231158   6.439   3.849   2.155
10087SOL     OW31159   1.605   0.146   3.765
10087SOL    HW131160   1.602   0.116   3.861
10087SOL    HW231161   1.513   0.142   3.726
10088SOL     OW31162   6.857   0.295   5.087
10088SOL    HW131163   6.831   0.391   5.091
10088SOL    HW231164   6.956   0.287   5.099
10089SOL     OW31165   1.723   3.143   2.227
10089SOL    HW131166   1.801   3.091   2.262
10089SOL    HW231167   1.638   3.106   2.265
10090SOL     OW31168   0.536   4.267   1.596
10090SOL    HW131169   0.528   4.230   1.688
10090SOL    HW231170   0.609   4.220   1.547
10091SOL     OW31171   0.603   2.382   4.365
10091SOL    HW131172   0.656   2.309   4.322
10091SOL    HW231173   0.537   2.419   4.300
10092SOL     OW31174   1.873   3.243   4.774
10092SOL    HW131175   1.852   3.153   4.812
10092SOL    HW231176   1.867   3.239   4.674
10093SOL     OW31177   6.796   5.193   6.386
10093SOL    HW131178   6.856   5.157   6.315
10093SOL    HW231179   6.826   5.159   6.475
10094SOL     OW31180   1.716   1.148   1.903
10094SOL    HW131181   1.794   1.174   1.846
10094SOL    HW231182   1.634   1.140   1.845
10095SOL     OW31183   0.429   1.084   6.136
10095SOL    HW131184   0.417   1.145   6.058
10095SOL    HW231185   0.501   1.017   6.116
10096SOL     OW31186   0.478   4.584   1.884
10096SOL    HW131187   0.518   4.556   1.796
10096SOL    HW231188   0.430   4.671   1.873
10097SOL     OW31189   1.006   2.411   6.518
10097SOL    HW131190   1.013   2.484   6.451
10097SOL    HW231191   0.929   2.351   6.495
10098SOL     OW31192   3.288   4.702   6.716
10098SOL    HW131193   3.209   4.748   6.676
10098SOL    HW231194   3.261   4.612   6.750
10099SOL     OW31195   6.544   4.528   4.602
10099SOL    HW131196   6.558   4.482   4.689
10099SOL    HW231197   6.629   4.575   4.575
10100SOL     OW31198   5.415   0.776   5.556
10100SOL    HW131199   5.336   0.717   5.544
10100SOL    HW231200   5.493   0.722   5.588
10101SOL     OW31201   0.078   4.825   2.070
10101SOL    HW131202   0.093   4.770   2.152
10101SOL    HW231203   0.163   4.871   2.044
10102SOL     OW31204   4.161   1.205   2.926
10102SOL    HW131205   4.074   1.199   2.878
10102SOL    HW231206   4.153   1.164   3.016
10103SOL     OW31207   2.523   1.951   0.205
10103SOL    HW131208   2.500   1.926   0.299
10103SOL    HW231209   2.622   1.960   0.197
10104SOL     OW31210   1.795   5.759   5.202
10104SOL    HW131211   1.698   5.779   5.196
10104SOL    HW231212   1.841   5.833   5.252
10105SOL     OW31213   3.049   0.475   6.561
10105SOL    HW131214   3.089   0.398   6.612
10105SOL    HW231215   3.007   0.441   6.477
10106SOL     OW31216   5.527   5.561   0.333
10106SOL    HW131217   5.533   5.621   0.253
10106SOL    HW231218   5.505   5.468   0.303
10107SOL     OW31219   5.632   0.666   5.981
10107SOL    HW131220   5.662   0.744   5.925
10107SOL    HW231221   5.607   0.699   6.072
10108SOL     OW31222   5.881   6.290   6.905
10108SOL    HW131223   5.901   6.205   6.857
10108SOL    HW231224   5.787   6.319   6.884
10109SOL     OW31225   4.829   5.200   3.324
10109SOL    HW131226   4.767   5.222   3.400
10109SOL    HW231227   4.922   5.186   3.360
10110SOL     OW31228   3.447   1.624   5.760
10110SOL    HW131229   3.543   1.598   5.770
10110SOL    HW231230   3.426   1.698   5.823
10111SOL     OW31231   0.676   2.719   2.713
10111SOL    HW131232   0.658   2.742   2.809
10111SOL    HW231233   0.628   2.783   2.654
10112SOL     OW31234   4.122   4.166   6.251
10112SOL    HW131235   4.083   4.086   6.206
10112SOL    HW231236   4.186   4.137   6.322
10113SOL     OW31237   3.412   6.564   0.115
10113SOL    HW131238   3.426   6.581   0.213
10113SOL    HW231239   3.466   6.629   0.062
10114SOL     OW31240   4.130   1.941   1.325
10114SOL    HW131241   4.172   1.854   1.349
10114SOL    HW231242   4.031   1.931   1.322
10115SOL     OW31243   0.883   1.982   4.010
10115SOL    HW131244   0.854   1.887   4.018
10115SOL    HW231245   0.831   2.027   3.938
10116SOL     OW31246   0.818   0.905   1.034
10116SOL    HW131247   0.745   0.882   0.969
10116SOL    HW231248   0.785   0.890   1.127
10117SOL     OW31249   5.134   0.608   5.862
10117SOL    HW131250   5.141   0.686   5.800
10117SOL    HW231251   5.050   0.557   5.843
10118SOL     OW31252   6.810   4.964   2.626
10118SOL    HW131253   6.798   4.989   2.722
10118SOL    HW231254   6.743   5.013   2.570
10119SOL     OW31255   2.565   0.145   5.484
10119SOL    HW131256   2.596   0.235   5.515
10119SOL    HW231257   2.513   0.155   5.400
10120SOL     OW31258   6.046   2.713   3.842
10120SOL    HW131259   6.094   2.712   3.754
10120SOL    HW231260   6.045   2.806   3.879
10121SOL     OW31261   6.202   4.976   4.177
10121SOL    HW131262   6.269   5.009   4.244
10121SOL    HW231263   6.155   5.054   4.136
10122SOL     OW31264   5.421   3.036   0.294
10122SOL    HW131265   5.510   3.077   0.273
10122SOL    HW231266   5.394   3.061   0.387
10123SOL     OW31267   0.056   6.929   0.276
10123SOL    HW131268   0.108   6.938   0.191
10123SOL    HW231269   6.979   6.960   0.261
10124SOL     OW31270   2.922   4.339   0.721
10124SOL    HW131271   2.986   4.406   0.759
10124SOL    HW231272   2.927   4.255   0.774
10125SOL     OW31273   1.032   0.363   1.252
10125SOL    HW131274   0.979   0.421   1.190
10125SOL    HW231275   1.047   0.411   1.338
10126SOL     OW31276   5.836   5.011   0.176
10126SOL    HW131277   5.780   4.932   0.153
10126SOL    HW231278   5.906   4.984   0.242
10127SOL     OW31279   3.436   4.499   5.356
10127SOL    HW131280   3.439   4.405   5.323
10127SOL    HW231281   3.529   4.534   5.364
10128SOL     OW31282   0.178   2.012   1.523
10128SOL    HW131283   0.164   1.971   1.433
10128SOL    HW231284   0.254   2.077   1.519
10129SOL     OW31285   5.335   2.449   3.220
10129SOL    HW131286   5.261   2.512   3.243
10129SOL    HW231287   5.296   2.361   3.191
10130SOL     OW31288   6.750   5.205   1.925
10130SOL    HW131289   6.829   5.146   1.938
10130SOL    HW231290   6.775   5.283   1.868
10131SOL     OW31291   6.483   0.917   1.017
10131SOL    HW131292   6.527   0.854   1.081
10131SOL    HW231293   6.468   1.005   1.062
10132SOL     OW31294   3.094   0.192   2.682
10132SOL    HW131295   3.048   0.118   2.632
10132SOL    HW231296   3.149   0.153   2.756
10133SOL     OW31297   4.937   5.385   3.179
10133SOL    HW131298   5.026   5.345   3.159
10133SOL    HW231299   4.873   5.313   3.204
10134SOL     OW31300   0.250   1.342   2.250
10134SOL    HW131301   0.252   1.400   2.332
10134SOL    HW231302   0.298   1.256   2.269
10135SOL     OW31303   3.404   5.952   3.075
10135SOL    HW131304   3.495   5.991   3.089
10135SOL    HW231305   3.352   5.956   3.160
10136SOL     OW31306   6.330   6.876   2.257
10136SOL    HW131307   6.384   6.959   2.244
10136SOL    HW231308   6.247   6.882   2.201
10137SOL     OW31309   5.887   5.146   4.520
10137SOL    HW131310   5.789   5.137   4.538
10137SOL    HW231311   5.922   5.062   4.479
10138SOL     OW31312   5.723   2.382   6.746
10138SOL    HW131313   5.738   2.323   6.666
10138SOL    HW231314   5.759   2.336   6.827
10139SOL     OW31315   3.781   2.959   3.248
10139SOL    HW131316   3.750   2.864   3.249
10139SOL    HW231317   3.726   3.013   3.313
10140SOL     OW31318   0.591   4.610   5.322
10140SOL    HW131319   0.514   4.606   5.385
10140SOL    HW231320   0.559   4.594   5.229
10141SOL     OW31321   2.077   0.364   4.106
10141SOL    HW131322   2.123   0.378   4.019
10141SOL    HW231323   1.979   0.353   4.091
10142SOL     OW31324   5.129   6.018   4.509
10142SOL    HW131325   5.083   5.929   4.506
10142SOL    HW231326   5.180   6.031   4.424
10143SOL     OW31327   5.400   6.048   1.225
10143SOL    HW131328   5.463   6.063   1.300
10143SOL    HW231329   5.442   5.985   1.158
10144SOL     OW31330   2.861   5.100   3.371
10144SOL    HW131331   2.923   5.087   3.448
10144SOL    HW231332   2.767   5.093   3.403
10145SOL     OW31333   2.933   6.316   6.014
10145SOL    HW131334   2.935   6.219   6.038
10145SOL    HW231335   3.027   6.352   6.012
10146SOL     OW31336   5.160   4.759   4.663
10146SOL    HW131337   5.165   4.815   4.581
10146SOL    HW231338   5.077   4.782   4.714
10147SOL     OW31339   5.351   4.944   4.611
10147SOL    HW131340   5.337   4.867   4.673
10147SOL    HW231341   5.390   5.021   4.662
10148SOL     OW31342   5.595   5.037   0.816
10148SOL    HW131343   5.542   5.120   0.836
10148SOL    HW231344   5.632   5.043   0.723
10149SOL     OW31345   3.858   3.669   0.981
10149SOL    HW131346   3.806   3.754   0.995
10149SOL    HW231347   3.918   3.654   1.060
10150SOL     OW31348   4.784   4.651   1.420
10150SOL    HW131349   4.791   4.701   1.506
10150SOL    HW231350   4.847   4.691   1.353
10151SOL     OW31351   1.488   6.580   5.443
10151SOL    HW131352   1.585   6.603   5.430
10151SOL    HW231353   1.468   6.494   5.397
10152SOL     OW31354   0.360   5.174   3.632
10152SOL    HW131355   0.441   5.118   3.648
10152SOL    HW231356   0.348   5.190   3.534
10153SOL     OW31357   5.367   6.795   3.594
10153SOL    HW131358   5.461   6.778   3.623
10153SOL    HW231359   5.353   6.760   3.502
10154SOL     OW31360   6.386   5.539   5.537
10154SOL    HW131361   6.339   5.530   5.449
10154SOL    HW231362   6.484   5.527   5.523
10155SOL     OW31363   3.739   1.613   6.513
10155SOL    HW131364   3.801   1.611   6.435
10155SOL    HW231365   3.720   1.708   6.538
10156SOL     OW31366   5.742   0.227   2.467
10156SOL    HW131367   5.842   0.228   2.472
10156SOL    HW231368   5.711   0.149   2.413
10157SOL     OW31369   5.204   0.707   6.087
10157SOL    HW131370   5.191   0.656   6.002
10157SOL    HW231371   5.272   0.779   6.073
10158SOL     OW31372   4.262   3.822   6.429
10158SOL    HW131373   4.247   3.919   6.443
10158SOL    HW231374   4.303   3.806   6.339
10159SOL     OW31375   1.227   1.100   6.385
10159SOL    HW131376   1.326   1.087   6.386
10159SOL    HW231377   1.181   1.013   6.400
10160SOL     OW31378   0.953   5.801   3.336
10160SOL    HW131379   0.863   5.834   3.309
10160SOL    HW231380   0.945   5.742   3.416
10161SOL     OW31381   2.347   5.830   5.788
10161SOL    HW131382   2.432   5.880   5.808
10161SOL    HW231383   2.293   5.883   5.723
10162SOL     OW31384   3.235   1.975   0.034
10162SOL    HW131385   3.156   1.960   6.992
10162SOL    HW231386   3.309   2.016   6.997
10163SOL     OW31387   6.463   2.843   5.652
10163SOL    HW131388   6.474   2.818   5.749
10163SOL    HW231389   6.538   2.805   5.599
10164SOL     OW31390   0.794   2.603   5.496
10164SOL    HW131391   0.888   2.636   5.492
10164SOL    HW231392   0.792   2.510   5.533
10165SOL     OW31393   6.630   2.050   3.302
10165SOL    HW131394   6.656   2.146   3.308
10165SOL    HW231395   6.565   2.028   3.375
10166SOL     OW31396   1.076   0.889   2.231
10166SOL    HW131397   1.136   0.816   2.264
10166SOL    HW231398   1.129   0.952   2.174
10167SOL     OW31399   4.350   0.835   0.201
10167SOL    HW131400   4.323   0.796   0.290
10167SOL    HW231401   4.439   0.878   0.210
10168SOL     OW31402   6.729   4.110   4.300
10168SOL    HW131403   6.827   4.108   4.277
10168SOL    HW231404   6.707   4.197   4.344
10169SOL     OW31405   6.322   4.276   4.256
10169SOL    HW131406   6.363   4.288   4.166
10169SOL    HW231407   6.230   4.313   4.257
10170SOL     OW31408   1.549   4.062   4.380
10170SOL    HW131409   1.601   4.014   4.310
10170SOL    HW231410   1.484   3.999   4.422
10171SOL     OW31411   5.972   3.271   6.078
10171SOL    HW131412   6.027   3.251   5.997
10171SOL    HW231413   5.881   3.302   6.049
10172SOL     OW31414   4.924   1.751   3.343
10172SOL    HW131415   4.994   1.732   3.274
10172SOL    HW231416   4.914   1.849   3.355
10173SOL     OW31417   2.275   1.549   2.096
10173SOL    HW131418   2.371   1.574   2.114
10173SOL    HW231419   2.269   1.450   2.082
10174SOL     OW31420   6.248   4.813   0.962
10174SOL    HW131421   6.295   4.725   0.955
10174SOL    HW231422   6.315   4.886   0.975
10175SOL     OW31423   6.039   2.258   6.301
10175SOL    HW131424   6.030   2.255   6.202
10175SOL    HW231425   6.111   2.324   6.326
10176SOL     OW31426   2.415   4.374   0.181
10176SOL    HW131427   2.489   4.311   0.204
10176SOL    HW231428   2.340   4.364   0.247
10177SOL     OW31429   1.600   0.079   6.180
10177SOL    HW131430   1.630   0.131   6.100
10177SOL    HW231431   1.504   0.054   6.170
10178SOL     OW31432   5.657   2.405   4.389
10178SOL    HW131433   5.594   2.435   4.317
10178SOL    HW231434   5.720   2.336   4.352
10179SOL     OW31435   1.445   3.255   6.996
10179SOL    HW131436   1.366   3.296   6.951
10179SOL    HW231437   1.420   3.227   0.072
10180SOL     OW31438   2.592   6.368   5.244
10180SOL    HW131439   2.496   6.341   5.253
10180SOL    HW231440   2.633   6.376   5.335
10181SOL     OW31441   5.482   3.275   1.113
10181SOL    HW131442   5.414   3.248   1.045
10181SOL    HW231443   5.565   3.220   1.101
10182SOL     OW31444   5.435   1.104   0.758
10182SOL    HW131445   5.501   1.030   0.750
10182SOL    HW231446   5.370   1.084   0.831
10183SOL     OW31447   1.537   2.011   6.475
10183SOL    HW131448   1.607   2.073   6.509
10183SOL    HW231449   1.467   1.998   6.545
10184SOL     OW31450   4.245   0.746   6.009
10184SOL    HW131451   4.205   0.663   6.047
10184SOL    HW231452   4.210   0.761   5.916
10185SOL     OW31453   4.873   0.464   6.883
10185SOL    HW131454   4.964   0.426   6.870
10185SOL    HW231455   4.880   0.558   6.916
10186SOL     OW31456   4.272   2.287   3.283
10186SOL    HW131457   4.294   2.333   3.197
10186SOL    HW231458   4.352   2.290   3.344
10187SOL     OW31459   1.210   1.932   2.340
10187SOL    HW131460   1.159   2.017   2.328
10187SOL    HW231461   1.156   1.869   2.396
10188SOL     OW31462   3.434   5.430   1.248
10188SOL    HW131463   3.524   5.462   1.221
10188SOL    HW231464   3.390   5.384   1.171
10189SOL     OW31465   1.269   6.569   5.123
10189SOL    HW131466   1.244   6.484   5.078
10189SOL    HW231467   1.363   6.593   5.099
10190SOL     OW31468   5.593   2.532   0.410
10190SOL    HW131469   5.640   2.560   0.325
10190SOL    HW231470   5.641   2.571   0.488
10191SOL     OW31471   6.390   4.567   0.079
10191SOL    HW131472   6.446   4.531   0.154
10191SOL    HW231473   6.299   4.526   0.083
10192SOL     OW31474   3.165   1.157   6.361
10192SOL    HW131475   3.264   1.153   6.367
10192SOL    HW231476   3.138   1.234   6.303
10193SOL     OW31477   4.351   3.982   0.315
10193SOL    HW131478   4.393   3.895   0.341
10193SOL    HW231479   4.342   4.040   0.396
10194SOL     OW31480   5.019   3.485   5.933
10194SOL    HW131481   5.116   3.461   5.936
10194SOL    HW231482   5.009   3.585   5.936
10195SOL     OW31483   6.479   4.001   1.777
10195SOL    HW131484   6.475   4.100   1.759
10195SOL    HW231485   6.393   3.959   1.750
10196SOL     OW31486   0.808   1.796   4.890
10196SOL    HW131487   0.875   1.871   4.888
10196SOL    HW231488   0.729   1.824   4.945
10197SOL     OW31489   5.729   0.680   6.494
10197SOL    HW131490   5.812   0.668   6.549
10197SOL    HW231491   5.651   0.641   6.543
10198SOL     OW31492   3.851   0.040   3.777
10198SOL    HW131493   3.878   6.988   3.710
10198SOL    HW231494   3.932   0.076   3.823
10199SOL     OW31495   1.128   2.471   5.380
10199SOL    HW131496   1.102   2.551   5.435
10199SOL    HW231497   1.226   2.476   5.358
10200SOL     OW31498   5.696   2.379   1.324
10200SOL    HW131499   5.614   2.380   1.382
10200SOL    HW231500   5.776   2.360   1.379
10201SOL     OW31501   0.912   3.508   0.885
10201SOL    HW131502   0.925   3.575   0.812
10201SOL    HW231503   0.843   3.441   0.858
10202SOL     OW31504   4.155   0.779   4.375
10202SOL    HW131505   4.250   0.809   4.372
10202SOL    HW231506   4.095   0.858   4.379
10203SOL     OW31507   6.615   3.021   4.646
10203SOL    HW131508   6.569   3.033   4.558
10203SOL    HW231509   6.547   2.999   4.716
10204SOL     OW31510   5.755   5.253   6.420
10204SOL    HW131511   5.677   5.198   6.391
10204SOL    HW231512   5.807   5.282   6.340
10205SOL     OW31513   1.441   0.845   5.708
10205SOL    HW131514   1.463   0.805   5.619
10205SOL    HW231515   1.463   0.942   5.708
10206SOL     OW31516   1.477   1.016   4.639
10206SOL    HW131517   1.560   1.065   4.664
10206SOL    HW231518   1.459   0.945   4.708
10207SOL     OW31519   1.961   2.267   5.145
10207SOL    HW131520   2.006   2.349   5.181
10207SOL    HW231521   2.011   2.186   5.175
10208SOL     OW31522   6.649   5.422   5.524
10208SOL    HW131523   6.700   5.409   5.609
10208SOL    HW231524   6.712   5.426   5.447
10209SOL     OW31525   0.075   0.070   5.373
10209SOL    HW131526   7.016   0.009   5.350
10209SOL    HW231527   0.049   0.164   5.353
10210SOL     OW31528   2.973   6.863   1.717
10210SOL    HW131529   2.930   6.950   1.742
10210SOL    HW231530   2.927   6.788   1.765
10211SOL     OW31531   5.428   5.746   6.002
10211SOL    HW131532   5.392   5.813   5.937
10211SOL    HW231533   5.449   5.791   6.088
10212SOL     OW31534   0.374   0.746   6.462
10212SOL    HW131535   0.384   0.705   6.552
10212SOL    HW231536   0.462   0.747   6.415
10213SOL     OW31537   6.558   1.753   1.056
10213SOL    HW131538   6.477   1.699   1.037
10213SOL    HW231539   6.553   1.792   1.147
10214SOL     OW31540   0.833   2.280   0.426
10214SOL    HW131541   0.877   2.269   0.337
10214SOL    HW231542   0.822   2.378   0.445
10215SOL     OW31543   3.100   3.328   2.072
10215SOL    HW131544   3.168   3.401   2.082
10215SOL    HW231545   3.035   3.333   2.148
10216SOL     OW31546   0.526   6.303   2.064
10216SOL    HW131547   0.501   6.326   2.158
10216SOL    HW231548   0.515   6.205   2.050
10217SOL     OW31549   3.655   1.214   4.579
10217SOL    HW131550   3.589   1.141   4.563
10217SOL    HW231551   3.623   1.298   4.534
10218SOL     OW31552   1.565   2.963   2.383
10218SOL    HW131553   1.627   2.898   2.340
10218SOL    HW231554   1.480   2.917   2.408
10219SOL     OW31555   6.763   6.086   3.289
10219SOL    HW131556   6.723   5.994   3.288
10219SOL    HW231557   6.802   6.106   3.200
10220SOL     OW31558   3.484   2.873   0.588
10220SOL    HW131559   3.514   2.812   0.515
10220SOL    HW231560   3.501   2.968   0.561
10221SOL     OW31561   0.955   4.986   4.183
10221SOL    HW131562   0.946   5.059   4.117
10221SOL    HW231563   0.966   4.899   4.136
10222SOL     OW31564   3.141   3.447   4.391
10222SOL    HW131565   3.101   3.397   4.314
10222SOL    HW231566   3.217   3.395   4.429
10223SOL     OW31567   1.036   6.039   0.754
10223SOL    HW131568   1.031   5.994   0.665
10223SOL    HW231569   1.056   6.136   0.742
10224SOL     OW31570   6.029   4.070   2.952
10224SOL    HW131571   6.009   4.126   3.033
10224SOL    HW231572   5.969   4.097   2.877
10225SOL     OW31573   2.337   3.956   5.659
10225SOL    HW131574   2.409   3.945   5.590
10225SOL    HW231575   2.355   3.894   5.735
10226SOL     OW31576   5.035   2.927   0.290
10226SOL    HW131577   4.949   2.936   0.240
10226SOL    HW231578   5.034   2.988   0.369
10227SOL     OW31579   5.312   3.490   1.088
10227SOL    HW131580   5.347   3.532   1.004
10227SOL    HW231581   5.375   3.417   1.117
10228SOL     OW31582   5.167   0.634   0.562
10228SOL    HW131583   5.256   0.678   0.550
10228SOL    HW231584   5.180   0.540   0.595
10229SOL     OW31585   0.004   3.219   5.121
10229SOL    HW131586   0.011   3.123   5.092
10229SOL    HW231587   6.980   3.273   5.049
10230SOL     OW31588   0.258   6.408   1.978
10230SOL    HW131589   0.341   6.357   2.001
10230SOL    HW231590   0.234   6.392   1.882
10231SOL     OW31591   0.567   5.345   2.609
10231SOL    HW131592   0.649   5.384   2.566
10231SOL    HW231593   0.498   5.416   2.619
10232SOL     OW31594   5.142   4.649   3.751
10232SOL    HW131595   5.056   4.699   3.738
10232SOL    HW231596   5.127   4.552   3.731
10233SOL     OW31597   3.080   4.080   5.894
10233SOL    HW131598   3.033   4.146   5.953
10233SOL    HW231599   3.031   3.992   5.897
10234SOL     OW31600   0.513   1.536   2.248
10234SOL    HW131601   0.494   1.627   2.284
10234SOL    HW231602   0.548   1.478   2.321
10235SOL     OW31603   1.507   0.850   3.388
10235SOL    HW131604   1.601   0.821   3.371
10235SOL    HW231605   1.499   0.949   3.374
10236SOL     OW31606   2.046   6.899   2.302
10236SOL    HW131607   1.958   6.933   2.268
10236SOL    HW231608   2.049   6.799   2.292
10237SOL     OW31609   0.321   3.539   4.849
10237SOL    HW131610   0.295   3.635   4.834
10237SOL    HW231611   0.365   3.530   4.939
10238SOL     OW31612   3.072   6.986   1.474
10238SOL    HW131613   2.998   0.010   1.420
10238SOL    HW231614   3.032   6.925   1.543
10239SOL     OW31615   0.685   2.202   4.159
10239SOL    HW131616   0.620   2.126   4.165
10239SOL    HW231617   0.664   2.258   4.079
10240SOL     OW31618   1.775   6.583   0.685
10240SOL    HW131619   1.732   6.614   0.770
10240SOL    HW231620   1.786   6.661   0.623
10241SOL     OW31621   4.299   2.949   1.408
10241SOL    HW131622   4.313   3.036   1.360
10241SOL    HW231623   4.243   2.888   1.350
10242SOL     OW31624   0.254   3.100   6.840
10242SOL    HW131625   0.279   3.004   6.822
10242SOL    HW231626   0.223   3.142   6.755
10243SOL     OW31627   2.918   5.621   1.130
10243SOL    HW131628   2.850   5.565   1.178
10243SOL    HW231629   2.878   5.660   1.048
10244SOL     OW31630   2.510   5.150   1.718
10244SOL    HW131631   2.492   5.070   1.775
10244SOL    HW231632   2.605   5.179   1.730
10245SOL     OW31633   4.909   4.254   1.059
10245SOL    HW131634   4.862   4.188   1.117
10245SOL    HW231635   4.844   4.297   0.997
10246SOL     OW31636   3.132   2.981   4.279
10246SOL    HW131637   3.229   2.983   4.305
10246SOL    HW231638   3.078   2.944   4.355
10247SOL     OW31639   0.771   2.895   3.861
10247SOL    HW131640   0.764   2.985   3.902
10247SOL    HW231641   0.748   2.825   3.929
10248SOL     OW31642   1.120   1.055   4.266
10248SOL    HW131643   1.134   1.138   4.320
10248SOL    HW231644   1.096   1.080   4.172
10249SOL     OW31645   2.669   5.003   6.199
10249SOL    HW131646   2.583   4.960   6.171
10249SOL    HW231647   2.687   5.083   6.142
10250SOL     OW31648   3.673   2.475   0.521
10250SOL    HW131649   3.683   2.491   0.619
10250SOL    HW231650   3.643   2.560   0.477
10251SOL     OW31651   1.636   0.517   4.403
10251SOL    HW131652   1.570   0.470   4.461
10251SOL    HW231653   1.595   0.535   4.313
10252SOL     OW31654   5.542   4.380   6.226
10252SOL    HW131655   5.590   4.449   6.279
10252SOL    HW231656   5.604   4.339   6.160
10253SOL     OW31657   3.270   5.994   6.330
10253SOL    HW131658   3.286   6.069   6.266
10253SOL    HW231659   3.319   6.013   6.415
10254SOL     OW31660   5.786   1.870   5.782
10254SOL    HW131661   5.802   1.832   5.691
10254SOL    HW231662   5.715   1.817   5.829
10255SOL     OW31663   4.071   4.335   1.643
10255SOL    HW131664   4.139   4.385   1.698
10255SOL    HW231665   3.981   4.373   1.660
10256SOL     OW31666   3.779   1.225   3.589
10256SOL    HW131667   3.873   1.242   3.619
10256SOL    HW231668   3.779   1.195   3.494
10257SOL     OW31669   3.936   5.940   3.143
10257SOL    HW131670   3.973   5.850   3.119
10257SOL    HW231671   3.901   5.985   3.061
10258SOL     OW31672   2.280   1.275   2.081
10258SOL    HW131673   2.345   1.229   2.020
10258SOL    HW231674   2.193   1.287   2.034
10259SOL     OW31675   1.979   4.197   4.123
10259SOL    HW131676   1.899   4.198   4.062
10259SOL    HW231677   1.949   4.179   4.216
10260SOL     OW31678   0.394   0.696   3.031
10260SOL    HW131679   0.494   0.689   3.023
10260SOL    HW231680   0.352   0.614   2.992
10261SOL     OW31681   0.069   3.739   0.539
10261SOL    HW131682   0.088   3.831   0.574
10261SOL    HW231683   0.154   3.685   0.541
10262SOL     OW31684   4.200   1.336   0.551
10262SOL    HW131685   4.227   1.324   0.455
10262SOL    HW231686   4.210   1.432   0.576
10263SOL     OW31687   5.666   0.672   2.518
10263SOL    HW131688   5.584   0.690   2.573
10263SOL    HW231689   5.657   0.583   2.473
10264SOL     OW31690   6.591   0.087   6.719
10264SOL    HW131691   6.633   0.174   6.691
10264SOL    HW231692   6.653   0.012   6.696
10265SOL     OW31693   2.076   2.106   0.864
10265SOL    HW131694   2.050   2.035   0.930
10265SOL    HW231695   2.174   2.100   0.845
10266SOL     OW31696   2.675   3.451   1.767
10266SOL    HW131697   2.734   3.530   1.749
10266SOL    HW231698   2.613   3.473   1.843
10267SOL     OW31699   5.784   0.372   1.024
10267SOL    HW131700   5.727   0.382   1.105
10267SOL    HW231701   5.798   0.461   0.981
10268SOL     OW31702   3.699   6.266   1.922
10268SOL    HW131703   3.611   6.263   1.970
10268SOL    HW231704   3.692   6.324   1.841
10269SOL     OW31705   2.803   2.092   0.686
10269SOL    HW131706   2.859   2.015   0.717
10269SOL    HW231707   2.800   2.093   0.586
10270SOL     OW31708   3.217   0.535   3.158
10270SOL    HW131709   3.268   0.616   3.187
10270SOL    HW231710   3.150   0.561   3.089
10271SOL     OW31711   1.517   1.659   6.386
10271SOL    HW131712   1.535   1.672   6.483
10271SOL    HW231713   1.581   1.715   6.332
10272SOL     OW31714   5.949   0.369   4.538
10272SOL    HW131715   5.891   0.449   4.521
10272SOL    HW231716   6.045   0.398   4.544
10273SOL     OW31717   2.316   5.371   3.887
10273SOL    HW131718   2.275   5.451   3.930
10273SOL    HW231719   2.255   5.335   3.817
10274SOL     OW31720   1.181   4.931   5.361
10274SOL    HW131721   1.162   5.000   5.430
10274SOL    HW231722   1.278   4.933   5.337
10275SOL     OW31723   6.890   0.737   2.052
10275SOL    HW131724   6.899   0.685   2.136
10275SOL    HW231725   6.980   0.755   2.014
10276SOL     OW31726   3.649   5.355   4.978
10276SOL    HW131727   3.734   5.403   5.000
10276SOL    HW231728   3.628   5.289   5.050
10277SOL     OW31729   1.111   5.618   3.929
10277SOL    HW131730   1.086   5.533   3.882
10277SOL    HW231731   1.100   5.606   4.028
10278SOL     OW31732   6.742   0.103   5.235
10278SOL    HW131733   6.741   0.135   5.330
10278SOL    HW231734   6.784   0.172   5.177
10279SOL     OW31735   1.318   6.482   3.918
10279SOL    HW131736   1.320   6.474   4.018
10279SOL    HW231737   1.226   6.459   3.885
10280SOL     OW31738   6.677   4.694   0.195
10280SOL    HW131739   6.610   4.624   0.219
10280SOL    HW231740   6.743   4.704   0.269
10281SOL     OW31741   6.210   1.397   3.420
10281SOL    HW131742   6.135   1.345   3.379
10281SOL    HW231743   6.189   1.495   3.418
10282SOL     OW31744   4.918   3.460   3.391
10282SOL    HW131745   4.903   3.388   3.459
10282SOL    HW231746   4.894   3.425   3.300
10283SOL     OW31747   1.274   2.793   0.939
10283SOL    HW131748   1.270   2.755   0.847
10283SOL    HW231749   1.368   2.818   0.961
10284SOL     OW31750   6.947   3.827   4.424
10284SOL    HW131751   6.969   3.924   4.438
10284SOL    HW231752   6.966   3.776   4.508
10285SOL     OW31753   5.952   6.515   5.775
10285SOL    HW131754   5.960   6.611   5.800
10285SOL    HW231755   5.893   6.468   5.840
10286SOL     OW31756   2.875   1.676   3.266
10286SOL    HW131757   2.974   1.665   3.261
10286SOL    HW231758   2.853   1.771   3.289
10287SOL     OW31759   2.213   5.952   3.156
10287SOL    HW131760   2.195   5.868   3.208
10287SOL    HW231761   2.243   5.927   3.064
10288SOL     OW31762   4.020   6.529   5.254
10288SOL    HW131763   4.032   6.585   5.336
10288SOL    HW231764   4.015   6.588   5.173
10289SOL     OW31765   3.108   5.511   6.772
10289SOL    HW131766   3.062   5.470   6.851
10289SOL    HW231767   3.074   5.605   6.759
10290SOL     OW31768   3.621   2.788   1.877
10290SOL    HW131769   3.654   2.711   1.822
10290SOL    HW231770   3.619   2.870   1.820
10291SOL     OW31771   2.468   1.718   2.106
10291SOL    HW131772   2.492   1.689   2.014
10291SOL    HW231773   2.451   1.817   2.107
10292SOL     OW31774   6.613   6.768   5.731
10292SOL    HW131775   6.654   6.678   5.743
10292SOL    HW231776   6.672   6.825   5.674
10293SOL     OW31777   1.369   4.394   4.860
10293SOL    HW131778   1.310   4.445   4.798
10293SOL    HW231779   1.441   4.349   4.807
10294SOL     OW31780   3.493   1.236   2.018
10294SOL    HW131781   3.443   1.154   2.046
10294SOL    HW231782   3.591   1.219   2.026
10295SOL     OW31783   1.210   1.821   6.572
10295SOL    HW131784   1.132   1.761   6.593
10295SOL    HW231785   1.232   1.814   6.475
10296SOL     OW31786   6.119   1.146   5.812
10296SOL    HW131787   6.020   1.137   5.810
10296SOL    HW231788   6.145   1.226   5.865
10297SOL     OW31789   3.229   1.081   0.062
10297SOL    HW131790   3.250   1.078   6.982
10297SOL    HW231791   3.142   1.127   0.077
10298SOL     OW31792   0.337   2.344   2.289
10298SOL    HW131793   0.343   2.244   2.298
10298SOL    HW231794   0.295   2.368   2.202
10299SOL     OW31795   4.485   0.088   3.077
10299SOL    HW131796   4.493   7.010   3.046
10299SOL    HW231797   4.395   0.124   3.052
10300SOL     OW31798   1.354   4.160   1.891
10300SOL    HW131799   1.354   4.140   1.989
10300SOL    HW231800   1.263   4.142   1.853
10301SOL     OW31801   3.639   0.691   0.061
10301SOL    HW131802   3.720   0.669   0.006
10301SOL    HW231803   3.559   0.646   0.022
10302SOL     OW31804   2.959   6.264   5.144
10302SOL    HW131805   3.055   6.289   5.138
10302SOL    HW231806   2.923   6.291   5.234
10303SOL     OW31807   0.389   5.592   4.713
10303SOL    HW131808   0.321   5.549   4.772
10303SOL    HW231809   0.358   5.590   4.618
10304SOL     OW31810   6.077   6.454   0.987
10304SOL    HW131811   6.036   6.519   0.924
10304SOL    HW231812   6.016   6.375   0.997
10305SOL     OW31813   3.540   3.980   5.835
10305SOL    HW131814   3.507   4.021   5.750
10305SOL    HW231815   3.524   3.882   5.834
10306SOL     OW31816   3.861   0.551   1.203
10306SOL    HW131817   3.881   0.648   1.188
10306SOL    HW231818   3.871   0.501   1.117
10307SOL     OW31819   2.243   0.395   5.598
10307SOL    HW131820   2.158   0.448   5.598
10307SOL    HW231821   2.292   0.412   5.683
10308SOL     OW31822   2.837   4.824   2.091
10308SOL    HW131823   2.762   4.890   2.088
10308SOL    HW231824   2.801   4.732   2.079
10309SOL     OW31825   0.602   1.190   4.703
10309SOL    HW131826   0.666   1.136   4.648
10309SOL    HW231827   0.613   1.168   4.799
10310SOL     OW31828   2.078   3.986   5.576
10310SOL    HW131829   2.156   3.927   5.599
10310SOL    HW231830   2.111   4.077   5.552
10311SOL     OW31831   5.091   5.480   6.709
10311SOL    HW131832   5.041   5.396   6.686
10311SOL    HW231833   5.188   5.460   6.721
10312SOL     OW31834   4.173   0.072   2.185
10312SOL    HW131835   4.105   0.095   2.115
10312SOL    HW231836   4.235   0.149   2.198
10313SOL     OW31837   5.598   6.864   3.055
10313SOL    HW131838   5.599   6.764   3.050
10313SOL    HW231839   5.598   6.892   3.151
10314SOL     OW31840   0.407   6.970   1.127
10314SOL    HW131841   0.314   7.005   1.126
10314SOL    HW231842   0.472   0.029   1.122
10315SOL     OW31843   5.696   5.227   3.510
10315SOL    HW131844   5.732   5.134   3.519
10315SOL    HW231845   5.664   5.259   3.599
10316SOL     OW31846   0.372   1.950   6.764
10316SOL    HW131847   0.436   2.016   6.724
10316SOL    HW231848   0.282   1.993   6.775
10317SOL     OW31849   3.672   5.998   5.098
10317SOL    HW131850   3.656   6.028   5.192
10317SOL    HW231851   3.756   6.040   5.063
10318SOL     OW31852   6.768   0.110   0.114
10318SOL    HW131853   6.767   0.071   0.207
10318SOL    HW231854   6.859   0.098   0.075
10319SOL     OW31855   0.588   4.159   3.904
10319SOL    HW131856   0.592   4.063   3.875
10319SOL    HW231857   0.679   4.200   3.898
10320SOL     OW31858   0.450   6.409   3.905
10320SOL    HW131859   0.455   6.325   3.851
10320SOL    HW231860   0.427   6.486   3.844
10321SOL     OW31861   5.219   2.793   2.466
10321SOL    HW131862   5.288   2.721   2.482
10321SOL    HW231863   5.242   2.873   2.522
10322SOL     OW31864   4.589   4.438   4.837
10322SOL    HW131865   4.553   4.411   4.747
10322SOL    HW231866   4.516   4.478   4.892
10323SOL     OW31867   0.962   4.328   5.913
10323SOL    HW131868   0.862   4.332   5.926
10323SOL    HW231869   0.983   4.256   5.847
10324SOL     OW31870   2.956   3.429   1.860
10324SOL    HW131871   3.009   3.379   1.929
10324SOL    HW231872   2.887   3.368   1.822
10325SOL     OW31873   6.370   5.615   3.680
10325SOL    HW131874   6.453   5.583   3.634
10325SOL    HW231875   6.317   5.672   3.617
10326SOL     OW31876   5.306   3.593   6.743
10326SOL    HW131877   5.235   3.530   6.713
10326SOL    HW231878   5.276   3.687   6.727
10327SOL     OW31879   1.981   4.372   1.112
10327SOL    HW131880   2.076   4.395   1.132
10327SOL    HW231881   1.928   4.456   1.100
10328SOL     OW31882   5.679   1.903   2.486
10328SOL    HW131883   5.631   1.978   2.440
10328SOL    HW231884   5.647   1.816   2.450
10329SOL     OW31885   3.966   1.996   3.015
10329SOL    HW131886   3.989   1.900   2.998
10329SOL    HW231887   3.917   2.033   2.936
10330SOL     OW31888   5.206   0.847   1.783
10330SOL    HW131889   5.162   0.933   1.810
10330SOL    HW231890   5.150   0.802   1.713
10331SOL     OW31891   6.097   5.458   5.948
10331SOL    HW131892   6.115   5.438   5.852
10331SOL    HW231893   6.159   5.404   6.006
10332SOL     OW31894   1.670   1.223   6.247
10332SOL    HW131895   1.575   1.196   6.235
10332SOL    HW231896   1.730   1.153   6.209
10333SOL     OW31897   1.234   3.948   4.299
10333SOL    HW131898   1.294   3.928   4.376
10333SOL    HW231899   1.221   4.047   4.292
10334SOL     OW31900   3.346   1.282   3.559
10334SOL    HW131901   3.270   1.292   3.624
10334SOL    HW231902   3.432   1.277   3.608
10335SOL     OW31903   0.827   2.297   5.246
10335SOL    HW131904   0.798   2.391   5.225
10335SOL    HW231905   0.906   2.274   5.190
10336SOL     OW31906   5.189   7.009   3.499
10336SOL    HW131907   5.236   6.938   3.551
10336SOL    HW231908   5.096   0.002   3.534
10337SOL     OW31909   6.381   5.656   6.935
10337SOL    HW131910   6.466   5.645   6.986
10337SOL    HW231911   6.358   5.753   6.930
10338SOL     OW31912   1.319   6.441   1.866
10338SOL    HW131913   1.413   6.460   1.897
10338SOL    HW231914   1.258   6.437   1.946
10339SOL     OW31915   5.954   2.610   6.075
10339SOL    HW131916   6.002   2.670   6.138
10339SOL    HW231917   6.011   2.530   6.056
10340SOL     OW31918   2.667   3.377   6.299
10340SOL    HW131919   2.598   3.448   6.311
10340SOL    HW231920   2.751   3.417   6.262
10341SOL     OW31921   2.004   3.442   3.267
10341SOL    HW131922   2.082   3.429   3.207
10341SOL    HW231923   1.926   3.391   3.232
10342SOL     OW31924   0.253   1.077   4.070
10342SOL    HW131925   0.215   1.153   4.016
10342SOL    HW231926   0.328   1.035   4.019
10343SOL     OW31927   3.329   5.688   2.286
10343SOL    HW131928   3.243   5.651   2.320
10343SOL    HW231929   3.400   5.676   2.355
10344SOL     OW31930   4.332   5.937   6.042
10344SOL    HW131931   4.251   5.909   5.990
10344SOL    HW231932   4.379   6.010   5.993
10345SOL     OW31933   1.936   3.482   4.397
10345SOL    HW131934   1.986   3.519   4.476
10345SOL    HW231935   1.981   3.513   4.313
10346SOL     OW31936   6.939   6.024   0.061
10346SOL    HW131937   6.917   5.944   0.117
10346SOL    HW231938   6.970   6.099   0.120
10347SOL     OW31939   4.800   1.724   4.493
10347SOL    HW131940   4.861   1.686   4.423
10347SOL    HW231941   4.706   1.696   4.473
10348SOL     OW31942   6.368   4.452   0.827
10348SOL    HW131943   6.370   4.504   0.741
10348SOL    HW231944   6.461   4.440   0.861
10349SOL     OW31945   1.086   6.946   6.317
10349SOL    HW131946   1.156   6.971   6.384
10349SOL    HW231947   1.103   6.995   6.231
10350SOL     OW31948   2.935   6.891   5.871
10350SOL    HW131949   2.932   6.986   5.842
10350SOL    HW231950   2.848   6.846   5.848
10351SOL     OW31951   4.191   5.337   6.587
10351SOL    HW131952   4.133   5.417   6.573
10351SOL    HW231953   4.218   5.298   6.499
10352SOL     OW31954   3.315   3.874   6.225
10352SOL    HW131955   3.303   3.944   6.296
10352SOL    HW231956   3.322   3.917   6.136
10353SOL     OW31957   0.924   3.209   4.866
10353SOL    HW131958   0.841   3.171   4.825
10353SOL    HW231959   0.906   3.233   4.961
10354SOL     OW31960   5.292   1.833   1.350
10354SOL    HW131961   5.266   1.875   1.263
10354SOL    HW231962   5.320   1.903   1.415
10355SOL     OW31963   1.374   4.946   2.683
10355SOL    HW131964   1.381   5.008   2.761
10355SOL    HW231965   1.430   4.865   2.698
10356SOL     OW31966   0.326   2.521   4.520
10356SOL    HW131967   0.239   2.539   4.475
10356SOL    HW231968   0.387   2.600   4.508
10357SOL     OW31969   2.832   2.060   6.982
10357SOL    HW131970   2.902   2.125   6.951
10357SOL    HW231971   2.742   2.102   6.973
10358SOL     OW31972   0.156   1.435   2.027
10358SOL    HW131973   0.165   1.398   2.119
10358SOL    HW231974   0.243   1.474   1.997
10359SOL     OW31975   0.682   1.542   1.298
10359SOL    HW131976   0.764   1.548   1.355
10359SOL    HW231977   0.643   1.633   1.285
10360SOL     OW31978   0.031   5.843   2.935
10360SOL    HW131979   6.987   5.764   2.926
10360SOL    HW231980   7.012   5.905   3.004
10361SOL     OW31981   1.548   4.964   1.325
10361SOL    HW131982   1.632   4.911   1.314
10361SOL    HW231983   1.552   5.015   1.411
10362SOL     OW31984   1.634   5.130   4.658
10362SOL    HW131985   1.683   5.193   4.597
10362SOL    HW231986   1.569   5.075   4.606
10363SOL     OW31987   6.082   0.314   3.307
10363SOL    HW131988   5.993   0.324   3.352
10363SOL    HW231989   6.071   0.326   3.209
10364SOL     OW31990   1.440   4.400   1.270
10364SOL    HW131991   1.536   4.415   1.248
10364SOL    HW231992   1.427   4.307   1.304
10365SOL     OW31993   4.501   6.143   6.995
10365SOL    HW131994   4.430   6.212   6.979
10365SOL    HW231995   4.559   6.172   0.054
10366SOL     OW31996   3.787   6.708   3.809
10366SOL    HW131997   3.840   6.696   3.892
10366SOL    HW231998   3.845   6.747   3.737
10367SOL     OW31999   6.674   2.099   3.032
10367SOL    HW132000   6.759   2.126   3.079
10367SOL    HW232001   6.617   2.046   3.094
10368SOL     OW32002   2.865   0.127   1.056
10368SOL    HW132003   2.869   0.027   1.044
10368SOL    HW232004   2.832   0.169   0.972
10369SOL     OW32005   4.527   2.963   0.251
10369SOL    HW132006   4.484   2.926   0.169
10369SOL    HW232007   4.515   2.899   0.327
10370SOL     OW32008   3.955   0.640   5.237
10370SOL    HW132009   4.012   0.716   5.268
10370SOL    HW232010   3.992   0.554   5.271
10371SOL     OW32011   5.089   6.556   5.694
10371SOL    HW132012   5.054   6.553   5.600
10371SOL    HW232013   5.188   6.542   5.693
10372SOL     OW32014   1.356   0.478   3.519
10372SOL    HW132015   1.351   0.427   3.605
10372SOL    HW232016   1.353   0.576   3.537
10373SOL     OW32017   1.495   5.387   5.103
10373SOL    HW132018   1.577   5.414   5.053
10373SOL    HW232019   1.512   5.301   5.151
10374SOL     OW32020   2.757   2.101   4.656
10374SOL    HW132021   2.829   2.169   4.674
10374SOL    HW232022   2.750   2.039   4.734
10375SOL     OW32023   0.329   1.890   0.404
10375SOL    HW132024   0.376   1.974   0.430
10375SOL    HW232025   0.271   1.907   0.324
10376SOL     OW32026   6.308   0.722   3.392
10376SOL    HW132027   6.368   0.793   3.355
10376SOL    HW232028   6.351   0.633   3.379
10377SOL     OW32029   0.487   6.773   4.438
10377SOL    HW132030   0.547   6.824   4.499
10377SOL    HW232031   0.504   6.801   4.344
10378SOL     OW32032   6.363   6.746   5.844
10378SOL    HW132033   6.455   6.760   5.807
10378SOL    HW232034   6.355   6.651   5.877
10379SOL     OW32035   4.904   1.602   4.713
10379SOL    HW132036   4.928   1.512   4.676
10379SOL    HW232037   4.866   1.659   4.640
10380SOL     OW32038   4.555   0.916   3.694
10380SOL    HW132039   4.592   0.856   3.622
10380SOL    HW232040   4.569   1.011   3.668
10381SOL     OW32041   4.393   5.205   5.037
10381SOL    HW132042   4.322   5.216   4.967
10381SOL    HW232043   4.483   5.200   4.992
10382SOL     OW32044   1.879   5.950   0.375
10382SOL    HW132045   1.890   5.900   0.290
10382SOL    HW232046   1.916   5.896   0.451
10383SOL     OW32047   5.571   2.597   6.909
10383SOL    HW132048   5.585   2.675   6.847
10383SOL    HW232049   5.552   2.515   6.856
10384SOL     OW32050   6.354   0.675   6.694
10384SOL    HW132051   6.443   0.630   6.702
10384SOL    HW232052   6.281   0.606   6.696
10385SOL     OW32053   5.887   2.327   0.021
10385SOL    HW132054   5.977   2.285   0.032
10385SOL    HW232055   5.816   2.263   0.049
10386SOL     OW32056   6.680   2.074   6.246
10386SOL    HW132057   6.695   2.094   6.149
10386SOL    HW232058   6.615   2.139   6.284
10387SOL     OW32059   2.214   3.993   2.566
10387SOL    HW132060   2.255   4.082   2.547
10387SOL    HW232061   2.200   3.943   2.481
10388SOL     OW32062   1.670   5.229   2.504
10388SOL    HW132063   1.753   5.275   2.535
10388SOL    HW232064   1.685   5.130   2.502
10389SOL     OW32065   0.613   5.080   3.727
10389SOL    HW132066   0.620   5.027   3.811
10389SOL    HW232067   0.648   5.027   3.650
10390SOL     OW32068   2.147   3.647   3.748
10390SOL    HW132069   2.238   3.640   3.709
10390SOL    HW232070   2.105   3.556   3.751
10391SOL     OW32071   3.792   6.317   5.061
10391SOL    HW132072   3.830   6.304   5.153
10391SOL    HW232073   3.793   6.230   5.012
10392SOL     OW32074   6.516   5.330   6.855
10392SOL    HW132075   6.498   5.419   6.812
10392SOL    HW232076   6.581   5.342   6.931
10393SOL     OW32077   1.181   1.137   3.956
10393SOL    HW132078   1.146   1.224   3.924
10393SOL    HW232079   1.266   1.115   3.908
10394SOL     OW32080   3.018   6.665   0.424
10394SOL    HW132081   2.950   6.734   0.400
10394SOL    HW232082   2.983   6.606   0.497
10395SOL     OW32083   1.425   1.444   5.014
10395SOL    HW132084   1.401   1.365   4.959
10395SOL    HW232085   1.523   1.461   5.006
10396SOL     OW32086   0.743   6.616   4.915
10396SOL    HW132087   0.781   6.600   5.005
10396SOL    HW232088   0.647   6.588   4.914
10397SOL     OW32089   4.194   1.964   2.595
10397SOL    HW132090   4.123   1.904   2.560
10397SOL    HW232091   4.220   2.031   2.525
10398SOL     OW32092   6.754   3.822   2.120
10398SOL    HW132093   6.799   3.828   2.208
10398SOL    HW232094   6.806   3.760   2.060
10399SOL     OW32095   6.386   2.700   5.864
10399SOL    HW132096   6.343   2.639   5.930
10399SOL    HW232097   6.334   2.699   5.778
10400SOL     OW32098   1.606   4.789   2.049
10400SOL    HW132099   1.572   4.707   2.096
10400SOL    HW232100   1.529   4.835   2.004
10401SOL     OW32101   0.657   5.431   0.727
10401SOL    HW132102   0.580   5.468   0.676
10401SOL    HW232103   0.626   5.355   0.784
10402SOL     OW32104   1.075   2.289   4.541
10402SOL    HW132105   1.014   2.278   4.620
10402SOL    HW232106   1.029   2.257   4.459
10403SOL     OW32107   4.736   1.036   2.210
10403SOL    HW132108   4.817   1.040   2.270
10403SOL    HW232109   4.764   1.006   2.119
10404SOL     OW32110   0.144   0.016   3.935
10404SOL    HW132111   0.070   0.002   4.001
10404SOL    HW232112   0.112   7.009   3.843
10405SOL     OW32113   2.127   6.529   6.379
10405SOL    HW132114   2.188   6.551   6.456
10405SOL    HW232115   2.032   6.533   6.410
10406SOL     OW32116   1.964   5.842   5.859
10406SOL    HW132117   2.033   5.908   5.828
10406SOL    HW232118   1.976   5.756   5.809
10407SOL     OW32119   1.942   1.356   6.156
10407SOL    HW132120   1.875   1.334   6.084
10407SOL    HW232121   1.901   1.417   6.223
10408SOL     OW32122   4.239   6.040   3.502
10408SOL    HW132123   4.166   5.981   3.467
10408SOL    HW232124   4.274   6.097   3.427
10409SOL     OW32125   6.721   4.475   2.539
10409SOL    HW132126   6.748   4.527   2.619
10409SOL    HW232127   6.713   4.378   2.564
10410SOL     OW32128   5.760   6.321   0.639
10410SOL    HW132129   5.859   6.333   0.637
10410SOL    HW232130   5.737   6.230   0.604
10411SOL     OW32131   1.467   4.704   2.576
10411SOL    HW132132   1.559   4.667   2.590
10411SOL    HW232133   1.402   4.657   2.636
10412SOL     OW32134   0.141   2.165   6.431
10412SOL    HW132135   0.202   2.230   6.477
10412SOL    HW232136   0.110   2.096   6.496
10413SOL     OW32137   0.409   2.064   5.791
10413SOL    HW132138   0.348   2.136   5.826
10413SOL    HW232139   0.443   2.009   5.866
10414SOL     OW32140   5.552   6.313   4.968
10414SOL    HW132141   5.555   6.263   5.055
10414SOL    HW232142   5.457   6.336   4.946
10415SOL     OW32143   0.165   5.526   2.957
10415SOL    HW132144   0.193   5.582   3.035
10415SOL    HW232145   0.086   5.569   2.912
10416SOL     OW32146   4.809   7.000   0.287
10416SOL    HW132147   4.730   0.029   0.246
10416SOL    HW232148   4.886   7.002   0.223
10417SOL     OW32149   4.045   5.026   4.457
10417SOL    HW132150   4.025   5.017   4.359
10417SOL    HW232151   4.027   5.120   4.486
10418SOL     OW32152   6.445   3.914   6.691
10418SOL    HW132153   6.521   3.886   6.749
10418SOL    HW232154   6.415   4.006   6.717
10419SOL     OW32155   1.882   0.660   4.433
10419SOL    HW132156   1.801   0.604   4.418
10419SOL    HW232157   1.937   0.662   4.350
10420SOL     OW32158   5.811   3.692   4.903
10420SOL    HW132159   5.854   3.641   4.828
10420SOL    HW232160   5.812   3.790   4.881
10421SOL     OW32161   1.479   4.387   4.071
10421SOL    HW132162   1.417   4.319   4.112
10421SOL    HW232163   1.431   4.474   4.060
10422SOL     OW32164   5.643   2.965   5.548
10422SOL    HW132165   5.724   3.020   5.568
10422SOL    HW232166   5.587   2.957   5.630
10423SOL     OW32167   2.766   5.455   3.876
10423SOL    HW132168   2.754   5.527   3.808
10423SOL    HW232169   2.768   5.496   3.968
10424SOL     OW32170   4.012   1.342   1.661
10424SOL    HW132171   4.037   1.284   1.740
10424SOL    HW232172   4.054   1.432   1.672
10425SOL     OW32173   1.453   4.039   0.356
10425SOL    HW132174   1.497   3.949   0.361
10425SOL    HW232175   1.355   4.027   0.338
10426SOL     OW32176   6.063   2.208   6.670
10426SOL    HW132177   6.075   2.306   6.684
10426SOL    HW232178   6.107   2.181   6.584
10427SOL     OW32179   6.007   0.808   2.991
10427SOL    HW132180   5.976   0.901   3.015
10427SOL    HW232181   5.958   0.742   3.048
10428SOL     OW32182   1.785   6.602   4.805
10428SOL    HW132183   1.762   6.563   4.894
10428SOL    HW232184   1.705   6.597   4.745
10429SOL     OW32185   2.121   3.988   1.677
10429SOL    HW132186   2.078   3.999   1.767
10429SOL    HW232187   2.213   3.951   1.688
10430SOL     OW32188   3.783   0.139   4.737
10430SOL    HW132189   3.720   0.156   4.661
10430SOL    HW232190   3.771   0.045   4.770
10431SOL     OW32191   4.123   1.460   4.108
10431SOL    HW132192   4.158   1.529   4.044
10431SOL    HW232193   4.120   1.499   4.200
10432SOL     OW32194   1.320   5.222   0.278
10432SOL    HW132195   1.319   5.210   0.179
10432SOL    HW232196   1.230   5.254   0.308
10433SOL     OW32197   4.243   6.537   3.745
10433SOL    HW132198   4.251   6.509   3.841
10433SOL    HW232199   4.155   6.508   3.709
10434SOL     OW32200   4.236   1.026   6.331
10434SOL    HW132201   4.166   1.092   6.357
10434SOL    HW232202   4.250   1.027   6.232
10435SOL     OW32203   2.349   1.563   1.558
10435SOL    HW132204   2.324   1.510   1.639
10435SOL    HW232205   2.448   1.576   1.555
10436SOL     OW32206   1.251   3.497   4.730
10436SOL    HW132207   1.296   3.470   4.815
10436SOL    HW232208   1.249   3.597   4.724
10437SOL     OW32209   6.809   6.223   5.348
10437SOL    HW132210   6.893   6.193   5.392
10437SOL    HW232211   6.794   6.170   5.264
10438SOL     OW32212   6.956   6.021   6.510
10438SOL    HW132213   6.924   5.927   6.525
10438SOL    HW232214   6.885   6.085   6.539
10439SOL     OW32215   6.134   5.708   4.754
10439SOL    HW132216   6.167   5.616   4.777
10439SOL    HW232217   6.199   5.776   4.788
10440SOL     OW32218   5.792   2.593   1.186
10440SOL    HW132219   5.747   2.676   1.218
10440SOL    HW232220   5.758   2.515   1.238
10441SOL     OW32221   4.558   2.133   6.859
10441SOL    HW132222   4.567   2.101   6.954
10441SOL    HW232223   4.561   2.055   6.797
10442SOL     OW32224   2.907   1.565   5.040
10442SOL    HW132225   2.824   1.516   5.016
10442SOL    HW232226   2.932   1.545   5.135
10443SOL     OW32227   0.604   0.602   0.441
10443SOL    HW132228   0.576   0.608   0.537
10443SOL    HW232229   0.632   0.509   0.421
10444SOL     OW32230   4.524   4.817   3.489
10444SOL    HW132231   4.495   4.865   3.406
10444SOL    HW232232   4.449   4.760   3.522
10445SOL     OW32233   0.764   3.248   3.715
10445SOL    HW132234   0.675   3.215   3.682
10445SOL    HW232235   0.751   3.297   3.801
10446SOL     OW32236   2.400   4.759   5.220
10446SOL    HW132237   2.398   4.849   5.176
10446SOL    HW232238   2.442   4.693   5.158
10447SOL     OW32239   0.945   2.071   3.035
10447SOL    HW132240   0.865   2.068   3.095
10447SOL    HW232241   0.934   2.143   2.967
10448SOL     OW32242   1.593   6.056   2.429
10448SOL    HW132243   1.617   5.959   2.435
10448SOL    HW232244   1.668   6.111   2.464
10449SOL     OW32245   3.852   4.931   4.632
10449SOL    HW132246   3.754   4.945   4.622
10449SOL    HW232247   3.899   4.969   4.552
10450SOL     OW32248   0.628   1.751   4.334
10450SOL    HW132249   0.569   1.670   4.335
10450SOL    HW232250   0.709   1.733   4.389
10451SOL     OW32251   3.286   2.083   3.893
10451SOL    HW132252   3.319   1.992   3.917
10451SOL    HW232253   3.270   2.087   3.795
10452SOL     OW32254   6.886   2.941   4.595
10452SOL    HW132255   6.911   3.031   4.560
10452SOL    HW232256   6.787   2.937   4.610
10453SOL     OW32257   4.312   5.823   4.355
10453SOL    HW132258   4.214   5.824   4.332
10453SOL    HW232259   4.349   5.732   4.335
10454SOL     OW32260   6.550   0.970   6.944
10454SOL    HW132261   6.465   0.976   6.997
10454SOL    HW232262   6.539   1.020   6.858
10455SOL     OW32263   0.503   6.058   2.633
10455SOL    HW132264   0.537   5.978   2.583
10455SOL    HW232265   0.559   6.138   2.610
10456SOL     OW32266   1.193   5.444   5.894
10456SOL    HW132267   1.267   5.490   5.943
10456SOL    HW232268   1.229   5.400   5.812
10457SOL     OW32269   4.226   1.526   6.846
10457SOL    HW132270   4.158   1.454   6.832
10457SOL    HW232271   4.242   1.574   6.759
10458SOL     OW32272   1.660   6.474   6.754
10458SOL    HW132273   1.623   6.550   6.807
10458SOL    HW232274   1.605   6.460   6.672
10459SOL     OW32275   6.195   5.751   1.104
10459SOL    HW132276   6.095   5.752   1.112
10459SOL    HW232277   6.230   5.842   1.128
10460SOL     OW32278   6.206   0.630   0.304
10460SOL    HW132279   6.267   0.665   0.232
10460SOL    HW232280   6.241   0.657   0.393
10461SOL     OW32281   6.867   4.170   6.298
10461SOL    HW132282   6.863   4.080   6.341
10461SOL    HW232283   6.952   4.215   6.324
10462SOL     OW32284   2.996   3.814   6.559
10462SOL    HW132285   2.968   3.800   6.464
10462SOL    HW232286   3.040   3.903   6.568
10463SOL     OW32287   5.060   2.699   6.369
10463SOL    HW132288   5.131   2.702   6.299
10463SOL    HW232289   5.060   2.609   6.413
10464SOL     OW32290   6.288   4.481   1.685
10464SOL    HW132291   6.191   4.455   1.689
10464SOL    HW232292   6.308   4.517   1.593
10465SOL     OW32293   5.760   4.692   1.267
10465SOL    HW132294   5.837   4.698   1.203
10465SOL    HW232295   5.794   4.662   1.356
10466SOL     OW32296   5.906   3.875   5.852
10466SOL    HW132297   5.899   3.950   5.786
10466SOL    HW232298   5.815   3.838   5.870
10467SOL     OW32299   0.080   2.416   6.736
10467SOL    HW132300   0.100   2.493   6.796
10467SOL    HW232301   0.082   2.447   6.640
10468SOL     OW32302   1.606   4.443   4.486
10468SOL    HW132303   1.612   4.537   4.519
10468SOL    HW232304   1.628   4.440   4.389
10469SOL     OW32305   1.005   1.599   3.897
10469SOL    HW132306   0.945   1.610   3.976
10469SOL    HW232307   1.053   1.686   3.880
10470SOL     OW32308   2.242   4.149   2.170
10470SOL    HW132309   2.252   4.181   2.264
10470SOL    HW232310   2.146   4.154   2.143
10471SOL     OW32311   2.140   5.305   6.478
10471SOL    HW132312   2.087   5.322   6.395
10471SOL    HW232313   2.145   5.206   6.495
10472SOL     OW32314   4.015   5.372   6.153
10472SOL    HW132315   4.092   5.434   6.144
10472SOL    HW232316   3.939   5.419   6.198
10473SOL     OW32317   6.104   4.641   0.721
10473SOL    HW132318   6.067   4.559   0.764
10473SOL    HW232319   6.080   4.642   0.624
10474SOL     OW32320   6.457   6.743   4.954
10474SOL    HW132321   6.479   6.837   4.981
10474SOL    HW232322   6.358   6.730   4.959
10475SOL     OW32323   0.498   5.291   1.385
10475SOL    HW132324   0.401   5.309   1.397
10475SOL    HW232325   0.515   5.193   1.399
10476SOL     OW32326   4.835   6.528   1.234
10476SOL    HW132327   4.801   6.573   1.151
10476SOL    HW232328   4.909   6.582   1.274
10477SOL     OW32329   0.045   5.611   3.908
10477SOL    HW132330   0.044   5.697   3.959
10477SOL    HW232331   0.128   5.607   3.852
10478SOL     OW32332   6.965   0.944   6.403
10478SOL    HW132333   6.989   0.856   6.443
10478SOL    HW232334   6.953   0.934   6.305
10479SOL     OW32335   0.722   3.390   2.088
10479SOL    HW132336   0.705   3.299   2.051
10479SOL    HW232337   0.814   3.419   2.064
10480SOL     OW32338   2.619   0.732   3.021
10480SOL    HW132339   2.536   0.701   3.067
10480SOL    HW232340   2.642   0.824   3.054
10481SOL     OW32341   6.830   1.649   1.454
10481SOL    HW132342   6.752   1.684   1.403
10481SOL    HW232343   6.880   1.725   1.495
10482SOL     OW32344   5.469   3.134   3.925
10482SOL    HW132345   5.475   3.177   3.835
10482SOL    HW232346   5.373   3.127   3.952
10483SOL     OW32347   5.775   0.070   0.138
10483SOL    HW132348   5.759   0.009   0.061
10483SOL    HW232349   5.699   0.134   0.147
10484SOL     OW32350   6.806   1.005   1.864
10484SOL    HW132351   6.794   0.909   1.889
10484SOL    HW232352   6.728   1.058   1.896
10485SOL     OW32353   5.223   3.422   4.882
10485SOL    HW132354   5.232   3.324   4.866
10485SOL    HW232355   5.204   3.469   4.795
10486SOL     OW32356   5.150   2.727   2.821
10486SOL    HW132357   5.231   2.682   2.857
10486SOL    HW232358   5.077   2.659   2.807
10487SOL     OW32359   4.805   6.790   2.482
10487SOL    HW132360   4.848   6.876   2.454
10487SOL    HW232361   4.722   6.809   2.534
10488SOL     OW32362   3.767   4.046   0.100
10488SOL    HW132363   3.716   4.051   0.186
10488SOL    HW232364   3.777   3.951   0.072
10489SOL     OW32365   2.016   5.349   5.220
10489SOL    HW132366   2.112   5.368   5.199
10489SOL    HW232367   2.005   5.251   5.238
10490SOL     OW32368   6.339   0.477   4.158
10490SOL    HW132369   6.258   0.435   4.199
10490SOL    HW232370   6.419   0.458   4.215
10491SOL     OW32371   0.025   4.804   4.938
10491SOL    HW132372   0.062   4.717   4.969
10491SOL    HW232373   0.056   4.878   4.998
10492SOL     OW32374   4.057   4.214   5.944
10492SOL    HW132375   4.103   4.184   6.028
10492SOL    HW232376   3.994   4.143   5.913
10493SOL     OW32377   3.364   1.596   0.670
10493SOL    HW132378   3.416   1.618   0.753
10493SOL    HW232379   3.404   1.514   0.628
10494SOL     OW32380   5.557   1.887   5.515
10494SOL    HW132381   5.581   1.943   5.594
10494SOL    HW232382   5.637   1.834   5.486
10495SOL     OW32383   1.425   0.208   6.854
10495SOL    HW132384   1.429   0.229   6.951
10495SOL    HW232385   1.515   0.227   6.813
10496SOL     OW32386   6.168   0.464   5.534
10496SOL    HW132387   6.162   0.536   5.602
10496SOL    HW232388   6.264   0.451   5.508
10497SOL     OW32389   1.259   1.795   6.865
10497SOL    HW132390   1.266   1.836   6.774
10497SOL    HW232391   1.164   1.768   6.882
10498SOL     OW32392   2.901   4.408   6.060
10498SOL    HW132393   2.952   4.467   6.122
10498SOL    HW232394   2.818   4.455   6.029
10499SOL     OW32395   3.158   5.663   3.355
10499SOL    HW132396   3.088   5.730   3.332
10499SOL    HW232397   3.233   5.669   3.289
10500SOL     OW32398   1.786   1.870   6.621
10500SOL    HW132399   1.854   1.858   6.549
10500SOL    HW232400   1.745   1.961   6.614
10501SOL     OW32401   1.003   3.019   3.344
10501SOL    HW132402   1.069   2.983   3.410
10501SOL    HW232403   0.961   3.102   3.382
10502SOL     OW32404   2.922   5.458   5.159
10502SOL    HW132405   3.002   5.507   5.194
10502SOL    HW232406   2.942   5.422   5.068
10503SOL     OW32407   2.830   3.163   5.479
10503SOL    HW132408   2.759   3.095   5.495
10503SOL    HW232409   2.828   3.191   5.383
10504SOL     OW32410   2.429   3.284   1.431
10504SOL    HW132411   2.402   3.288   1.527
10504SOL    HW232412   2.440   3.377   1.396
10505SOL     OW32413   0.103   7.016   1.162
10505SOL    HW132414   0.076   6.919   1.165
10505SOL    HW232415   0.144   0.020   1.074
10506SOL     OW32416   0.227   3.801   5.133
10506SOL    HW132417   0.283   3.856   5.071
10506SOL    HW232418   0.142   3.850   5.153
10507SOL     OW32419   1.836   0.298   3.795
10507SOL    HW132420   1.922   0.249   3.797
10507SOL    HW232421   1.760   0.233   3.802
10508SOL     OW32422   5.426   3.893   2.499
10508SOL    HW132423   5.416   3.947   2.415
10508SOL    HW232424   5.336   3.881   2.542
10509SOL     OW32425   2.272   0.856   6.010
10509SOL    HW132426   2.269   0.834   6.107
10509SOL    HW232427   2.331   0.936   5.996
10510SOL     OW32428   6.118   6.656   6.746
10510SOL    HW132429   6.030   6.635   6.704
10510SOL    HW232430   6.191   6.603   6.702
10511SOL     OW32431   0.358   2.107   0.602
10511SOL    HW132432   0.266   2.145   0.589
10511SOL    HW232433   0.425   2.163   0.555
10512SOL     OW32434   3.439   6.876   6.136
10512SOL    HW132435   3.506   6.840   6.201
10512SOL    HW232436   3.347   6.865   6.174
10513SOL     OW32437   0.168   1.988   0.167
10513SOL    HW132438   0.229   1.958   0.093
10513SOL    HW232439   0.074   1.961   0.146
10514SOL     OW32440   6.801   3.186   1.477
10514SOL    HW132441   6.737   3.115   1.503
10514SOL    HW232442   6.773   3.273   1.518
10515SOL     OW32443   6.283   2.849   4.514
10515SOL    HW132444   6.250   2.923   4.572
10515SOL    HW232445   6.369   2.876   4.471
10516SOL     OW32446   2.919   6.848   0.715
10516SOL    HW132447   2.869   6.875   0.632
10516SOL    HW232448   3.012   6.885   0.711
10517SOL     OW32449   0.049   2.074   3.040
10517SOL    HW132450   0.065   2.019   3.122
10517SOL    HW232451   0.087   2.027   2.960
10518SOL     OW32452   0.440   6.392   2.755
10518SOL    HW132453   0.523   6.445   2.739
10518SOL    HW232454   0.459   6.321   2.823
10519SOL     OW32455   3.488   3.870   5.357
10519SOL    HW132456   3.453   3.912   5.274
10519SOL    HW232457   3.475   3.932   5.435
10520SOL     OW32458   3.380   4.737   6.303
10520SOL    HW132459   3.429   4.707   6.385
10520SOL    HW232460   3.315   4.666   6.275
10521SOL     OW32461   6.226   5.241   2.103
10521SOL    HW132462   6.166   5.202   2.174
10521SOL    HW232463   6.170   5.277   2.029
10522SOL     OW32464   6.545   0.233   1.818
10522SOL    HW132465   6.571   0.330   1.815
10522SOL    HW232466   6.605   0.184   1.881
10523SOL     OW32467   6.960   5.772   6.292
10523SOL    HW132468   0.030   5.723   6.285
10523SOL    HW232469   6.976   5.871   6.282
10524SOL     OW32470   5.043   0.504   4.408
10524SOL    HW132471   5.139   0.499   4.435
10524SOL    HW232472   5.036   0.543   4.316
10525SOL     OW32473   3.233   6.363   5.170
10525SOL    HW132474   3.321   6.332   5.136
10525SOL    HW232475   3.224   6.461   5.157
10526SOL     OW32476   5.311   0.037   2.254
10526SOL    HW132477   5.259   6.996   2.318
10526SOL    HW232478   5.247   0.089   2.198
10527SOL     OW32479   1.766   2.666   4.752
10527SOL    HW132480   1.734   2.639   4.843
10527SOL    HW232481   1.696   2.722   4.708
10528SOL     OW32482   6.346   4.740   5.650
10528SOL    HW132483   6.396   4.805   5.592
10528SOL    HW232484   6.390   4.650   5.643
10529SOL     OW32485   0.204   5.922   4.680
10529SOL    HW132486   0.181   5.929   4.583
10529SOL    HW232487   0.281   5.982   4.701
10530SOL     OW32488   2.011   1.777   5.135
10530SOL    HW132489   1.962   1.832   5.067
10530SOL    HW232490   2.100   1.750   5.097
10531SOL     OW32491   1.384   1.973   5.357
10531SOL    HW132492   1.418   1.923   5.437
10531SOL    HW232493   1.329   1.912   5.300
10532SOL     OW32494   3.453   3.049   5.167
10532SOL    HW132495   3.449   3.149   5.167
10532SOL    HW232496   3.444   3.015   5.073
10533SOL     OW32497   2.763   1.349   6.484
10533SOL    HW132498   2.843   1.291   6.504
10533SOL    HW232499   2.794   1.441   6.461
10534SOL     OW32500   5.874   5.595   1.068
10534SOL    HW132501   5.910   5.668   1.126
10534SOL    HW232502   5.794   5.554   1.112
10535SOL     OW32503   0.396   1.565   2.003
10535SOL    HW132504   0.378   1.663   1.995
10535SOL    HW232505   0.450   1.547   2.085
10536SOL     OW32506   5.471   5.900   3.768
10536SOL    HW132507   5.505   5.956   3.843
10536SOL    HW232508   5.392   5.847   3.799
10537SOL     OW32509   6.960   5.652   0.977
10537SOL    HW132510   6.967   5.709   0.896
10537SOL    HW232511   0.018   5.674   1.040
10538SOL     OW32512   4.316   4.308   6.814
10538SOL    HW132513   4.245   4.334   6.878
10538SOL    HW232514   4.368   4.231   6.851
10539SOL     OW32515   0.954   3.626   5.377
10539SOL    HW132516   1.033   3.624   5.440
10539SOL    HW232517   0.920   3.720   5.370
10540SOL     OW32518   2.741   0.675   0.449
10540SOL    HW132519   2.689   0.749   0.491
10540SOL    HW232520   2.699   0.587   0.474
10541SOL     OW32521   4.397   2.175   0.295
10541SOL    HW132522   4.411   2.272   0.312
10541SOL    HW232523   4.340   2.136   0.366
10542SOL     OW32524   1.174   2.111   0.369
10542SOL    HW132525   1.096   2.170   0.346
10542SOL    HW232526   1.182   2.038   0.301
10543SOL     OW32527   2.815   0.857   4.966
10543SOL    HW132528   2.747   0.928   4.947
10543SOL    HW232529   2.882   0.892   5.031
10544SOL     OW32530   6.869   2.397   1.589
10544SOL    HW132531   6.805   2.428   1.519
10544SOL    HW232532   6.857   2.298   1.603
10545SOL     OW32533   5.160   0.834   3.269
10545SOL    HW132534   5.098   0.893   3.320
10545SOL    HW232535   5.173   0.748   3.319
10546SOL     OW32536   4.218   1.429   5.280
10546SOL    HW132537   4.183   1.505   5.225
10546SOL    HW232538   4.194   1.342   5.237
10547SOL     OW32539   4.133   0.265   1.614
10547SOL    HW132540   4.042   0.296   1.639
10547SOL    HW232541   4.166   0.200   1.682
10548SOL     OW32542   4.013   4.734   5.522
10548SOL    HW132543   4.111   4.744   5.538
10548SOL    HW232544   3.977   4.659   5.577
10549SOL     OW32545   1.539   1.603   1.570
10549SOL    HW132546   1.529   1.584   1.473
10549SOL    HW232547   1.521   1.700   1.587
10550SOL     OW32548   5.330   0.013   4.554
10550SOL    HW132549   5.294   0.072   4.481
10550SOL    HW232550   5.367   6.946   4.513
10551SOL     OW32551   1.387   2.585   6.057
10551SOL    HW132552   1.368   2.640   6.139
10551SOL    HW232553   1.305   2.536   6.030
10552SOL     OW32554   3.184   1.920   4.724
10552SOL    HW132555   3.153   1.972   4.803
10552SOL    HW232556   3.134   1.833   4.719
10553SOL     OW32557   2.992   5.195   5.849
10553SOL    HW132558   3.081   5.206   5.804
10553SOL    HW232559   3.003   5.211   5.948
10554SOL     OW32560   6.389   4.282   6.094
10554SOL    HW132561   6.343   4.203   6.055
10554SOL    HW232562   6.475   4.253   6.136
10555SOL     OW32563   3.566   2.915   0.905
10555SOL    HW132564   3.571   3.014   0.917
10555SOL    HW232565   3.482   2.893   0.855
10556SOL     OW32566   1.353   3.340   4.277
10556SOL    HW132567   1.393   3.268   4.334
10556SOL    HW232568   1.355   3.312   4.181
10557SOL     OW32569   5.504   1.404   3.400
10557SOL    HW132570   5.464   1.460   3.327
10557SOL    HW232571   5.603   1.406   3.393
10558SOL     OW32572   5.293   5.509   5.004
10558SOL    HW132573   5.198   5.517   4.973
10558SOL    HW232574   5.316   5.413   5.019
10559SOL     OW32575   4.681   2.559   1.122
10559SOL    HW132576   4.769   2.571   1.168
10559SOL    HW232577   4.672   2.627   1.049
10560SOL     OW32578   0.100   2.973   4.384
10560SOL    HW132579   0.199   2.983   4.387
10560SOL    HW232580   0.076   2.878   4.403
10561SOL     OW32581   2.895   4.151   6.111
10561SOL    HW132582   2.885   4.246   6.082
10561SOL    HW232583   2.910   4.147   6.210
10562SOL     OW32584   3.110   1.514   0.535
10562SOL    HW132585   3.048   1.496   0.612
10562SOL    HW232586   3.200   1.537   0.570
10563SOL     OW32587   1.287   1.859   3.271
10563SOL    HW132588   1.384   1.862   3.295
10563SOL    HW232589   1.273   1.791   3.200
10564SOL     OW32590   6.804   2.363   2.014
10564SOL    HW132591   6.806   2.360   2.114
10564SOL    HW232592   6.819   2.272   1.977
10565SOL     OW32593   5.028   1.541   4.972
10565SOL    HW132594   5.011   1.572   4.879
10565SOL    HW232595   4.955   1.479   5.001
10566SOL     OW32596   4.189   5.489   6.992
10566SOL    HW132597   4.107   5.436   6.975
10566SOL    HW232598   4.193   5.515   0.072
10567SOL     OW32599   2.113   5.345   4.184
10567SOL    HW132600   2.173   5.280   4.138
10567SOL    HW232601   2.038   5.370   4.123
10568SOL     OW32602   3.880   1.684   2.960
10568SOL    HW132603   3.798   1.738   2.940
10568SOL    HW232604   3.924   1.657   2.874
10569SOL     OW32605   5.986   2.999   3.395
10569SOL    HW132606   6.041   2.972   3.316
10569SOL    HW232607   5.916   2.930   3.412
10570SOL     OW32608   1.106   4.062   1.810
10570SOL    HW132609   1.026   4.120   1.794
10570SOL    HW232610   1.084   3.968   1.783
10571SOL     OW32611   6.204   6.753   4.912
10571SOL    HW132612   6.109   6.721   4.904
10571SOL    HW232613   6.228   6.806   4.831
10572SOL     OW32614   6.430   3.274   1.622
10572SOL    HW132615   6.351   3.212   1.619
10572SOL    HW232616   6.465   3.278   1.715
10573SOL     OW32617   6.533   4.629   6.445
10573SOL    HW132618   6.482   4.617   6.359
10573SOL    HW232619   6.579   4.717   6.444
10574SOL     OW32620   0.656   2.080   3.477
10574SOL    HW132621   0.740   2.069   3.531
10574SOL    HW232622   0.599   1.999   3.490
10575SOL     OW32623   0.958   6.679   5.924
10575SOL    HW132624   0.938   6.757   5.983
10575SOL    HW232625   1.057   6.669   5.913
10576SOL     OW32626   1.187   5.422   3.036
10576SOL    HW132627   1.143   5.500   3.081
10576SOL    HW232628   1.269   5.395   3.087
10577SOL     OW32629   0.420   2.981   5.762
10577SOL    HW132630   0.396   2.885   5.775
10577SOL    HW232631   0.405   3.032   5.846
10578SOL     OW32632   5.439   1.054   5.494
10578SOL    HW132633   5.432   0.956   5.475
10578SOL    HW232634   5.495   1.098   5.424
10579SOL     OW32635   4.738   0.002   1.261
10579SOL    HW132636   4.822   6.980   1.224
10579SOL    HW232637   4.664   7.006   1.196
10580SOL     OW32638   6.884   6.044   0.552
10580SOL    HW132639   6.797   5.996   0.541
10580SOL    HW232640   6.883   6.129   0.499
10581SOL     OW32641   4.767   2.137   3.926
10581SOL    HW132642   4.765   2.188   4.012
10581SOL    HW232643   4.793   2.199   3.851
10582SOL     OW32644   3.359   4.835   0.040
10582SOL    HW132645   3.382   4.872   6.967
10582SOL    HW232646   3.372   4.736   0.040
10583SOL     OW32647   4.484   0.900   1.846
10583SOL    HW132648   4.427   0.822   1.819
10583SOL    HW232649   4.546   0.923   1.770
10584SOL     OW32650   6.151   0.184   1.274
10584SOL    HW132651   6.206   0.109   1.237
10584SOL    HW232652   6.199   0.270   1.259
10585SOL     OW32653   2.343   4.557   6.343
10585SOL    HW132654   2.427   4.601   6.310
10585SOL    HW232655   2.269   4.574   6.279
10586SOL     OW32656   4.867   1.680   0.296
10586SOL    HW132657   4.869   1.643   0.203
10586SOL    HW232658   4.834   1.775   0.293
10587SOL     OW32659   6.058   3.188   0.297
10587SOL    HW132660   6.031   3.194   0.393
10587SOL    HW232661   6.041   3.096   0.263
10588SOL     OW32662   1.469   4.940   3.382
10588SOL    HW132663   1.478   4.996   3.299
10588SOL    HW232664   1.559   4.926   3.423
10589SOL     OW32665   6.001   1.360   4.208
10589SOL    HW132666   6.044   1.311   4.284
10589SOL    HW232667   5.910   1.322   4.191
10590SOL     OW32668   1.512   0.825   4.897
10590SOL    HW132669   1.453   0.748   4.871
10590SOL    HW232670   1.595   0.790   4.941
10591SOL     OW32671   1.921   2.625   0.941
10591SOL    HW132672   1.849   2.608   0.874
10591SOL    HW232673   1.885   2.613   1.033
10592SOL     OW32674   6.146   1.453   6.651
10592SOL    HW132675   6.095   1.399   6.584
10592SOL    HW232676   6.085   1.520   6.692
10593SOL     OW32677   1.424   4.969   1.945
10593SOL    HW132678   1.457   5.061   1.966
10593SOL    HW232679   1.439   4.950   1.848
10594SOL     OW32680   0.869   1.396   4.223
10594SOL    HW132681   0.871   1.326   4.152
10594SOL    HW232682   0.812   1.365   4.299
10595SOL     OW32683   2.581   5.422   5.334
10595SOL    HW132684   2.623   5.348   5.281
10595SOL    HW232685   2.631   5.434   5.420
10596SOL     OW32686   3.048   0.943   1.989
10596SOL    HW132687   3.003   0.989   2.065
10596SOL    HW232688   3.143   0.924   2.014
10597SOL     OW32689   2.074   0.439   3.632
10597SOL    HW132690   2.134   0.506   3.675
10597SOL    HW232691   1.979   0.465   3.646
10598SOL     OW32692   2.056   1.363   0.070
10598SOL    HW132693   2.033   1.332   6.994
10598SOL    HW232694   2.025   1.295   0.136
10599SOL     OW32695   5.124   0.384   6.841
10599SOL    HW132696   5.223   0.372   6.844
10599SOL    HW232697   5.094   0.392   6.746
10600SOL     OW32698   1.610   1.952   5.545
10600SOL    HW132699   1.681   1.896   5.587
10600SOL    HW232700   1.651   2.017   5.482
10601SOL     OW32701   3.772   5.938   5.546
10601SOL    HW132702   3.780   5.999   5.625
10601SOL    HW232703   3.679   5.942   5.510
10602SOL     OW32704   4.774   0.705   1.092
10602SOL    HW132705   4.799   0.780   1.031
10602SOL    HW232706   4.677   0.714   1.117
10603SOL     OW32707   0.824   5.071   4.894
10603SOL    HW132708   0.846   4.984   4.937
10603SOL    HW232709   0.860   5.073   4.801
10604SOL     OW32710   6.782   4.281   5.517
10604SOL    HW132711   6.823   4.336   5.444
10604SOL    HW232712   6.855   4.234   5.568
10605SOL     OW32713   1.929   5.030   6.257
10605SOL    HW132714   1.858   5.022   6.327
10605SOL    HW232715   1.896   4.988   6.172
10606SOL     OW32716   0.640   0.655   2.895
10606SOL    HW132717   0.652   0.723   2.823
10606SOL    HW232718   0.729   0.615   2.918
10607SOL     OW32719   5.935   4.858   6.664
10607SOL    HW132720   5.994   4.782   6.690
10607SOL    HW232721   5.957   4.938   6.720
10608SOL     OW32722   5.884   0.469   2.878
10608SOL    HW132723   5.919   0.409   2.806
10608SOL    HW232724   5.855   0.555   2.836
10609SOL     OW32725   3.836   6.579   2.791
10609SOL    HW132726   3.857   6.628   2.706
10609SOL    HW232727   3.833   6.644   2.867
10610SOL     OW32728   2.050   4.079   4.501
10610SOL    HW132729   1.956   4.110   4.513
10610SOL    HW232730   2.071   4.011   4.571
10611SOL     OW32731   5.072   2.315   6.310
10611SOL    HW132732   4.978   2.348   6.326
10611SOL    HW232733   5.115   2.295   6.398
10612SOL     OW32734   1.611   0.035   1.099
10612SOL    HW132735   1.705   0.064   1.117
10612SOL    HW232736   1.604   6.953   1.114
10613SOL     OW32737   0.320   6.851   6.574
10613SOL    HW132738   0.326   6.920   6.646
10613SOL    HW232739   0.412   6.821   6.549
10614SOL     OW32740   6.575   1.038   3.886
10614SOL    HW132741   6.584   0.974   3.810
10614SOL    HW232742   6.520   1.117   3.857
10615SOL     OW32743   6.569   5.816   5.667
10615SOL    HW132744   6.538   5.739   5.722
10615SOL    HW232745   6.579   5.788   5.571
10616SOL     OW32746   2.421   5.929   0.812
10616SOL    HW132747   2.390   5.985   0.889
10616SOL    HW232748   2.515   5.955   0.788
10617SOL     OW32749   0.008   1.672   6.548
10617SOL    HW132750   6.988   1.630   6.630
10617SOL    HW232751   6.976   1.637   6.468
10618SOL     OW32752   6.624   3.663   1.119
10618SOL    HW132753   6.590   3.587   1.062
10618SOL    HW232754   6.675   3.626   1.196
10619SOL     OW32755   0.489   4.156   3.100
10619SOL    HW132756   0.460   4.089   3.169
10619SOL    HW232757   0.410   4.180   3.043
10620SOL     OW32758   1.158   5.259   4.134
10620SOL    HW132759   1.231   5.318   4.100
10620SOL    HW232760   1.185   5.163   4.122
10621SOL     OW32761   2.903   6.376   0.514
10621SOL    HW132762   2.900   6.420   0.604
10621SOL    HW232763   2.982   6.315   0.510
10622SOL     OW32764   4.456   1.969   0.913
10622SOL    HW132765   4.360   1.995   0.927
10622SOL    HW232766   4.497   1.944   1.001
10623SOL     OW32767   6.994   1.032   4.257
10623SOL    HW132768   6.930   1.109   4.260
10623SOL    HW232769   0.037   1.036   4.336
10624SOL     OW32770   2.882   1.434   4.133
10624SOL    HW132771   2.789   1.472   4.131
10624SOL    HW232772   2.940   1.492   4.189
10625SOL     OW32773   0.795   2.904   0.149
10625SOL    HW132774   0.795   2.955   0.063
10625SOL    HW232775   0.823   2.964   0.224
10626SOL     OW32776   5.889   1.734   2.104
10626SOL    HW132777   5.814   1.710   2.042
10626SOL    HW232778   5.976   1.712   2.061
10627SOL     OW32779   6.243   5.902   4.294
10627SOL    HW132780   6.256   5.856   4.382
10627SOL    HW232781   6.316   5.968   4.279
10628SOL     OW32782   0.020   5.309   5.867
10628SOL    HW132783   0.061   5.398   5.889
10628SOL    HW232784   0.092   5.241   5.853
10629SOL     OW32785   2.482   4.778   6.646
10629SOL    HW132786   2.386   4.751   6.639
10629SOL    HW232787   2.502   4.847   6.575
10630SOL     OW32788   6.749   1.011   2.302
10630SOL    HW132789   6.681   1.077   2.334
10630SOL    HW232790   6.826   1.009   2.365
10631SOL     OW32791   0.962   6.643   4.744
10631SOL    HW132792   0.993   6.557   4.785
10631SOL    HW232793   0.863   6.651   4.753
10632SOL     OW32794   0.260   2.994   6.369
10632SOL    HW132795   0.257   3.093   6.356
10632SOL    HW232796   0.234   2.949   6.283
10633SOL     OW32797   0.626   5.019   0.945
10633SOL    HW132798   0.615   5.077   0.864
10633SOL    HW232799   0.549   5.034   1.007
10634SOL     OW32800   3.910   6.371   2.575
10634SOL    HW132801   3.893   6.469   2.565
10634SOL    HW232802   3.948   6.334   2.490
10635SOL     OW32803   1.466   1.066   1.709
10635SOL    HW132804   1.471   0.971   1.743
10635SOL    HW232805   1.523   1.075   1.627
10636SOL     OW32806   5.483   1.436   0.918
10636SOL    HW132807   5.504   1.506   0.850
10636SOL    HW232808   5.564   1.378   0.931
10637SOL     OW32809   3.158   4.288   5.745
10637SOL    HW132810   3.125   4.287   5.650
10637SOL    HW232811   3.138   4.199   5.788
10638SOL     OW32812   6.680   6.917   5.931
10638SOL    HW132813   6.702   6.999   5.879
10638SOL    HW232814   6.646   6.846   5.869
10639SOL     OW32815   3.721   1.897   5.030
10639SOL    HW132816   3.666   1.857   4.956
10639SOL    HW232817   3.687   1.989   5.050
10640SOL     OW32818   4.308   6.162   0.855
10640SOL    HW132819   4.290   6.193   0.949
10640SOL    HW232820   4.389   6.210   0.819
10641SOL     OW32821   3.549   0.854   6.237
10641SOL    HW132822   3.543   0.872   6.139
10641SOL    HW232823   3.646   0.847   6.263
10642SOL     OW32824   0.080   4.808   0.113
10642SOL    HW132825   0.089   4.748   0.193
10642SOL    HW232826   0.124   4.765   0.034
10643SOL     OW32827   4.022   3.403   5.674
10643SOL    HW132828   4.068   3.379   5.759
10643SOL    HW232829   4.090   3.424   5.604
10644SOL     OW32830   3.878   1.338   4.724
10644SOL    HW132831   3.798   1.291   4.688
10644SOL    HW232832   3.885   1.429   4.682
10645SOL     OW32833   2.292   0.134   4.962
10645SOL    HW132834   2.220   0.069   4.935
10645SOL    HW232835   2.312   0.195   4.885
10646SOL     OW32836   1.220   4.530   6.742
10646SOL    HW132837   1.135   4.491   6.779
10646SOL    HW232838   1.222   4.520   6.643
10647SOL     OW32839   0.227   6.064   1.104
10647SOL    HW132840   0.129   6.071   1.085
10647SOL    HW232841   0.263   6.155   1.126
10648SOL     OW32842   4.704   5.238   6.565
10648SOL    HW132843   4.656   5.159   6.603
10648SOL    HW232844   4.687   5.318   6.623
10649SOL     OW32845   0.109   4.116   6.108
10649SOL    HW132846   0.133   4.210   6.131
10649SOL    HW232847   0.015   4.113   6.072
10650SOL     OW32848   3.173   0.824   5.393
10650SOL    HW132849   3.090   0.824   5.449
10650SOL    HW232850   3.236   0.755   5.427
10651SOL     OW32851   2.674   0.442   5.572
10651SOL    HW132852   2.690   0.381   5.650
10651SOL    HW232853   2.749   0.507   5.565
10652SOL     OW32854   3.710   1.555   0.587
10652SOL    HW132855   3.764   1.495   0.528
10652SOL    HW232856   3.670   1.502   0.661
10653SOL     OW32857   5.872   3.677   4.240
10653SOL    HW132858   5.883   3.692   4.142
10653SOL    HW232859   5.784   3.632   4.257
10654SOL     OW32860   4.734   0.694   1.841
10654SOL    HW132861   4.674   0.621   1.874
10654SOL    HW232862   4.705   0.723   1.750
10655SOL     OW32863   2.689   5.491   1.212
10655SOL    HW132864   2.670   5.398   1.179
10655SOL    HW232865   2.713   5.487   1.309
10656SOL     OW32866   6.240   2.488   6.961
10656SOL    HW132867   6.334   2.465   6.985
10656SOL    HW232868   6.208   2.562   0.002
10657SOL     OW32869   6.460   0.289   1.312
10657SOL    HW132870   6.525   0.283   1.236
10657SOL    HW232871   6.505   0.258   1.396
10658SOL     OW32872   0.311   6.519   4.518
10658SOL    HW132873   0.269   6.452   4.458
10658SOL    HW232874   0.296   6.611   4.481
10659SOL     OW32875   4.763   0.823   0.667
10659SOL    HW132876   4.724   0.732   0.651
10659SOL    HW232877   4.809   0.853   0.583
10660SOL     OW32878   5.499   5.425   6.136
10660SOL    HW132879   5.549   5.338   6.128
10660SOL    HW232880   5.553   5.498   6.094
10661SOL     OW32881   0.571   0.557   2.163
10661SOL    HW132882   0.626   0.565   2.246
10661SOL    HW232883   0.537   0.647   2.137
10662SOL     OW32884   6.414   1.837   6.735
10662SOL    HW132885   6.360   1.772   6.681
10662SOL    HW232886   6.406   1.813   6.832
10663SOL     OW32887   0.537   1.949   0.766
10663SOL    HW132888   0.454   2.003   0.776
10663SOL    HW232889   0.524   1.880   0.695
10664SOL     OW32890   2.207   5.050   6.234
10664SOL    HW132891   2.231   5.134   6.186
10664SOL    HW232892   2.107   5.043   6.240
10665SOL     OW32893   5.543   0.988   6.700
10665SOL    HW132894   5.576   0.948   6.785
10665SOL    HW232895   5.478   0.925   6.657
10666SOL     OW32896   0.405   0.048   0.190
10666SOL    HW132897   0.355   6.980   0.170
10666SOL    HW232898   0.484   0.028   0.248
10667SOL     OW32899   3.090   2.432   5.642
10667SOL    HW132900   3.012   2.373   5.664
10667SOL    HW232901   3.058   2.510   5.588
10668SOL     OW32902   2.548   0.828   6.509
10668SOL    HW132903   2.642   0.851   6.481
10668SOL    HW232904   2.486   0.899   6.478
10669SOL     OW32905   1.237   6.423   6.430
10669SOL    HW132906   1.155   6.381   6.468
10669SOL    HW232907   1.214   6.514   6.395
10670SOL     OW32908   6.635   4.145   4.641
10670SOL    HW132909   6.657   4.215   4.709
10670SOL    HW232910   6.611   4.189   4.555
10671SOL     OW32911   1.810   2.379   2.930
10671SOL    HW132912   1.897   2.426   2.942
10671SOL    HW232913   1.736   2.446   2.927
10672SOL     OW32914   7.012   2.560   0.711
10672SOL    HW132915   0.023   2.489   0.775
10672SOL    HW232916   6.931   2.607   0.747
10673SOL     OW32917   3.391   3.741   4.321
10673SOL    HW132918   3.358   3.677   4.251
10673SOL    HW232919   3.323   3.812   4.336
10674SOL     OW32920   3.833   1.617   2.532
10674SOL    HW132921   3.872   1.542   2.478
10674SOL    HW232922   3.749   1.586   2.577
10675SOL     OW32923   0.923   1.029   5.757
10675SOL    HW132924   0.962   1.120   5.765
10675SOL    HW232925   0.966   0.968   5.823
10676SOL     OW32926   6.757   0.279   6.614
10676SOL    HW132927   6.782   0.291   6.518
10676SOL    HW232928   6.776   0.363   6.664
10677SOL     OW32929   6.191   1.163   0.834
10677SOL    HW132930   6.199   1.063   0.839
10677SOL    HW232931   6.254   1.205   0.899
10678SOL     OW32932   1.812   5.212   3.537
10678SOL    HW132933   1.806   5.301   3.493
10678SOL    HW232934   1.799   5.140   3.469
10679SOL     OW32935   5.763   4.683   3.605
10679SOL    HW132936   5.816   4.647   3.528
10679SOL    HW232937   5.818   4.680   3.688
10680SOL     OW32938   0.899   2.502   3.814
10680SOL    HW132939   0.988   2.500   3.859
10680SOL    HW232940   0.906   2.548   3.725
10681SOL     OW32941   0.467   2.350   6.964
10681SOL    HW132942   0.374   2.332   6.994
10681SOL    HW232943   0.521   2.385   0.024
10682SOL     OW32944   6.506   1.771   2.928
10682SOL    HW132945   6.491   1.857   2.879
10682SOL    HW232946   6.419   1.738   2.964
10683SOL     OW32947   1.347   0.254   4.107
10683SOL    HW132948   1.253   0.285   4.096
10683SOL    HW232949   1.408   0.333   4.109
10684SOL     OW32950   5.061   5.706   0.550
10684SOL    HW132951   5.147   5.710   0.498
10684SOL    HW232952   5.024   5.613   0.545
10685SOL     OW32953   6.278   2.417   2.570
10685SOL    HW132954   6.302   2.321   2.557
10685SOL    HW232955   6.186   2.433   2.534
10686SOL     OW32956   4.092   4.942   0.786
10686SOL    HW132957   4.176   4.990   0.758
10686SOL    HW232958   4.055   4.985   0.869
10687SOL     OW32959   6.454   5.175   1.386
10687SOL    HW132960   6.499   5.253   1.429
10687SOL    HW232961   6.472   5.092   1.439
10688SOL     OW32962   0.359   5.035   0.988
10688SOL    HW132963   0.307   5.120   0.998
10688SOL    HW232964   0.350   4.980   1.072
10689SOL     OW32965   0.834   0.038   0.947
10689SOL    HW132966   0.741   0.051   0.980
10689SOL    HW232967   0.890   7.015   1.020
10690SOL     OW32968   4.736   6.496   3.236
10690SOL    HW132969   4.715   6.587   3.271
10690SOL    HW232970   4.736   6.431   3.313
10691SOL     OW32971   6.139   1.382   1.743
10691SOL    HW132972   6.043   1.409   1.743
10691SOL    HW232973   6.195   1.461   1.717
10692SOL     OW32974   6.172   6.320   3.785
10692SOL    HW132975   6.146   6.353   3.876
10692SOL    HW232976   6.266   6.287   3.786
10693SOL     OW32977   5.284   2.850   3.928
10693SOL    HW132978   5.311   2.923   3.866
10693SOL    HW232979   5.231   2.887   4.003
10694SOL     OW32980   2.234   6.384   0.382
10694SOL    HW132981   2.304   6.403   0.313
10694SOL    HW232982   2.187   6.469   0.407
10695SOL     OW32983   5.265   2.901   5.640
10695SOL    HW132984   5.233   2.820   5.590
10695SOL    HW232985   5.243   2.983   5.587
10696SOL     OW32986   6.545   0.143   1.552
10696SOL    HW132987   6.492   0.060   1.566
10696SOL    HW232988   6.537   0.202   1.633
10697SOL     OW32989   1.850   6.294   2.822
10697SOL    HW132990   1.853   6.382   2.868
10697SOL    HW232991   1.929   6.239   2.849
10698SOL     OW32992   3.138   0.122   4.513
10698SOL    HW132993   3.073   0.084   4.448
10698SOL    HW232994   3.134   0.222   4.510
10699SOL     OW32995   1.872   2.586   3.546
10699SOL    HW132996   1.847   2.602   3.450
10699SOL    HW232997   1.913   2.495   3.555
10700SOL     OW32998   0.943   2.161   2.625
10700SOL    HW132999   1.038   2.185   2.606
10700SOL    HW233000   0.920   2.185   2.719
10701SOL     OW33001   2.849   0.285   1.490
10701SOL    HW133002   2.853   0.326   1.581
10701SOL    HW233003   2.775   0.328   1.437
10702SOL     OW33004   5.029   2.419   1.055
10702SOL    HW133005   4.946   2.365   1.055
10702SOL    HW233006   5.056   2.440   1.150
10703SOL     OW33007   3.687   2.919   4.222
10703SOL    HW133008   3.640   2.899   4.308
10703SOL    HW233009   3.666   2.847   4.156
10704SOL     OW33010   5.805   6.130   1.913
10704SOL    HW133011   5.778   6.198   1.844
10704SOL    HW233012   5.727   6.110   1.972
10705SOL     OW33013   1.541   3.239   6.578
10705SOL    HW133014   1.563   3.329   6.616
10705SOL    HW233015   1.444   3.220   6.591
10706SOL     OW33016   3.022   3.242   1.085
10706SOL    HW133017   3.035   3.185   1.166
10706SOL    HW233018   2.938   3.217   1.039
10707SOL     OW33019   6.048   0.042   6.435
10707SOL    HW133020   6.033   0.122   6.376
10707SOL    HW233021   6.146   0.035   6.457
10708SOL     OW33022   5.092   1.230   1.373
10708SOL    HW133023   5.017   1.296   1.368
10708SOL    HW233024   5.171   1.271   1.418
10709SOL     OW33025   0.927   0.248   6.155
10709SOL    HW133026   0.990   0.174   6.130
10709SOL    HW233027   0.979   0.330   6.179
10710SOL     OW33028   6.659   6.467   3.590
10710SOL    HW133029   6.701   6.377   3.587
10710SOL    HW233030   6.612   6.485   3.503
10711SOL     OW33031   2.259   4.655   5.413
10711SOL    HW133032   2.303   4.686   5.329
10711SOL    HW233033   2.179   4.712   5.432
10712SOL     OW33034   3.610   1.727   6.167
10712SOL    HW133035   3.580   1.691   6.256
10712SOL    HW233036   3.661   1.656   6.119
10713SOL     OW33037   1.831   6.854   0.592
10713SOL    HW133038   1.847   6.927   0.527
10713SOL    HW233039   1.788   6.892   0.675
10714SOL     OW33040   6.259   5.818   4.536
10714SOL    HW133041   6.193   5.757   4.582
10714SOL    HW233042   6.265   5.904   4.586
10715SOL     OW33043   5.833   0.719   2.726
10715SOL    HW133044   5.785   0.662   2.659
10715SOL    HW233045   5.766   0.769   2.780
10716SOL     OW33046   0.377   1.043   1.700
10716SOL    HW133047   0.464   1.080   1.668
10716SOL    HW233048   0.383   1.023   1.798
10717SOL     OW33049   6.991   6.476   2.340
10717SOL    HW133050   0.060   6.503   2.384
10717SOL    HW233051   7.010   6.420   2.260
10718SOL     OW33052   0.998   4.077   5.245
10718SOL    HW133053   0.941   4.106   5.168
10718SOL    HW233054   1.003   4.151   5.312
10719SOL     OW33055   3.785   6.209   2.183
10719SOL    HW133056   3.776   6.110   2.196
10719SOL    HW233057   3.764   6.231   2.088
10720SOL     OW33058   0.320   3.579   6.535
10720SOL    HW133059   0.230   3.568   6.494
10720SOL    HW233060   0.389   3.584   6.463
10721SOL     OW33061   5.594   1.932   4.233
10721SOL    HW133062   5.649   2.012   4.256
10721SOL    HW233063   5.598   1.866   4.308
10722SOL     OW33064   0.373   5.369   0.373
10722SOL    HW133065   0.284   5.355   0.328
10722SOL    HW233066   0.446   5.358   0.306
10723SOL     OW33067   6.343   4.083   6.450
10723SOL    HW133068   6.291   4.169   6.450
10723SOL    HW233069   6.441   4.103   6.445
10724SOL     OW33070   3.596   7.009   5.507
10724SOL    HW133071   3.534   6.956   5.449
10724SOL    HW233072   3.673   0.026   5.451
10725SOL     OW33073   0.518   6.536   5.200
10725SOL    HW133074   0.438   6.480   5.223
10725SOL    HW233075   0.497   6.632   5.214
10726SOL     OW33076   6.893   0.668   3.455
10726SOL    HW133077   6.902   0.698   3.550
10726SOL    HW233078   6.873   0.570   3.454
10727SOL     OW33079   4.739   6.754   6.353
10727SOL    HW133080   4.660   6.722   6.406
10727SOL    HW233081   4.804   6.679   6.343
10728SOL     OW33082   5.711   5.306   3.820
10728SOL    HW133083   5.645   5.331   3.891
10728SOL    HW233084   5.741   5.388   3.771
10729SOL     OW33085   6.510   3.592   4.031
10729SOL    HW133086   6.510   3.585   3.931
10729SOL    HW233087   6.462   3.514   4.070
10730SOL     OW33088   1.119   6.212   4.451
10730SOL    HW133089   1.192   6.145   4.464
10730SOL    HW233090   1.083   6.241   4.540
10731SOL     OW33091   5.195   5.834   6.664
10731SOL    HW133092   5.104   5.791   6.662
10731SOL    HW233093   5.264   5.767   6.635
10732SOL     OW33094   6.708   6.145   2.293
10732SOL    HW133095   6.795   6.123   2.250
10732SOL    HW233096   6.688   6.079   2.366
10733SOL     OW33097   0.523   1.912   6.049
10733SOL    HW133098   0.582   1.856   5.991
10733SOL    HW233099   0.443   1.859   6.076
10734SOL     OW33100   0.658   0.976   4.537
10734SOL    HW133101   0.586   1.021   4.484
10734SOL    HW233102   0.621   0.893   4.580
10735SOL     OW33103   0.150   0.836   1.947
10735SOL    HW133104   0.153   0.834   1.847
10735SOL    HW233105   0.214   0.768   1.983
10736SOL     OW33106   6.017   5.919   3.564
10736SOL    HW133107   6.061   5.880   3.645
10736SOL    HW233108   5.939   5.976   3.591
10737SOL     OW33109   6.950   0.770   1.661
10737SOL    HW133110   6.855   0.776   1.691
10737SOL    HW233111   6.954   0.734   1.568
10738SOL     OW33112   2.569   6.646   1.581
10738SOL    HW133113   2.474   6.655   1.552
10738SOL    HW233114   2.629   6.664   1.503
10739SOL     OW33115   4.899   3.009   4.270
10739SOL    HW133116   4.889   2.997   4.171
10739SOL    HW233117   4.839   2.945   4.317
10740SOL     OW33118   2.930   0.153   5.845
10740SOL    HW133119   2.943   0.147   5.747
10740SOL    HW233120   3.019   0.167   5.890
10741SOL     OW33121   1.166   2.521   3.872
10741SOL    HW133122   1.152   2.526   3.971
10741SOL    HW233123   1.210   2.606   3.841
10742SOL     OW33124   6.969   0.401   2.056
10742SOL    HW133125   6.899   0.391   2.126
10742SOL    HW233126   0.041   0.378   2.095
10743SOL     OW33127   3.687   2.196   5.429
10743SOL    HW133128   3.736   2.123   5.478
10743SOL    HW233129   3.617   2.235   5.489
10744SOL     OW33130   2.789   1.558   1.711
10744SOL    HW133131   2.883   1.526   1.701
10744SOL    HW233132   2.753   1.586   1.622
10745SOL     OW33133   2.174   5.709   1.410
10745SOL    HW133134   2.216   5.622   1.385
10745SOL    HW233135   2.125   5.699   1.497
10746SOL     OW33136   1.970   5.468   5.966
10746SOL    HW133137   1.888   5.524   5.980
10746SOL    HW233138   2.051   5.525   5.981
10747SOL     OW33139   0.506   0.735   4.581
10747SOL    HW133140   0.550   0.682   4.509
10747SOL    HW233141   0.496   0.678   4.663
10748SOL     OW33142   2.907   6.496   2.249
10748SOL    HW133143   2.831   6.555   2.277
10748SOL    HW233144   2.879   6.441   2.171
10749SOL     OW33145   6.024   4.487   1.971
10749SOL    HW133146   6.018   4.517   2.066
10749SOL    HW233147   5.948   4.425   1.951
10750SOL     OW33148   4.176   2.199   4.156
10750SOL    HW133149   4.271   2.175   4.136
10750SOL    HW233150   4.169   2.230   4.251
10751SOL     OW33151   6.516   6.360   3.843
10751SOL    HW133152   6.502   6.406   3.931
10751SOL    HW233153   6.552   6.426   3.777
10752SOL     OW33154   0.136   6.522   6.778
10752SOL    HW133155   0.229   6.486   6.772
10752SOL    HW233156   0.139   6.619   6.801
10753SOL     OW33157   5.472   6.868   4.876
10753SOL    HW133158   5.377   6.898   4.865
10753SOL    HW233159   5.479   6.812   4.959
10754SOL     OW33160   0.563   5.695   2.256
10754SOL    HW133161   0.576   5.737   2.166
10754SOL    HW233162   0.633   5.625   2.271
10755SOL     OW33163   0.482   2.296   1.703
10755SOL    HW133164   0.472   2.249   1.616
10755SOL    HW233165   0.503   2.392   1.687
10756SOL     OW33166   0.929   0.118   6.548
10756SOL    HW133167   0.939   0.088   6.643
10756SOL    HW233168   1.016   0.105   6.500
10757SOL     OW33169   6.524   3.202   2.131
10757SOL    HW133170   6.489   3.122   2.180
10757SOL    HW233171   6.457   3.277   2.138
10758SOL     OW33172   1.167   1.579   0.708
10758SOL    HW133173   1.131   1.599   0.617
10758SOL    HW233174   1.112   1.506   0.750
10759SOL     OW33175   2.908   3.520   4.702
10759SOL    HW133176   2.811   3.512   4.724
10759SOL    HW233177   2.919   3.569   4.615
10760SOL     OW33178   0.639   5.100   0.178
10760SOL    HW133179   0.570   5.059   0.117
10760SOL    HW233180   0.633   5.057   0.268
10761SOL     OW33181   1.865   1.176   5.918
10761SOL    HW133182   1.782   1.202   5.869
10761SOL    HW233183   1.925   1.124   5.856
10762SOL     OW33184   1.465   6.776   0.444
10762SOL    HW133185   1.511   6.850   0.494
10762SOL    HW233186   1.533   6.707   0.420
10763SOL     OW33187   4.936   1.044   2.716
10763SOL    HW133188   4.997   1.103   2.662
10763SOL    HW233189   4.857   1.097   2.745
10764SOL     OW33190   5.033   5.920   4.912
10764SOL    HW133191   5.084   5.851   4.860
10764SOL    HW233192   4.947   5.881   4.944
10765SOL     OW33193   0.699   2.303   0.811
10765SOL    HW133194   0.650   2.314   0.724
10765SOL    HW233195   0.796   2.287   0.792
10766SOL     OW33196   2.280   5.306   6.075
10766SOL    HW133197   2.266   5.404   6.063
10766SOL    HW233198   2.318   5.267   5.992
10767SOL     OW33199   1.433   5.049   6.497
10767SOL    HW133200   1.374   5.081   6.423
10767SOL    HW233201   1.401   5.087   6.584
10768SOL     OW33202   5.411   6.116   0.017
10768SOL    HW133203   5.340   6.122   6.964
10768SOL    HW233204   5.438   6.207   0.045
10769SOL     OW33205   2.922   3.663   4.416
10769SOL    HW133206   2.976   3.579   4.409
10769SOL    HW233207   2.927   3.713   4.329
10770SOL     OW33208   5.222   0.360   3.413
10770SOL    HW133209   5.158   0.313   3.352
10770SOL    HW233210   5.190   0.351   3.508
10771SOL     OW33211   4.477   6.384   6.056
10771SOL    HW133212   4.540   6.461   6.044
10771SOL    HW233213   4.504   6.330   6.136
10772SOL     OW33214   5.049   4.316   2.664
10772SOL    HW133215   4.973   4.379   2.647
10772SOL    HW233216   5.074   4.320   2.760
10773SOL     OW33217   0.713   3.987   0.373
10773SOL    HW133218   0.678   3.989   0.467
10773SOL    HW233219   0.657   4.046   0.315
10774SOL     OW33220   0.516   3.361   0.944
10774SOL    HW133221   0.525   3.455   0.910
10774SOL    HW233222   0.421   3.332   0.936
10775SOL     OW33223   1.947   4.338   0.378
10775SOL    HW133224   1.877   4.334   0.307
10775SOL    HW233225   1.905   4.317   0.467
10776SOL     OW33226   0.559   3.022   3.090
10776SOL    HW133227   0.628   3.092   3.106
10776SOL    HW233228   0.593   2.934   3.122
10777SOL     OW33229   1.316   0.300   1.302
10777SOL    HW133230   1.223   0.310   1.267
10777SOL    HW233231   1.379   0.286   1.226
10778SOL     OW33232   4.641   0.495   3.837
10778SOL    HW133233   4.599   0.405   3.851
10778SOL    HW233234   4.619   0.529   3.746
10779SOL     OW33235   5.932   2.617   5.693
10779SOL    HW133236   5.836   2.622   5.721
10779SOL    HW233237   5.954   2.524   5.663
10780SOL     OW33238   1.440   5.010   5.351
10780SOL    HW133239   1.435   5.105   5.321
10780SOL    HW233240   1.530   4.993   5.393
10781SOL     OW33241   5.881   2.018   6.308
10781SOL    HW133242   5.916   1.952   6.241
10781SOL    HW233243   5.947   2.092   6.320
10782SOL     OW33244   1.291   2.661   5.152
10782SOL    HW133245   1.354   2.692   5.080
10782SOL    HW233246   1.336   2.592   5.209
10783SOL     OW33247   1.311   3.635   3.160
10783SOL    HW133248   1.385   3.667   3.100
10783SOL    HW233249   1.333   3.543   3.193
10784SOL     OW33250   4.952   5.391   4.036
10784SOL    HW133251   4.984   5.311   4.086
10784SOL    HW233252   5.030   5.444   4.003
10785SOL     OW33253   1.469   5.154   1.519
10785SOL    HW133254   1.409   5.186   1.446
10785SOL    HW233255   1.458   5.213   1.600
10786SOL     OW33256   5.162   1.399   2.294
10786SOL    HW133257   5.256   1.370   2.277
10786SOL    HW233258   5.102   1.358   2.225
10787SOL     OW33259   3.701   1.941   3.672
10787SOL    HW133260   3.763   2.020   3.673
10787SOL    HW233261   3.729   1.875   3.742
10788SOL     OW33262   1.562   3.478   0.121
10788SOL    HW133263   1.639   3.543   0.120
10788SOL    HW233264   1.577   3.409   0.050
10789SOL     OW33265   6.761   1.623   2.351
10789SOL    HW133266   6.715   1.701   2.394
10789SOL    HW233267   6.860   1.638   2.352
10790SOL     OW33268   6.825   2.095   5.468
10790SOL    HW133269   6.754   2.162   5.491
10790SOL    HW233270   6.848   2.042   5.550
10791SOL     OW33271   1.911   2.720   3.871
10791SOL    HW133272   1.944   2.811   3.844
10791SOL    HW233273   1.989   2.660   3.887
10792SOL     OW33274   3.600   0.937   2.470
10792SOL    HW133275   3.533   0.983   2.527
10792SOL    HW233276   3.683   0.993   2.463
10793SOL     OW33277   3.278   1.488   4.501
10793SOL    HW133278   3.258   1.524   4.592
10793SOL    HW233279   3.290   1.389   4.506
10794SOL     OW33280   4.836   2.808   6.774
10794SOL    HW133281   4.903   2.830   6.703
10794SOL    HW233282   4.884   2.772   6.855
10795SOL     OW33283   6.304   3.247   3.340
10795SOL    HW133284   6.223   3.306   3.345
10795SOL    HW233285   6.353   3.264   3.254
10796SOL     OW33286   0.471   1.583   6.022
10796SOL    HW133287   0.441   1.581   6.117
10796SOL    HW233288   0.564   1.620   6.017
10797SOL     OW33289   5.457   4.824   6.699
10797SOL    HW133290   5.380   4.811   6.637
10797SOL    HW233291   5.448   4.912   6.746
10798SOL     OW33292   1.667   6.362   0.549
10798SOL    HW133293   1.737   6.298   0.516
10798SOL    HW233294   1.706   6.422   0.617
10799SOL     OW33295   3.083   0.664   2.432
10799SOL    HW133296   2.989   0.650   2.462
10799SOL    HW233297   3.146   0.642   2.508
10800SOL     OW33298   2.122   0.314   5.150
10800SOL    HW133299   2.042   0.256   5.163
10800SOL    HW233300   2.195   0.261   5.107
10801SOL     OW33301   2.786   5.945   6.732
10801SOL    HW133302   2.689   5.970   6.729
10801SOL    HW233303   2.840   6.025   6.758
10802SOL     OW33304   0.933   4.560   4.226
10802SOL    HW133305   0.842   4.585   4.258
10802SOL    HW233306   0.955   4.612   4.143
10803SOL     OW33307   6.866   3.941   5.012
10803SOL    HW133308   6.927   3.941   5.091
10803SOL    HW233309   6.833   3.849   4.995
10804SOL     OW33310   3.855   4.587   1.054
10804SOL    HW133311   3.934   4.541   1.013
10804SOL    HW233312   3.815   4.528   1.123
10805SOL     OW33313   3.964   6.197   0.275
10805SOL    HW133314   3.945   6.130   0.203
10805SOL    HW233315   3.927   6.286   0.248
10806SOL     OW33316   5.528   3.103   6.351
10806SOL    HW133317   5.518   3.092   6.450
10806SOL    HW233318   5.620   3.135   6.331
10807SOL     OW33319   5.300   2.335   4.667
10807SOL    HW133320   5.217   2.299   4.624
10807SOL    HW233321   5.301   2.309   4.763
10808SOL     OW33322   0.810   2.238   6.601
10808SOL    HW133323   0.891   2.202   6.646
10808SOL    HW233324   0.784   2.176   6.526
10809SOL     OW33325   1.164   1.137   2.486
10809SOL    HW133326   1.136   1.217   2.433
10809SOL    HW233327   1.201   1.067   2.424
10810SOL     OW33328   2.148   1.170   6.301
10810SOL    HW133329   2.071   1.228   6.277
10810SOL    HW233330   2.115   1.078   6.322
10811SOL     OW33331   4.156   5.650   6.773
10811SOL    HW133332   4.150   5.737   6.820
10811SOL    HW233333   4.160   5.576   6.840
10812SOL     OW33334   6.393   3.009   2.567
10812SOL    HW133335   6.384   3.096   2.615
10812SOL    HW233336   6.454   3.021   2.489
10813SOL     OW33337   3.285   6.567   2.082
10813SOL    HW133338   3.232   6.627   2.141
10813SOL    HW233339   3.347   6.511   2.137
10814SOL     OW33340   1.684   6.490   4.180
10814SOL    HW133341   1.615   6.426   4.146
10814SOL    HW233342   1.689   6.569   4.119
10815SOL     OW33343   5.364   1.958   5.324
10815SOL    HW133344   5.408   1.946   5.234
10815SOL    HW233345   5.429   1.936   5.396
10816SOL     OW33346   2.127   1.718   1.644
10816SOL    HW133347   2.112   1.715   1.743
10816SOL    HW233348   2.216   1.678   1.623
10817SOL     OW33349   3.458   1.645   1.952
10817SOL    HW133350   3.505   1.685   1.874
10817SOL    HW233351   3.442   1.715   2.022
10818SOL     OW33352   4.750   3.582   6.367
10818SOL    HW133353   4.726   3.500   6.421
10818SOL    HW233354   4.730   3.664   6.421
10819SOL     OW33355   1.506   3.949   5.314
10819SOL    HW133356   1.456   3.969   5.398
10819SOL    HW233357   1.480   4.014   5.242
10820SOL     OW33358   0.681   5.779   4.614
10820SOL    HW133359   0.707   5.690   4.650
10820SOL    HW233360   0.621   5.767   4.535
10821SOL     OW33361   0.798   0.731   6.635
10821SOL    HW133362   0.807   0.631   6.629
10821SOL    HW233363   0.884   0.770   6.669
10822SOL     OW33364   0.752   4.274   6.495
10822SOL    HW133365   0.765   4.176   6.488
10822SOL    HW233366   0.772   4.318   6.408
10823SOL     OW33367   2.155   2.510   0.842
10823SOL    HW133368   2.196   2.445   0.906
10823SOL    HW233369   2.079   2.558   0.886
10824SOL     OW33370   5.413   1.370   4.148
10824SOL    HW133371   5.462   1.378   4.061
10824SOL    HW233372   5.318   1.398   4.136
10825SOL     OW33373   2.878   1.202   2.559
10825SOL    HW133374   2.813   1.273   2.586
10825SOL    HW233375   2.969   1.226   2.593
10826SOL     OW33376   7.013   3.301   1.382
10826SOL    HW133377   6.979   3.357   1.306
10826SOL    HW233378   6.939   3.245   1.418
10827SOL     OW33379   0.777   2.563   4.431
10827SOL    HW133380   0.817   2.525   4.514
10827SOL    HW233381   0.699   2.507   4.403
10828SOL     OW33382   2.496   4.975   0.267
10828SOL    HW133383   2.438   5.050   0.235
10828SOL    HW233384   2.556   4.945   0.193
10829SOL     OW33385   2.363   4.181   1.911
10829SOL    HW133386   2.319   4.170   2.000
10829SOL    HW233387   2.372   4.092   1.867
10830SOL     OW33388   6.014   0.718   3.367
10830SOL    HW133389   6.108   0.705   3.398
10830SOL    HW233390   5.995   0.654   3.293
10831SOL     OW33391   5.489   2.373   1.867
10831SOL    HW133392   5.553   2.389   1.942
10831SOL    HW233393   5.401   2.342   1.905
10832SOL     OW33394   0.693   3.067   2.734
10832SOL    HW133395   0.786   3.087   2.704
10832SOL    HW233396   0.647   3.013   2.664
10833SOL     OW33397   3.353   6.978   4.445
10833SOL    HW133398   3.353   6.980   4.345
10833SOL    HW233399   3.278   0.017   4.480
10834SOL     OW33400   6.892   1.265   6.042
10834SOL    HW133401   6.885   1.309   5.952
10834SOL    HW233402   6.913   1.335   6.110
10835SOL     OW33403   0.889   1.867   0.885
10835SOL    HW133404   0.896   1.902   0.791
10835SOL    HW233405   0.795   1.842   0.905
10836SOL     OW33406   0.796   2.717   1.142
10836SOL    HW133407   0.779   2.637   1.084
10836SOL    HW233408   0.888   2.710   1.181
10837SOL     OW33409   0.552   5.801   0.896
10837SOL    HW133410   0.547   5.882   0.837
10837SOL    HW233411   0.646   5.788   0.926
10838SOL     OW33412   6.372   6.322   1.007
10838SOL    HW133413   6.452   6.358   0.959
10838SOL    HW233414   6.298   6.389   1.004
10839SOL     OW33415   1.994   1.824   6.436
10839SOL    HW133416   2.000   1.725   6.430
10839SOL    HW233417   2.081   1.866   6.411
10840SOL     OW33418   2.134   0.041   2.542
10840SOL    HW133419   2.140   6.971   2.493
10840SOL    HW233420   2.091   0.110   2.483
10841SOL     OW33421   4.514   3.534   0.724
10841SOL    HW133422   4.487   3.559   0.817
10841SOL    HW233423   4.569   3.450   0.726
10842SOL     OW33424   5.830   2.128   1.746
10842SOL    HW133425   5.897   2.057   1.724
10842SOL    HW233426   5.833   2.200   1.676
10843SOL     OW33427   0.708   2.244   1.850
10843SOL    HW133428   0.777   2.287   1.791
10843SOL    HW233429   0.617   2.263   1.813
10844SOL     OW33430   5.077   0.530   3.879
10844SOL    HW133431   5.156   0.503   3.824
10844SOL    HW233432   5.037   0.449   3.922
10845SOL     OW33433   2.284   3.155   1.192
10845SOL    HW133434   2.231   3.240   1.184
10845SOL    HW233435   2.240   3.094   1.258
10846SOL     OW33436   3.456   2.671   1.570
10846SOL    HW133437   3.504   2.600   1.621
10846SOL    HW233438   3.516   2.706   1.498
10847SOL     OW33439   4.647   2.235   5.260
10847SOL    HW133440   4.552   2.262   5.242
10847SOL    HW233441   4.690   2.206   5.175
10848SOL     OW33442   1.543   0.971   6.835
10848SOL    HW133443   1.633   1.008   6.811
10848SOL    HW233444   1.515   1.008   6.923
10849SOL     OW33445   1.486   4.770   4.203
10849SOL    HW133446   1.547   4.748   4.279
10849SOL    HW233447   1.532   4.749   4.117
10850SOL     OW33448   5.529   0.756   2.066
10850SOL    HW133449   5.436   0.786   2.086
10850SOL    HW233450   5.572   0.823   2.005
10851SOL     OW33451   4.600   2.923   6.803
10851SOL    HW133452   4.690   2.897   6.768
10851SOL    HW233453   4.547   2.841   6.826
10852SOL     OW33454   6.200   0.541   5.980
10852SOL    HW133455   6.102   0.529   6.000
10852SOL    HW233456   6.242   0.595   6.052
10853SOL     OW33457   3.343   0.759   4.447
10853SOL    HW133458   3.411   0.705   4.397
10853SOL    HW233459   3.375   0.774   4.541
10854SOL     OW33460   6.137   6.843   0.460
10854SOL    HW133461   6.063   6.908   0.443
10854SOL    HW233462   6.170   6.853   0.554
10855SOL     OW33463   0.408   5.760   1.320
10855SOL    HW133464   0.401   5.859   1.306
10855SOL    HW233465   0.483   5.723   1.265
10856SOL     OW33466   5.581   6.400   6.829
10856SOL    HW133467   5.542   6.428   6.917
10856SOL    HW233468   5.512   6.410   6.757
10857SOL     OW33469   6.528   6.847   4.686
10857SOL    HW133470   6.514   6.792   4.768
10857SOL    HW233471   6.621   6.883   4.685
10858SOL     OW33472   2.111   2.279   0.038
10858SOL    HW133473   2.163   2.228   0.106
10858SOL    HW233474   2.105   2.226   6.971
10859SOL     OW33475   2.299   5.252   2.797
10859SOL    HW133476   2.258   5.230   2.886
10859SOL    HW233477   2.398   5.251   2.805
10860SOL     OW33478   5.939   2.143   1.031
10860SOL    HW133479   5.864   2.100   1.081
10860SOL    HW233480   5.903   2.214   0.971
10861SOL     OW33481   1.662   4.060   1.630
10861SOL    HW133482   1.695   4.037   1.538
10861SOL    HW233483   1.565   4.084   1.626
10862SOL     OW33484   3.427   4.239   5.278
10862SOL    HW133485   3.504   4.206   5.333
10862SOL    HW233486   3.345   4.187   5.302
10863SOL     OW33487   1.720   0.401   3.038
10863SOL    HW133488   1.667   0.486   3.036
10863SOL    HW233489   1.803   0.412   2.984
10864SOL     OW33490   2.974   3.638   2.028
10864SOL    HW133491   2.935   3.589   1.950
10864SOL    HW233492   3.073   3.624   2.030
10865SOL     OW33493   2.958   2.036   2.567
10865SOL    HW133494   3.034   2.011   2.628
10865SOL    HW233495   2.978   2.004   2.475
10866SOL     OW33496   0.760   3.293   4.491
10866SOL    HW133497   0.715   3.222   4.546
10866SOL    HW233498   0.850   3.313   4.531
10867SOL     OW33499   4.717   3.192   0.183
10867SOL    HW133500   4.675   3.101   0.184
10867SOL    HW233501   4.685   3.244   0.262
10868SOL     OW33502   1.114   6.939   5.259
10868SOL    HW133503   1.165   6.867   5.306
10868SOL    HW233504   1.017   6.914   5.256
10869NA      NA33505   0.103   1.171   6.393
10870NA      NA33506   4.653   4.762   5.211
10871NA      NA33507   0.900   4.802   2.718
10872NA      NA33508   6.000   3.578   3.373
10873NA      NA33509   3.946   2.683   5.545
10874NA      NA33510   2.312   4.602   6.808
10875NA      NA33511   1.629   5.534   0.364
10876NA      NA33512   4.363   5.012   1.906
10877NA      NA33513   5.115   3.817   1.335
10878NA      NA33514   3.767   1.791   0.564
10879NA      NA33515   5.380   6.518   1.462
10880NA      NA33516   2.445   7.011   5.088
10881NA      NA33517   4.087   4.996   2.609
10882NA      NA33518   4.102   4.655   6.606
   7.01709   7.01709   7.01709
