Generated by trjconv : CNT in water t= 573.00000
33518
    1C        C    1   2.841   2.765   4.749
    1C        C    2   2.894   2.713   4.869
    1C        C    3   2.846   2.773   4.986
    1C        C    4   2.851   2.773   4.261
    1C        C    5   2.906   2.728   4.383
    1C        C    6   2.853   2.775   4.505
    1C        C    7   3.012   2.637   4.629
    1C        C    8   2.904   2.728   4.628
    1C        C    9   3.078   2.604   4.749
    1C        C   10   3.010   2.634   4.870
    1C        C   11   3.186   2.496   4.981
    1C        C   12   3.061   2.559   4.977
    1C        C   13   2.851   2.766   3.772
    1C        C   14   2.898   2.715   3.896
    1C        C   15   2.847   2.768   4.017
    1C        C   16   3.015   2.639   4.140
    1C        C   17   2.900   2.722   4.139
    1C        C   18   3.080   2.607   4.262
    1C        C   19   3.018   2.642   4.384
    1C        C   20   3.208   2.556   4.505
    1C        C   21   3.073   2.599   4.507
    1C        C   22   3.279   2.534   4.626
    1C        C   23   3.208   2.546   4.747
    1C        C   24   3.415   2.486   4.866
    1C        C   25   3.273   2.506   4.868
    1C        C   26   3.492   2.483   4.983
    1C        C   27   2.848   2.762   3.284
    1C        C   28   2.904   2.722   3.408
    1C        C   29   2.852   2.771   3.530
    1C        C   30   3.019   2.635   3.653
    1C        C   31   2.906   2.720   3.651
    1C        C   32   3.079   2.600   3.776
    1C        C   33   3.014   2.635   3.896
    1C        C   34   3.208   2.552   4.018
    1C        C   35   3.076   2.602   4.019
    1C        C   36   3.278   2.532   4.139
    1C        C   37   3.210   2.553   4.262
    1C        C   38   3.415   2.504   4.382
    1C        C   39   3.277   2.532   4.384
    1C        C   40   3.487   2.509   4.503
    1C        C   41   3.418   2.511   4.627
    1C        C   42   3.633   2.489   4.745
    1C        C   43   3.490   2.491   4.746
    1C        C   44   3.707   2.486   4.865
    1C        C   45   3.631   2.475   4.982
    1C        C   46   2.834   2.750   2.795
    1C        C   47   2.892   2.706   2.916
    1C        C   48   2.845   2.759   3.038
    1C        C   49   3.016   2.636   3.163
    1C        C   50   2.900   2.716   3.161
    1C        C   51   3.075   2.600   3.286
    1C        C   52   3.017   2.637   3.409
    1C        C   53   3.208   2.543   3.529
    1C        C   54   3.078   2.597   3.530
    1C        C   55   3.274   2.518   3.651
    1C        C   56   3.209   2.544   3.774
    1C        C   57   3.417   2.507   3.893
    1C        C   58   3.277   2.529   3.897
    1C        C   59   3.487   2.504   4.015
    1C        C   60   3.418   2.510   4.138
    1C        C   61   3.628   2.508   4.259
    1C        C   62   3.487   2.500   4.261
    1C        C   63   3.701   2.512   4.380
    1C        C   64   3.628   2.512   4.501
    1C        C   65   3.836   2.548   4.624
    1C        C   66   3.699   2.512   4.623
    1C        C   67   3.907   2.564   4.745
    1C        C   68   3.840   2.534   4.865
    1C        C   69   4.051   2.585   4.978
    1C        C   70   3.919   2.537   4.981
    1C        C   71   2.821   2.731   2.308
    1C        C   72   2.884   2.695   2.429
    1C        C   73   2.829   2.741   2.551
    1C        C   74   3.004   2.621   2.674
    1C        C   75   2.887   2.701   2.673
    1C        C   76   3.070   2.592   2.795
    1C        C   77   3.008   2.625   2.917
    1C        C   78   3.204   2.543   3.038
    1C        C   79   3.073   2.596   3.039
    1C        C   80   3.272   2.523   3.160
    1C        C   81   3.206   2.546   3.283
    1C        C   82   3.413   2.501   3.405
    1C        C   83   3.273   2.524   3.405
    1C        C   84   3.485   2.499   3.526
    1C        C   85   3.414   2.502   3.648
    1C        C   86   3.627   2.507   3.772
    1C        C   87   3.486   2.499   3.770
    1C        C   88   3.699   2.515   3.893
    1C        C   89   3.628   2.508   4.015
    1C        C   90   3.837   2.550   4.137
    1C        C   91   3.700   2.516   4.137
    1C        C   92   3.905   2.573   4.258
    1C        C   93   3.838   2.545   4.380
    1C        C   94   4.031   2.633   4.503
    1C        C   95   3.904   2.573   4.502
    1C        C   96   4.096   2.667   4.624
    1C        C   97   4.036   2.623   4.744
    1C        C   98   4.197   2.763   4.862
    1C        C   99   4.102   2.656   4.865
    1C        C  100   4.219   2.841   4.976
    1C        C  101   2.822   2.731   2.068
    1C        C  102   2.993   2.598   2.188
    1C        C  103   2.875   2.680   2.187
    1C        C  104   3.062   2.577   2.310
    1C        C  105   3.001   2.615   2.431
    1C        C  106   3.200   2.539   2.551
    1C        C  107   3.066   2.584   2.553
    1C        C  108   3.270   2.520   2.672
    1C        C  109   3.201   2.538   2.794
    1C        C  110   3.411   2.503   2.917
    1C        C  111   3.271   2.523   2.916
    1C        C  112   3.482   2.498   3.039
    1C        C  113   3.412   2.504   3.162
    1C        C  114   3.625   2.507   3.280
    1C        C  115   3.484   2.497   3.283
    1C        C  116   3.695   2.512   3.403
    1C        C  117   3.627   2.505   3.526
    1C        C  118   3.834   2.548   3.647
    1C        C  119   3.696   2.514   3.649
    1C        C  120   3.899   2.572   3.770
    1C        C  121   3.836   2.549   3.894
    1C        C  122   4.030   2.640   4.016
    1C        C  123   3.904   2.577   4.015
    1C        C  124   4.093   2.674   4.138
    1C        C  125   4.030   2.638   4.259
    1C        C  126   4.198   2.767   4.379
    1C        C  127   4.092   2.674   4.381
    1C        C  128   4.245   2.822   4.500
    1C        C  129   4.197   2.765   4.620
    1C        C  130   4.331   2.933   4.739
    1C        C  131   4.251   2.815   4.741
    1C        C  132   4.359   3.003   4.859
    1C        C  133   4.286   2.963   4.971
    1C        C  134   3.172   2.470   2.080
    1C        C  135   3.039   2.511   2.084
    1C        C  136   3.258   2.481   2.191
    1C        C  137   3.194   2.524   2.309
    1C        C  138   3.406   2.490   2.429
    1C        C  139   3.267   2.513   2.430
    1C        C  140   3.479   2.484   2.550
    1C        C  141   3.409   2.497   2.672
    1C        C  142   3.621   2.500   2.791
    1C        C  143   3.480   2.491   2.794
    1C        C  144   3.692   2.514   2.912
    1C        C  145   3.623   2.501   3.035
    1C        C  146   3.831   2.543   3.156
    1C        C  147   3.694   2.512   3.157
    1C        C  148   3.899   2.567   3.278
    1C        C  149   3.832   2.545   3.400
    1C        C  150   4.027   2.627   3.524
    1C        C  151   3.899   2.568   3.523
    1C        C  152   4.087   2.667   3.645
    1C        C  153   4.024   2.637   3.768
    1C        C  154   4.195   2.763   3.891
    1C        C  155   4.083   2.677   3.890
    1C        C  156   4.252   2.810   4.012
    1C        C  157   4.203   2.763   4.135
    1C        C  158   4.338   2.926   4.254
    1C        C  159   4.250   2.816   4.258
    1C        C  160   4.378   2.987   4.375
    1C        C  161   4.333   2.933   4.498
    1C        C  162   4.442   3.116   4.616
    1C        C  163   4.375   2.992   4.619
    1C        C  164   4.469   3.185   4.736
    1C        C  165   4.434   3.123   4.857
    1C        C  166   4.520   3.316   4.969
    1C        C  167   4.485   3.182   4.973
    1C        C  168   3.474   2.438   2.076
    1C        C  169   3.398   2.462   2.191
    1C        C  170   3.618   2.476   2.307
    1C        C  171   3.476   2.472   2.308
    1C        C  172   3.693   2.490   2.426
    1C        C  173   3.620   2.487   2.548
    1C        C  174   3.827   2.543   2.667
    1C        C  175   3.692   2.502   2.668
    1C        C  176   3.895   2.567   2.788
    1C        C  177   3.830   2.548   2.912
    1C        C  178   4.027   2.626   3.032
    1C        C  179   3.899   2.566   3.034
    1C        C  180   4.086   2.664   3.155
    1C        C  181   4.027   2.628   3.278
    1C        C  182   4.199   2.749   3.402
    1C        C  183   4.088   2.661   3.401
    1C        C  184   4.249   2.802   3.523
    1C        C  185   4.199   2.753   3.645
    1C        C  186   4.340   2.912   3.766
    1C        C  187   4.249   2.804   3.767
    1C        C  188   4.383   2.973   3.886
    1C        C  189   4.344   2.918   4.010
    1C        C  190   4.450   3.104   4.129
    1C        C  191   4.379   2.981   4.131
    1C        C  192   4.478   3.173   4.249
    1C        C  193   4.447   3.110   4.372
    1C        C  194   4.504   3.317   4.494
    1C        C  195   4.471   3.179   4.493
    1C        C  196   4.518   3.391   4.613
    1C        C  197   4.515   3.320   4.735
    1C        C  198   4.558   3.536   4.850
    1C        C  199   4.534   3.395   4.854
    1C        C  200   4.581   3.621   4.963
    1C        C  201   3.613   2.417   2.077
    1C        C  202   3.825   2.520   2.184
    1C        C  203   3.690   2.473   2.184
    1C        C  204   3.898   2.545   2.303
    1C        C  205   3.829   2.525   2.424
    1C        C  206   4.022   2.622   2.543
    1C        C  207   3.896   2.558   2.545
    1C        C  208   4.083   2.660   2.665
    1C        C  209   4.024   2.624   2.788
    1C        C  210   4.199   2.747   2.910
    1C        C  211   4.085   2.663   2.910
    1C        C  212   4.248   2.798   3.032
    1C        C  213   4.198   2.750   3.155
    1C        C  214   4.335   2.909   3.275
    1C        C  215   4.247   2.798   3.278
    1C        C  216   4.374   2.969   3.396
    1C        C  217   4.333   2.915   3.520
    1C        C  218   4.436   3.100   3.639
    1C        C  219   4.374   2.973   3.643
    1C        C  220   4.457   3.169   3.760
    1C        C  221   4.435   3.105   3.883
    1C        C  222   4.499   3.306   4.004
    1C        C  223   4.467   3.169   4.005
    1C        C  224   4.509   3.379   4.125
    1C        C  225   4.503   3.312   4.249
    1C        C  226   4.518   3.525   4.366
    1C        C  227   4.517   3.384   4.370
    1C        C  228   4.516   3.598   4.487
    1C        C  229   4.526   3.532   4.611
    1C        C  230   4.503   3.747   4.727
    1C        C  231   4.535   3.608   4.730
    1C        C  232   4.494   3.822   4.847
    1C        C  233   4.543   3.756   4.960
    1C        C  234   4.021   2.612   2.064
    1C        C  235   3.894   2.553   2.066
    1C        C  236   4.090   2.647   2.181
    1C        C  237   4.025   2.610   2.301
    1C        C  238   4.200   2.739   2.421
    1C        C  239   4.087   2.653   2.421
    1C        C  240   4.255   2.786   2.543
    1C        C  241   4.199   2.739   2.664
    1C        C  242   4.341   2.899   2.787
    1C        C  243   4.250   2.791   2.785
    1C        C  244   4.382   2.960   2.907
    1C        C  245   4.340   2.905   3.031
    1C        C  246   4.438   3.094   3.151
    1C        C  247   4.374   2.968   3.153
    1C        C  248   4.461   3.162   3.272
    1C        C  249   4.433   3.097   3.395
    1C        C  250   4.495   3.303   3.515
    1C        C  251   4.458   3.166   3.516
    1C        C  252   4.505   3.373   3.637
    1C        C  253   4.493   3.306   3.761
    1C        C  254   4.515   3.518   3.881
    1C        C  255   4.510   3.376   3.882
    1C        C  256   4.510   3.592   4.001
    1C        C  257   4.513   3.520   4.122
    1C        C  258   4.487   3.733   4.243
    1C        C  259   4.513   3.594   4.243
    1C        C  260   4.470   3.805   4.363
    1C        C  261   4.492   3.738   4.486
    1C        C  262   4.428   3.945   4.606
    1C        C  263   4.479   3.813   4.605
    1C        C  264   4.398   4.012   4.726
    1C        C  265   4.434   3.950   4.847
    1C        C  266   4.320   4.135   4.963
    1C        C  267   4.398   4.020   4.963
    1C        C  268   4.264   2.777   2.063
    1C        C  269   4.203   2.731   2.181
    1C        C  270   4.352   2.888   2.300
    1C        C  271   4.259   2.781   2.300
    1C        C  272   4.388   2.950   2.421
    1C        C  273   4.344   2.895   2.544
    1C        C  274   4.450   3.081   2.663
    1C        C  275   4.384   2.956   2.665
    1C        C  276   4.471   3.151   2.784
    1C        C  277   4.444   3.086   2.907
    1C        C  278   4.502   3.293   3.028
    1C        C  279   4.469   3.156   3.027
    1C        C  280   4.510   3.367   3.148
    1C        C  281   4.497   3.298   3.271
    1C        C  282   4.515   3.512   3.391
    1C        C  283   4.510   3.371   3.392
    1C        C  284   4.513   3.584   3.513
    1C        C  285   4.515   3.514   3.636
    1C        C  286   4.488   3.725   3.753
    1C        C  287   4.512   3.586   3.757
    1C        C  288   4.472   3.796   3.874
    1C        C  289   4.486   3.731   3.999
    1C        C  290   4.427   3.935   4.117
    1C        C  291   4.471   3.801   4.121
    1C        C  292   4.392   4.000   4.238
    1C        C  293   4.424   3.938   4.361
    1C        C  294   4.325   4.125   4.480
    1C        C  295   4.403   4.008   4.482
    1C        C  296   4.283   4.188   4.599
    1C        C  297   4.327   4.135   4.723
    1C        C  298   4.205   4.318   4.839
    1C        C  299   4.286   4.200   4.843
    1C        C  300   4.169   4.400   4.950
    1C        C  301   4.356   2.882   2.063
    1C        C  302   4.475   3.068   2.179
    1C        C  303   4.403   2.945   2.179
    1C        C  304   4.487   3.140   2.301
    1C        C  305   4.453   3.075   2.422
    1C        C  306   4.509   3.284   2.541
    1C        C  307   4.478   3.146   2.541
    1C        C  308   4.519   3.358   2.661
    1C        C  309   4.502   3.289   2.783
    1C        C  310   4.518   3.501   2.901
    1C        C  311   4.513   3.360   2.904
    1C        C  312   4.521   3.574   3.022
    1C        C  313   4.519   3.508   3.146
    1C        C  314   4.494   3.721   3.265
    1C        C  315   4.514   3.581   3.267
    1C        C  316   4.475   3.790   3.386
    1C        C  317   4.490   3.723   3.509
    1C        C  318   4.422   3.926   3.628
    1C        C  319   4.472   3.794   3.630
    1C        C  320   4.394   3.991   3.750
    1C        C  321   4.426   3.930   3.873
    1C        C  322   4.319   4.115   3.991
    1C        C  323   4.397   3.997   3.993
    1C        C  324   4.277   4.174   4.112
    1C        C  325   4.320   4.121   4.236
    1C        C  326   4.187   4.287   4.354
    1C        C  327   4.282   4.182   4.358
    1C        C  328   4.137   4.340   4.475
    1C        C  329   4.196   4.299   4.597
    1C        C  330   4.026   4.434   4.716
    1C        C  331   4.146   4.357   4.716
    1C        C  332   3.970   4.489   4.833
    1C        C  333   4.054   4.481   4.945
    1C        C  334   4.557   3.269   2.065
    1C        C  335   4.540   3.130   2.067
    1C        C  336   4.535   3.350   2.178
    1C        C  337   4.509   3.281   2.298
    1C        C  338   4.527   3.494   2.414
    1C        C  339   4.522   3.353   2.419
    1C        C  340   4.528   3.569   2.534
    1C        C  341   4.526   3.499   2.657
    1C        C  342   4.497   3.711   2.776
    1C        C  343   4.515   3.571   2.778
    1C        C  344   4.482   3.782   2.897
    1C        C  345   4.495   3.713   3.020
    1C        C  346   4.422   3.916   3.138
    1C        C  347   4.474   3.784   3.140
    1C        C  348   4.389   3.981   3.258
    1C        C  349   4.425   3.922   3.381
    1C        C  350   4.319   4.106   3.504
    1C        C  351   4.394   3.986   3.504
    1C        C  352   4.276   4.167   3.624
    1C        C  353   4.320   4.112   3.747
    1C        C  354   4.177   4.270   3.866
    1C        C  355   4.276   4.169   3.868
    1C        C  356   4.126   4.322   3.987
    1C        C  357   4.180   4.277   4.110
    1C        C  358   4.015   4.410   4.231
    1C        C  359   4.131   4.328   4.232
    1C        C  360   3.957   4.452   4.352
    1C        C  361   4.023   4.423   4.474
    1C        C  362   3.829   4.515   4.594
    1C        C  363   3.961   4.464   4.594
    1C        C  364   3.762   4.541   4.715
    1C        C  365   3.837   4.537   4.835
    1C        C  366   3.627   4.590   4.950
    1C        C  367   3.765   4.576   4.949
    1C        C  368   4.505   3.562   2.055
    1C        C  369   4.529   3.491   2.174
    1C        C  370   4.506   3.707   2.288
    1C        C  371   4.524   3.567   2.293
    1C        C  372   4.486   3.777   2.409
    1C        C  373   4.500   3.707   2.532
    1C        C  374   4.428   3.909   2.650
    1C        C  375   4.479   3.777   2.652
    1C        C  376   4.395   3.973   2.772
    1C        C  377   4.428   3.912   2.895
    1C        C  378   4.323   4.100   3.015
    1C        C  379   4.398   3.981   3.015
    1C        C  380   4.280   4.160   3.136
    1C        C  381   4.317   4.103   3.260
    1C        C  382   4.173   4.259   3.377
    1C        C  383   4.275   4.161   3.382
    1C        C  384   4.121   4.310   3.498
    1C        C  385   4.177   4.267   3.621
    1C        C  386   4.007   4.394   3.742
    1C        C  387   4.123   4.313   3.743
    1C        C  388   3.947   4.434   3.864
    1C        C  389   4.009   4.401   3.986
    1C        C  390   3.818   4.488   4.112
    1C        C  391   3.950   4.438   4.109
    1C        C  392   3.750   4.513   4.234
    1C        C  393   3.825   4.502   4.353
    1C        C  394   3.617   4.553   4.474
    1C        C  395   3.756   4.527   4.474
    1C        C  396   3.547   4.562   4.596
    1C        C  397   3.621   4.558   4.716
    1C        C  398   3.408   4.550   4.843
    1C        C  399   3.548   4.567   4.836
    1C        C  400   3.339   4.513   4.959
    1C        C  401   4.507   3.701   2.053
    1C        C  402   4.449   3.914   2.168
    1C        C  403   4.490   3.779   2.168
    1C        C  404   4.410   3.978   2.287
    1C        C  405   4.437   3.910   2.408
    1C        C  406   4.327   4.095   2.527
    1C        C  407   4.401   3.975   2.528
    1C        C  408   4.278   4.150   2.647
    1C        C  409   4.318   4.091   2.770
    1C        C  410   4.178   4.252   2.890
    1C        C  411   4.275   4.150   2.891
    1C        C  412   4.126   4.303   3.011
    1C        C  413   4.180   4.260   3.134
    1C        C  414   4.004   4.384   3.253
    1C        C  415   4.121   4.305   3.254
    1C        C  416   3.943   4.419   3.375
    1C        C  417   4.005   4.390   3.499
    1C        C  418   3.814   4.484   3.621
    1C        C  419   3.944   4.428   3.620
    1C        C  420   3.751   4.509   3.744
    1C        C  421   3.815   4.485   3.868
    1C        C  422   3.610   4.535   3.987
    1C        C  423   3.749   4.508   3.990
    1C        C  424   3.541   4.536   4.110
    1C        C  425   3.611   4.534   4.233
    1C        C  426   3.401   4.548   4.358
    1C        C  427   3.542   4.554   4.355
    1C        C  428   3.331   4.546   4.481
    1C        C  429   3.405   4.561   4.600
    1C        C  430   3.197   4.518   4.724
    1C        C  431   3.336   4.549   4.722
    1C        C  432   3.124   4.495   4.845
    1C        C  433   3.201   4.498   4.962
    1C        C  434   4.381   4.121   2.050
    1C        C  435   4.449   3.998   2.056
    1C        C  436   4.303   4.163   2.162
    1C        C  437   4.331   4.096   2.285
    1C        C  438   4.184   4.252   2.404
    1C        C  439   4.284   4.153   2.405
    1C        C  440   4.125   4.297   2.525
    1C        C  441   4.180   4.251   2.646
    1C        C  442   4.006   4.375   2.765
    1C        C  443   4.123   4.296   2.767
    1C        C  444   3.940   4.407   2.886
    1C        C  445   4.005   4.375   3.008
    1C        C  446   3.815   4.472   3.131
    1C        C  447   3.944   4.415   3.129
    1C        C  448   3.748   4.495   3.253
    1C        C  449   3.813   4.474   3.377
    1C        C  450   3.607   4.529   3.497
    1C        C  451   3.745   4.501   3.498
    1C        C  452   3.539   4.539   3.621
    1C        C  453   3.612   4.535   3.742
    1C        C  454   3.400   4.539   3.866
    1C        C  455   3.541   4.542   3.864
    1C        C  456   3.330   4.532   3.989
    1C        C  457   3.400   4.536   4.111
    1C        C  458   3.194   4.505   4.237
    1C        C  459   3.332   4.535   4.235
    1C        C  460   3.126   4.490   4.360
    1C        C  461   3.192   4.517   4.482
    1C        C  462   2.996   4.440   4.605
    1C        C  463   3.124   4.501   4.605
    1C        C  464   2.930   4.405   4.725
    1C        C  465   2.991   4.444   4.848
    1C        C  466   2.798   4.340   4.961
    1C        C  467   2.910   4.424   4.964
    1C        C  468   4.125   4.287   2.041
    1C        C  469   4.190   4.252   2.160
    1C        C  470   4.012   4.374   2.281
    1C        C  471   4.129   4.293   2.281
    1C        C  472   3.945   4.410   2.400
    1C        C  473   4.007   4.375   2.522
    1C        C  474   3.812   4.464   2.645
    1C        C  475   3.942   4.408   2.643
    1C        C  476   3.744   4.493   2.766
    1C        C  477   3.812   4.467   2.886
    1C        C  478   3.607   4.515   3.009
    1C        C  479   3.746   4.492   3.009
    1C        C  480   3.536   4.525   3.131
    1C        C  481   3.609   4.519   3.252
    1C        C  482   3.397   4.530   3.377
    1C        C  483   3.538   4.528   3.374
    1C        C  484   3.328   4.524   3.500
    1C        C  485   3.398   4.535   3.622
    1C        C  486   3.191   4.499   3.745
    1C        C  487   3.328   4.534   3.745
    1C        C  488   3.128   4.473   3.869
    1C        C  489   3.193   4.499   3.991
    1C        C  490   3.004   4.413   4.118
    1C        C  491   3.127   4.483   4.115
    1C        C  492   2.944   4.380   4.241
    1C        C  493   3.001   4.425   4.362
    1C        C  494   2.827   4.308   4.484
    1C        C  495   2.937   4.396   4.485
    1C        C  496   2.775   4.259   4.606
    1C        C  497   2.818   4.318   4.727
    1C        C  498   2.659   4.170   4.844
    1C        C  499   2.750   4.279   4.845
    1C        C  500   2.593   4.119   4.956
    1C        C  501   4.007   4.360   2.042
    1C        C  502   3.817   4.463   2.159
    1C        C  503   3.948   4.409   2.160
    1C        C  504   3.744   4.477   2.279
    1C        C  505   3.811   4.453   2.402
    1C        C  506   3.605   4.506   2.521
    1C        C  507   3.744   4.480   2.523
    1C        C  508   3.534   4.515   2.642
    1C        C  509   3.605   4.514   2.764
    1C        C  510   3.394   4.528   2.886
    1C        C  511   3.535   4.523   2.887
    1C        C  512   3.322   4.523   3.008
    1C        C  513   3.395   4.530   3.129
    1C        C  514   3.191   4.493   3.258
    1C        C  515   3.329   4.524   3.253
    1C        C  516   3.122   4.468   3.379
    1C        C  517   3.191   4.489   3.500
    1C        C  518   2.998   4.409   3.625
    1C        C  519   3.124   4.473   3.623
    1C        C  520   2.941   4.373   3.749
    1C        C  521   3.000   4.412   3.871
    1C        C  522   2.835   4.287   3.998
    1C        C  523   2.943   4.377   3.996
    1C        C  524   2.784   4.241   4.121
    1C        C  525   2.830   4.297   4.243
    1C        C  526   2.695   4.135   4.368
    1C        C  527   2.776   4.250   4.365
    1C        C  528   2.653   4.077   4.490
    1C        C  529   2.691   4.145   4.607
    1C        C  530   2.584   3.962   4.734
    1C        C  531   2.638   4.093   4.728
    1C        C  532   2.539   3.901   4.854
    1C        C  533   2.526   3.996   4.961
    1C        C  534   3.618   4.552   2.040
    1C        C  535   3.751   4.509   2.045
    1C        C  536   3.536   4.536   2.156
    1C        C  537   3.606   4.509   2.277
    1C        C  538   3.393   4.515   2.399
    1C        C  539   3.534   4.511   2.398
    1C        C  540   3.321   4.510   2.521
    1C        C  541   3.392   4.514   2.642
    1C        C  542   3.185   4.481   2.768
    1C        C  543   3.323   4.512   2.765
    1C        C  544   3.118   4.464   2.891
    1C        C  545   3.186   4.488   3.013
    1C        C  546   2.995   4.409   3.134
    1C        C  547   3.121   4.472   3.137
    1C        C  548   2.936   4.369   3.256
    1C        C  549   2.993   4.409   3.379
    1C        C  550   2.828   4.283   3.508
    1C        C  551   2.935   4.374   3.503
    1C        C  552   2.774   4.240   3.631
    1C        C  553   2.828   4.289   3.753
    1C        C  554   2.699   4.124   3.876
    1C        C  555   2.782   4.239   3.876
    1C        C  556   2.661   4.066   3.999
    1C        C  557   2.697   4.129   4.120
    1C        C  558   2.606   3.944   4.246
    1C        C  559   2.664   4.073   4.245
    1C        C  560   2.574   3.883   4.370
    1C        C  561   2.590   3.950   4.493
    1C        C  562   2.528   3.750   4.615
    1C        C  563   2.560   3.888   4.616
    1C        C  564   2.518   3.683   4.739
    1C        C  565   2.527   3.759   4.859
    1C        C  566   2.535   3.547   4.978
    1C        C  567   2.520   3.686   4.978
    1C        C  568   3.329   4.474   2.042
    1C        C  569   3.396   4.512   2.159
    1C        C  570   3.180   4.482   2.277
    1C        C  571   3.319   4.509   2.279
    1C        C  572   3.113   4.464   2.400
    1C        C  573   3.182   4.482   2.522
    1C        C  574   2.988   4.405   2.648
    1C        C  575   3.117   4.462   2.646
    1C        C  576   2.926   4.370   2.770
    1C        C  577   2.990   4.405   2.891
    1C        C  578   2.822   4.280   3.018
    1C        C  579   2.930   4.371   3.015
    1C        C  580   2.772   4.231   3.141
    1C        C  581   2.825   4.282   3.261
    1C        C  582   2.694   4.119   3.385
    1C        C  583   2.779   4.232   3.385
    1C        C  584   2.660   4.061   3.510
    1C        C  585   2.695   4.124   3.632
    1C        C  586   2.598   3.937   3.756
    1C        C  587   2.660   4.063   3.755
    1C        C  588   2.570   3.874   3.880
    1C        C  589   2.600   3.939   4.002
    1C        C  590   2.541   3.739   4.128
    1C        C  591   2.579   3.875   4.126
    1C        C  592   2.531   3.674   4.253
    1C        C  593   2.540   3.746   4.375
    1C        C  594   2.522   3.533   4.498
    1C        C  595   2.528   3.675   4.496
    1C        C  596   2.528   3.464   4.621
    1C        C  597   2.523   3.541   4.740
    1C        C  598   2.537   3.328   4.864
    1C        C  599   2.532   3.469   4.861
    1C        C  600   2.532   3.251   4.981
    1C        C  601   3.196   4.440   2.044
    1C        C  602   2.978   4.397   2.159
    1C        C  603   3.114   4.441   2.158
    1C        C  604   2.919   4.365   2.284
    1C        C  605   2.983   4.408   2.403
    1C        C  606   2.822   4.273   2.528
    1C        C  607   2.929   4.366   2.526
    1C        C  608   2.771   4.224   2.650
    1C        C  609   2.819   4.277   2.772
    1C        C  610   2.690   4.115   2.894
    1C        C  611   2.772   4.230   2.896
    1C        C  612   2.656   4.055   3.018
    1C        C  613   2.690   4.116   3.141
    1C        C  614   2.590   3.931   3.269
    1C        C  615   2.655   4.057   3.265
    1C        C  616   2.565   3.867   3.392
    1C        C  617   2.598   3.934   3.512
    1C        C  618   2.534   3.733   3.639
    1C        C  619   2.570   3.870   3.635
    1C        C  620   2.524   3.663   3.761
    1C        C  621   2.537   3.736   3.881
    1C        C  622   2.519   3.529   4.010
    1C        C  623   2.527   3.670   4.005
    1C        C  624   2.521   3.460   4.133
    1C        C  625   2.524   3.533   4.254
    1C        C  626   2.553   3.324   4.380
    1C        C  627   2.525   3.463   4.376
    1C        C  628   2.568   3.254   4.501
    1C        C  629   2.541   3.323   4.622
    1C        C  630   2.599   3.120   4.745
    1C        C  631   2.553   3.255   4.745
    1C        C  632   2.621   3.052   4.868
    1C        C  633   2.559   3.114   4.981
    1C        C  634   2.777   4.307   2.055
    1C        C  635   2.888   4.392   2.048
    1C        C  636   2.745   4.234   2.170
    1C        C  637   2.807   4.278   2.289
    1C        C  638   2.672   4.113   2.411
    1C        C  639   2.765   4.220   2.411
    1C        C  640   2.636   4.055   2.534
    1C        C  641   2.679   4.116   2.654
    1C        C  642   2.585   3.925   2.777
    1C        C  643   2.646   4.052   2.776
    1C        C  644   2.562   3.864   2.902
    1C        C  645   2.591   3.930   3.023
    1C        C  646   2.536   3.727   3.149
    1C        C  647   2.568   3.864   3.147
    1C        C  648   2.521   3.657   3.271
    1C        C  649   2.532   3.730   3.392
    1C        C  650   2.519   3.523   3.518
    1C        C  651   2.525   3.664   3.516
    1C        C  652   2.524   3.453   3.641
    1C        C  653   2.519   3.522   3.765
    1C        C  654   2.555   3.318   3.891
    1C        C  655   2.523   3.456   3.890
    1C        C  656   2.566   3.251   4.014
    1C        C  657   2.542   3.320   4.135
    1C        C  658   2.613   3.121   4.259
    1C        C  659   2.564   3.254   4.258
    1C        C  660   2.636   3.054   4.381
    1C        C  661   2.609   3.119   4.504
    1C        C  662   2.706   2.932   4.628
    1C        C  663   2.633   3.053   4.626
    1C        C  664   2.748   2.873   4.749
    1C        C  665   2.704   2.935   4.869
    1C        C  666   2.749   2.874   4.986
    1C        C  667   2.683   4.026   2.055
    1C        C  668   2.682   4.107   2.169
    1C        C  669   2.592   3.913   2.292
    1C        C  670   2.646   4.045   2.290
    1C        C  671   2.566   3.849   2.415
    1C        C  672   2.582   3.924   2.533
    1C        C  673   2.524   3.720   2.660
    1C        C  674   2.558   3.857   2.655
    1C        C  675   2.517   3.655   2.785
    1C        C  676   2.532   3.726   2.906
    1C        C  677   2.513   3.514   3.029
    1C        C  678   2.525   3.655   3.028
    1C        C  679   2.514   3.444   3.152
    1C        C  680   2.508   3.516   3.274
    1C        C  681   2.541   3.310   3.401
    1C        C  682   2.514   3.449   3.398
    1C        C  683   2.562   3.244   3.524
    1C        C  684   2.543   3.313   3.646
    1C        C  685   2.608   3.113   3.772
    1C        C  686   2.564   3.247   3.769
    1C        C  687   2.642   3.049   3.894
    1C        C  688   2.613   3.117   4.014
    1C        C  689   2.716   2.935   4.141
    1C        C  690   2.643   3.056   4.138
    1C        C  691   2.758   2.880   4.264
    1C        C  692   2.714   2.937   4.386
    1C        C  693   2.757   2.879   4.508
    1C        C  694   2.635   3.894   2.057
    1C        C  695   2.535   3.703   2.173
    1C        C  696   2.582   3.837   2.174
    1C        C  697   2.509   3.640   2.297
    1C        C  698   2.528   3.713   2.416
    1C        C  699   2.497   3.506   2.544
    1C        C  700   2.511   3.646   2.540
    1C        C  701   2.509   3.438   2.667
    1C        C  702   2.513   3.514   2.786
    1C        C  703   2.541   3.304   2.913
    1C        C  704   2.516   3.443   2.908
    1C        C  705   2.555   3.235   3.036
    1C        C  706   2.538   3.305   3.157
    1C        C  707   2.607   3.106   3.281
    1C        C  708   2.559   3.239   3.280
    1C        C  709   2.636   3.045   3.405
    1C        C  710   2.609   3.111   3.527
    1C        C  711   2.710   2.927   3.651
    1C        C  712   2.637   3.048   3.650
    1C        C  713   2.755   2.870   3.772
    1C        C  714   2.718   2.930   3.894
    1C        C  715   2.759   2.878   4.019
    1C        C  716   2.450   3.499   2.061
    1C        C  717   2.489   3.633   2.062
    1C        C  718   2.465   3.425   2.183
    1C        C  719   2.483   3.500   2.302
    1C        C  720   2.517   3.292   2.425
    1C        C  721   2.489   3.430   2.425
    1C        C  722   2.541   3.226   2.548
    1C        C  723   2.532   3.299   2.668
    1C        C  724   2.597   3.099   2.792
    1C        C  725   2.548   3.232   2.792
    1C        C  726   2.629   3.037   2.915
    1C        C  727   2.599   3.100   3.037
    1C        C  728   2.706   2.918   3.160
    1C        C  729   2.631   3.038   3.160
    1C        C  730   2.753   2.867   3.283
    1C        C  731   2.713   2.926   3.404
    1C        C  732   2.755   2.873   3.528
    1C        C  733   2.493   3.199   2.075
    1C        C  734   2.486   3.283   2.186
    1C        C  735   2.588   3.089   2.308
    1C        C  736   2.529   3.219   2.305
    1C        C  737   2.620   3.024   2.429
    1C        C  738   2.592   3.094   2.548
    1C        C  739   2.700   2.912   2.671
    1C        C  740   2.627   3.033   2.671
    1C        C  741   2.741   2.855   2.794
    1C        C  742   2.702   2.916   2.915
    1C        C  743   2.751   2.864   3.037
    1C        C  744   2.546   3.071   2.078
    1C        C  745   2.687   2.897   2.185
    1C        C  746   2.612   3.017   2.189
    1C        C  747   2.728   2.839   2.308
    1C        C  748   2.690   2.902   2.428
    1C        C  749   2.741   2.852   2.550
    1C        C  750   2.738   2.841   2.067
    1C        C  751   3.641   2.291   2.005
    1C        O  752   3.637   2.180   2.063
    1C        O  753   3.723   2.278   1.892
    1C        C  754   4.634   3.060   1.977
    1C        O  755   4.648   3.094   1.856
    1C        O  756   4.690   2.936   2.009
    1C        C  757   4.435   4.216   1.950
    1C        O  758   4.511   4.312   1.980
    1C        O  759   4.378   4.228   1.823
    1C        C  760   3.594   4.649   1.931
    1C        O  761   3.631   4.770   1.939
    1C        O  762   3.569   4.609   1.799
    1C        C  763   2.875   4.517   1.970
    1C        O  764   2.911   4.508   1.849
    1C        O  765   2.766   4.598   2.004
    1C        C  766   2.341   3.475   1.963
    1C        O  767   2.359   3.438   1.844
    1C        O  768   2.204   3.504   1.968
    1C        C  769   4.698   3.603   5.052
    1C        O  770   4.692   3.612   5.177
    1C        O  771   4.819   3.661   5.010
    1C        C  772   4.281   4.458   5.028
    1C        O  773   4.267   4.475   5.152
    1C        O  774   4.373   4.546   4.971
    1C        C  775   4.146   2.525   5.074
    1C        O  776   4.207   2.415   5.068
    1C        O  777   4.193   2.591   5.189
    1C        C  778   2.892   4.532   5.063
    1C        O  779   2.809   4.625   5.042
    1C        O  780   2.964   4.541   5.183
    1C        C  781   2.488   3.040   5.088
    1C        O  782   2.373   2.998   5.061
    1C        O  783   2.502   3.065   5.224
    1C        C  784   2.431   3.992   5.075
    1C        O  785   2.309   4.010   5.053
    1C        O  786   2.476   3.965   5.204
    1C        C  787   2.952   2.428   1.997
    1C        O  788   2.943   2.460   1.876
    1C        O  789   2.876   2.317   2.034
    1C        C  790   3.188   2.388   5.082
    1C        O  791   3.126   2.280   5.064
    1C        O  792   3.202   2.408   5.220
    1C        H  793   4.292   3.018   5.063
    1C        H  794   4.198   2.796   5.071
    1C        H  795   4.509   3.120   5.058
    1C        H  796   4.539   3.363   5.064
    1C        H  797   4.586   3.817   5.036
    1C        H  798   4.432   3.992   5.060
    1C        H  799   4.269   4.162   5.053
    1C        H  800   4.040   4.548   5.027
    1C        H  801   3.817   4.579   5.042
    1C        H  802   3.582   4.603   5.046
    1C        H  803   3.392   4.449   5.027
    1C        H  804   3.154   4.544   5.046
    1C        H  805   3.881   2.484   5.065
    1C        H  806   3.676   2.490   5.078
    1C        H  807   2.992   2.535   5.055
    1C        H  808   3.450   2.540   5.063
    1C        H  809   2.914   2.782   5.069
    1C        H  810   2.688   2.880   5.074
    1C        H  811   2.529   3.301   5.076
    1C        H  812   2.600   3.515   5.056
    1C        H  813   2.459   3.725   5.056
    1C        H  814   2.594   4.180   5.044
    1C        H  815   2.739   4.338   5.051
    1C        H  816   2.744   2.908   1.984
    1C        H  817   2.838   2.681   1.974
    1C        H  818   3.196   2.400   2.003
    1C        H  819   3.427   2.456   1.981
    1C        H  820   3.835   2.587   1.984
    1C        H  821   4.083   2.555   1.998
    1C        H  822   4.227   2.740   1.970
    1C        H  823   4.388   2.915   1.967
    1C        H  824   4.622   3.311   1.992
    1C        H  825   4.462   3.511   1.972
    1C        H  826   4.540   3.748   1.962
    1C        H  827   3.816   4.558   1.975
    1C        H  828   3.971   4.386   1.945
    1C        H  829   4.146   4.229   1.954
    1C        H  830   4.533   3.985   1.991
    1C        H  831   2.643   3.839   1.966
    1C        H  832   2.732   4.064   1.969
    1C        H  833   2.730   4.276   1.963
    1C        H  834   3.387   4.433   1.962
    1C        H  835   3.155   4.391   1.958
    1C        H  836   2.494   3.004   2.012
    1C        H  837   2.413   3.208   2.003
    1C        H  838   2.496   3.673   1.962
    2V3OU   H29  839   2.815   3.553   6.274
    2V3OU   C27  840   2.783   3.505   6.370
    2V3OU   H27  841   2.722   3.576   6.432
    2V3OU   H28  842   2.731   3.407   6.360
    2V3OU   O11  843   2.906   3.480   6.439
    2V3OU   C15  844   2.920   3.399   6.551
    2V3OU   C13  845   3.050   3.379   6.600
    2V3OU   C14  846   3.080   3.269   6.682
    2V3OU   C16  847   2.972   3.192   6.724
    2V3OU    H6  848   2.988   3.103   6.786
    2V3OU   C12  849   3.217   3.231   6.720
    2V3OU    O2  850   3.243   3.128   6.787
    2V3OU   C10  851   3.327   3.306   6.657
    2V3OU    C8  852   3.460   3.270   6.677
    2V3OU   O10  853   3.490   3.152   6.738
    2V3OU   H26  854   3.403   3.117   6.763
    2V3OU    C6  855   3.567   3.350   6.626
    2V3OU    C5  856   3.541   3.468   6.558
    2V3OU    C4  857   3.703   3.289   6.615
    2V3OU    H4  858   3.725   3.225   6.706
    2V3OU    H5  859   3.714   3.224   6.524
    2V3OU    C2  860   3.813   3.395   6.612
    2V3OU    O6  861   3.806   3.469   6.735
    2V3OU   H21  862   3.767   3.556   6.716
    2V3OU    C3  863   3.782   3.498   6.503
    2V3OU    H2  864   3.865   3.573   6.492
    2V3OU    H3  865   3.780   3.443   6.406
    2V3OU   C25  866   3.949   3.327   6.598
    2V3OU    O7  867   4.002   3.308   6.489
    2V3OU   C26  868   4.029   3.290   6.722
    2V3OU   H22  869   4.062   3.387   6.768
    2V3OU   H23  870   4.117   3.227   6.696
    2V3OU    O8  871   3.961   3.209   6.815
    2V3OU   H24  872   3.922   3.263   6.886
    2V3OU    C1  873   3.648   3.567   6.520
    2V3OU    H1  874   3.626   3.621   6.423
    2V3OU    O3  875   3.661   3.654   6.632
    2V3OU   C19  876   3.620   3.790   6.617
    2V3OU    H9  877   3.528   3.801   6.551
    2V3OU    O4  878   3.716   3.850   6.533
    2V3OU   C20  879   3.850   3.873   6.577
    2V3OU   H10  880   3.903   3.775   6.596
    2V3OU   C24  881   3.613   3.858   6.754
    2V3OU   H16  882   3.541   3.797   6.814
    2V3OU   H17  883   3.564   3.957   6.737
    2V3OU   C23  884   3.753   3.881   6.811
    2V3OU   H15  885   3.799   3.778   6.830
    2V3OU    N1  886   3.735   3.958   6.932
    2V3OU   H19  887   3.806   3.923   6.993
    2V3OU   H20  888   3.647   3.929   6.970
    2V3OU   C21  889   3.850   3.950   6.710
    2V3OU   H11  890   3.953   3.926   6.749
    2V3OU    O5  891   3.826   4.090   6.706
    2V3OU   H18  892   3.784   4.106   6.792
    2V3OU   C22  893   3.919   3.948   6.464
    2V3OU   H12  894   3.865   4.044   6.446
    2V3OU   H13  895   3.908   3.889   6.369
    2V3OU   H14  896   4.027   3.962   6.489
    2V3OU   C11  897   3.162   3.471   6.574
    2V3OU    O1  898   3.142   3.592   6.548
    2V3OU    C9  899   3.302   3.424   6.583
    2V3OU    C7  900   3.405   3.503   6.534
    2V3OU    O9  901   3.386   3.617   6.457
    2V3OU   H25  902   3.293   3.639   6.475
    2V3OU   C17  903   2.816   3.317   6.599
    2V3OU    H7  904   2.712   3.340   6.578
    2V3OU   C18  905   2.839   3.211   6.686
    2V3OU    H8  906   2.759   3.147   6.725
    3SOL     OW  907   2.904   3.740   5.054
    3SOL    HW1  908   2.968   3.786   4.993
    3SOL    HW2  909   2.836   3.806   5.087
    4SOL     OW  910   1.377   0.132   0.604
    4SOL    HW1  911   1.397   0.182   0.689
    4SOL    HW2  912   1.293   0.079   0.615
    5SOL     OW  913   4.176   1.982   0.709
    5SOL    HW1  914   4.163   1.884   0.723
    5SOL    HW2  915   4.100   2.019   0.656
    6SOL     OW  916   3.357   1.846   2.008
    6SOL    HW1  917   3.341   1.935   2.051
    6SOL    HW2  918   3.450   1.843   1.971
    7SOL     OW  919   2.239   2.974   4.824
    7SOL    HW1  920   2.224   2.875   4.823
    7SOL    HW2  921   2.308   2.997   4.892
    8SOL     OW  922   1.236   1.684   6.241
    8SOL    HW1  923   1.302   1.626   6.288
    8SOL    HW2  924   1.144   1.655   6.263
    9SOL     OW  925   2.394   2.223   5.659
    9SOL    HW1  926   2.317   2.211   5.721
    9SOL    HW2  927   2.480   2.211   5.710
   10SOL     OW  928   5.506   4.983   0.943
   10SOL    HW1  929   5.548   4.944   0.860
   10SOL    HW2  930   5.483   4.909   1.006
   11SOL     OW  931   3.603   1.650   0.348
   11SOL    HW1  932   3.693   1.614   0.372
   11SOL    HW2  933   3.544   1.649   0.429
   12SOL     OW  934   5.791   4.963   1.413
   12SOL    HW1  935   5.857   4.967   1.488
   12SOL    HW2  936   5.709   5.016   1.438
   13SOL     OW  937   4.373   5.374   1.838
   13SOL    HW1  938   4.312   5.446   1.804
   13SOL    HW2  939   4.348   5.352   1.933
   14SOL     OW  940   4.333   5.928   0.835
   14SOL    HW1  941   4.304   5.835   0.810
   14SOL    HW2  942   4.286   5.995   0.778
   15SOL     OW  943   0.465   0.208   6.796
   15SOL    HW1  944   0.386   0.225   6.854
   15SOL    HW2  945   0.476   0.284   6.731
   16SOL     OW  946   2.270   5.292   5.569
   16SOL    HW1  947   2.203   5.218   5.572
   16SOL    HW2  948   2.225   5.375   5.536
   17SOL     OW  949   0.142   1.945   3.842
   17SOL    HW1  950   0.065   1.917   3.784
   17SOL    HW2  951   0.137   2.043   3.860
   18SOL     OW  952   2.822   0.248   5.540
   18SOL    HW1  953   2.801   0.168   5.596
   18SOL    HW2  954   2.914   0.238   5.502
   19SOL     OW  955   3.946   5.908   3.069
   19SOL    HW1  956   3.999   5.911   2.984
   19SOL    HW2  957   3.992   5.849   3.136
   20SOL     OW  958   0.400   1.721   4.735
   20SOL    HW1  959   0.403   1.642   4.797
   20SOL    HW2  960   0.305   1.748   4.720
   21SOL     OW  961   1.794   3.136   1.653
   21SOL    HW1  962   1.753   3.076   1.585
   21SOL    HW2  963   1.834   3.081   1.727
   22SOL     OW  964   1.115   0.937   0.542
   22SOL    HW1  965   1.177   0.876   0.492
   22SOL    HW2  966   1.087   1.012   0.482
   23SOL     OW  967   0.784   5.388   0.212
   23SOL    HW1  968   0.820   5.301   0.181
   23SOL    HW2  969   0.804   5.400   0.309
   24SOL     OW  970   4.813   0.698   0.246
   24SOL    HW1  971   4.754   0.724   0.170
   24SOL    HW2  972   4.758   0.683   0.328
   25SOL     OW  973   1.253   0.814   5.015
   25SOL    HW1  974   1.344   0.845   4.985
   25SOL    HW2  975   1.238   0.843   5.109
   26SOL     OW  976   2.159   6.601   5.595
   26SOL    HW1  977   2.101   6.522   5.611
   26SOL    HW2  978   2.225   6.609   5.670
   27SOL     OW  979   6.908   6.966   2.266
   27SOL    HW1  980   6.872   7.021   2.342
   27SOL    HW2  981   7.002   6.938   2.287
   28SOL     OW  982   2.384   0.756   4.988
   28SOL    HW1  983   2.349   0.816   4.916
   28SOL    HW2  984   2.483   0.765   4.993
   29SOL     OW  985   5.613   0.662   1.330
   29SOL    HW1  986   5.689   0.638   1.269
   29SOL    HW2  987   5.530   0.617   1.299
   30SOL     OW  988   4.900   6.821   4.917
   30SOL    HW1  989   4.965   6.853   4.986
   30SOL    HW2  990   4.887   6.722   4.928
   31SOL     OW  991   6.484   4.236   4.106
   31SOL    HW1  992   6.475   4.247   4.205
   31SOL    HW2  993   6.400   4.194   4.070
   32SOL     OW  994   3.217   1.250   1.342
   32SOL    HW1  995   3.265   1.227   1.258
   32SOL    HW2  996   3.226   1.174   1.408
   33SOL     OW  997   2.141   4.353   5.526
   33SOL    HW1  998   2.237   4.366   5.504
   33SOL    HW2  999   2.125   4.256   5.548
   34SOL     OW 1000   2.524   6.537   5.045
   34SOL    HW1 1001   2.597   6.544   5.113
   34SOL    HW2 1002   2.562   6.499   4.960
   35SOL     OW 1003   1.687   3.179   4.876
   35SOL    HW1 1004   1.746   3.142   4.804
   35SOL    HW2 1005   1.738   3.180   4.962
   36SOL     OW 1006   5.301   1.171   4.147
   36SOL    HW1 1007   5.366   1.212   4.210
   36SOL    HW2 1008   5.349   1.135   4.067
   37SOL     OW 1009   1.213   6.104   4.107
   37SOL    HW1 1010   1.256   6.184   4.149
   37SOL    HW2 1011   1.114   6.117   4.104
   38SOL     OW 1012   1.121   3.372   2.007
   38SOL    HW1 1013   1.122   3.458   1.956
   38SOL    HW2 1014   1.054   3.310   1.967
   39SOL     OW 1015   6.377   5.572   1.482
   39SOL    HW1 1016   6.322   5.523   1.550
   39SOL    HW2 1017   6.458   5.611   1.526
   40SOL     OW 1018   4.054   0.705   6.520
   40SOL    HW1 1019   4.054   0.801   6.492
   40SOL    HW2 1020   4.050   0.647   6.438
   41SOL     OW 1021   0.040   3.406   1.290
   41SOL    HW1 1022   0.100   3.343   1.340
   41SOL    HW2 1023   0.092   3.450   1.217
   42SOL     OW 1024   2.783   3.694   0.782
   42SOL    HW1 1025   2.725   3.701   0.701
   42SOL    HW2 1026   2.849   3.619   0.768
   43SOL     OW 1027   4.684   0.837   3.916
   43SOL    HW1 1028   4.757   0.771   3.933
   43SOL    HW2 1029   4.716   0.929   3.936
   44SOL     OW 1030   0.138   0.523   6.978
   44SOL    HW1 1031   0.051   0.489   7.014
   44SOL    HW2 1032   0.210   0.513   0.022
   45SOL     OW 1033   1.904   3.527   5.779
   45SOL    HW1 1034   1.959   3.443   5.776
   45SOL    HW2 1035   1.818   3.513   5.730
   46SOL     OW 1036   1.292   4.585   3.959
   46SOL    HW1 1037   1.231   4.570   4.036
   46SOL    HW2 1038   1.244   4.634   3.887
   47SOL     OW 1039   0.043   4.713   6.424
   47SOL    HW1 1040   0.057   4.658   6.506
   47SOL    HW2 1041   0.033   4.653   6.345
   48SOL     OW 1042   1.011   3.891   0.172
   48SOL    HW1 1043   0.998   3.793   0.184
   48SOL    HW2 1044   0.948   3.941   0.232
   49SOL     OW 1045   3.404   1.330   0.304
   49SOL    HW1 1046   3.420   1.255   0.369
   49SOL    HW2 1047   3.313   1.368   0.319
   50SOL     OW 1048   5.139   1.676   5.495
   50SOL    HW1 1049   5.105   1.623   5.417
   50SOL    HW2 1050   5.131   1.622   5.578
   51SOL     OW 1051   1.700   6.175   2.248
   51SOL    HW1 1052   1.633   6.117   2.293
   51SOL    HW2 1053   1.745   6.234   2.316
   52SOL     OW 1054   5.595   3.046   2.703
   52SOL    HW1 1055   5.506   3.010   2.732
   52SOL    HW2 1056   5.653   3.061   2.783
   53SOL     OW 1057   3.877   0.066   0.936
   53SOL    HW1 1058   3.972   0.088   0.916
   53SOL    HW2 1059   3.873   0.003   1.013
   54SOL     OW 1060   0.807   1.191   5.876
   54SOL    HW1 1061   0.747   1.269   5.866
   54SOL    HW2 1062   0.780   1.138   5.957
   55SOL     OW 1063   2.176   3.243   6.328
   55SOL    HW1 1064   2.143   3.294   6.248
   55SOL    HW2 1065   2.276   3.253   6.335
   56SOL     OW 1066   1.085   1.891   6.585
   56SOL    HW1 1067   1.077   1.991   6.581
   56SOL    HW2 1068   1.147   1.866   6.660
   57SOL     OW 1069   4.218   5.544   1.377
   57SOL    HW1 1070   4.254   5.451   1.369
   57SOL    HW2 1071   4.213   5.585   1.287
   58SOL     OW 1072   0.517   0.650   0.084
   58SOL    HW1 1073   0.525   0.744   0.117
   58SOL    HW2 1074   0.450   0.646   0.010
   59SOL     OW 1075   4.230   3.022   6.852
   59SOL    HW1 1076   4.174   3.055   6.776
   59SOL    HW2 1077   4.305   2.966   6.817
   60SOL     OW 1078   6.231   2.579   2.695
   60SOL    HW1 1079   6.283   2.555   2.613
   60SOL    HW2 1080   6.197   2.495   2.738
   61SOL     OW 1081   1.938   5.614   2.591
   61SOL    HW1 1082   1.901   5.522   2.610
   61SOL    HW2 1083   1.873   5.664   2.534
   62SOL     OW 1084   4.955   3.359   3.252
   62SOL    HW1 1085   4.935   3.264   3.275
   62SOL    HW2 1086   4.923   3.378   3.159
   63SOL     OW 1087   3.980   6.946   6.069
   63SOL    HW1 1088   3.919   6.922   5.994
   63SOL    HW2 1089   3.969   0.018   6.090
   64SOL     OW 1090   1.885   2.033   6.743
   64SOL    HW1 1091   1.820   2.019   6.818
   64SOL    HW2 1092   1.945   1.953   6.736
   65SOL     OW 1093   0.849   5.489   5.233
   65SOL    HW1 1094   0.922   5.455   5.174
   65SOL    HW2 1095   0.800   5.562   5.186
   66SOL     OW 1096   4.385   1.409   1.291
   66SOL    HW1 1097   4.291   1.420   1.322
   66SOL    HW2 1098   4.389   1.423   1.192
   67SOL     OW 1099   0.042   3.364   2.381
   67SOL    HW1 1100   6.993   3.388   2.442
   67SOL    HW2 1101   0.015   3.380   2.286
   68SOL     OW 1102   0.680   1.041   6.418
   68SOL    HW1 1103   0.715   0.948   6.405
   68SOL    HW2 1104   0.734   1.105   6.362
   69SOL     OW 1105   1.133   0.447   6.201
   69SOL    HW1 1106   1.056   0.510   6.191
   69SOL    HW2 1107   1.198   0.483   6.268
   70SOL     OW 1108   4.702   5.003   3.499
   70SOL    HW1 1109   4.661   4.983   3.409
   70SOL    HW2 1110   4.778   5.067   3.487
   71SOL     OW 1111   5.273   0.848   5.388
   71SOL    HW1 1112   5.288   0.787   5.310
   71SOL    HW2 1113   5.336   0.925   5.384
   72SOL     OW 1114   6.538   1.894   2.546
   72SOL    HW1 1115   6.454   1.847   2.517
   72SOL    HW2 1116   6.610   1.826   2.563
   73SOL     OW 1117   2.676   0.975   1.036
   73SOL    HW1 1118   2.622   1.041   0.983
   73SOL    HW2 1119   2.618   0.934   1.106
   74SOL     OW 1120   2.369   0.573   0.296
   74SOL    HW1 1121   2.428   0.530   0.228
   74SOL    HW2 1122   2.337   0.661   0.261
   75SOL     OW 1123   2.368   2.612   1.381
   75SOL    HW1 1124   2.417   2.538   1.334
   75SOL    HW2 1125   2.272   2.587   1.391
   76SOL     OW 1126   3.331   5.066   6.332
   76SOL    HW1 1127   3.269   5.133   6.291
   76SOL    HW2 1128   3.356   5.097   6.424
   77SOL     OW 1129   0.101   4.849   4.613
   77SOL    HW1 1130   0.073   4.755   4.632
   77SOL    HW2 1131   0.067   4.910   4.686
   78SOL     OW 1132   5.242   1.408   1.212
   78SOL    HW1 1133   5.278   1.342   1.278
   78SOL    HW2 1134   5.293   1.401   1.126
   79SOL     OW 1135   1.820   3.750   4.172
   79SOL    HW1 1136   1.769   3.676   4.129
   79SOL    HW2 1137   1.874   3.798   4.103
   80SOL     OW 1138   3.979   2.366   5.345
   80SOL    HW1 1139   3.895   2.420   5.350
   80SOL    HW2 1140   3.965   2.287   5.285
   81SOL     OW 1141   2.534   4.686   3.147
   81SOL    HW1 1142   2.517   4.589   3.126
   81SOL    HW2 1143   2.622   4.713   3.108
   82SOL     OW 1144   2.613   0.717   1.358
   82SOL    HW1 1145   2.569   0.792   1.308
   82SOL    HW2 1146   2.551   0.683   1.428
   83SOL     OW 1147   5.753   2.629   3.728
   83SOL    HW1 1148   5.763   2.681   3.813
   83SOL    HW2 1149   5.661   2.590   3.725
   84SOL     OW 1150   5.213   2.395   2.894
   84SOL    HW1 1151   5.268   2.478   2.894
   84SOL    HW2 1152   5.116   2.418   2.894
   85SOL     OW 1153   2.529   5.217   3.071
   85SOL    HW1 1154   2.445   5.247   3.117
   85SOL    HW2 1155   2.562   5.291   3.012
   86SOL     OW 1156   4.639   1.045   6.473
   86SOL    HW1 1157   4.626   0.946   6.483
   86SOL    HW2 1158   4.715   1.074   6.531
   87SOL     OW 1159   3.173   2.631   6.548
   87SOL    HW1 1160   3.141   2.676   6.632
   87SOL    HW2 1161   3.271   2.613   6.554
   88SOL     OW 1162   1.229   2.127   1.038
   88SOL    HW1 1163   1.235   2.226   1.045
   88SOL    HW2 1164   1.251   2.098   0.944
   89SOL     OW 1165   4.203   3.790   5.203
   89SOL    HW1 1166   4.235   3.877   5.239
   89SOL    HW2 1167   4.266   3.717   5.229
   90SOL     OW 1168   6.777   4.285   1.734
   90SOL    HW1 1169   6.720   4.209   1.764
   90SOL    HW2 1170   6.722   4.350   1.682
   91SOL     OW 1171   5.029   5.204   0.233
   91SOL    HW1 1172   5.119   5.167   0.209
   91SOL    HW2 1173   5.038   5.301   0.255
   92SOL     OW 1174   6.325   6.240   6.748
   92SOL    HW1 1175   6.418   6.207   6.763
   92SOL    HW2 1176   6.327   6.339   6.729
   93SOL     OW 1177   2.801   3.445   1.944
   93SOL    HW1 1178   2.860   3.365   1.935
   93SOL    HW2 1179   2.711   3.416   1.977
   94SOL     OW 1180   3.366   0.742   4.591
   94SOL    HW1 1181   3.406   0.679   4.657
   94SOL    HW2 1182   3.267   0.738   4.597
   95SOL     OW 1183   1.029   6.067   4.524
   95SOL    HW1 1184   1.124   6.073   4.552
   95SOL    HW2 1185   0.970   6.074   4.604
   96SOL     OW 1186   0.048   6.426   0.086
   96SOL    HW1 1187   0.108   6.481   0.145
   96SOL    HW2 1188   0.015   6.482   0.011
   97SOL     OW 1189   3.567   5.133   4.258
   97SOL    HW1 1190   3.599   5.039   4.243
   97SOL    HW2 1191   3.470   5.138   4.235
   98SOL     OW 1192   6.842   2.229   5.037
   98SOL    HW1 1193   6.792   2.315   5.046
   98SOL    HW2 1194   6.834   2.196   4.942
   99SOL     OW 1195   4.691   4.308   4.699
   99SOL    HW1 1196   4.666   4.354   4.785
   99SOL    HW2 1197   4.633   4.343   4.625
  100SOL     OW 1198   2.090   1.930   5.110
  100SOL    HW1 1199   2.066   1.997   5.180
  100SOL    HW2 1200   2.188   1.909   5.116
  101SOL     OW 1201   5.124   2.959   2.516
  101SOL    HW1 1202   5.192   3.012   2.464
  101SOL    HW2 1203   5.112   2.869   2.473
  102SOL     OW 1204   4.426   6.312   0.660
  102SOL    HW1 1205   4.354   6.247   0.684
  102SOL    HW2 1206   4.449   6.368   0.739
  103SOL     OW 1207   1.623   1.995   0.954
  103SOL    HW1 1208   1.613   1.919   1.019
  103SOL    HW2 1209   1.541   2.000   0.896
  104SOL     OW 1210   0.866   3.801   1.507
  104SOL    HW1 1211   0.786   3.849   1.470
  104SOL    HW2 1212   0.872   3.819   1.606
  105SOL     OW 1213   0.052   1.995   4.517
  105SOL    HW1 1214   0.042   1.975   4.419
  105SOL    HW2 1215   0.104   1.922   4.561
  106SOL     OW 1216   4.800   3.706   1.537
  106SOL    HW1 1217   4.840   3.779   1.481
  106SOL    HW2 1218   4.785   3.625   1.481
  107SOL     OW 1219   4.608   0.363   2.652
  107SOL    HW1 1220   4.607   0.461   2.672
  107SOL    HW2 1221   4.520   0.335   2.613
  108SOL     OW 1222   3.430   1.375   4.821
  108SOL    HW1 1223   3.463   1.295   4.871
  108SOL    HW2 1224   3.479   1.456   4.851
  109SOL     OW 1225   2.446   1.781   4.627
  109SOL    HW1 1226   2.534   1.818   4.596
  109SOL    HW2 1227   2.422   1.702   4.570
  110SOL     OW 1228   4.363   4.624   5.539
  110SOL    HW1 1229   4.277   4.582   5.569
  110SOL    HW2 1230   4.428   4.553   5.513
  111SOL     OW 1231   6.793   3.347   1.263
  111SOL    HW1 1232   6.887   3.372   1.286
  111SOL    HW2 1233   6.736   3.429   1.261
  112SOL     OW 1234   3.615   6.709   4.478
  112SOL    HW1 1235   3.550   6.772   4.434
  112SOL    HW2 1236   3.660   6.755   4.554
  113SOL     OW 1237   1.834   5.089   2.794
  113SOL    HW1 1238   1.760   5.150   2.822
  113SOL    HW2 1239   1.807   5.039   2.712
  114SOL     OW 1240   6.886   2.273   1.631
  114SOL    HW1 1241   6.861   2.221   1.713
  114SOL    HW2 1242   6.816   2.343   1.614
  115SOL     OW 1243   4.242   1.365   3.162
  115SOL    HW1 1244   4.300   1.401   3.235
  115SOL    HW2 1245   4.177   1.299   3.200
  116SOL     OW 1246   5.907   6.080   6.807
  116SOL    HW1 1247   5.894   6.076   6.708
  116SOL    HW2 1248   5.836   6.027   6.853
  117SOL     OW 1249   2.415   1.195   0.618
  117SOL    HW1 1250   2.374   1.215   0.529
  117SOL    HW2 1251   2.349   1.217   0.690
  118SOL     OW 1252   0.962   2.258   1.659
  118SOL    HW1 1253   0.894   2.261   1.733
  118SOL    HW2 1254   1.051   2.285   1.696
  119SOL     OW 1255   5.450   5.421   4.829
  119SOL    HW1 1256   5.521   5.397   4.762
  119SOL    HW2 1257   5.476   5.506   4.876
  120SOL     OW 1258   4.545   1.620   4.103
  120SOL    HW1 1259   4.566   1.627   4.200
  120SOL    HW2 1260   4.466   1.560   4.090
  121SOL     OW 1261   0.342   5.239   5.790
  121SOL    HW1 1262   0.278   5.225   5.866
  121SOL    HW2 1263   0.432   5.202   5.814
  122SOL     OW 1264   0.530   4.871   6.021
  122SOL    HW1 1265   0.484   4.883   5.933
  122SOL    HW2 1266   0.622   4.836   6.005
  123SOL     OW 1267   0.622   2.325   0.946
  123SOL    HW1 1268   0.577   2.251   0.896
  123SOL    HW2 1269   0.645   2.293   1.038
  124SOL     OW 1270   1.854   3.356   6.835
  124SOL    HW1 1271   1.893   3.383   6.747
  124SOL    HW2 1272   1.789   3.281   6.821
  125SOL     OW 1273   4.409   2.780   0.670
  125SOL    HW1 1274   4.508   2.779   0.684
  125SOL    HW2 1275   4.388   2.836   0.589
  126SOL     OW 1276   3.514   3.358   5.131
  126SOL    HW1 1277   3.489   3.365   5.228
  126SOL    HW2 1278   3.434   3.378   5.075
  127SOL     OW 1279   0.296   4.633   6.136
  127SOL    HW1 1280   0.356   4.572   6.084
  127SOL    HW2 1281   0.345   4.668   6.215
  128SOL     OW 1282   5.350   4.346   5.757
  128SOL    HW1 1283   5.259   4.313   5.782
  128SOL    HW2 1284   5.343   4.405   5.677
  129SOL     OW 1285   1.083   5.674   2.081
  129SOL    HW1 1286   0.998   5.623   2.094
  129SOL    HW2 1287   1.130   5.639   1.999
  130SOL     OW 1288   6.623   3.737   5.146
  130SOL    HW1 1289   6.549   3.699   5.090
  130SOL    HW2 1290   6.593   3.822   5.188
  131SOL     OW 1291   0.515   3.434   2.479
  131SOL    HW1 1292   0.472   3.351   2.444
  131SOL    HW2 1293   0.566   3.413   2.562
  132SOL     OW 1294   4.095   3.192   2.190
  132SOL    HW1 1295   4.160   3.124   2.156
  132SOL    HW2 1296   4.046   3.232   2.112
  133SOL     OW 1297   4.156   4.467   5.591
  133SOL    HW1 1298   4.067   4.464   5.636
  133SOL    HW2 1299   4.143   4.471   5.492
  134SOL     OW 1300   6.917   2.118   6.919
  134SOL    HW1 1301   6.884   2.104   6.826
  134SOL    HW2 1302   7.003   2.067   6.932
  135SOL     OW 1303   4.704   5.569   4.053
  135SOL    HW1 1304   4.754   5.620   4.123
  135SOL    HW2 1305   4.606   5.582   4.066
  136SOL     OW 1306   4.069   6.023   6.241
  136SOL    HW1 1307   4.038   6.094   6.304
  136SOL    HW2 1308   4.133   5.962   6.288
  137SOL     OW 1309   2.035   4.244   0.291
  137SOL    HW1 1310   2.128   4.247   0.254
  137SOL    HW2 1311   2.038   4.233   0.390
  138SOL     OW 1312   0.613   5.442   1.318
  138SOL    HW1 1313   0.707   5.415   1.295
  138SOL    HW2 1314   0.591   5.528   1.271
  139SOL     OW 1315   0.724   0.404   1.188
  139SOL    HW1 1316   0.741   0.489   1.238
  139SOL    HW2 1317   0.809   0.352   1.181
  140SOL     OW 1318   2.565   6.979   2.310
  140SOL    HW1 1319   2.603   6.955   2.400
  140SOL    HW2 1320   2.521   6.899   2.270
  141SOL     OW 1321   2.061   1.737   0.023
  141SOL    HW1 1322   2.144   1.792   0.021
  141SOL    HW2 1323   2.071   1.658   6.989
  142SOL     OW 1324   2.019   4.317   6.365
  142SOL    HW1 1325   1.984   4.411   6.360
  142SOL    HW2 1326   1.965   4.258   6.306
  143SOL     OW 1327   5.109   6.326   1.881
  143SOL    HW1 1328   5.172   6.317   1.804
  143SOL    HW2 1329   5.109   6.421   1.913
  144SOL     OW 1330   2.109   4.969   3.321
  144SOL    HW1 1331   2.198   4.924   3.326
  144SOL    HW2 1332   2.039   4.903   3.293
  145SOL     OW 1333   6.546   6.319   3.143
  145SOL    HW1 1334   6.637   6.356   3.124
  145SOL    HW2 1335   6.539   6.227   3.106
  146SOL     OW 1336   6.789   0.954   4.479
  146SOL    HW1 1337   6.767   0.863   4.514
  146SOL    HW2 1338   6.828   1.009   4.553
  147SOL     OW 1339   6.537   7.000   4.904
  147SOL    HW1 1340   6.590   0.052   4.871
  147SOL    HW2 1341   6.577   6.966   4.989
  148SOL     OW 1342   1.610   6.625   3.202
  148SOL    HW1 1343   1.633   6.672   3.287
  148SOL    HW2 1344   1.692   6.615   3.146
  149SOL     OW 1345   1.978   2.214   4.714
  149SOL    HW1 1346   1.883   2.212   4.682
  149SOL    HW2 1347   1.984   2.167   4.802
  150SOL     OW 1348   5.122   2.713   4.703
  150SOL    HW1 1349   5.105   2.725   4.605
  150SOL    HW2 1350   5.043   2.667   4.744
  151SOL     OW 1351   5.932   2.798   1.674
  151SOL    HW1 1352   5.877   2.863   1.726
  151SOL    HW2 1353   6.029   2.815   1.693
  152SOL     OW 1354   6.055   2.373   0.664
  152SOL    HW1 1355   6.041   2.294   0.723
  152SOL    HW2 1356   6.037   2.347   0.569
  153SOL     OW 1357   2.300   1.751   3.672
  153SOL    HW1 1358   2.220   1.738   3.613
  153SOL    HW2 1359   2.336   1.661   3.699
  154SOL     OW 1360   0.075   1.494   3.626
  154SOL    HW1 1361   0.083   1.395   3.618
  154SOL    HW2 1362   0.152   1.537   3.577
  155SOL     OW 1363   5.710   5.091   3.138
  155SOL    HW1 1364   5.756   5.021   3.084
  155SOL    HW2 1365   5.668   5.048   3.219
  156SOL     OW 1366   4.136   0.378   1.215
  156SOL    HW1 1367   4.212   0.335   1.165
  156SOL    HW2 1368   4.168   0.464   1.255
  157SOL     OW 1369   4.798   0.427   0.991
  157SOL    HW1 1370   4.829   0.483   0.915
  157SOL    HW2 1371   4.760   0.486   1.063
  158SOL     OW 1372   0.954   2.478   6.024
  158SOL    HW1 1373   0.978   2.387   6.058
  158SOL    HW2 1374   0.876   2.471   5.962
  159SOL     OW 1375   0.342   5.003   6.888
  159SOL    HW1 1376   0.372   4.951   6.808
  159SOL    HW2 1377   0.251   5.041   6.871
  160SOL     OW 1378   3.961   0.176   1.866
  160SOL    HW1 1379   3.920   0.267   1.858
  160SOL    HW2 1380   3.901   0.117   1.919
  161SOL     OW 1381   6.184   6.896   0.820
  161SOL    HW1 1382   6.123   6.877   0.897
  161SOL    HW2 1383   6.186   6.817   0.758
  162SOL     OW 1384   4.394   0.206   5.023
  162SOL    HW1 1385   4.371   0.111   5.040
  162SOL    HW2 1386   4.489   0.212   4.992
  163SOL     OW 1387   1.068   3.979   3.072
  163SOL    HW1 1388   1.025   3.889   3.072
  163SOL    HW2 1389   1.009   4.044   3.119
  164SOL     OW 1390   2.069   2.347   2.663
  164SOL    HW1 1391   2.160   2.312   2.683
  164SOL    HW2 1392   2.001   2.274   2.680
  165SOL     OW 1393   0.294   6.088   4.793
  165SOL    HW1 1394   0.335   5.997   4.784
  165SOL    HW2 1395   0.230   6.089   4.869
  166SOL     OW 1396   0.869   4.780   3.905
  166SOL    HW1 1397   0.833   4.744   3.991
  166SOL    HW2 1398   0.846   4.877   3.897
  167SOL     OW 1399   0.066   0.987   3.129
  167SOL    HW1 1400   0.119   1.071   3.115
  167SOL    HW2 1401   0.080   0.926   3.051
  168SOL     OW 1402   3.293   4.126   4.284
  168SOL    HW1 1403   3.219   4.072   4.325
  168SOL    HW2 1404   3.340   4.178   4.355
  169SOL     OW 1405   5.104   2.743   6.032
  169SOL    HW1 1406   5.049   2.714   5.954
  169SOL    HW2 1407   5.048   2.742   6.115
  170SOL     OW 1408   0.058   5.444   2.917
  170SOL    HW1 1409   0.133   5.476   2.860
  170SOL    HW2 1410   0.034   5.514   2.984
  171SOL     OW 1411   3.517   2.713   1.109
  171SOL    HW1 1412   3.601   2.767   1.110
  171SOL    HW2 1413   3.538   2.619   1.085
  172SOL     OW 1414   1.532   0.807   0.170
  172SOL    HW1 1415   1.525   0.714   0.205
  172SOL    HW2 1416   1.455   0.861   0.204
  173SOL     OW 1417   5.923   0.890   4.991
  173SOL    HW1 1418   5.865   0.823   4.943
  173SOL    HW2 1419   6.010   0.899   4.943
  174SOL     OW 1420   6.880   4.221   4.769
  174SOL    HW1 1421   6.878   4.282   4.848
  174SOL    HW2 1422   6.786   4.194   4.746
  175SOL     OW 1423   0.814   5.464   2.540
  175SOL    HW1 1424   0.838   5.524   2.616
  175SOL    HW2 1425   0.895   5.444   2.486
  176SOL     OW 1426   6.014   4.255   0.659
  176SOL    HW1 1427   6.107   4.230   0.687
  176SOL    HW2 1428   5.948   4.196   0.706
  177SOL     OW 1429   5.798   2.730   3.238
  177SOL    HW1 1430   5.865   2.749   3.166
  177SOL    HW2 1431   5.746   2.648   3.214
  178SOL     OW 1432   1.682   5.189   5.018
  178SOL    HW1 1433   1.644   5.111   4.969
  178SOL    HW2 1434   1.781   5.177   5.029
  179SOL     OW 1435   3.226   4.045   2.004
  179SOL    HW1 1436   3.223   4.130   2.056
  179SOL    HW2 1437   3.202   4.062   1.909
  180SOL     OW 1438   4.578   0.491   5.884
  180SOL    HW1 1439   4.560   0.489   5.982
  180SOL    HW2 1440   4.508   0.546   5.838
  181SOL     OW 1441   3.455   0.240   5.403
  181SOL    HW1 1442   3.474   0.156   5.453
  181SOL    HW2 1443   3.357   0.244   5.381
  182SOL     OW 1444   3.082   2.918   5.800
  182SOL    HW1 1445   3.072   3.011   5.765
  182SOL    HW2 1446   2.991   2.878   5.815
  183SOL     OW 1447   2.212   1.354   3.056
  183SOL    HW1 1448   2.123   1.397   3.068
  183SOL    HW2 1449   2.201   1.254   3.058
  184SOL     OW 1450   5.810   6.618   3.649
  184SOL    HW1 1451   5.733   6.618   3.714
  184SOL    HW2 1452   5.815   6.529   3.604
  185SOL     OW 1453   0.486   5.960   6.047
  185SOL    HW1 1454   0.462   6.032   5.982
  185SOL    HW2 1455   0.445   5.874   6.017
  186SOL     OW 1456   3.199   5.500   6.891
  186SOL    HW1 1457   3.119   5.510   6.833
  186SOL    HW2 1458   3.273   5.456   6.840
  187SOL     OW 1459   3.191   5.181   0.480
  187SOL    HW1 1460   3.117   5.131   0.524
  187SOL    HW2 1461   3.181   5.175   0.381
  188SOL     OW 1462   1.540   3.956   4.400
  188SOL    HW1 1463   1.604   3.963   4.324
  188SOL    HW2 1464   1.538   4.042   4.451
  189SOL     OW 1465   6.157   4.384   5.952
  189SOL    HW1 1466   6.160   4.382   6.052
  189SOL    HW2 1467   6.182   4.295   5.916
  190SOL     OW 1468   5.867   6.425   6.817
  190SOL    HW1 1469   5.924   6.386   6.745
  190SOL    HW2 1470   5.908   6.510   6.850
  191SOL     OW 1471   2.136   3.482   6.133
  191SOL    HW1 1472   2.128   3.582   6.133
  191SOL    HW2 1473   2.232   3.456   6.148
  192SOL     OW 1474   1.095   0.302   0.969
  192SOL    HW1 1475   1.154   0.371   0.926
  192SOL    HW2 1476   1.056   0.243   0.899
  193SOL     OW 1477   2.956   6.602   1.970
  193SOL    HW1 1478   3.024   6.565   1.907
  193SOL    HW2 1479   2.893   6.530   1.997
  194SOL     OW 1480   4.258   6.367   3.248
  194SOL    HW1 1481   4.175   6.311   3.251
  194SOL    HW2 1482   4.275   6.406   3.338
  195SOL     OW 1483   2.900   1.016   1.429
  195SOL    HW1 1484   2.932   0.927   1.397
  195SOL    HW2 1485   2.931   1.032   1.522
  196SOL     OW 1486   4.183   3.080   1.422
  196SOL    HW1 1487   4.118   3.120   1.357
  196SOL    HW2 1488   4.157   2.985   1.441
  197SOL     OW 1489   0.744   6.399   1.010
  197SOL    HW1 1490   0.791   6.362   1.090
  197SOL    HW2 1491   0.662   6.345   0.991
  198SOL     OW 1492   6.197   0.393   5.779
  198SOL    HW1 1493   6.102   0.388   5.811
  198SOL    HW2 1494   6.239   0.478   5.809
  199SOL     OW 1495   1.673   1.294   3.176
  199SOL    HW1 1496   1.651   1.201   3.205
  199SOL    HW2 1497   1.654   1.304   3.078
  200SOL     OW 1498   1.511   3.749   3.552
  200SOL    HW1 1499   1.434   3.684   3.550
  200SOL    HW2 1500   1.552   3.749   3.643
  201SOL     OW 1501   4.827   0.918   6.849
  201SOL    HW1 1502   4.916   0.895   6.889
  201SOL    HW2 1503   4.812   1.016   6.856
  202SOL     OW 1504   4.133   0.826   3.035
  202SOL    HW1 1505   4.160   0.769   2.958
  202SOL    HW2 1506   4.142   0.774   3.120
  203SOL     OW 1507   5.759   2.873   0.542
  203SOL    HW1 1508   5.670   2.845   0.577
  203SOL    HW2 1509   5.827   2.867   0.616
  204SOL     OW 1510   2.397   5.958   0.976
  204SOL    HW1 1511   2.356   5.899   1.046
  204SOL    HW2 1512   2.492   5.977   1.001
  205SOL     OW 1513   5.418   0.422   0.993
  205SOL    HW1 1514   5.330   0.413   0.947
  205SOL    HW2 1515   5.486   0.458   0.929
  206SOL     OW 1516   6.961   6.047   1.711
  206SOL    HW1 1517   7.003   6.067   1.800
  206SOL    HW2 1518   6.876   5.996   1.725
  207SOL     OW 1519   6.824   2.491   5.885
  207SOL    HW1 1520   6.912   2.446   5.866
  207SOL    HW2 1521   6.779   2.444   5.960
  208SOL     OW 1522   4.567   3.515   1.027
  208SOL    HW1 1523   4.632   3.443   1.050
  208SOL    HW2 1524   4.533   3.557   1.111
  209SOL     OW 1525   6.380   0.121   4.360
  209SOL    HW1 1526   6.380   0.021   4.364
  209SOL    HW2 1527   6.466   0.156   4.398
  210SOL     OW 1528   4.665   1.978   6.962
  210SOL    HW1 1529   4.714   2.064   6.946
  210SOL    HW2 1530   4.712   1.926   0.007
  211SOL     OW 1531   0.194   4.065   2.401
  211SOL    HW1 1532   0.271   4.016   2.442
  211SOL    HW2 1533   0.227   4.120   2.324
  212SOL     OW 1534   1.678   5.468   5.038
  212SOL    HW1 1535   1.585   5.501   5.024
  212SOL    HW2 1536   1.681   5.369   5.021
  213SOL     OW 1537   4.447   2.564   1.345
  213SOL    HW1 1538   4.501   2.609   1.275
  213SOL    HW2 1539   4.458   2.465   1.338
  214SOL     OW 1540   0.140   5.776   3.973
  214SOL    HW1 1541   0.088   5.738   4.050
  214SOL    HW2 1542   0.135   5.713   3.896
  215SOL     OW 1543   3.974   3.890   3.873
  215SOL    HW1 1544   3.905   3.921   3.808
  215SOL    HW2 1545   4.031   3.820   3.829
  216SOL     OW 1546   3.643   6.802   5.572
  216SOL    HW1 1547   3.637   6.885   5.516
  216SOL    HW2 1548   3.736   6.765   5.567
  217SOL     OW 1549   6.693   2.004   5.143
  217SOL    HW1 1550   6.739   2.078   5.094
  217SOL    HW2 1551   6.610   2.038   5.186
  218SOL     OW 1552   2.760   4.303   6.073
  218SOL    HW1 1553   2.738   4.371   6.003
  218SOL    HW2 1554   2.771   4.214   6.030
  219SOL     OW 1555   3.325   5.736   6.526
  219SOL    HW1 1556   3.319   5.835   6.516
  219SOL    HW2 1557   3.419   5.710   6.549
  220SOL     OW 1558   1.062   4.963   0.512
  220SOL    HW1 1559   1.042   5.035   0.578
  220SOL    HW2 1560   1.119   5.001   0.438
  221SOL     OW 1561   6.501   3.993   4.778
  221SOL    HW1 1562   6.578   3.931   4.795
  221SOL    HW2 1563   6.509   4.031   4.687
  222SOL     OW 1564   1.883   6.913   3.863
  222SOL    HW1 1565   1.849   6.910   3.957
  222SOL    HW2 1566   1.979   6.885   3.861
  223SOL     OW 1567   5.187   5.364   2.295
  223SOL    HW1 1568   5.132   5.447   2.301
  223SOL    HW2 1569   5.182   5.314   2.381
  224SOL     OW 1570   5.240   4.230   3.227
  224SOL    HW1 1571   5.159   4.275   3.190
  224SOL    HW2 1572   5.215   4.179   3.309
  225SOL     OW 1573   4.506   5.949   2.356
  225SOL    HW1 1574   4.430   5.897   2.395
  225SOL    HW2 1575   4.540   5.904   2.274
  226SOL     OW 1576   1.625   5.846   2.607
  226SOL    HW1 1577   1.698   5.850   2.539
  226SOL    HW2 1578   1.624   5.757   2.651
  227SOL     OW 1579   1.136   4.231   3.486
  227SOL    HW1 1580   1.191   4.314   3.479
  227SOL    HW2 1581   1.110   4.200   3.394
  228SOL     OW 1582   4.087   6.122   3.286
  228SOL    HW1 1583   4.020   6.083   3.350
  228SOL    HW2 1584   4.063   6.096   3.193
  229SOL     OW 1585   5.692   6.057   2.571
  229SOL    HW1 1586   5.731   6.022   2.656
  229SOL    HW2 1587   5.593   6.064   2.580
  230SOL     OW 1588   1.566   4.748   5.831
  230SOL    HW1 1589   1.476   4.713   5.856
  230SOL    HW2 1590   1.557   4.811   5.754
  231SOL     OW 1591   0.444   1.721   6.378
  231SOL    HW1 1592   0.367   1.658   6.366
  231SOL    HW2 1593   0.447   1.786   6.302
  232SOL     OW 1594   1.622   3.217   6.057
  232SOL    HW1 1595   1.571   3.259   5.982
  232SOL    HW2 1596   1.712   3.261   6.064
  233SOL     OW 1597   3.814   6.997   0.107
  233SOL    HW1 1598   3.843   6.911   0.065
  233SOL    HW2 1599   3.895   0.022   0.137
  234SOL     OW 1600   1.593   4.804   0.053
  234SOL    HW1 1601   1.656   4.873   0.086
  234SOL    HW2 1602   1.622   4.714   0.086
  235SOL     OW 1603   3.864   3.258   6.246
  235SOL    HW1 1604   3.940   3.275   6.308
  235SOL    HW2 1605   3.862   3.330   6.176
  236SOL     OW 1606   0.151   0.482   6.611
  236SOL    HW1 1607   0.070   0.480   6.669
  236SOL    HW2 1608   0.129   0.526   6.524
  237SOL     OW 1609   6.079   6.927   2.298
  237SOL    HW1 1610   6.123   7.015   2.316
  237SOL    HW2 1611   6.038   6.929   2.207
  238SOL     OW 1612   1.049   2.209   3.312
  238SOL    HW1 1613   1.118   2.280   3.329
  238SOL    HW2 1614   1.079   2.153   3.234
  239SOL     OW 1615   6.467   5.024   0.191
  239SOL    HW1 1616   6.395   5.049   0.127
  239SOL    HW2 1617   6.493   5.103   0.246
  240SOL     OW 1618   0.164   2.303   4.223
  240SOL    HW1 1619   0.187   2.296   4.126
  240SOL    HW2 1620   0.065   2.310   4.233
  241SOL     OW 1621   6.611   2.387   4.653
  241SOL    HW1 1622   6.568   2.400   4.564
  241SOL    HW2 1623   6.544   2.404   4.726
  242SOL     OW 1624   2.679   2.363   3.555
  242SOL    HW1 1625   2.777   2.349   3.540
  242SOL    HW2 1626   2.647   2.301   3.627
  243SOL     OW 1627   4.863   1.275   6.677
  243SOL    HW1 1628   4.887   1.219   6.597
  243SOL    HW2 1629   4.915   1.360   6.675
  244SOL     OW 1630   1.150   0.848   5.999
  244SOL    HW1 1631   1.194   0.762   5.972
  244SOL    HW2 1632   1.214   0.924   5.985
  245SOL     OW 1633   4.939   2.005   4.275
  245SOL    HW1 1634   4.901   2.097   4.270
  245SOL    HW2 1635   5.039   2.009   4.278
  246SOL     OW 1636   5.913   3.731   4.388
  246SOL    HW1 1637   5.821   3.699   4.410
  246SOL    HW2 1638   5.922   3.828   4.414
  247SOL     OW 1639   2.043   0.683   3.030
  247SOL    HW1 1640   1.986   0.761   3.055
  247SOL    HW2 1641   2.043   0.672   2.931
  248SOL     OW 1642   6.853   2.507   3.159
  248SOL    HW1 1643   6.873   2.409   3.158
  248SOL    HW2 1644   6.816   2.534   3.070
  249SOL     OW 1645   2.406   6.053   5.056
  249SOL    HW1 1646   2.411   6.109   4.973
  249SOL    HW2 1647   2.460   5.970   5.043
  250SOL     OW 1648   5.336   2.559   6.666
  250SOL    HW1 1649   5.310   2.465   6.686
  250SOL    HW2 1650   5.309   2.582   6.573
  251SOL     OW 1651   2.489   0.329   1.660
  251SOL    HW1 1652   2.414   0.264   1.645
  251SOL    HW2 1653   2.452   0.422   1.661
  252SOL     OW 1654   6.906   2.560   6.869
  252SOL    HW1 1655   6.905   2.488   6.799
  252SOL    HW2 1656   6.815   2.599   6.880
  253SOL     OW 1657   2.105   5.042   5.859
  253SOL    HW1 1658   2.189   4.992   5.838
  253SOL    HW2 1659   2.099   5.123   5.801
  254SOL     OW 1660   4.708   3.214   6.494
  254SOL    HW1 1661   4.655   3.195   6.576
  254SOL    HW2 1662   4.796   3.167   6.498
  255SOL     OW 1663   4.290   2.234   2.447
  255SOL    HW1 1664   4.196   2.240   2.413
  255SOL    HW2 1665   4.302   2.299   2.521
  256SOL     OW 1666   0.412   6.293   1.262
  256SOL    HW1 1667   0.360   6.209   1.280
  256SOL    HW2 1668   0.467   6.282   1.180
  257SOL     OW 1669   3.026   5.818   6.551
  257SOL    HW1 1670   3.092   5.813   6.626
  257SOL    HW2 1671   3.073   5.838   6.465
  258SOL     OW 1672   4.932   5.286   4.647
  258SOL    HW1 1673   4.893   5.330   4.566
  258SOL    HW2 1674   4.864   5.224   4.687
  259SOL     OW 1675   0.200   1.559   2.609
  259SOL    HW1 1676   0.120   1.618   2.593
  259SOL    HW2 1677   0.178   1.466   2.582
  260SOL     OW 1678   6.607   6.777   5.653
  260SOL    HW1 1679   6.610   6.710   5.578
  260SOL    HW2 1680   6.687   6.765   5.711
  261SOL     OW 1681   0.655   1.167   3.925
  261SOL    HW1 1682   0.612   1.208   4.006
  261SOL    HW2 1683   0.735   1.115   3.954
  262SOL     OW 1684   1.863   5.317   0.888
  262SOL    HW1 1685   1.937   5.262   0.926
  262SOL    HW2 1686   1.898   5.371   0.812
  263SOL     OW 1687   0.876   4.933   5.163
  263SOL    HW1 1688   0.785   4.962   5.192
  263SOL    HW2 1689   0.921   4.884   5.238
  264SOL     OW 1690   3.765   3.997   1.113
  264SOL    HW1 1691   3.830   3.930   1.150
  264SOL    HW2 1692   3.814   4.083   1.095
  265SOL     OW 1693   4.419   5.613   4.126
  265SOL    HW1 1694   4.343   5.553   4.099
  265SOL    HW2 1695   4.396   5.658   4.212
  266SOL     OW 1696   4.459   3.423   0.103
  266SOL    HW1 1697   4.407   3.362   0.044
  266SOL    HW2 1698   4.399   3.459   0.175
  267SOL     OW 1699   2.659   2.046   6.330
  267SOL    HW1 1700   2.754   2.031   6.302
  267SOL    HW2 1701   2.619   2.118   6.273
  268SOL     OW 1702   1.497   3.816   3.258
  268SOL    HW1 1703   1.404   3.848   3.241
  268SOL    HW2 1704   1.512   3.806   3.356
  269SOL     OW 1705   2.866   1.340   5.952
  269SOL    HW1 1706   2.936   1.274   5.923
  269SOL    HW2 1707   2.777   1.296   5.954
  270SOL     OW 1708   5.749   5.020   5.039
  270SOL    HW1 1709   5.703   4.932   5.028
  270SOL    HW2 1710   5.682   5.094   5.026
  271SOL     OW 1711   2.319   1.394   6.782
  271SOL    HW1 1712   2.348   1.307   6.743
  271SOL    HW2 1713   2.394   1.460   6.778
  272SOL     OW 1714   5.601   4.731   6.771
  272SOL    HW1 1715   5.510   4.764   6.745
  272SOL    HW2 1716   5.670   4.783   6.721
  273SOL     OW 1717   0.410   6.250   4.231
  273SOL    HW1 1718   0.485   6.297   4.276
  273SOL    HW2 1719   0.434   6.154   4.216
  274SOL     OW 1720   5.308   3.066   2.348
  274SOL    HW1 1721   5.402   3.090   2.371
  274SOL    HW2 1722   5.267   3.141   2.295
  275SOL     OW 1723   5.948   5.234   5.614
  275SOL    HW1 1724   5.997   5.156   5.575
  275SOL    HW2 1725   5.934   5.303   5.543
  276SOL     OW 1726   1.083   0.252   4.416
  276SOL    HW1 1727   1.139   0.216   4.342
  276SOL    HW2 1728   1.090   0.351   4.419
  277SOL     OW 1729   4.328   3.490   5.931
  277SOL    HW1 1730   4.309   3.467   5.836
  277SOL    HW2 1731   4.389   3.569   5.935
  278SOL     OW 1732   5.964   4.759   2.081
  278SOL    HW1 1733   5.936   4.819   2.155
  278SOL    HW2 1734   5.918   4.670   2.091
  279SOL     OW 1735   0.339   3.499   4.624
  279SOL    HW1 1736   0.434   3.471   4.611
  279SOL    HW2 1737   0.298   3.443   4.696
  280SOL     OW 1738   4.570   1.325   2.804
  280SOL    HW1 1739   4.517   1.311   2.721
  280SOL    HW2 1740   4.522   1.284   2.882
  281SOL     OW 1741   5.286   5.341   5.395
  281SOL    HW1 1742   5.337   5.388   5.323
  281SOL    HW2 1743   5.231   5.268   5.355
  282SOL     OW 1744   0.260   2.120   0.039
  282SOL    HW1 1745   0.209   2.197   0.000
  282SOL    HW2 1746   0.207   2.036   0.026
  283SOL     OW 1747   5.660   3.923   2.382
  283SOL    HW1 1748   5.730   3.852   2.373
  283SOL    HW2 1749   5.694   4.008   2.343
  284SOL     OW 1750   5.649   6.829   3.162
  284SOL    HW1 1751   5.717   6.781   3.107
  284SOL    HW2 1752   5.633   6.920   3.123
  285SOL     OW 1753   4.599   6.236   6.531
  285SOL    HW1 1754   4.585   6.227   6.630
  285SOL    HW2 1755   4.561   6.324   6.500
  286SOL     OW 1756   3.512   5.534   5.196
  286SOL    HW1 1757   3.484   5.588   5.116
  286SOL    HW2 1758   3.563   5.593   5.259
  287SOL     OW 1759   3.748   6.170   0.689
  287SOL    HW1 1760   3.669   6.125   0.730
  287SOL    HW2 1761   3.832   6.121   0.715
  288SOL     OW 1762   4.023   0.842   0.379
  288SOL    HW1 1763   3.950   0.774   0.366
  288SOL    HW2 1764   4.000   0.902   0.455
  289SOL     OW 1765   5.236   4.865   5.173
  289SOL    HW1 1766   5.209   4.848   5.267
  289SOL    HW2 1767   5.324   4.913   5.171
  290SOL     OW 1768   3.040   0.656   5.019
  290SOL    HW1 1769   3.139   0.646   5.014
  290SOL    HW2 1770   2.996   0.572   4.986
  291SOL     OW 1771   5.746   1.533   4.867
  291SOL    HW1 1772   5.774   1.516   4.962
  291SOL    HW2 1773   5.816   1.499   4.805
  292SOL     OW 1774   2.080   0.619   3.963
  292SOL    HW1 1775   2.160   0.561   3.978
  292SOL    HW2 1776   2.107   0.698   3.907
  293SOL     OW 1777   5.515   1.181   3.500
  293SOL    HW1 1778   5.469   1.257   3.455
  293SOL    HW2 1779   5.490   1.095   3.454
  294SOL     OW 1780   6.393   1.184   0.043
  294SOL    HW1 1781   6.459   1.254   0.016
  294SOL    HW2 1782   6.302   1.225   0.047
  295SOL     OW 1783   0.253   0.628   4.709
  295SOL    HW1 1784   0.264   0.599   4.804
  295SOL    HW2 1785   0.222   0.724   4.707
  296SOL     OW 1786   6.743   1.676   6.869
  296SOL    HW1 1787   6.830   1.691   6.822
  296SOL    HW2 1788   6.700   1.764   6.888
  297SOL     OW 1789   4.899   3.565   3.405
  297SOL    HW1 1790   4.915   3.484   3.349
  297SOL    HW2 1791   4.873   3.537   3.497
  298SOL     OW 1792   3.925   0.002   5.351
  298SOL    HW1 1793   3.862   7.000   5.278
  298SOL    HW2 1794   3.958   0.095   5.333
  299SOL     OW 1795   0.424   1.098   6.310
  299SOL    HW1 1796   0.404   1.060   6.220
  299SOL    HW2 1797   0.517   1.076   6.337
  300SOL     OW 1798   4.313   6.414   4.661
  300SOL    HW1 1799   4.314   6.397   4.562
  300SOL    HW2 1800   4.218   6.422   4.692
  301SOL     OW 1801   6.818   6.603   5.222
  301SOL    HW1 1802   6.784   6.528   5.280
  301SOL    HW2 1803   6.917   6.597   5.214
  302SOL     OW 1804   0.320   0.148   1.618
  302SOL    HW1 1805   0.391   0.144   1.688
  302SOL    HW2 1806   0.289   0.243   1.606
  303SOL     OW 1807   4.797   5.443   2.899
  303SOL    HW1 1808   4.842   5.528   2.928
  303SOL    HW2 1809   4.866   5.372   2.887
  304SOL     OW 1810   1.014   1.456   4.322
  304SOL    HW1 1811   1.097   1.494   4.281
  304SOL    HW2 1812   1.039   1.383   4.386
  305SOL     OW 1813   2.629   1.765   1.249
  305SOL    HW1 1814   2.547   1.713   1.269
  305SOL    HW2 1815   2.620   1.808   1.159
  306SOL     OW 1816   0.200   6.752   2.908
  306SOL    HW1 1817   0.292   6.782   2.884
  306SOL    HW2 1818   0.163   6.695   2.835
  307SOL     OW 1819   4.022   3.809   4.678
  307SOL    HW1 1820   4.062   3.762   4.756
  307SOL    HW2 1821   4.048   3.762   4.593
  308SOL     OW 1822   6.205   2.893   1.679
  308SOL    HW1 1823   6.226   2.831   1.604
  308SOL    HW2 1824   6.254   2.864   1.761
  309SOL     OW 1825   1.923   4.942   0.309
  309SOL    HW1 1826   1.858   4.971   0.239
  309SOL    HW2 1827   1.889   4.970   0.399
  310SOL     OW 1828   4.820   6.155   5.028
  310SOL    HW1 1829   4.895   6.158   4.962
  310SOL    HW2 1830   4.796   6.249   5.055
  311SOL     OW 1831   1.766   5.977   2.075
  311SOL    HW1 1832   1.757   6.057   2.134
  311SOL    HW2 1833   1.850   5.927   2.099
  312SOL     OW 1834   3.265   0.789   4.102
  312SOL    HW1 1835   3.270   0.796   4.002
  312SOL    HW2 1836   3.335   0.726   4.135
  313SOL     OW 1837   3.427   3.242   3.301
  313SOL    HW1 1838   3.382   3.198   3.379
  313SOL    HW2 1839   3.379   3.327   3.279
  314SOL     OW 1840   2.216   4.378   6.125
  314SOL    HW1 1841   2.276   4.456   6.143
  314SOL    HW2 1842   2.151   4.369   6.200
  315SOL     OW 1843   6.105   6.910   4.946
  315SOL    HW1 1844   6.080   6.999   4.909
  315SOL    HW2 1845   6.188   6.918   5.001
  316SOL     OW 1846   3.863   1.200   4.910
  316SOL    HW1 1847   3.878   1.294   4.878
  316SOL    HW2 1848   3.949   1.163   4.946
  317SOL     OW 1849   0.650   1.733   1.743
  317SOL    HW1 1850   0.644   1.831   1.725
  317SOL    HW2 1851   0.620   1.714   1.837
  318SOL     OW 1852   0.974   1.312   3.769
  318SOL    HW1 1853   1.013   1.391   3.815
  318SOL    HW2 1854   0.881   1.334   3.739
  319SOL     OW 1855   0.240   2.001   2.483
  319SOL    HW1 1856   0.312   2.066   2.459
  319SOL    HW2 1857   0.263   1.911   2.445
  320SOL     OW 1858   5.089   0.798   6.810
  320SOL    HW1 1859   5.092   0.708   6.854
  320SOL    HW2 1860   5.093   0.787   6.711
  321SOL     OW 1861   3.980   3.179   1.281
  321SOL    HW1 1862   3.910   3.150   1.346
  321SOL    HW2 1863   3.993   3.278   1.288
  322SOL     OW 1864   2.791   1.527   0.127
  322SOL    HW1 1865   2.696   1.558   0.129
  322SOL    HW2 1866   2.800   1.452   0.062
  323SOL     OW 1867   0.565   4.520   2.484
  323SOL    HW1 1868   0.505   4.594   2.515
  323SOL    HW2 1869   0.516   4.463   2.418
  324SOL     OW 1870   6.079   0.084   3.503
  324SOL    HW1 1871   6.052   0.042   3.589
  324SOL    HW2 1872   6.129   0.169   3.522
  325SOL     OW 1873   6.301   2.925   0.741
  325SOL    HW1 1874   6.383   2.951   0.689
  325SOL    HW2 1875   6.323   2.849   0.802
  326SOL     OW 1876   5.913   5.984   6.248
  326SOL    HW1 1877   5.934   5.887   6.264
  326SOL    HW2 1878   5.995   6.031   6.215
  327SOL     OW 1879   4.459   6.384   6.301
  327SOL    HW1 1880   4.429   6.338   6.218
  327SOL    HW2 1881   4.539   6.440   6.281
  328SOL     OW 1882   2.260   4.281   3.884
  328SOL    HW1 1883   2.273   4.377   3.908
  328SOL    HW2 1884   2.267   4.270   3.785
  329SOL     OW 1885   2.883   3.532   2.724
  329SOL    HW1 1886   2.805   3.547   2.663
  329SOL    HW2 1887   2.956   3.487   2.673
  330SOL     OW 1888   2.507   4.082   6.648
  330SOL    HW1 1889   2.472   4.063   6.739
  330SOL    HW2 1890   2.451   4.035   6.580
  331SOL     OW 1891   4.987   5.595   3.918
  331SOL    HW1 1892   4.914   5.603   3.850
  331SOL    HW2 1893   4.954   5.631   4.006
  332SOL     OW 1894   6.285   2.200   2.936
  332SOL    HW1 1895   6.244   2.201   2.845
  332SOL    HW2 1896   6.327   2.288   2.956
  333SOL     OW 1897   3.167   6.394   3.504
  333SOL    HW1 1898   3.122   6.315   3.545
  333SOL    HW2 1899   3.210   6.448   3.576
  334SOL     OW 1900   4.042   3.501   4.178
  334SOL    HW1 1901   3.954   3.465   4.209
  334SOL    HW2 1902   4.070   3.454   4.094
  335SOL     OW 1903   4.704   1.577   0.541
  335SOL    HW1 1904   4.645   1.586   0.621
  335SOL    HW2 1905   4.740   1.484   0.537
  336SOL     OW 1906   4.001   2.189   4.415
  336SOL    HW1 1907   4.027   2.093   4.416
  336SOL    HW2 1908   4.009   2.226   4.507
  337SOL     OW 1909   0.746   1.760   5.314
  337SOL    HW1 1910   0.754   1.850   5.358
  337SOL    HW2 1911   0.833   1.737   5.271
  338SOL     OW 1912   5.312   1.322   1.912
  338SOL    HW1 1913   5.372   1.314   1.833
  338SOL    HW2 1914   5.228   1.371   1.886
  339SOL     OW 1915   3.437   5.184   5.598
  339SOL    HW1 1916   3.392   5.218   5.680
  339SOL    HW2 1917   3.432   5.254   5.526
  340SOL     OW 1918   5.649   3.801   4.613
  340SOL    HW1 1919   5.587   3.840   4.545
  340SOL    HW2 1920   5.619   3.709   4.636
  341SOL     OW 1921   6.304   0.726   1.543
  341SOL    HW1 1922   6.351   0.690   1.462
  341SOL    HW2 1923   6.353   0.807   1.576
  342SOL     OW 1924   4.957   0.917   2.307
  342SOL    HW1 1925   4.940   0.861   2.225
  342SOL    HW2 1926   5.006   1.000   2.281
  343SOL     OW 1927   5.791   0.656   1.561
  343SOL    HW1 1928   5.855   0.589   1.524
  343SOL    HW2 1929   5.705   0.650   1.511
  344SOL     OW 1930   6.687   2.723   1.462
  344SOL    HW1 1931   6.690   2.742   1.364
  344SOL    HW2 1932   6.675   2.809   1.512
  345SOL     OW 1933   0.027   2.965   3.832
  345SOL    HW1 1934   0.102   3.032   3.824
  345SOL    HW2 1935   6.966   3.009   3.808
  346SOL     OW 1936   0.939   6.766   2.357
  346SOL    HW1 1937   0.858   6.730   2.403
  346SOL    HW2 1938   0.930   6.865   2.347
  347SOL     OW 1939   1.800   4.436   1.567
  347SOL    HW1 1940   1.780   4.343   1.537
  347SOL    HW2 1941   1.720   4.473   1.616
  348SOL     OW 1942   5.403   4.483   1.012
  348SOL    HW1 1943   5.399   4.417   1.088
  348SOL    HW2 1944   5.419   4.434   0.926
  349SOL     OW 1945   6.029   5.347   0.407
  349SOL    HW1 1946   5.929   5.342   0.407
  349SOL    HW2 1947   6.066   5.280   0.341
  350SOL     OW 1948   2.596   0.437   0.778
  350SOL    HW1 1949   2.599   0.342   0.749
  350SOL    HW2 1950   2.516   0.482   0.738
  351SOL     OW 1951   3.541   4.125   1.150
  351SOL    HW1 1952   3.619   4.064   1.135
  351SOL    HW2 1953   3.476   4.082   1.213
  352SOL     OW 1954   3.979   0.585   2.070
  352SOL    HW1 1955   3.968   0.551   1.976
  352SOL    HW2 1956   3.966   0.509   2.134
  353SOL     OW 1957   2.768   6.099   0.422
  353SOL    HW1 1958   2.746   6.123   0.516
  353SOL    HW2 1959   2.706   6.146   0.360
  354SOL     OW 1960   2.308   2.072   0.573
  354SOL    HW1 1961   2.290   2.102   0.479
  354SOL    HW2 1962   2.315   2.152   0.632
  355SOL     OW 1963   0.305   2.866   2.847
  355SOL    HW1 1964   0.384   2.892   2.791
  355SOL    HW2 1965   0.221   2.886   2.798
  356SOL     OW 1966   2.815   0.348   5.988
  356SOL    HW1 1967   2.790   0.414   5.917
  356SOL    HW2 1968   2.902   0.306   5.965
  357SOL     OW 1969   6.124   5.686   4.338
  357SOL    HW1 1970   6.082   5.599   4.364
  357SOL    HW2 1971   6.075   5.723   4.258
  358SOL     OW 1972   3.175   6.087   6.983
  358SOL    HW1 1973   3.152   6.066   6.888
  358SOL    HW2 1974   3.138   6.177   7.007
  359SOL     OW 1975   1.835   2.729   1.081
  359SOL    HW1 1976   1.933   2.716   1.100
  359SOL    HW2 1977   1.822   2.816   1.035
  360SOL     OW 1978   2.210   4.206   3.285
  360SOL    HW1 1979   2.270   4.185   3.208
  360SOL    HW2 1980   2.162   4.292   3.268
  361SOL     OW 1981   6.692   3.344   2.343
  361SOL    HW1 1982   6.771   3.375   2.395
  361SOL    HW2 1983   6.608   3.360   2.396
  362SOL     OW 1984   4.061   3.337   2.890
  362SOL    HW1 1985   4.107   3.287   2.817
  362SOL    HW2 1986   4.062   3.435   2.869
  363SOL     OW 1987   4.874   4.940   0.607
  363SOL    HW1 1988   4.888   4.965   0.702
  363SOL    HW2 1989   4.911   4.849   0.590
  364SOL     OW 1990   0.944   0.462   0.252
  364SOL    HW1 1991   1.029   0.410   0.262
  364SOL    HW2 1992   0.893   0.426   0.174
  365SOL     OW 1993   5.096   0.164   4.175
  365SOL    HW1 1994   5.048   0.220   4.242
  365SOL    HW2 1995   5.165   0.219   4.128
  366SOL     OW 1996   5.274   1.937   0.704
  366SOL    HW1 1997   5.193   1.936   0.646
  366SOL    HW2 1998   5.349   1.888   0.659
  367SOL     OW 1999   5.910   0.422   6.928
  367SOL    HW1 2000   5.976   0.386   6.863
  367SOL    HW2 2001   5.958   0.459   7.008
  368SOL     OW 2002   3.358   1.443   5.735
  368SOL    HW1 2003   3.448   1.474   5.765
  368SOL    HW2 2004   3.359   1.429   5.635
  369SOL     OW 2005   4.947   4.147   0.214
  369SOL    HW1 2006   4.899   4.126   0.128
  369SOL    HW2 2007   5.030   4.199   0.193
  370SOL     OW 2008   2.220   2.647   3.874
  370SOL    HW1 2009   2.272   2.585   3.816
  370SOL    HW2 2010   2.261   2.650   3.965
  371SOL     OW 2011   2.398   4.909   0.646
  371SOL    HW1 2012   2.382   4.966   0.727
  371SOL    HW2 2013   2.474   4.847   0.663
  372SOL     OW 2014   2.926   6.074   5.963
  372SOL    HW1 2015   2.910   6.135   5.885
  372SOL    HW2 2016   3.024   6.073   5.984
  373SOL     OW 2017   5.155   4.801   2.820
  373SOL    HW1 2018   5.230   4.854   2.780
  373SOL    HW2 2019   5.192   4.736   2.887
  374SOL     OW 2020   2.503   2.572   2.196
  374SOL    HW1 2021   2.518   2.570   2.098
  374SOL    HW2 2022   2.504   2.667   2.228
  375SOL     OW 2023   6.775   5.685   3.888
  375SOL    HW1 2024   6.747   5.629   3.810
  375SOL    HW2 2025   6.744   5.779   3.875
  376SOL     OW 2026   4.432   0.527   3.636
  376SOL    HW1 2027   4.407   0.613   3.681
  376SOL    HW2 2028   4.531   0.521   3.628
  377SOL     OW 2029   2.994   3.100   6.166
  377SOL    HW1 2030   2.900   3.117   6.137
  377SOL    HW2 2031   3.057   3.154   6.111
  378SOL     OW 2032   4.145   1.084   1.798
  378SOL    HW1 2033   4.215   1.013   1.806
  378SOL    HW2 2034   4.180   1.160   1.742
  379SOL     OW 2035   3.698   3.175   6.981
  379SOL    HW1 2036   3.681   3.096   0.015
  379SOL    HW2 2037   3.658   3.158   6.891
  380SOL     OW 2038   5.037   1.962   0.549
  380SOL    HW1 2039   5.028   2.019   0.467
  380SOL    HW2 2040   4.948   1.921   0.570
  381SOL     OW 2041   1.112   3.415   2.287
  381SOL    HW1 2042   1.024   3.417   2.335
  381SOL    HW2 2043   1.096   3.402   2.189
  382SOL     OW 2044   6.708   0.330   0.552
  382SOL    HW1 2045   6.625   0.386   0.544
  382SOL    HW2 2046   6.788   0.384   0.526
  383SOL     OW 2047   5.076   3.132   0.655
  383SOL    HW1 2048   5.082   3.223   0.616
  383SOL    HW2 2049   5.149   3.119   0.723
  384SOL     OW 2050   0.874   2.538   5.153
  384SOL    HW1 2051   0.964   2.578   5.170
  384SOL    HW2 2052   0.821   2.538   5.238
  385SOL     OW 2053   4.993   2.823   6.281
  385SOL    HW1 2054   4.963   2.832   6.376
  385SOL    HW2 2055   4.979   2.910   6.233
  386SOL     OW 2056   3.379   6.348   5.301
  386SOL    HW1 2057   3.384   6.437   5.256
  386SOL    HW2 2058   3.313   6.290   5.253
  387SOL     OW 2059   2.573   6.318   3.979
  387SOL    HW1 2060   2.476   6.299   3.964
  387SOL    HW2 2061   2.615   6.346   3.892
  388SOL     OW 2062   1.896   5.621   5.594
  388SOL    HW1 2063   1.814   5.576   5.558
  388SOL    HW2 2064   1.934   5.567   5.668
  389SOL     OW 2065   2.555   2.202   0.171
  389SOL    HW1 2066   2.489   2.234   0.239
  389SOL    HW2 2067   2.544   2.103   0.159
  390SOL     OW 2068   2.954   1.551   3.819
  390SOL    HW1 2069   2.964   1.520   3.914
  390SOL    HW2 2070   2.980   1.647   3.812
  391SOL     OW 2071   0.513   2.220   0.465
  391SOL    HW1 2072   0.502   2.129   0.503
  391SOL    HW2 2073   0.454   2.284   0.514
  392SOL     OW 2074   3.905   5.179   4.513
  392SOL    HW1 2075   3.914   5.197   4.415
  392SOL    HW2 2076   3.902   5.081   4.529
  393SOL     OW 2077   6.003   3.563   5.396
  393SOL    HW1 2078   5.920   3.526   5.437
  393SOL    HW2 2079   5.979   3.620   5.317
  394SOL     OW 2080   2.030   1.152   6.574
  394SOL    HW1 2081   1.975   1.233   6.592
  394SOL    HW2 2082   2.101   1.174   6.508
  395SOL     OW 2083   0.160   3.149   1.387
  395SOL    HW1 2084   0.206   3.185   1.468
  395SOL    HW2 2085   0.066   3.124   1.409
  396SOL     OW 2086   3.519   2.811   5.508
  396SOL    HW1 2087   3.427   2.777   5.533
  396SOL    HW2 2088   3.559   2.858   5.587
  397SOL     OW 2089   4.511   0.222   6.144
  397SOL    HW1 2090   4.455   0.191   6.221
  397SOL    HW2 2091   4.528   0.320   6.153
  398SOL     OW 2092   6.437   4.450   2.499
  398SOL    HW1 2093   6.470   4.544   2.503
  398SOL    HW2 2094   6.367   4.437   2.569
  399SOL     OW 2095   3.959   5.417   1.699
  399SOL    HW1 2096   3.964   5.375   1.608
  399SOL    HW2 2097   3.975   5.348   1.769
  400SOL     OW 2098   2.634   4.727   5.597
  400SOL    HW1 2099   2.617   4.807   5.539
  400SOL    HW2 2100   2.647   4.757   5.691
  401SOL     OW 2101   6.376   1.555   1.535
  401SOL    HW1 2102   6.427   1.626   1.584
  401SOL    HW2 2103   6.365   1.475   1.593
  402SOL     OW 2104   0.597   5.533   0.789
  402SOL    HW1 2105   0.551   5.534   0.700
  402SOL    HW2 2106   0.695   5.516   0.776
  403SOL     OW 2107   4.683   4.531   0.664
  403SOL    HW1 2108   4.606   4.469   0.679
  403SOL    HW2 2109   4.764   4.496   0.710
  404SOL     OW 2110   0.259   5.730   4.957
  404SOL    HW1 2111   0.289   5.794   4.886
  404SOL    HW2 2112   0.173   5.687   4.929
  405SOL     OW 2113   1.327   1.716   1.295
  405SOL    HW1 2114   1.396   1.672   1.352
  405SOL    HW2 2115   1.251   1.746   1.352
  406SOL     OW 2116   0.936   3.063   3.743
  406SOL    HW1 2117   0.974   3.106   3.660
  406SOL    HW2 2118   1.010   3.045   3.807
  407SOL     OW 2119   3.578   2.136   3.545
  407SOL    HW1 2120   3.482   2.161   3.533
  407SOL    HW2 2121   3.618   2.114   3.456
  408SOL     OW 2122   2.593   0.190   4.005
  408SOL    HW1 2123   2.621   0.126   3.934
  408SOL    HW2 2124   2.643   0.276   3.995
  409SOL     OW 2125   6.978   4.390   4.158
  409SOL    HW1 2126   0.004   4.476   4.159
  409SOL    HW2 2127   6.880   4.411   4.160
  410SOL     OW 2128   2.775   6.829   6.256
  410SOL    HW1 2129   2.807   6.738   6.229
  410SOL    HW2 2130   2.733   6.825   6.346
  411SOL     OW 2131   0.400   4.266   5.501
  411SOL    HW1 2132   0.457   4.349   5.496
  411SOL    HW2 2133   0.343   4.261   5.419
  412SOL     OW 2134   3.410   6.202   2.434
  412SOL    HW1 2135   3.467   6.256   2.495
  412SOL    HW2 2136   3.466   6.135   2.386
  413SOL     OW 2137   1.856   0.586   2.214
  413SOL    HW1 2138   1.777   0.640   2.241
  413SOL    HW2 2139   1.835   0.535   2.130
  414SOL     OW 2140   5.181   4.597   0.748
  414SOL    HW1 2141   5.160   4.501   0.733
  414SOL    HW2 2142   5.279   4.607   0.767
  415SOL     OW 2143   3.922   0.273   2.846
  415SOL    HW1 2144   3.890   0.259   2.753
  415SOL    HW2 2145   3.912   0.189   2.898
  416SOL     OW 2146   3.842   5.886   7.019
  416SOL    HW1 2147   3.749   5.894   0.031
  416SOL    HW2 2148   3.869   5.972   6.977
  417SOL     OW 2149   5.573   5.452   1.159
  417SOL    HW1 2150   5.526   5.525   1.209
  417SOL    HW2 2151   5.515   5.421   1.084
  418SOL     OW 2152   6.712   5.182   6.848
  418SOL    HW1 2153   6.778   5.131   6.793
  418SOL    HW2 2154   6.640   5.120   6.879
  419SOL     OW 2155   5.095   5.424   6.911
  419SOL    HW1 2156   5.113   5.433   7.008
  419SOL    HW2 2157   5.023   5.489   6.884
  420SOL     OW 2158   5.383   3.679   6.594
  420SOL    HW1 2159   5.380   3.703   6.691
  420SOL    HW2 2160   5.300   3.712   6.549
  421SOL     OW 2161   1.785   6.425   6.520
  421SOL    HW1 2162   1.803   6.345   6.577
  421SOL    HW2 2163   1.870   6.454   6.476
  422SOL     OW 2164   6.370   3.897   6.654
  422SOL    HW1 2165   6.293   3.864   6.709
  422SOL    HW2 2166   6.346   3.894   6.557
  423SOL     OW 2167   1.110   3.711   6.453
  423SOL    HW1 2168   1.038   3.651   6.419
  423SOL    HW2 2169   1.070   3.789   6.501
  424SOL     OW 2170   1.877   4.536   6.325
  424SOL    HW1 2171   1.832   4.567   6.409
  424SOL    HW2 2172   1.934   4.609   6.288
  425SOL     OW 2173   3.094   0.369   0.546
  425SOL    HW1 2174   3.016   0.394   0.603
  425SOL    HW2 2175   3.134   0.452   0.506
  426SOL     OW 2176   0.725   3.491   0.146
  426SOL    HW1 2177   0.719   3.496   0.245
  426SOL    HW2 2178   0.667   3.417   0.112
  427SOL     OW 2179   3.695   3.434   7.012
  427SOL    HW1 2180   3.686   3.335   7.003
  427SOL    HW2 2181   3.760   3.468   6.945
  428SOL     OW 2182   4.177   1.683   4.809
  428SOL    HW1 2183   4.144   1.777   4.800
  428SOL    HW2 2184   4.185   1.659   4.905
  429SOL     OW 2185   3.425   6.636   0.155
  429SOL    HW1 2186   3.484   6.638   0.236
  429SOL    HW2 2187   3.373   6.721   0.149
  430SOL     OW 2188   2.662   0.811   4.618
  430SOL    HW1 2189   2.694   0.777   4.529
  430SOL    HW2 2190   2.729   0.875   4.655
  431SOL     OW 2191   3.871   1.103   0.035
  431SOL    HW1 2192   3.855   1.094   0.134
  431SOL    HW2 2193   3.787   1.081   7.011
  432SOL     OW 2194   6.492   1.778   0.823
  432SOL    HW1 2195   6.506   1.701   0.886
  432SOL    HW2 2196   6.450   1.854   0.872
  433SOL     OW 2197   3.181   6.258   5.131
  433SOL    HW1 2198   3.206   6.253   5.035
  433SOL    HW2 2199   3.120   6.335   5.147
  434SOL     OW 2200   6.194   3.538   0.838
  434SOL    HW1 2201   6.221   3.545   0.742
  434SOL    HW2 2202   6.220   3.449   0.874
  435SOL     OW 2203   3.627   3.498   0.943
  435SOL    HW1 2204   3.671   3.500   1.033
  435SOL    HW2 2205   3.575   3.413   0.934
  436SOL     OW 2206   3.017   1.067   0.767
  436SOL    HW1 2207   3.028   0.988   0.828
  436SOL    HW2 2208   3.102   1.085   0.719
  437SOL     OW 2209   6.767   6.409   6.301
  437SOL    HW1 2210   6.687   6.416   6.360
  437SOL    HW2 2211   6.749   6.343   6.228
  438SOL     OW 2212   1.289   3.135   0.974
  438SOL    HW1 2213   1.235   3.061   0.934
  438SOL    HW2 2214   1.260   3.222   0.934
  439SOL     OW 2215   6.234   5.160   1.795
  439SOL    HW1 2216   6.308   5.133   1.857
  439SOL    HW2 2217   6.146   5.128   1.831
  440SOL     OW 2218   1.644   2.970   2.660
  440SOL    HW1 2219   1.638   3.057   2.611
  440SOL    HW2 2220   1.696   2.905   2.604
  441SOL     OW 2221   0.213   1.206   3.178
  441SOL    HW1 2222   0.151   1.254   3.239
  441SOL    HW2 2223   0.289   1.266   3.154
  442SOL     OW 2224   0.975   5.247   6.160
  442SOL    HW1 2225   1.040   5.267   6.086
  442SOL    HW2 2226   0.977   5.322   6.226
  443SOL     OW 2227   1.031   4.798   5.761
  443SOL    HW1 2228   1.051   4.832   5.853
  443SOL    HW2 2229   1.072   4.860   5.693
  444SOL     OW 2230   5.327   2.912   6.510
  444SOL    HW1 2231   5.369   2.843   6.569
  444SOL    HW2 2232   5.357   3.003   6.540
  445SOL     OW 2233   0.899   3.693   3.414
  445SOL    HW1 2234   0.876   3.678   3.510
  445SOL    HW2 2235   0.921   3.606   3.371
  446SOL     OW 2236   2.011   4.777   4.145
  446SOL    HW1 2237   1.926   4.823   4.174
  446SOL    HW2 2238   2.090   4.828   4.180
  447SOL     OW 2239   0.359   5.958   0.699
  447SOL    HW1 2240   0.356   5.869   0.654
  447SOL    HW2 2241   0.453   5.979   0.724
  448SOL     OW 2242   4.230   0.333   5.707
  448SOL    HW1 2243   4.137   0.297   5.704
  448SOL    HW2 2244   4.256   0.368   5.617
  449SOL     OW 2245   5.411   0.437   4.969
  449SOL    HW1 2246   5.393   0.340   4.985
  449SOL    HW2 2247   5.509   0.454   4.973
  450SOL     OW 2248   6.773   6.083   2.418
  450SOL    HW1 2249   6.779   6.177   2.384
  450SOL    HW2 2250   6.719   6.028   2.354
  451SOL     OW 2251   6.221   3.374   3.531
  451SOL    HW1 2252   6.298   3.314   3.548
  451SOL    HW2 2253   6.232   3.418   3.442
  452SOL     OW 2254   6.483   5.391   5.720
  452SOL    HW1 2255   6.502   5.339   5.804
  452SOL    HW2 2256   6.458   5.328   5.647
  453SOL     OW 2257   3.330   1.784   6.189
  453SOL    HW1 2258   3.379   1.864   6.224
  453SOL    HW2 2259   3.395   1.710   6.173
  454SOL     OW 2260   0.599   6.052   0.828
  454SOL    HW1 2261   0.670   6.081   0.893
  454SOL    HW2 2262   0.640   6.002   0.753
  455SOL     OW 2263   5.581   1.271   5.110
  455SOL    HW1 2264   5.652   1.245   5.045
  455SOL    HW2 2265   5.587   1.369   5.129
  456SOL     OW 2266   3.867   5.010   0.070
  456SOL    HW1 2267   3.914   4.925   0.096
  456SOL    HW2 2268   3.786   4.988   0.016
  457SOL     OW 2269   0.427   4.706   1.718
  457SOL    HW1 2270   0.359   4.641   1.684
  457SOL    HW2 2271   0.449   4.685   1.813
  458SOL     OW 2272   0.655   5.850   5.386
  458SOL    HW1 2273   0.557   5.836   5.377
  458SOL    HW2 2274   0.678   5.944   5.359
  459SOL     OW 2275   1.361   0.509   3.525
  459SOL    HW1 2276   1.319   0.532   3.613
  459SOL    HW2 2277   1.294   0.523   3.452
  460SOL     OW 2278   6.664   2.002   3.344
  460SOL    HW1 2279   6.688   2.077   3.406
  460SOL    HW2 2280   6.576   2.022   3.301
  461SOL     OW 2281   5.548   4.916   5.743
  461SOL    HW1 2282   5.553   4.936   5.645
  461SOL    HW2 2283   5.633   4.872   5.773
  462SOL     OW 2284   2.959   2.022   0.033
  462SOL    HW1 2285   2.923   1.934   0.064
  462SOL    HW2 2286   3.036   2.049   0.090
  463SOL     OW 2287   6.127   6.104   2.365
  463SOL    HW1 2288   6.127   6.139   2.271
  463SOL    HW2 2289   6.210   6.050   2.380
  464SOL     OW 2290   2.118   1.246   5.758
  464SOL    HW1 2291   2.165   1.282   5.838
  464SOL    HW2 2292   2.080   1.322   5.704
  465SOL     OW 2293   0.315   3.287   6.421
  465SOL    HW1 2294   0.387   3.222   6.396
  465SOL    HW2 2295   0.281   3.332   6.338
  466SOL     OW 2296   2.136   0.494   3.292
  466SOL    HW1 2297   2.116   0.575   3.237
  466SOL    HW2 2298   2.056   0.471   3.348
  467SOL     OW 2299   1.636   1.825   5.450
  467SOL    HW1 2300   1.735   1.814   5.441
  467SOL    HW2 2301   1.591   1.796   5.365
  468SOL     OW 2302   3.017   3.789   3.143
  468SOL    HW1 2303   2.981   3.702   3.108
  468SOL    HW2 2304   2.968   3.815   3.225
  469SOL     OW 2305   3.670   6.696   6.650
  469SOL    HW1 2306   3.733   6.774   6.636
  469SOL    HW2 2307   3.714   6.628   6.709
  470SOL     OW 2308   4.564   6.964   3.461
  470SOL    HW1 2309   4.547   0.034   3.439
  470SOL    HW2 2310   4.524   6.906   3.390
  471SOL     OW 2311   2.816   2.313   4.195
  471SOL    HW1 2312   2.903   2.271   4.220
  471SOL    HW2 2313   2.817   2.336   4.098
  472SOL     OW 2314   3.855   4.624   5.418
  472SOL    HW1 2315   3.950   4.599   5.402
  472SOL    HW2 2316   3.804   4.545   5.451
  473SOL     OW 2317   0.519   4.474   3.718
  473SOL    HW1 2318   0.481   4.563   3.743
  473SOL    HW2 2319   0.463   4.433   3.647
  474SOL     OW 2320   5.109   4.570   5.208
  474SOL    HW1 2321   5.118   4.603   5.114
  474SOL    HW2 2322   5.159   4.484   5.219
  475SOL     OW 2323   2.466   6.259   6.947
  475SOL    HW1 2324   2.432   6.352   6.963
  475SOL    HW2 2325   2.406   6.193   6.993
  476SOL     OW 2326   6.442   5.905   3.231
  476SOL    HW1 2327   6.443   5.981   3.166
  476SOL    HW2 2328   6.532   5.895   3.273
  477SOL     OW 2329   2.055   4.478   4.236
  477SOL    HW1 2330   2.051   4.573   4.205
  477SOL    HW2 2331   2.149   4.456   4.262
  478SOL     OW 2332   1.339   5.268   3.245
  478SOL    HW1 2333   1.345   5.169   3.239
  478SOL    HW2 2334   1.245   5.295   3.268
  479SOL     OW 2335   4.316   1.992   1.821
  479SOL    HW1 2336   4.363   1.922   1.876
  479SOL    HW2 2337   4.298   1.955   1.729
  480SOL     OW 2338   1.534   6.483   3.804
  480SOL    HW1 2339   1.442   6.464   3.838
  480SOL    HW2 2340   1.582   6.541   3.870
  481SOL     OW 2341   2.070   7.012   0.869
  481SOL    HW1 2342   2.026   7.009   0.779
  481SOL    HW2 2343   2.055   6.925   0.916
  482SOL     OW 2344   5.480   5.418   0.712
  482SOL    HW1 2345   5.573   5.454   0.721
  482SOL    HW2 2346   5.419   5.488   0.675
  483SOL     OW 2347   5.629   2.197   2.914
  483SOL    HW1 2348   5.701   2.160   2.972
  483SOL    HW2 2349   5.542   2.195   2.964
  484SOL     OW 2350   6.341   1.998   3.987
  484SOL    HW1 2351   6.412   1.947   3.939
  484SOL    HW2 2352   6.360   2.096   3.983
  485SOL     OW 2353   3.501   6.007   1.263
  485SOL    HW1 2354   3.476   6.095   1.304
  485SOL    HW2 2355   3.574   6.020   1.196
  486SOL     OW 2356   0.329   0.920   5.807
  486SOL    HW1 2357   0.334   0.830   5.764
  486SOL    HW2 2358   0.279   0.983   5.748
  487SOL     OW 2359   6.658   2.960   6.555
  487SOL    HW1 2360   6.740   3.005   6.589
  487SOL    HW2 2361   6.589   2.955   6.629
  488SOL     OW 2362   0.884   4.713   2.458
  488SOL    HW1 2363   0.815   4.707   2.385
  488SOL    HW2 2364   0.961   4.768   2.426
  489SOL     OW 2365   3.247   5.581   6.284
  489SOL    HW1 2366   3.269   5.631   6.367
  489SOL    HW2 2367   3.309   5.609   6.211
  490SOL     OW 2368   5.090   0.303   4.599
  490SOL    HW1 2369   5.063   0.366   4.672
  490SOL    HW2 2370   5.188   0.286   4.603
  491SOL     OW 2371   0.587   2.588   3.637
  491SOL    HW1 2372   0.678   2.577   3.597
  491SOL    HW2 2373   0.519   2.586   3.564
  492SOL     OW 2374   1.651   1.445   4.835
  492SOL    HW1 2375   1.737   1.484   4.867
  492SOL    HW2 2376   1.649   1.444   4.735
  493SOL     OW 2377   6.900   4.041   4.304
  493SOL    HW1 2378   6.988   4.090   4.306
  493SOL    HW2 2379   6.914   3.949   4.267
  494SOL     OW 2380   6.225   1.335   6.638
  494SOL    HW1 2381   6.276   1.316   6.554
  494SOL    HW2 2382   6.191   1.250   6.677
  495SOL     OW 2383   4.829   4.418   0.132
  495SOL    HW1 2384   4.883   4.406   0.215
  495SOL    HW2 2385   4.882   4.469   0.064
  496SOL     OW 2386   5.559   3.509   2.937
  496SOL    HW1 2387   5.580   3.425   2.987
  496SOL    HW2 2388   5.530   3.486   2.844
  497SOL     OW 2389   3.912   6.645   3.818
  497SOL    HW1 2390   3.942   6.723   3.873
  497SOL    HW2 2391   3.960   6.563   3.848
  498SOL     OW 2392   1.061   2.826   1.129
  498SOL    HW1 2393   1.141   2.793   1.179
  498SOL    HW2 2394   0.989   2.756   1.132
  499SOL     OW 2395   3.569   1.175   4.935
  499SOL    HW1 2396   3.666   1.185   4.912
  499SOL    HW2 2397   3.558   1.177   5.034
  500SOL     OW 2398   1.486   4.581   2.430
  500SOL    HW1 2399   1.388   4.564   2.417
  500SOL    HW2 2400   1.498   4.657   2.493
  501SOL     OW 2401   0.432   5.500   6.601
  501SOL    HW1 2402   0.370   5.445   6.658
  501SOL    HW2 2403   0.512   5.525   6.655
  502SOL     OW 2404   2.538   4.811   6.642
  502SOL    HW1 2405   2.617   4.768   6.598
  502SOL    HW2 2406   2.555   4.818   6.740
  503SOL     OW 2407   6.112   5.038   4.568
  503SOL    HW1 2408   6.168   4.967   4.611
  503SOL    HW2 2409   6.143   5.128   4.599
  504SOL     OW 2410   1.724   5.263   4.704
  504SOL    HW1 2411   1.755   5.289   4.795
  504SOL    HW2 2412   1.635   5.219   4.709
  505SOL     OW 2413   3.376   6.706   4.879
  505SOL    HW1 2414   3.427   6.621   4.866
  505SOL    HW2 2415   3.319   6.723   4.799
  506SOL     OW 2416   1.925   3.064   0.580
  506SOL    HW1 2417   1.864   3.114   0.642
  506SOL    HW2 2418   1.879   3.049   0.493
  507SOL     OW 2419   3.783   2.120   4.177
  507SOL    HW1 2420   3.765   2.153   4.270
  507SOL    HW2 2421   3.865   2.062   4.178
  508SOL     OW 2422   6.349   5.122   4.282
  508SOL    HW1 2423   6.333   5.142   4.185
  508SOL    HW2 2424   6.367   5.024   4.294
  509SOL     OW 2425   4.395   3.255   1.431
  509SOL    HW1 2426   4.324   3.191   1.400
  509SOL    HW2 2427   4.440   3.217   1.512
  510SOL     OW 2428   1.156   4.407   4.113
  510SOL    HW1 2429   1.190   4.345   4.042
  510SOL    HW2 2430   1.192   4.379   4.202
  511SOL     OW 2431   0.348   6.548   1.142
  511SOL    HW1 2432   0.296   6.545   1.057
  511SOL    HW2 2433   0.354   6.456   1.181
  512SOL     OW 2434   1.354   3.516   5.982
  512SOL    HW1 2435   1.350   3.614   6.002
  512SOL    HW2 2436   1.277   3.491   5.923
  513SOL     OW 2437   1.033   4.980   4.193
  513SOL    HW1 2438   0.952   5.021   4.149
  513SOL    HW2 2439   1.007   4.946   4.284
  514SOL     OW 2440   5.337   1.795   3.509
  514SOL    HW1 2441   5.434   1.808   3.530
  514SOL    HW2 2442   5.283   1.810   3.592
  515SOL     OW 2443   2.828   5.519   0.092
  515SOL    HW1 2444   2.797   5.530   0.187
  515SOL    HW2 2445   2.752   5.538   0.030
  516SOL     OW 2446   1.190   4.696   3.737
  516SOL    HW1 2447   1.213   4.768   3.672
  516SOL    HW2 2448   1.125   4.632   3.695
  517SOL     OW 2449   4.551   0.501   6.137
  517SOL    HW1 2450   4.470   0.527   6.189
  517SOL    HW2 2451   4.633   0.528   6.187
  518SOL     OW 2452   2.148   1.563   0.193
  518SOL    HW1 2453   2.108   1.646   0.153
  518SOL    HW2 2454   2.081   1.489   0.191
  519SOL     OW 2455   0.629   6.445   0.465
  519SOL    HW1 2456   0.640   6.417   0.369
  519SOL    HW2 2457   0.583   6.534   0.468
  520SOL     OW 2458   6.258   4.647   4.204
  520SOL    HW1 2459   6.214   4.622   4.118
  520SOL    HW2 2460   6.269   4.746   4.209
  521SOL     OW 2461   6.522   0.632   0.530
  521SOL    HW1 2462   6.579   0.633   0.612
  521SOL    HW2 2463   6.579   0.612   0.450
  522SOL     OW 2464   3.467   3.891   5.585
  522SOL    HW1 2465   3.453   3.964   5.651
  522SOL    HW2 2466   3.527   3.821   5.624
  523SOL     OW 2467   6.308   6.637   3.713
  523SOL    HW1 2468   6.407   6.628   3.704
  523SOL    HW2 2469   6.278   6.723   3.673
  524SOL     OW 2470   3.997   0.487   5.045
  524SOL    HW1 2471   4.022   0.540   5.126
  524SOL    HW2 2472   3.900   0.464   5.049
  525SOL     OW 2473   2.795   2.411   6.845
  525SOL    HW1 2474   2.892   2.411   6.871
  525SOL    HW2 2475   2.757   2.320   6.857
  526SOL     OW 2476   4.349   5.855   4.607
  526SOL    HW1 2477   4.267   5.868   4.662
  526SOL    HW2 2478   4.391   5.943   4.587
  527SOL     OW 2479   0.088   1.953   6.884
  527SOL    HW1 2480   0.018   1.891   6.848
  527SOL    HW2 2481   0.138   1.908   6.958
  528SOL     OW 2482   1.808   1.681   6.107
  528SOL    HW1 2483   1.747   1.647   6.035
  528SOL    HW2 2484   1.820   1.780   6.096
  529SOL     OW 2485   0.014   5.128   4.249
  529SOL    HW1 2486   6.982   5.149   4.328
  529SOL    HW2 2487   0.105   5.101   4.280
  530SOL     OW 2488   6.793   2.936   5.286
  530SOL    HW1 2489   6.700   2.913   5.313
  530SOL    HW2 2490   6.796   3.031   5.253
  531SOL     OW 2491   6.634   0.727   6.948
  531SOL    HW1 2492   6.653   0.685   6.859
  531SOL    HW2 2493   6.719   0.760   6.989
  532SOL     OW 2494   2.056   0.845   5.659
  532SOL    HW1 2495   2.155   0.836   5.650
  532SOL    HW2 2496   2.022   0.909   5.589
  533SOL     OW 2497   4.682   0.489   4.992
  533SOL    HW1 2498   4.618   0.462   5.064
  533SOL    HW2 2499   4.696   0.412   4.930
  534SOL     OW 2500   3.243   5.463   3.187
  534SOL    HW1 2501   3.254   5.521   3.268
  534SOL    HW2 2502   3.161   5.407   3.197
  535SOL     OW 2503   5.924   3.875   1.589
  535SOL    HW1 2504   5.935   3.961   1.539
  535SOL    HW2 2505   5.956   3.887   1.683
  536SOL     OW 2506   1.739   6.004   1.199
  536SOL    HW1 2507   1.648   6.033   1.232
  536SOL    HW2 2508   1.787   6.083   1.161
  537SOL     OW 2509   2.275   6.751   3.311
  537SOL    HW1 2510   2.267   6.677   3.377
  537SOL    HW2 2511   2.194   6.810   3.317
  538SOL     OW 2512   1.714   4.984   4.271
  538SOL    HW1 2513   1.628   4.933   4.283
  538SOL    HW2 2514   1.721   5.016   4.177
  539SOL     OW 2515   0.850   5.621   1.482
  539SOL    HW1 2516   0.890   5.704   1.444
  539SOL    HW2 2517   0.905   5.590   1.560
  540SOL     OW 2518   1.794   3.313   1.034
  540SOL    HW1 2519   1.885   3.353   1.047
  540SOL    HW2 2520   1.732   3.383   0.996
  541SOL     OW 2521   4.329   5.569   4.978
  541SOL    HW1 2522   4.249   5.543   5.032
  541SOL    HW2 2523   4.412   5.539   5.026
  542SOL     OW 2524   5.561   7.014   6.053
  542SOL    HW1 2525   5.493   0.013   6.122
  542SOL    HW2 2526   5.633   6.959   6.095
  543SOL     OW 2527   6.137   0.102   1.544
  543SOL    HW1 2528   6.074   0.033   1.581
  543SOL    HW2 2529   6.158   0.169   1.615
  544SOL     OW 2530   0.905   5.501   0.463
  544SOL    HW1 2531   0.945   5.466   0.547
  544SOL    HW2 2532   0.846   5.580   0.484
  545SOL     OW 2533   2.969   1.711   3.414
  545SOL    HW1 2534   2.903   1.785   3.427
  545SOL    HW2 2535   3.056   1.735   3.459
  546SOL     OW 2536   2.098   2.115   0.028
  546SOL    HW1 2537   2.151   2.052   0.084
  546SOL    HW2 2538   2.158   2.162   6.989
  547SOL     OW 2539   2.924   1.768   0.132
  547SOL    HW1 2540   2.859   1.697   0.159
  547SOL    HW2 2541   2.982   1.791   0.210
  548SOL     OW 2542   3.325   3.633   5.486
  548SOL    HW1 2543   3.373   3.714   5.521
  548SOL    HW2 2544   3.231   3.658   5.462
  549SOL     OW 2545   0.450   4.462   0.851
  549SOL    HW1 2546   0.410   4.389   0.795
  549SOL    HW2 2547   0.549   4.461   0.842
  550SOL     OW 2548   6.725   3.931   0.556
  550SOL    HW1 2549   6.680   3.997   0.495
  550SOL    HW2 2550   6.782   3.870   0.501
  551SOL     OW 2551   0.152   0.931   0.184
  551SOL    HW1 2552   0.124   0.865   0.253
  551SOL    HW2 2553   0.143   0.890   0.093
  552SOL     OW 2554   4.666   4.763   0.490
  552SOL    HW1 2555   4.716   4.843   0.524
  552SOL    HW2 2556   4.662   4.694   0.562
  553SOL     OW 2557   1.080   2.123   1.460
  553SOL    HW1 2558   1.040   2.181   1.531
  553SOL    HW2 2559   1.018   2.118   1.382
  554SOL     OW 2560   4.258   5.069   4.732
  554SOL    HW1 2561   4.208   4.983   4.732
  554SOL    HW2 2562   4.303   5.083   4.820
  555SOL     OW 2563   1.566   4.681   5.267
  555SOL    HW1 2564   1.647   4.696   5.325
  555SOL    HW2 2565   1.488   4.655   5.324
  556SOL     OW 2566   6.063   4.326   2.892
  556SOL    HW1 2567   5.969   4.292   2.886
  556SOL    HW2 2568   6.076   4.374   2.979
  557SOL     OW 2569   6.483   6.052   5.578
  557SOL    HW1 2570   6.431   6.113   5.637
  557SOL    HW2 2571   6.576   6.042   5.614
  558SOL     OW 2572   4.127   3.653   5.702
  558SOL    HW1 2573   4.182   3.581   5.660
  558SOL    HW2 2574   4.170   3.681   5.788
  559SOL     OW 2575   5.981   5.080   6.355
  559SOL    HW1 2576   5.931   4.997   6.328
  559SOL    HW2 2577   6.051   5.101   6.286
  560SOL     OW 2578   4.263   6.675   0.380
  560SOL    HW1 2579   4.357   6.643   0.367
  560SOL    HW2 2580   4.255   6.718   0.471
  561SOL     OW 2581   5.618   0.372   2.191
  561SOL    HW1 2582   5.559   0.450   2.213
  561SOL    HW2 2583   5.681   0.397   2.118
  562SOL     OW 2584   6.670   0.584   0.776
  562SOL    HW1 2585   6.663   0.679   0.806
  562SOL    HW2 2586   6.596   0.530   0.816
  563SOL     OW 2587   2.800   0.700   5.219
  563SOL    HW1 2588   2.827   0.761   5.294
  563SOL    HW2 2589   2.882   0.662   5.176
  564SOL     OW 2590   0.917   1.106   5.653
  564SOL    HW1 2591   0.850   1.097   5.726
  564SOL    HW2 2592   0.908   1.196   5.610
  565SOL     OW 2593   4.724   3.922   5.712
  565SOL    HW1 2594   4.814   3.932   5.754
  565SOL    HW2 2595   4.654   3.953   5.777
  566SOL     OW 2596   6.554   4.831   2.171
  566SOL    HW1 2597   6.635   4.830   2.112
  566SOL    HW2 2598   6.563   4.760   2.241
  567SOL     OW 2599   3.864   3.569   5.506
  567SOL    HW1 2600   3.789   3.519   5.549
  567SOL    HW2 2601   3.943   3.568   5.567
  568SOL     OW 2602   2.284   1.063   6.424
  568SOL    HW1 2603   2.216   1.047   6.352
  568SOL    HW2 2604   2.375   1.038   6.390
  569SOL     OW 2605   1.990   4.057   6.582
  569SOL    HW1 2606   2.045   4.054   6.499
  569SOL    HW2 2607   1.895   4.033   6.560
  570SOL     OW 2608   6.940   5.418   0.134
  570SOL    HW1 2609   6.883   5.337   0.143
  570SOL    HW2 2610   7.007   5.404   0.061
  571SOL     OW 2611   4.119   6.535   2.309
  571SOL    HW1 2612   4.062   6.539   2.227
  571SOL    HW2 2613   4.085   6.602   2.376
  572SOL     OW 2614   1.252   4.238   3.913
  572SOL    HW1 2615   1.318   4.306   3.880
  572SOL    HW2 2616   1.237   4.170   3.842
  573SOL     OW 2617   3.643   2.403   6.599
  573SOL    HW1 2618   3.569   2.336   6.603
  573SOL    HW2 2619   3.729   2.359   6.626
  574SOL     OW 2620   2.604   2.153   3.737
  574SOL    HW1 2621   2.517   2.154   3.687
  574SOL    HW2 2622   2.629   2.059   3.759
  575SOL     OW 2623   4.421   2.444   6.119
  575SOL    HW1 2624   4.391   2.350   6.132
  575SOL    HW2 2625   4.509   2.445   6.070
  576SOL     OW 2626   1.054   3.594   2.853
  576SOL    HW1 2627   1.061   3.620   2.756
  576SOL    HW2 2628   1.137   3.545   2.880
  577SOL     OW 2629   4.274   1.814   3.910
  577SOL    HW1 2630   4.279   1.728   3.859
  577SOL    HW2 2631   4.356   1.868   3.893
  578SOL     OW 2632   0.087   4.175   4.267
  578SOL    HW1 2633   0.158   4.199   4.334
  578SOL    HW2 2634   0.043   4.258   4.234
  579SOL     OW 2635   3.753   3.538   0.511
  579SOL    HW1 2636   3.715   3.631   0.512
  579SOL    HW2 2637   3.700   3.480   0.573
  580SOL     OW 2638   0.534   6.920   0.256
  580SOL    HW1 2639   0.493   6.995   0.308
  580SOL    HW2 2640   0.495   6.918   0.164
  581SOL     OW 2641   4.076   3.324   3.223
  581SOL    HW1 2642   4.076   3.423   3.237
  581SOL    HW2 2643   4.084   3.304   3.125
  582SOL     OW 2644   6.762   4.333   0.349
  582SOL    HW1 2645   6.859   4.319   0.328
  582SOL    HW2 2646   6.739   4.430   0.340
  583SOL     OW 2647   2.460   6.869   6.295
  583SOL    HW1 2648   2.393   6.819   6.240
  583SOL    HW2 2649   2.492   6.810   6.370
  584SOL     OW 2650   1.115   4.720   4.388
  584SOL    HW1 2651   1.139   4.627   4.417
  584SOL    HW2 2652   1.019   4.723   4.361
  585SOL     OW 2653   5.487   1.041   5.397
  585SOL    HW1 2654   5.503   1.108   5.324
  585SOL    HW2 2655   5.551   0.965   5.386
  586SOL     OW 2656   2.943   5.586   0.879
  586SOL    HW1 2657   2.950   5.494   0.839
  586SOL    HW2 2658   2.952   5.654   0.806
  587SOL     OW 2659   2.501   2.671   6.115
  587SOL    HW1 2660   2.535   2.672   6.020
  587SOL    HW2 2661   2.519   2.760   6.156
  588SOL     OW 2662   2.094   0.045   1.783
  588SOL    HW1 2663   2.191   0.044   1.808
  588SOL    HW2 2664   2.081   7.022   1.697
  589SOL     OW 2665   4.689   4.945   1.413
  589SOL    HW1 2666   4.705   4.973   1.507
  589SOL    HW2 2667   4.613   4.880   1.410
  590SOL     OW 2668   0.039   4.008   1.788
  590SOL    HW1 2669   0.109   3.946   1.824
  590SOL    HW2 2670   0.005   3.971   1.701
  591SOL     OW 2671   2.547   0.010   2.843
  591SOL    HW1 2672   2.500   0.050   2.922
  591SOL    HW2 2673   2.589   0.083   2.789
  592SOL     OW 2674   5.366   0.083   5.871
  592SOL    HW1 2675   5.420   0.107   5.790
  592SOL    HW2 2676   5.424   0.041   5.940
  593SOL     OW 2677   0.109   0.892   4.716
  593SOL    HW1 2678   0.018   0.899   4.757
  593SOL    HW2 2679   0.158   0.978   4.727
  594SOL     OW 2680   5.739   2.073   1.632
  594SOL    HW1 2681   5.689   2.048   1.714
  594SOL    HW2 2682   5.728   2.001   1.563
  595SOL     OW 2683   3.157   0.298   3.633
  595SOL    HW1 2684   3.104   0.271   3.713
  595SOL    HW2 2685   3.245   0.335   3.661
  596SOL     OW 2686   0.777   4.743   1.818
  596SOL    HW1 2687   0.747   4.793   1.899
  596SOL    HW2 2688   0.799   4.649   1.842
  597SOL     OW 2689   4.918   2.104   5.691
  597SOL    HW1 2690   4.840   2.167   5.687
  597SOL    HW2 2691   4.995   2.142   5.640
  598SOL     OW 2692   3.294   3.117   1.867
  598SOL    HW1 2693   3.350   3.065   1.803
  598SOL    HW2 2694   3.214   3.063   1.892
  599SOL     OW 2695   5.753   6.264   3.755
  599SOL    HW1 2696   5.778   6.326   3.830
  599SOL    HW2 2697   5.794   6.296   3.670
  600SOL     OW 2698   2.595   1.772   0.765
  600SOL    HW1 2699   2.594   1.862   0.722
  600SOL    HW2 2700   2.627   1.704   0.698
  601SOL     OW 2701   2.171   4.871   2.749
  601SOL    HW1 2702   2.215   4.827   2.827
  601SOL    HW2 2703   2.117   4.949   2.781
  602SOL     OW 2704   0.025   0.636   2.322
  602SOL    HW1 2705   0.024   0.694   2.402
  602SOL    HW2 2706   0.066   0.685   2.245
  603SOL     OW 2707   4.371   1.670   2.914
  603SOL    HW1 2708   4.342   1.761   2.884
  603SOL    HW2 2709   4.300   1.604   2.893
  604SOL     OW 2710   1.181   3.402   5.747
  604SOL    HW1 2711   1.256   3.416   5.682
  604SOL    HW2 2712   1.100   3.371   5.699
  605SOL     OW 2713   5.364   0.332   4.646
  605SOL    HW1 2714   5.377   0.242   4.602
  605SOL    HW2 2715   5.452   0.363   4.683
  606SOL     OW 2716   2.617   6.679   1.940
  606SOL    HW1 2717   2.695   6.728   1.902
  606SOL    HW2 2718   2.634   6.580   1.937
  607SOL     OW 2719   3.473   0.566   4.759
  607SOL    HW1 2720   3.456   0.479   4.714
  607SOL    HW2 2721   3.571   0.577   4.777
  608SOL     OW 2722   5.714   2.912   1.099
  608SOL    HW1 2723   5.767   2.956   1.026
  608SOL    HW2 2724   5.667   2.832   1.063
  609SOL     OW 2725   3.591   4.004   4.987
  609SOL    HW1 2726   3.665   4.067   4.962
  609SOL    HW2 2727   3.613   3.959   5.073
  610SOL     OW 2728   6.072   1.990   4.621
  610SOL    HW1 2729   6.167   1.970   4.645
  610SOL    HW2 2730   6.020   1.904   4.618
  611SOL     OW 2731   6.103   0.057   0.489
  611SOL    HW1 2732   6.156   6.998   0.501
  611SOL    HW2 2733   6.166   0.134   0.482
  612SOL     OW 2734   1.553   4.443   6.572
  612SOL    HW1 2735   1.651   4.460   6.583
  612SOL    HW2 2736   1.515   4.410   6.659
  613SOL     OW 2737   3.716   1.466   6.653
  613SOL    HW1 2738   3.633   1.438   6.604
  613SOL    HW2 2739   3.727   1.565   6.646
  614SOL     OW 2740   5.270   3.157   0.839
  614SOL    HW1 2741   5.340   3.189   0.775
  614SOL    HW2 2742   5.308   3.152   0.931
  615SOL     OW 2743   6.041   6.210   0.311
  615SOL    HW1 2744   6.117   6.252   0.260
  615SOL    HW2 2745   6.002   6.278   0.374
  616SOL     OW 2746   4.538   1.859   4.784
  616SOL    HW1 2747   4.591   1.880   4.702
  616SOL    HW2 2748   4.500   1.944   4.821
  617SOL     OW 2749   6.661   6.676   5.008
  617SOL    HW1 2750   6.740   6.642   5.060
  617SOL    HW2 2751   6.642   6.614   4.932
  618SOL     OW 2752   5.593   4.914   0.684
  618SOL    HW1 2753   5.685   4.878   0.665
  618SOL    HW2 2754   5.589   5.010   0.657
  619SOL     OW 2755   1.690   0.528   6.700
  619SOL    HW1 2756   1.662   0.545   6.794
  619SOL    HW2 2757   1.644   0.446   6.666
  620SOL     OW 2758   4.664   1.924   1.621
  620SOL    HW1 2759   4.649   2.015   1.661
  620SOL    HW2 2760   4.645   1.929   1.523
  621SOL     OW 2761   2.091   0.259   6.291
  621SOL    HW1 2762   2.135   0.193   6.352
  621SOL    HW2 2763   1.994   0.237   6.283
  622SOL     OW 2764   0.580   3.554   6.115
  622SOL    HW1 2765   0.572   3.545   6.214
  622SOL    HW2 2766   0.629   3.475   6.078
  623SOL     OW 2767   6.740   1.726   2.579
  623SOL    HW1 2768   6.783   1.657   2.637
  623SOL    HW2 2769   6.808   1.760   2.514
  624SOL     OW 2770   6.572   0.713   5.930
  624SOL    HW1 2771   6.567   0.747   5.836
  624SOL    HW2 2772   6.563   0.790   5.994
  625SOL     OW 2773   3.240   1.047   1.527
  625SOL    HW1 2774   3.306   0.993   1.474
  625SOL    HW2 2775   3.238   1.013   1.621
  626SOL     OW 2776   0.467   5.949   3.801
  626SOL    HW1 2777   0.560   5.957   3.765
  626SOL    HW2 2778   0.420   5.874   3.755
  627SOL     OW 2779   6.454   5.165   6.524
  627SOL    HW1 2780   6.375   5.131   6.475
  627SOL    HW2 2781   6.534   5.109   6.502
  628SOL     OW 2782   3.833   4.314   6.487
  628SOL    HW1 2783   3.812   4.395   6.541
  628SOL    HW2 2784   3.870   4.243   6.547
  629SOL     OW 2785   1.948   0.081   6.928
  629SOL    HW1 2786   2.001   0.035   6.857
  629SOL    HW2 2787   1.863   0.117   6.888
  630SOL     OW 2788   5.764   2.220   0.778
  630SOL    HW1 2789   5.765   2.308   0.731
  630SOL    HW2 2790   5.856   2.197   0.810
  631SOL     OW 2791   1.910   3.335   2.435
  631SOL    HW1 2792   1.898   3.309   2.530
  631SOL    HW2 2793   1.825   3.372   2.399
  632SOL     OW 2794   3.523   4.605   1.337
  632SOL    HW1 2795   3.487   4.676   1.277
  632SOL    HW2 2796   3.466   4.599   1.419
  633SOL     OW 2797   1.014   5.943   6.898
  633SOL    HW1 2798   0.993   5.845   6.897
  633SOL    HW2 2799   0.929   5.995   6.899
  634SOL     OW 2800   2.940   3.341   5.283
  634SOL    HW1 2801   2.844   3.364   5.291
  634SOL    HW2 2802   2.957   3.301   5.193
  635SOL     OW 2803   6.505   6.764   6.335
  635SOL    HW1 2804   6.452   6.699   6.389
  635SOL    HW2 2805   6.449   6.844   6.313
  636SOL     OW 2806   1.962   1.857   4.463
  636SOL    HW1 2807   1.922   1.814   4.544
  636SOL    HW2 2808   2.043   1.806   4.434
  637SOL     OW 2809   6.400   1.921   2.196
  637SOL    HW1 2810   6.429   2.015   2.180
  637SOL    HW2 2811   6.473   1.871   2.243
  638SOL     OW 2812   0.000   3.499   5.273
  638SOL    HW1 2813   0.002   3.495   5.173
  638SOL    HW2 2814   6.950   3.557   5.303
  639SOL     OW 2815   5.813   3.457   1.690
  639SOL    HW1 2816   5.760   3.378   1.721
  639SOL    HW2 2817   5.775   3.491   1.605
  640SOL     OW 2818   6.195   3.466   2.792
  640SOL    HW1 2819   6.273   3.488   2.734
  640SOL    HW2 2820   6.156   3.550   2.830
  641SOL     OW 2821   2.621   5.439   4.190
  641SOL    HW1 2822   2.567   5.493   4.126
  641SOL    HW2 2823   2.634   5.347   4.153
  642SOL     OW 2824   0.688   4.756   4.582
  642SOL    HW1 2825   0.663   4.841   4.628
  642SOL    HW2 2826   0.776   4.767   4.537
  643SOL     OW 2827   4.407   4.852   0.469
  643SOL    HW1 2828   4.489   4.795   0.467
  643SOL    HW2 2829   4.368   4.852   0.561
  644SOL     OW 2830   6.256   0.700   4.495
  644SOL    HW1 2831   6.228   0.617   4.448
  644SOL    HW2 2832   6.294   0.677   4.585
  645SOL     OW 2833   4.446   6.646   1.889
  645SOL    HW1 2834   4.426   6.660   1.986
  645SOL    HW2 2835   4.477   6.552   1.875
  646SOL     OW 2836   3.921   2.132   5.210
  646SOL    HW1 2837   3.826   2.145   5.236
  646SOL    HW2 2838   3.941   2.035   5.200
  647SOL     OW 2839   2.670   2.183   6.926
  647SOL    HW1 2840   2.654   2.145   7.017
  647SOL    HW2 2841   2.702   2.111   6.864
  648SOL     OW 2842   5.386   1.911   4.124
  648SOL    HW1 2843   5.334   1.988   4.086
  648SOL    HW2 2844   5.329   1.829   4.121
  649SOL     OW 2845   3.495   5.664   6.897
  649SOL    HW1 2846   3.578   5.632   6.942
  649SOL    HW2 2847   3.416   5.647   6.956
  650SOL     OW 2848   2.505   3.532   1.316
  650SOL    HW1 2849   2.590   3.534   1.263
  650SOL    HW2 2850   2.526   3.501   1.409
  651SOL     OW 2851   6.973   1.453   2.913
  651SOL    HW1 2852   6.927   1.518   2.852
  651SOL    HW2 2853   6.905   1.396   2.959
  652SOL     OW 2854   4.110   6.466   0.403
  652SOL    HW1 2855   4.169   6.386   0.388
  652SOL    HW2 2856   4.157   6.549   0.375
  653SOL     OW 2857   1.343   0.296   3.095
  653SOL    HW1 2858   1.393   0.210   3.103
  653SOL    HW2 2859   1.351   0.330   3.002
  654SOL     OW 2860   1.402   0.297   5.823
  654SOL    HW1 2861   1.389   0.319   5.726
  654SOL    HW2 2862   1.491   0.331   5.853
  655SOL     OW 2863   1.635   4.164   1.292
  655SOL    HW1 2864   1.555   4.142   1.237
  655SOL    HW2 2865   1.700   4.088   1.289
  656SOL     OW 2866   2.386   0.138   6.851
  656SOL    HW1 2867   2.300   0.155   6.899
  656SOL    HW2 2868   2.384   0.185   6.762
  657SOL     OW 2869   3.774   3.340   4.209
  657SOL    HW1 2870   3.689   3.308   4.251
  657SOL    HW2 2871   3.838   3.264   4.202
  658SOL     OW 2872   2.212   0.449   4.813
  658SOL    HW1 2873   2.127   0.423   4.766
  658SOL    HW2 2874   2.191   0.475   4.907
  659SOL     OW 2875   2.186   5.578   6.876
  659SOL    HW1 2876   2.122   5.501   6.873
  659SOL    HW2 2877   2.180   5.631   6.792
  660SOL     OW 2878   5.434   4.487   2.558
  660SOL    HW1 2879   5.404   4.582   2.567
  660SOL    HW2 2880   5.354   4.429   2.542
  661SOL     OW 2881   4.651   5.956   4.190
  661SOL    HW1 2882   4.583   5.908   4.134
  661SOL    HW2 2883   4.712   5.889   4.233
  662SOL     OW 2884   6.371   3.349   6.883
  662SOL    HW1 2885   6.350   3.414   6.957
  662SOL    HW2 2886   6.288   3.332   6.830
  663SOL     OW 2887   1.407   4.262   5.753
  663SOL    HW1 2888   1.341   4.330   5.720
  663SOL    HW2 2889   1.437   4.287   5.845
  664SOL     OW 2890   1.710   0.238   5.582
  664SOL    HW1 2891   1.707   0.154   5.636
  664SOL    HW2 2892   1.756   0.220   5.495
  665SOL     OW 2893   2.412   4.405   3.164
  665SOL    HW1 2894   2.461   4.379   3.081
  665SOL    HW2 2895   2.317   4.427   3.141
  666SOL     OW 2896   3.173   0.554   0.232
  666SOL    HW1 2897   3.197   0.583   0.325
  666SOL    HW2 2898   3.090   0.602   0.204
  667SOL     OW 2899   1.440   2.881   2.439
  667SOL    HW1 2900   1.526   2.832   2.427
  667SOL    HW2 2901   1.433   2.953   2.369
  668SOL     OW 2902   5.558   6.615   6.941
  668SOL    HW1 2903   5.607   6.551   7.000
  668SOL    HW2 2904   5.606   6.703   6.941
  669SOL     OW 2905   6.714   5.543   2.965
  669SOL    HW1 2906   6.793   5.540   3.025
  669SOL    HW2 2907   6.641   5.596   3.008
  670SOL     OW 2908   4.012   3.844   3.156
  670SOL    HW1 2909   4.023   3.828   3.058
  670SOL    HW2 2910   3.951   3.923   3.170
  671SOL     OW 2911   1.584   0.043   6.423
  671SOL    HW1 2912   1.509   0.011   6.366
  671SOL    HW2 2913   1.558   0.035   6.520
  672SOL     OW 2914   1.410   2.506   3.018
  672SOL    HW1 2915   1.483   2.562   2.980
  672SOL    HW2 2916   1.365   2.556   3.093
  673SOL     OW 2917   4.969   0.524   6.839
  673SOL    HW1 2918   4.958   0.525   6.740
  673SOL    HW2 2919   4.880   0.533   6.883
  674SOL     OW 2920   6.837   2.354   4.176
  674SOL    HW1 2921   6.748   2.399   4.183
  674SOL    HW2 2922   6.877   2.344   4.267
  675SOL     OW 2923   5.482   6.550   3.560
  675SOL    HW1 2924   5.456   6.644   3.579
  675SOL    HW2 2925   5.555   6.523   3.622
  676SOL     OW 2926   3.052   4.841   4.459
  676SOL    HW1 2927   3.144   4.869   4.486
  676SOL    HW2 2928   3.033   4.750   4.495
  677SOL     OW 2929   4.732   6.518   1.132
  677SOL    HW1 2930   4.804   6.549   1.069
  677SOL    HW2 2931   4.657   6.584   1.130
  678SOL     OW 2932   2.558   1.015   6.381
  678SOL    HW1 2933   2.570   0.918   6.356
  678SOL    HW2 2934   2.639   1.047   6.430
  679SOL     OW 2935   6.556   0.124   2.885
  679SOL    HW1 2936   6.611   0.125   2.969
  679SOL    HW2 2937   6.492   0.048   2.889
  680SOL     OW 2938   6.408   3.830   4.119
  680SOL    HW1 2939   6.368   3.743   4.091
  680SOL    HW2 2940   6.342   3.903   4.103
  681SOL     OW 2941   1.320   5.379   2.470
  681SOL    HW1 2942   1.342   5.477   2.463
  681SOL    HW2 2943   1.373   5.338   2.544
  682SOL     OW 2944   0.484   0.050   5.911
  682SOL    HW1 2945   0.439   6.992   5.942
  682SOL    HW2 2946   0.418   0.126   5.913
  683SOL     OW 2947   5.479   1.586   1.573
  683SOL    HW1 2948   5.462   1.494   1.608
  683SOL    HW2 2949   5.450   1.653   1.640
  684SOL     OW 2950   6.953   5.736   6.969
  684SOL    HW1 2951   6.921   5.687   6.888
  684SOL    HW2 2952   0.017   5.700   6.997
  685SOL     OW 2953   6.155   0.414   5.127
  685SOL    HW1 2954   6.109   0.456   5.205
  685SOL    HW2 2955   6.197   0.328   5.156
  686SOL     OW 2956   5.379   4.609   1.620
  686SOL    HW1 2957   5.387   4.540   1.691
  686SOL    HW2 2958   5.424   4.577   1.537
  687SOL     OW 2959   5.554   2.164   6.596
  687SOL    HW1 2960   5.530   2.088   6.656
  687SOL    HW2 2961   5.499   2.245   6.619
  688SOL     OW 2962   6.045   3.373   5.127
  688SOL    HW1 2963   6.039   3.466   5.164
  688SOL    HW2 2964   6.117   3.369   5.057
  689SOL     OW 2965   5.453   4.362   4.511
  689SOL    HW1 2966   5.431   4.283   4.568
  689SOL    HW2 2967   5.548   4.355   4.480
  690SOL     OW 2968   6.988   2.125   4.741
  690SOL    HW1 2969   6.998   2.077   4.654
  690SOL    HW2 2970   6.936   2.209   4.727
  691SOL     OW 2971   0.435   3.087   6.899
  691SOL    HW1 2972   0.464   3.153   6.969
  691SOL    HW2 2973   0.489   3.003   6.908
  692SOL     OW 2974   2.800   0.138   3.710
  692SOL    HW1 2975   2.755   0.059   3.752
  692SOL    HW2 2976   2.743   0.175   3.637
  693SOL     OW 2977   5.789   1.773   3.412
  693SOL    HW1 2978   5.705   1.784   3.359
  693SOL    HW2 2979   5.846   1.855   3.402
  694SOL     OW 2980   1.186   0.584   3.015
  694SOL    HW1 2981   1.190   0.495   2.969
  694SOL    HW2 2982   1.092   0.606   3.038
  695SOL     OW 2983   4.828   5.466   6.565
  695SOL    HW1 2984   4.745   5.515   6.538
  695SOL    HW2 2985   4.905   5.497   6.509
  696SOL     OW 2986   4.952   5.398   2.643
  696SOL    HW1 2987   5.020   5.446   2.700
  696SOL    HW2 2988   4.862   5.408   2.684
  697SOL     OW 2989   1.279   4.021   3.308
  697SOL    HW1 2990   1.244   4.072   3.230
  697SOL    HW2 2991   1.240   3.929   3.309
  698SOL     OW 2992   4.940   6.464   3.990
  698SOL    HW1 2993   4.962   6.437   3.897
  698SOL    HW2 2994   4.908   6.385   4.042
  699SOL     OW 2995   1.733   5.276   5.936
  699SOL    HW1 2996   1.794   5.216   5.988
  699SOL    HW2 2997   1.668   5.220   5.884
  700SOL     OW 2998   1.700   1.882   5.100
  700SOL    HW1 2999   1.630   1.940   5.058
  700SOL    HW2 3000   1.657   1.818   5.163
  701SOL     OW 3001   1.045   4.618   5.196
  701SOL    HW1 3002   1.025   4.522   5.214
  701SOL    HW2 3003   1.055   4.667   5.282
  702SOL     OW 3004   5.959   6.143   5.172
  702SOL    HW1 3005   5.963   6.046   5.195
  702SOL    HW2 3006   5.983   6.156   5.076
  703SOL     OW 3007   5.957   3.907   6.266
  703SOL    HW1 3008   5.962   3.808   6.281
  703SOL    HW2 3009   6.029   3.934   6.202
  704SOL     OW 3010   2.153   6.659   1.692
  704SOL    HW1 3011   2.122   6.750   1.663
  704SOL    HW2 3012   2.216   6.669   1.769
  705SOL     OW 3013   1.010   1.609   3.577
  705SOL    HW1 3014   0.961   1.690   3.610
  705SOL    HW2 3015   1.074   1.578   3.647
  706SOL     OW 3016   5.681   3.670   4.070
  706SOL    HW1 3017   5.778   3.665   4.092
  706SOL    HW2 3018   5.669   3.679   3.971
  707SOL     OW 3019   4.769   2.831   2.585
  707SOL    HW1 3020   4.790   2.854   2.490
  707SOL    HW2 3021   4.670   2.835   2.599
  708SOL     OW 3022   5.122   1.544   1.792
  708SOL    HW1 3023   5.063   1.473   1.755
  708SOL    HW2 3024   5.106   1.630   1.743
  709SOL     OW 3025   1.299   4.811   6.742
  709SOL    HW1 3026   1.266   4.729   6.695
  709SOL    HW2 3027   1.397   4.803   6.760
  710SOL     OW 3028   3.000   3.950   2.873
  710SOL    HW1 3029   3.023   3.897   2.954
  710SOL    HW2 3030   2.903   3.936   2.851
  711SOL     OW 3031   0.504   1.027   4.420
  711SOL    HW1 3032   0.539   0.992   4.333
  711SOL    HW2 3033   0.580   1.065   4.473
  712SOL     OW 3034   0.018   3.897   3.268
  712SOL    HW1 3035   0.059   3.983   3.297
  712SOL    HW2 3036   0.006   3.897   3.169
  713SOL     OW 3037   2.722   3.896   5.262
  713SOL    HW1 3038   2.627   3.912   5.235
  713SOL    HW2 3039   2.747   3.958   5.336
  714SOL     OW 3040   4.570   4.904   4.759
  714SOL    HW1 3041   4.598   4.814   4.793
  714SOL    HW2 3042   4.506   4.946   4.823
  715SOL     OW 3043   6.671   0.084   6.257
  715SOL    HW1 3044   6.647   0.036   6.341
  715SOL    HW2 3045   6.770   0.093   6.251
  716SOL     OW 3046   6.034   5.554   0.188
  716SOL    HW1 3047   6.033   5.520   0.095
  716SOL    HW2 3048   5.997   5.485   0.250
  717SOL     OW 3049   6.045   2.937   5.747
  717SOL    HW1 3050   5.982   2.863   5.720
  717SOL    HW2 3051   6.077   2.921   5.840
  718SOL     OW 3052   3.310   2.636   0.037
  718SOL    HW1 3053   3.409   2.636   0.025
  718SOL    HW2 3054   3.270   2.716   7.017
  719SOL     OW 3055   6.025   4.718   6.806
  719SOL    HW1 3056   6.068   4.699   6.718
  719SOL    HW2 3057   5.973   4.803   6.800
  720SOL     OW 3058   4.025   1.275   5.884
  720SOL    HW1 3059   4.014   1.188   5.836
  720SOL    HW2 3060   4.008   1.262   5.981
  721SOL     OW 3061   1.315   0.076   5.339
  721SOL    HW1 3062   1.403   0.115   5.311
  721SOL    HW2 3063   1.299   7.016   5.290
  722SOL     OW 3064   4.618   0.768   4.933
  722SOL    HW1 3065   4.704   0.812   4.960
  722SOL    HW2 3066   4.602   0.688   4.990
  723SOL     OW 3067   0.457   3.377   1.826
  723SOL    HW1 3068   0.378   3.318   1.813
  723SOL    HW2 3069   0.534   3.323   1.862
  724SOL     OW 3070   0.352   2.343   4.433
  724SOL    HW1 3071   0.430   2.349   4.371
  724SOL    HW2 3072   0.268   2.327   4.380
  725SOL     OW 3073   2.397   5.007   2.533
  725SOL    HW1 3074   2.384   4.989   2.631
  725SOL    HW2 3075   2.491   5.036   2.517
  726SOL     OW 3076   5.384   5.656   5.822
  726SOL    HW1 3077   5.402   5.652   5.921
  726SOL    HW2 3078   5.462   5.616   5.773
  727SOL     OW 3079   1.783   4.723   4.476
  727SOL    HW1 3080   1.799   4.627   4.499
  727SOL    HW2 3081   1.708   4.730   4.410
  728SOL     OW 3082   6.016   2.568   5.885
  728SOL    HW1 3083   5.995   2.502   5.957
  728SOL    HW2 3084   6.105   2.610   5.902
  729SOL     OW 3085   3.967   1.498   0.649
  729SOL    HW1 3086   3.986   1.415   0.597
  729SOL    HW2 3087   3.879   1.536   0.620
  730SOL     OW 3088   6.201   1.185   3.994
  730SOL    HW1 3089   6.102   1.193   4.003
  730SOL    HW2 3090   6.240   1.152   4.080
  731SOL     OW 3091   6.960   2.190   3.601
  731SOL    HW1 3092   6.992   2.169   3.693
  731SOL    HW2 3093   6.988   2.117   3.538
  732SOL     OW 3094   0.811   3.529   3.015
  732SOL    HW1 3095   0.760   3.613   3.031
  732SOL    HW2 3096   0.895   3.551   2.965
  733SOL     OW 3097   4.620   4.568   4.176
  733SOL    HW1 3098   4.584   4.548   4.084
  733SOL    HW2 3099   4.565   4.640   4.218
  734SOL     OW 3100   1.064   6.204   6.809
  734SOL    HW1 3101   1.093   6.110   6.821
  734SOL    HW2 3102   0.964   6.208   6.805
  735SOL     OW 3103   3.563   4.397   6.397
  735SOL    HW1 3104   3.655   4.379   6.432
  735SOL    HW2 3105   3.497   4.343   6.449
  736SOL     OW 3106   6.217   1.110   2.463
  736SOL    HW1 3107   6.188   1.015   2.452
  736SOL    HW2 3108   6.237   1.148   2.372
  737SOL     OW 3109   5.496   3.852   0.424
  737SOL    HW1 3110   5.550   3.869   0.341
  737SOL    HW2 3111   5.446   3.766   0.414
  738SOL     OW 3112   0.244   4.128   3.721
  738SOL    HW1 3113   0.160   4.128   3.775
  738SOL    HW2 3114   0.321   4.156   3.779
  739SOL     OW 3115   4.703   6.413   6.087
  739SOL    HW1 3116   4.743   6.321   6.089
  739SOL    HW2 3117   4.607   6.407   6.059
  740SOL     OW 3118   5.991   6.875   0.294
  740SOL    HW1 3119   5.910   6.922   0.330
  740SOL    HW2 3120   6.057   6.862   0.368
  741SOL     OW 3121   2.339   0.490   3.981
  741SOL    HW1 3122   2.340   0.397   3.943
  741SOL    HW2 3123   2.402   0.495   4.058
  742SOL     OW 3124   1.680   6.329   2.645
  742SOL    HW1 3125   1.756   6.364   2.699
  742SOL    HW2 3126   1.598   6.383   2.663
  743SOL     OW 3127   1.836   3.911   3.043
  743SOL    HW1 3128   1.926   3.942   3.012
  743SOL    HW2 3129   1.844   3.822   3.087
  744SOL     OW 3130   6.465   5.154   0.995
  744SOL    HW1 3131   6.458   5.069   0.945
  744SOL    HW2 3132   6.384   5.210   0.979
  745SOL     OW 3133   1.505   5.858   2.110
  745SOL    HW1 3134   1.601   5.880   2.095
  745SOL    HW2 3135   1.494   5.811   2.197
  746SOL     OW 3136   3.260   6.733   3.300
  746SOL    HW1 3137   3.304   6.749   3.389
  746SOL    HW2 3138   3.209   6.647   3.303
  747SOL     OW 3139   0.069   3.853   0.637
  747SOL    HW1 3140   0.061   3.819   0.731
  747SOL    HW2 3141   7.009   3.837   0.588
  748SOL     OW 3142   3.078   3.247   3.327
  748SOL    HW1 3143   3.110   3.285   3.240
  748SOL    HW2 3144   3.071   3.320   3.395
  749SOL     OW 3145   5.558   2.283   5.247
  749SOL    HW1 3146   5.542   2.364   5.303
  749SOL    HW2 3147   5.474   2.260   5.198
  750SOL     OW 3148   3.355   3.831   1.916
  750SOL    HW1 3149   3.319   3.744   1.950
  750SOL    HW2 3150   3.299   3.906   1.951
  751SOL     OW 3151   5.719   1.764   0.021
  751SOL    HW1 3152   5.643   1.765   0.087
  751SOL    HW2 3153   5.753   1.670   0.012
  752SOL     OW 3154   4.585   0.639   2.608
  752SOL    HW1 3155   4.506   0.685   2.568
  752SOL    HW2 3156   4.669   0.679   2.572
  753SOL     OW 3157   3.805   1.666   2.002
  753SOL    HW1 3158   3.782   1.758   1.972
  753SOL    HW2 3159   3.758   1.599   1.944
  754SOL     OW 3160   5.330   5.458   6.776
  754SOL    HW1 3161   5.248   5.425   6.824
  754SOL    HW2 3162   5.340   5.556   6.791
  755SOL     OW 3163   5.895   5.323   1.970
  755SOL    HW1 3164   5.912   5.359   2.062
  755SOL    HW2 3165   5.797   5.309   1.957
  756SOL     OW 3166   2.539   6.634   3.761
  756SOL    HW1 3167   2.571   6.713   3.709
  756SOL    HW2 3168   2.575   6.638   3.854
  757SOL     OW 3169   6.745   0.504   4.201
  757SOL    HW1 3170   6.668   0.519   4.264
  757SOL    HW2 3171   6.753   0.582   4.139
  758SOL     OW 3172   4.100   1.709   0.744
  758SOL    HW1 3173   4.105   1.689   0.842
  758SOL    HW2 3174   4.056   1.633   0.697
  759SOL     OW 3175   2.185   0.389   1.961
  759SOL    HW1 3176   2.240   0.469   1.937
  759SOL    HW2 3177   2.111   0.377   1.895
  760SOL     OW 3178   4.505   1.754   6.074
  760SOL    HW1 3179   4.565   1.815   6.023
  760SOL    HW2 3180   4.530   1.757   6.171
  761SOL     OW 3181   5.591   0.253   6.916
  761SOL    HW1 3182   5.492   0.263   6.906
  761SOL    HW2 3183   5.614   0.240   7.013
  762SOL     OW 3184   2.264   4.511   5.178
  762SOL    HW1 3185   2.180   4.561   5.199
  762SOL    HW2 3186   2.275   4.503   5.079
  763SOL     OW 3187   6.945   5.202   0.521
  763SOL    HW1 3188   6.904   5.270   0.582
  763SOL    HW2 3189   7.000   5.138   0.574
  764SOL     OW 3190   5.582   1.482   2.747
  764SOL    HW1 3191   5.544   1.396   2.782
  764SOL    HW2 3192   5.681   1.473   2.737
  765SOL     OW 3193   0.798   6.801   3.069
  765SOL    HW1 3194   0.876   6.839   3.119
  765SOL    HW2 3195   0.828   6.724   3.013
  766SOL     OW 3196   0.291   6.359   0.432
  766SOL    HW1 3197   0.263   6.265   0.450
  766SOL    HW2 3198   0.301   6.373   0.333
  767SOL     OW 3199   5.456   6.055   1.092
  767SOL    HW1 3200   5.406   6.061   1.178
  767SOL    HW2 3201   5.443   5.963   1.052
  768SOL     OW 3202   2.817   6.712   4.191
  768SOL    HW1 3203   2.899   6.715   4.134
  768SOL    HW2 3204   2.782   6.804   4.204
  769SOL     OW 3205   4.150   0.718   0.053
  769SOL    HW1 3206   4.108   0.678   0.134
  769SOL    HW2 3207   4.173   0.645   7.013
  770SOL     OW 3208   3.231   5.051   4.778
  770SOL    HW1 3209   3.287   5.110   4.835
  770SOL    HW2 3210   3.134   5.062   4.803
  771SOL     OW 3211   0.724   6.724   4.664
  771SOL    HW1 3212   0.700   6.821   4.665
  771SOL    HW2 3213   0.641   6.669   4.675
  772SOL     OW 3214   0.513   3.176   6.619
  772SOL    HW1 3215   0.445   3.231   6.570
  772SOL    HW2 3216   0.472   3.139   6.702
  773SOL     OW 3217   6.631   3.470   2.069
  773SOL    HW1 3218   6.615   3.551   2.012
  773SOL    HW2 3219   6.660   3.499   2.161
  774SOL     OW 3220   1.029   0.919   1.949
  774SOL    HW1 3221   1.117   0.892   1.987
  774SOL    HW2 3222   1.040   1.002   1.894
  775SOL     OW 3223   1.784   2.845   3.962
  775SOL    HW1 3224   1.866   2.818   4.012
  775SOL    HW2 3225   1.710   2.864   4.027
  776SOL     OW 3226   1.752   0.407   5.144
  776SOL    HW1 3227   1.659   0.443   5.131
  776SOL    HW2 3228   1.818   0.470   5.104
  777SOL     OW 3229   4.199   6.883   6.612
  777SOL    HW1 3230   4.295   6.889   6.640
  777SOL    HW2 3231   4.146   6.951   6.663
  778SOL     OW 3232   4.764   5.756   4.814
  778SOL    HW1 3233   4.669   5.726   4.810
  778SOL    HW2 3234   4.789   5.776   4.909
  779SOL     OW 3235   0.688   0.207   2.068
  779SOL    HW1 3236   0.765   0.270   2.052
  779SOL    HW2 3237   0.646   0.228   2.156
  780SOL     OW 3238   5.775   2.403   4.793
  780SOL    HW1 3239   5.813   2.311   4.810
  780SOL    HW2 3240   5.750   2.444   4.881
  781SOL     OW 3241   1.218   3.796   6.823
  781SOL    HW1 3242   1.187   3.710   6.864
  781SOL    HW2 3243   1.269   3.775   6.739
  782SOL     OW 3244   0.042   4.949   1.163
  782SOL    HW1 3245   0.025   4.855   1.133
  782SOL    HW2 3246   0.035   5.011   1.085
  783SOL     OW 3247   1.970   5.748   0.199
  783SOL    HW1 3248   1.901   5.816   0.222
  783SOL    HW2 3249   1.991   5.754   0.101
  784SOL     OW 3250   5.354   5.624   3.493
  784SOL    HW1 3251   5.420   5.699   3.481
  784SOL    HW2 3252   5.302   5.638   3.577
  785SOL     OW 3253   6.576   2.470   3.457
  785SOL    HW1 3254   6.558   2.501   3.550
  785SOL    HW2 3255   6.567   2.547   3.394
  786SOL     OW 3256   5.890   6.396   1.146
  786SOL    HW1 3257   5.821   6.324   1.158
  786SOL    HW2 3258   5.843   6.484   1.136
  787SOL     OW 3259   4.521   0.996   0.259
  787SOL    HW1 3260   4.560   1.086   0.277
  787SOL    HW2 3261   4.481   0.995   0.168
  788SOL     OW 3262   0.133   4.116   3.474
  788SOL    HW1 3263   0.198   4.045   3.444
  788SOL    HW2 3264   0.149   4.136   3.571
  789SOL     OW 3265   5.794   3.024   1.371
  789SOL    HW1 3266   5.769   2.994   1.279
  789SOL    HW2 3267   5.747   2.967   1.439
  790SOL     OW 3268   3.204   0.396   4.134
  790SOL    HW1 3269   3.169   0.453   4.060
  790SOL    HW2 3270   3.137   0.326   4.157
  791SOL     OW 3271   3.601   1.227   4.577
  791SOL    HW1 3272   3.605   1.322   4.606
  791SOL    HW2 3273   3.541   1.176   4.638
  792SOL     OW 3274   5.395   0.872   3.768
  792SOL    HW1 3275   5.434   0.802   3.829
  792SOL    HW2 3276   5.346   0.827   3.693
  793SOL     OW 3277   0.081   6.994   6.777
  793SOL    HW1 3278   0.140   7.004   6.698
  793SOL    HW2 3279   0.084   6.900   6.810
  794SOL     OW 3280   3.390   5.064   5.185
  794SOL    HW1 3281   3.402   4.978   5.134
  794SOL    HW2 3282   3.296   5.070   5.218
  795SOL     OW 3283   5.241   4.959   0.183
  795SOL    HW1 3284   5.273   5.037   0.130
  795SOL    HW2 3285   5.265   4.874   0.135
  796SOL     OW 3286   0.980   1.402   5.956
  796SOL    HW1 3287   0.901   1.449   5.916
  796SOL    HW2 3288   0.969   1.304   5.944
  797SOL     OW 3289   5.922   2.961   5.293
  797SOL    HW1 3290   5.952   3.046   5.335
  797SOL    HW2 3291   6.001   2.900   5.280
  798SOL     OW 3292   6.818   1.052   4.209
  798SOL    HW1 3293   6.836   1.018   4.302
  798SOL    HW2 3294   6.721   1.075   4.201
  799SOL     OW 3295   0.086   3.693   3.428
  799SOL    HW1 3296   0.013   3.631   3.456
  799SOL    HW2 3297   0.048   3.763   3.368
  800SOL     OW 3298   7.013   2.547   2.647
  800SOL    HW1 3299   6.989   2.636   2.608
  800SOL    HW2 3300   6.930   2.503   2.683
  801SOL     OW 3301   0.584   2.908   3.565
  801SOL    HW1 3302   0.511   2.965   3.526
  801SOL    HW2 3303   0.623   2.851   3.493
  802SOL     OW 3304   6.673   1.492   0.656
  802SOL    HW1 3305   6.689   1.419   0.723
  802SOL    HW2 3306   6.594   1.546   0.685
  803SOL     OW 3307   2.126   0.291   4.380
  803SOL    HW1 3308   2.133   0.345   4.296
  803SOL    HW2 3309   2.126   0.194   4.358
  804SOL     OW 3310   6.134   6.345   0.746
  804SOL    HW1 3311   6.140   6.254   0.785
  804SOL    HW2 3312   6.105   6.410   0.816
  805SOL     OW 3313   2.206   2.728   6.201
  805SOL    HW1 3314   2.302   2.720   6.172
  805SOL    HW2 3315   2.172   2.819   6.177
  806SOL     OW 3316   4.050   6.492   6.877
  806SOL    HW1 3317   3.974   6.430   6.858
  806SOL    HW2 3318   4.072   6.544   6.795
  807SOL     OW 3319   0.764   6.698   3.483
  807SOL    HW1 3320   0.718   6.761   3.421
  807SOL    HW2 3321   0.863   6.717   3.483
  808SOL     OW 3322   5.632   3.782   4.317
  808SOL    HW1 3323   5.619   3.730   4.232
  808SOL    HW2 3324   5.547   3.832   4.339
  809SOL     OW 3325   0.423   6.285   6.023
  809SOL    HW1 3326   0.399   6.370   5.976
  809SOL    HW2 3327   0.418   6.299   6.122
  810SOL     OW 3328   5.846   5.719   6.248
  810SOL    HW1 3329   5.918   5.689   6.186
  810SOL    HW2 3330   5.779   5.646   6.259
  811SOL     OW 3331   3.182   4.932   2.923
  811SOL    HW1 3332   3.171   4.896   2.830
  811SOL    HW2 3333   3.109   4.894   2.981
  812SOL     OW 3334   0.111   0.522   2.676
  812SOL    HW1 3335   0.021   0.529   2.633
  812SOL    HW2 3336   0.168   0.599   2.649
  813SOL     OW 3337   4.888   4.900   1.829
  813SOL    HW1 3338   4.912   4.939   1.918
  813SOL    HW2 3339   4.824   4.824   1.842
  814SOL     OW 3340   4.737   5.642   1.494
  814SOL    HW1 3341   4.797   5.640   1.414
  814SOL    HW2 3342   4.725   5.549   1.529
  815SOL     OW 3343   1.442   1.048   0.905
  815SOL    HW1 3344   1.370   1.004   0.851
  815SOL    HW2 3345   1.407   1.067   0.997
  816SOL     OW 3346   6.219   0.607   1.772
  816SOL    HW1 3347   6.249   0.650   1.687
  816SOL    HW2 3348   6.139   0.655   1.808
  817SOL     OW 3349   0.676   2.255   2.131
  817SOL    HW1 3350   0.737   2.267   2.208
  817SOL    HW2 3351   0.597   2.200   2.159
  818SOL     OW 3352   5.876   1.435   2.755
  818SOL    HW1 3353   5.918   1.462   2.841
  818SOL    HW2 3354   5.946   1.400   2.693
  819SOL     OW 3355   0.584   5.447   1.968
  819SOL    HW1 3356   0.516   5.506   1.924
  819SOL    HW2 3357   0.601   5.479   2.061
  820SOL     OW 3358   2.404   2.946   5.743
  820SOL    HW1 3359   2.479   3.008   5.723
  820SOL    HW2 3360   2.345   2.987   5.813
  821SOL     OW 3361   0.958   4.512   0.728
  821SOL    HW1 3362   1.026   4.456   0.681
  821SOL    HW2 3363   0.973   4.608   0.706
  822SOL     OW 3364   0.720   3.115   5.312
  822SOL    HW1 3365   0.817   3.092   5.315
  822SOL    HW2 3366   0.666   3.037   5.343
  823SOL     OW 3367   4.035   3.915   1.564
  823SOL    HW1 3368   4.110   3.875   1.616
  823SOL    HW2 3369   3.998   3.994   1.613
  824SOL     OW 3370   6.352   3.149   6.287
  824SOL    HW1 3371   6.349   3.243   6.252
  824SOL    HW2 3372   6.262   3.123   6.321
  825SOL     OW 3373   1.707   2.979   1.456
  825SOL    HW1 3374   1.746   2.889   1.438
  825SOL    HW2 3375   1.701   3.030   1.370
  826SOL     OW 3376   1.090   2.159   6.604
  826SOL    HW1 3377   1.106   2.172   6.702
  826SOL    HW2 3378   1.143   2.226   6.553
  827SOL     OW 3379   3.489   4.508   1.038
  827SOL    HW1 3380   3.430   4.478   0.963
  827SOL    HW2 3381   3.464   4.601   1.064
  828SOL     OW 3382   5.945   0.762   5.250
  828SOL    HW1 3383   5.950   0.805   5.160
  828SOL    HW2 3384   5.952   0.663   5.240
  829SOL     OW 3385   3.782   4.157   5.504
  829SOL    HW1 3386   3.788   4.099   5.584
  829SOL    HW2 3387   3.707   4.125   5.445
  830SOL     OW 3388   4.665   3.446   6.349
  830SOL    HW1 3389   4.668   3.352   6.381
  830SOL    HW2 3390   4.757   3.477   6.325
  831SOL     OW 3391   5.265   0.409   5.369
  831SOL    HW1 3392   5.253   0.388   5.466
  831SOL    HW2 3393   5.187   0.373   5.317
  832SOL     OW 3394   2.492   1.439   6.140
  832SOL    HW1 3395   2.567   1.383   6.104
  832SOL    HW2 3396   2.521   1.481   6.226
  833SOL     OW 3397   1.246   0.514   4.887
  833SOL    HW1 3398   1.344   0.509   4.870
  833SOL    HW2 3399   1.220   0.608   4.911
  834SOL     OW 3400   2.913   4.672   5.772
  834SOL    HW1 3401   2.969   4.626   5.841
  834SOL    HW2 3402   2.940   4.642   5.681
  835SOL     OW 3403   3.905   1.469   2.178
  835SOL    HW1 3404   3.832   1.412   2.140
  835SOL    HW2 3405   3.886   1.565   2.159
  836SOL     OW 3406   2.310   0.803   6.181
  836SOL    HW1 3407   2.314   0.744   6.101
  836SOL    HW2 3408   2.352   0.757   6.259
  837SOL     OW 3409   3.996   1.946   4.144
  837SOL    HW1 3410   3.953   1.856   4.139
  837SOL    HW2 3411   4.095   1.935   4.153
  838SOL     OW 3412   0.953   6.590   2.157
  838SOL    HW1 3413   1.018   6.538   2.212
  838SOL    HW2 3414   0.934   6.678   2.202
  839SOL     OW 3415   2.178   1.600   1.905
  839SOL    HW1 3416   2.215   1.551   1.826
  839SOL    HW2 3417   2.079   1.610   1.895
  840SOL     OW 3418   1.330   0.866   5.630
  840SOL    HW1 3419   1.283   0.934   5.686
  840SOL    HW2 3420   1.289   0.776   5.647
  841SOL     OW 3421   6.972   3.473   0.938
  841SOL    HW1 3422   6.915   3.394   0.959
  841SOL    HW2 3423   0.038   3.458   0.974
  842SOL     OW 3424   4.162   4.804   4.148
  842SOL    HW1 3425   4.233   4.867   4.118
  842SOL    HW2 3426   4.107   4.775   4.070
  843SOL     OW 3427   0.289   3.371   1.517
  843SOL    HW1 3428   0.270   3.355   1.614
  843SOL    HW2 3429   0.270   3.466   1.495
  844SOL     OW 3430   5.946   4.471   6.532
  844SOL    HW1 3431   5.986   4.452   6.622
  844SOL    HW2 3432   5.911   4.386   6.493
  845SOL     OW 3433   2.306   4.947   5.434
  845SOL    HW1 3434   2.237   4.984   5.496
  845SOL    HW2 3435   2.280   4.969   5.339
  846SOL     OW 3436   4.281   2.161   0.236
  846SOL    HW1 3437   4.263   2.238   0.175
  846SOL    HW2 3438   4.208   2.092   0.225
  847SOL     OW 3439   4.819   4.598   1.896
  847SOL    HW1 3440   4.861   4.543   1.824
  847SOL    HW2 3441   4.889   4.627   1.962
  848SOL     OW 3442   5.667   6.991   5.735
  848SOL    HW1 3443   5.588   7.023   5.684
  848SOL    HW2 3444   5.646   6.988   5.833
  849SOL     OW 3445   0.562   5.871   4.234
  849SOL    HW1 3446   0.468   5.896   4.210
  849SOL    HW2 3447   0.621   5.951   4.224
  850SOL     OW 3448   2.852   0.848   3.278
  850SOL    HW1 3449   2.822   0.777   3.342
  850SOL    HW2 3450   2.939   0.821   3.236
  851SOL     OW 3451   6.662   1.092   5.884
  851SOL    HW1 3452   6.562   1.085   5.883
  851SOL    HW2 3453   6.701   1.020   5.827
  852SOL     OW 3454   2.963   5.153   5.048
  852SOL    HW1 3455   2.984   5.131   4.953
  852SOL    HW2 3456   2.872   5.119   5.071
  853SOL     OW 3457   0.721   4.376   0.466
  853SOL    HW1 3458   0.651   4.307   0.448
  853SOL    HW2 3459   0.812   4.334   0.457
  854SOL     OW 3460   6.007   5.256   1.045
  854SOL    HW1 3461   5.914   5.227   1.068
  854SOL    HW2 3462   6.067   5.242   1.124
  855SOL     OW 3463   4.660   0.216   0.739
  855SOL    HW1 3464   4.705   0.179   0.820
  855SOL    HW2 3465   4.586   0.278   0.767
  856SOL     OW 3466   1.750   0.430   4.736
  856SOL    HW1 3467   1.705   0.432   4.647
  856SOL    HW2 3468   1.774   0.336   4.759
  857SOL     OW 3469   5.730   4.327   1.671
  857SOL    HW1 3470   5.803   4.382   1.630
  857SOL    HW2 3471   5.674   4.287   1.599
  858SOL     OW 3472   3.731   4.113   2.114
  858SOL    HW1 3473   3.639   4.077   2.099
  858SOL    HW2 3474   3.726   4.197   2.168
  859SOL     OW 3475   0.196   4.585   0.757
  859SOL    HW1 3476   0.223   4.630   0.672
  859SOL    HW2 3477   0.278   4.559   0.808
  860SOL     OW 3478   1.697   3.970   6.102
  860SOL    HW1 3479   1.681   3.939   6.008
  860SOL    HW2 3480   1.649   3.910   6.165
  861SOL     OW 3481   4.386   4.498   6.343
  861SOL    HW1 3482   4.393   4.400   6.325
  861SOL    HW2 3483   4.456   4.525   6.409
  862SOL     OW 3484   4.566   4.388   3.545
  862SOL    HW1 3485   4.481   4.415   3.498
  862SOL    HW2 3486   4.553   4.397   3.644
  863SOL     OW 3487   6.395   2.788   1.871
  863SOL    HW1 3488   6.316   2.792   1.932
  863SOL    HW2 3489   6.472   2.836   1.914
  864SOL     OW 3490   0.274   5.756   2.332
  864SOL    HW1 3491   0.226   5.684   2.383
  864SOL    HW2 3492   0.361   5.776   2.376
  865SOL     OW 3493   1.951   1.084   3.762
  865SOL    HW1 3494   1.945   1.139   3.678
  865SOL    HW2 3495   2.036   1.032   3.761
  866SOL     OW 3496   4.245   1.011   1.514
  866SOL    HW1 3497   4.281   1.093   1.558
  866SOL    HW2 3498   4.317   0.942   1.508
  867SOL     OW 3499   2.500   1.848   5.932
  867SOL    HW1 3500   2.566   1.923   5.932
  867SOL    HW2 3501   2.440   1.856   5.852
  868SOL     OW 3502   5.227   2.026   3.763
  868SOL    HW1 3503   5.216   2.063   3.855
  868SOL    HW2 3504   5.228   1.926   3.767
  869SOL     OW 3505   6.798   3.834   0.788
  869SOL    HW1 3506   6.743   3.871   0.713
  869SOL    HW2 3507   6.831   3.909   0.845
  870SOL     OW 3508   6.280   1.668   0.385
  870SOL    HW1 3509   6.261   1.689   0.481
  870SOL    HW2 3510   6.299   1.570   0.376
  871SOL     OW 3511   0.022   4.800   0.803
  871SOL    HW1 3512   0.078   4.719   0.784
  871SOL    HW2 3513   0.050   4.875   0.744
  872SOL     OW 3514   7.022   1.933   1.694
  872SOL    HW1 3515   7.019   1.899   1.788
  872SOL    HW2 3516   0.090   1.956   1.670
  873SOL     OW 3517   3.867   6.939   4.159
  873SOL    HW1 3518   3.798   6.867   4.163
  873SOL    HW2 3519   3.901   6.958   4.251
  874SOL     OW 3520   1.186   4.383   6.468
  874SOL    HW1 3521   1.245   4.442   6.411
  874SOL    HW2 3522   1.093   4.420   6.467
  875SOL     OW 3523   6.500   6.156   6.518
  875SOL    HW1 3524   6.537   6.249   6.521
  875SOL    HW2 3525   6.401   6.159   6.528
  876SOL     OW 3526   2.809   1.800   1.432
  876SOL    HW1 3527   2.792   1.756   1.521
  876SOL    HW2 3528   2.726   1.798   1.378
  877SOL     OW 3529   5.656   6.032   6.151
  877SOL    HW1 3530   5.728   5.975   6.190
  877SOL    HW2 3531   5.690   6.078   6.069
  878SOL     OW 3532   3.980   3.471   1.005
  878SOL    HW1 3533   3.962   3.378   1.037
  878SOL    HW2 3534   3.900   3.505   0.956
  879SOL     OW 3535   5.340   3.410   3.572
  879SOL    HW1 3536   5.279   3.399   3.494
  879SOL    HW2 3537   5.297   3.372   3.654
  880SOL     OW 3538   4.136   6.495   1.679
  880SOL    HW1 3539   4.190   6.446   1.748
  880SOL    HW2 3540   4.134   6.592   1.703
  881SOL     OW 3541   5.332   5.386   3.131
  881SOL    HW1 3542   5.338   5.379   3.032
  881SOL    HW2 3543   5.239   5.408   3.158
  882SOL     OW 3544   0.808   1.991   5.463
  882SOL    HW1 3545   0.749   2.017   5.539
  882SOL    HW2 3546   0.842   2.073   5.417
  883SOL     OW 3547   2.963   4.921   0.256
  883SOL    HW1 3548   2.874   4.932   0.212
  883SOL    HW2 3549   2.952   4.869   0.341
  884SOL     OW 3550   3.909   4.421   1.460
  884SOL    HW1 3551   3.821   4.434   1.505
  884SOL    HW2 3552   3.894   4.389   1.367
  885SOL     OW 3553   4.430   6.232   6.086
  885SOL    HW1 3554   4.400   6.142   6.054
  885SOL    HW2 3555   4.371   6.303   6.047
  886SOL     OW 3556   4.352   2.344   6.521
  886SOL    HW1 3557   4.290   2.395   6.461
  886SOL    HW2 3558   4.349   2.247   6.495
  887SOL     OW 3559   6.226   6.344   4.564
  887SOL    HW1 3560   6.162   6.407   4.521
  887SOL    HW2 3561   6.209   6.251   4.531
  888SOL     OW 3562   6.265   0.883   3.132
  888SOL    HW1 3563   6.350   0.905   3.180
  888SOL    HW2 3564   6.197   0.954   3.150
  889SOL     OW 3565   0.578   0.565   4.738
  889SOL    HW1 3566   0.608   0.469   4.742
  889SOL    HW2 3567   0.540   0.584   4.647
  890SOL     OW 3568   2.047   3.462   1.054
  890SOL    HW1 3569   2.134   3.448   1.102
  890SOL    HW2 3570   2.054   3.424   0.961
  891SOL     OW 3571   5.984   3.448   5.719
  891SOL    HW1 3572   6.064   3.489   5.675
  891SOL    HW2 3573   6.003   3.354   5.744
  892SOL     OW 3574   2.137   4.570   2.057
  892SOL    HW1 3575   2.063   4.582   2.123
  892SOL    HW2 3576   2.102   4.529   1.973
  893SOL     OW 3577   1.786   6.633   2.361
  893SOL    HW1 3578   1.863   6.669   2.308
  893SOL    HW2 3579   1.701   6.661   2.318
  894SOL     OW 3580   1.161   5.276   4.327
  894SOL    HW1 3581   1.233   5.220   4.287
  894SOL    HW2 3582   1.123   5.336   4.256
  895SOL     OW 3583   2.597   1.020   4.299
  895SOL    HW1 3584   2.503   0.993   4.319
  895SOL    HW2 3585   2.634   1.073   4.376
  896SOL     OW 3586   4.502   0.211   3.392
  896SOL    HW1 3587   4.494   0.255   3.303
  896SOL    HW2 3588   4.562   0.264   3.451
  897SOL     OW 3589   6.020   1.054   6.102
  897SOL    HW1 3590   5.989   0.988   6.170
  897SOL    HW2 3591   5.992   1.146   6.130
  898SOL     OW 3592   4.923   6.362   3.722
  898SOL    HW1 3593   4.992   6.291   3.733
  898SOL    HW2 3594   4.844   6.326   3.673
  899SOL     OW 3595   1.204   5.054   0.285
  899SOL    HW1 3596   1.287   5.097   0.319
  899SOL    HW2 3597   1.177   5.098   0.199
  900SOL     OW 3598   0.393   5.387   3.440
  900SOL    HW1 3599   0.369   5.308   3.382
  900SOL    HW2 3600   0.461   5.359   3.508
  901SOL     OW 3601   6.296   1.627   3.205
  901SOL    HW1 3602   6.293   1.703   3.270
  901SOL    HW2 3603   6.231   1.644   3.131
  902SOL     OW 3604   1.630   5.836   0.228
  902SOL    HW1 3605   1.537   5.801   0.215
  902SOL    HW2 3606   1.686   5.811   0.149
  903SOL     OW 3607   1.249   4.970   6.503
  903SOL    HW1 3608   1.271   4.896   6.568
  903SOL    HW2 3609   1.285   5.056   6.538
  904SOL     OW 3610   1.711   1.737   4.007
  904SOL    HW1 3611   1.670   1.803   4.070
  904SOL    HW2 3612   1.808   1.757   3.996
  905SOL     OW 3613   5.785   3.294   3.369
  905SOL    HW1 3614   5.871   3.293   3.420
  905SOL    HW2 3615   5.709   3.277   3.431
  906SOL     OW 3616   6.855   3.326   5.619
  906SOL    HW1 3617   6.785   3.262   5.651
  906SOL    HW2 3618   6.820   3.419   5.626
  907SOL     OW 3619   6.681   3.701   2.447
  907SOL    HW1 3620   6.624   3.697   2.529
  907SOL    HW2 3621   6.709   3.796   2.431
  908SOL     OW 3622   2.789   1.277   3.724
  908SOL    HW1 3623   2.706   1.291   3.779
  908SOL    HW2 3624   2.867   1.317   3.772
  909SOL     OW 3625   3.318   6.764   2.304
  909SOL    HW1 3626   3.251   6.814   2.248
  909SOL    HW2 3627   3.300   6.666   2.298
  910SOL     OW 3628   1.333   0.797   1.755
  910SOL    HW1 3629   1.342   0.854   1.837
  910SOL    HW2 3630   1.281   0.846   1.685
  911SOL     OW 3631   0.788   2.690   0.755
  911SOL    HW1 3632   0.818   2.760   0.689
  911SOL    HW2 3633   0.775   2.732   0.845
  912SOL     OW 3634   1.959   1.052   0.258
  912SOL    HW1 3635   1.862   1.047   0.237
  912SOL    HW2 3636   1.997   0.960   0.261
  913SOL     OW 3637   1.915   1.126   2.088
  913SOL    HW1 3638   1.916   1.035   2.046
  913SOL    HW2 3639   1.823   1.148   2.119
  914SOL     OW 3640   2.906   4.845   2.355
  914SOL    HW1 3641   2.811   4.838   2.322
  914SOL    HW2 3642   2.913   4.923   2.417
  915SOL     OW 3643   2.633   2.132   0.974
  915SOL    HW1 3644   2.695   2.174   1.040
  915SOL    HW2 3645   2.642   2.179   0.886
  916SOL     OW 3646   0.634   3.583   2.230
  916SOL    HW1 3647   0.609   3.545   2.319
  916SOL    HW2 3648   0.653   3.508   2.167
  917SOL     OW 3649   3.482   0.795   6.059
  917SOL    HW1 3650   3.531   0.746   5.987
  917SOL    HW2 3651   3.478   0.739   6.141
  918SOL     OW 3652   0.116   2.072   4.971
  918SOL    HW1 3653   0.086   1.985   5.010
  918SOL    HW2 3654   0.066   2.089   4.886
  919SOL     OW 3655   0.861   0.849   1.191
  919SOL    HW1 3656   0.935   0.796   1.233
  919SOL    HW2 3657   0.897   0.902   1.114
  920SOL     OW 3658   1.323   1.981   2.171
  920SOL    HW1 3659   1.244   1.921   2.173
  920SOL    HW2 3660   1.361   1.984   2.078
  921SOL     OW 3661   4.146   4.551   0.532
  921SOL    HW1 3662   4.048   4.531   0.536
  921SOL    HW2 3663   4.164   4.614   0.456
  922SOL     OW 3664   2.331   5.842   6.899
  922SOL    HW1 3665   2.430   5.831   6.901
  922SOL    HW2 3666   2.289   5.773   6.958
  923SOL     OW 3667   4.002   1.366   0.037
  923SOL    HW1 3668   4.006   1.352   6.964
  923SOL    HW2 3669   3.978   1.280   0.082
  924SOL     OW 3670   5.721   4.951   1.942
  924SOL    HW1 3671   5.744   4.930   2.037
  924SOL    HW2 3672   5.637   4.903   1.917
  925SOL     OW 3673   5.853   2.648   1.932
  925SOL    HW1 3674   5.901   2.568   1.965
  925SOL    HW2 3675   5.842   2.642   1.832
  926SOL     OW 3676   3.996   5.865   1.692
  926SOL    HW1 3677   3.928   5.793   1.674
  926SOL    HW2 3678   4.064   5.831   1.756
  927SOL     OW 3679   5.010   5.364   5.117
  927SOL    HW1 3680   5.035   5.393   5.024
  927SOL    HW2 3681   5.084   5.308   5.154
  928SOL     OW 3682   0.202   1.561   1.516
  928SOL    HW1 3683   0.186   1.477   1.464
  928SOL    HW2 3684   0.144   1.561   1.597
  929SOL     OW 3685   0.207   2.783   2.006
  929SOL    HW1 3686   0.255   2.697   2.023
  929SOL    HW2 3687   0.188   2.828   2.093
  930SOL     OW 3688   6.166   5.091   2.534
  930SOL    HW1 3689   6.265   5.095   2.534
  930SOL    HW2 3690   6.129   5.180   2.507
  931SOL     OW 3691   0.871   2.899   1.789
  931SOL    HW1 3692   0.776   2.921   1.811
  931SOL    HW2 3693   0.876   2.806   1.753
  932SOL     OW 3694   4.317   6.260   1.023
  932SOL    HW1 3695   4.416   6.258   1.038
  932SOL    HW2 3696   4.275   6.329   1.082
  933SOL     OW 3697   0.868   6.296   3.567
  933SOL    HW1 3698   0.942   6.355   3.533
  933SOL    HW2 3699   0.817   6.344   3.638
  934SOL     OW 3700   4.164   1.620   5.101
  934SOL    HW1 3701   4.094   1.557   5.134
  934SOL    HW2 3702   4.210   1.663   5.178
  935SOL     OW 3703   1.060   3.874   4.314
  935SOL    HW1 3704   1.050   3.971   4.332
  935SOL    HW2 3705   1.060   3.858   4.215
  936SOL     OW 3706   0.679   1.152   1.719
  936SOL    HW1 3707   0.703   1.155   1.816
  936SOL    HW2 3708   0.626   1.234   1.695
  937SOL     OW 3709   4.916   2.371   3.408
  937SOL    HW1 3710   4.918   2.297   3.340
  937SOL    HW2 3711   4.972   2.345   3.487
  938SOL     OW 3712   0.862   0.795   6.396
  938SOL    HW1 3713   0.931   0.787   6.324
  938SOL    HW2 3714   0.904   0.776   6.485
  939SOL     OW 3715   6.469   0.883   4.756
  939SOL    HW1 3716   6.492   0.869   4.852
  939SOL    HW2 3717   6.425   0.801   4.720
  940SOL     OW 3718   6.239   6.978   3.322
  940SOL    HW1 3719   6.206   0.015   3.393
  940SOL    HW2 3720   6.270   6.893   3.365
  941SOL     OW 3721   5.681   3.050   5.110
  941SOL    HW1 3722   5.660   2.953   5.099
  941SOL    HW2 3723   5.777   3.061   5.136
  942SOL     OW 3724   4.611   6.570   5.638
  942SOL    HW1 3725   4.699   6.574   5.683
  942SOL    HW2 3726   4.612   6.631   5.558
  943SOL     OW 3727   5.003   2.194   0.403
  943SOL    HW1 3728   5.100   2.213   0.389
  943SOL    HW2 3729   4.959   2.179   0.314
  944SOL     OW 3730   5.032   4.927   4.387
  944SOL    HW1 3731   5.069   5.018   4.399
  944SOL    HW2 3732   4.947   4.932   4.334
  945SOL     OW 3733   5.485   2.749   6.780
  945SOL    HW1 3734   5.567   2.702   6.813
  945SOL    HW2 3735   5.423   2.682   6.737
  946SOL     OW 3736   6.287   3.231   5.897
  946SOL    HW1 3737   6.322   3.297   5.963
  946SOL    HW2 3738   6.277   3.142   5.940
  947SOL     OW 3739   0.911   2.222   6.362
  947SOL    HW1 3740   0.972   2.301   6.371
  947SOL    HW2 3741   0.859   2.210   6.447
  948SOL     OW 3742   3.465   1.966   0.349
  948SOL    HW1 3743   3.374   1.983   0.386
  948SOL    HW2 3744   3.460   1.893   0.282
  949SOL     OW 3745   5.441   5.572   6.098
  949SOL    HW1 3746   5.531   5.530   6.106
  949SOL    HW2 3747   5.424   5.630   6.178
  950SOL     OW 3748   3.518   5.263   0.987
  950SOL    HW1 3749   3.585   5.189   0.983
  950SOL    HW2 3750   3.497   5.295   0.895
  951SOL     OW 3751   1.212   2.737   3.833
  951SOL    HW1 3752   1.304   2.744   3.793
  951SOL    HW2 3753   1.207   2.653   3.888
  952SOL     OW 3754   4.816   1.179   1.276
  952SOL    HW1 3755   4.891   1.228   1.321
  952SOL    HW2 3756   4.835   1.081   1.279
  953SOL     OW 3757   3.828   6.493   5.725
  953SOL    HW1 3758   3.885   6.413   5.747
  953SOL    HW2 3759   3.887   6.569   5.696
  954SOL     OW 3760   6.108   6.632   1.234
  954SOL    HW1 3761   6.078   6.630   1.330
  954SOL    HW2 3762   6.208   6.634   1.232
  955SOL     OW 3763   1.344   6.154   3.494
  955SOL    HW1 3764   1.318   6.215   3.419
  955SOL    HW2 3765   1.278   6.164   3.569
  956SOL     OW 3766   1.773   3.194   0.760
  956SOL    HW1 3767   1.682   3.211   0.722
  956SOL    HW2 3768   1.777   3.226   0.854
  957SOL     OW 3769   1.964   5.969   4.687
  957SOL    HW1 3770   1.964   6.065   4.658
  957SOL    HW2 3771   1.872   5.943   4.715
  958SOL     OW 3772   4.557   2.839   6.503
  958SOL    HW1 3773   4.634   2.791   6.543
  958SOL    HW2 3774   4.516   2.782   6.431
  959SOL     OW 3775   1.630   4.139   0.728
  959SOL    HW1 3776   1.674   4.138   0.817
  959SOL    HW2 3777   1.669   4.212   0.672
  960SOL     OW 3778   1.917   3.769   5.931
  960SOL    HW1 3779   1.842   3.833   5.912
  960SOL    HW2 3780   1.899   3.682   5.887
  961SOL     OW 3781   3.338   6.676   6.483
  961SOL    HW1 3782   3.419   6.617   6.480
  961SOL    HW2 3783   3.366   6.771   6.494
  962SOL     OW 3784   0.963   6.983   3.175
  962SOL    HW1 3785   0.993   0.046   3.140
  962SOL    HW2 3786   1.042   6.922   3.181
  963SOL     OW 3787   5.727   0.091   2.692
  963SOL    HW1 3788   5.762   0.099   2.786
  963SOL    HW2 3789   5.664   0.166   2.674
  964SOL     OW 3790   5.913   4.441   1.491
  964SOL    HW1 3791   5.940   4.485   1.577
  964SOL    HW2 3792   5.854   4.503   1.439
  965SOL     OW 3793   2.078   1.718   0.435
  965SOL    HW1 3794   2.097   1.675   0.346
  965SOL    HW2 3795   2.150   1.694   0.500
  966SOL     OW 3796   6.144   2.844   1.974
  966SOL    HW1 3797   6.077   2.893   1.918
  966SOL    HW2 3798   6.158   2.893   2.060
  967SOL     OW 3799   1.057   5.286   2.841
  967SOL    HW1 3800   1.134   5.223   2.829
  967SOL    HW2 3801   1.090   5.380   2.844
  968SOL     OW 3802   0.350   4.429   0.431
  968SOL    HW1 3803   0.361   4.526   0.454
  968SOL    HW2 3804   0.306   4.421   0.342
  969SOL     OW 3805   3.826   6.897   6.541
  969SOL    HW1 3806   3.893   6.857   6.478
  969SOL    HW2 3807   3.857   6.883   6.635
  970SOL     OW 3808   5.453   3.649   6.318
  970SOL    HW1 3809   5.429   3.561   6.278
  970SOL    HW2 3810   5.378   3.681   6.377
  971SOL     OW 3811   0.221   2.548   6.638
  971SOL    HW1 3812   0.190   2.455   6.660
  971SOL    HW2 3813   0.246   2.595   6.722
  972SOL     OW 3814   4.635   6.878   6.391
  972SOL    HW1 3815   4.657   6.973   6.411
  972SOL    HW2 3816   4.651   6.859   6.295
  973SOL     OW 3817   6.564   3.143   6.083
  973SOL    HW1 3818   6.483   3.155   6.141
  973SOL    HW2 3819   6.617   3.228   6.084
  974SOL     OW 3820   2.465   0.154   4.254
  974SOL    HW1 3821   2.499   0.162   4.161
  974SOL    HW2 3822   2.467   0.058   4.283
  975SOL     OW 3823   2.964   6.795   4.895
  975SOL    HW1 3824   2.880   6.847   4.880
  975SOL    HW2 3825   2.982   6.737   4.816
  976SOL     OW 3826   0.380   4.957   3.790
  976SOL    HW1 3827   0.348   5.049   3.767
  976SOL    HW2 3828   0.431   4.960   3.876
  977SOL     OW 3829   1.398   1.986   1.917
  977SOL    HW1 3830   1.471   2.052   1.897
  977SOL    HW2 3831   1.386   1.924   1.839
  978SOL     OW 3832   5.999   2.926   4.006
  978SOL    HW1 3833   6.096   2.949   3.996
  978SOL    HW2 3834   5.955   2.995   4.064
  979SOL     OW 3835   6.087   1.619   2.915
  979SOL    HW1 3836   6.070   1.715   2.891
  979SOL    HW2 3837   6.015   1.587   2.977
  980SOL     OW 3838   6.586   0.149   5.479
  980SOL    HW1 3839   6.492   0.183   5.471
  980SOL    HW2 3840   6.590   0.054   5.446
  981SOL     OW 3841   6.592   3.274   0.057
  981SOL    HW1 3842   6.600   3.260   6.984
  981SOL    HW2 3843   6.534   3.203   0.097
  982SOL     OW 3844   1.584   4.252   0.472
  982SOL    HW1 3845   1.526   4.192   0.417
  982SOL    HW2 3846   1.528   4.303   0.537
  983SOL     OW 3847   5.292   1.354   3.436
  983SOL    HW1 3848   5.273   1.327   3.342
  983SOL    HW2 3849   5.213   1.402   3.474
  984SOL     OW 3850   5.013   2.916   5.353
  984SOL    HW1 3851   5.044   2.960   5.268
  984SOL    HW2 3852   5.085   2.855   5.387
  985SOL     OW 3853   1.784   4.132   0.330
  985SOL    HW1 3854   1.733   4.190   0.394
  985SOL    HW2 3855   1.867   4.179   0.301
  986SOL     OW 3856   5.145   4.021   4.926
  986SOL    HW1 3857   5.123   4.026   4.828
  986SOL    HW2 3858   5.150   4.113   4.964
  987SOL     OW 3859   2.904   0.800   2.944
  987SOL    HW1 3860   2.899   0.900   2.943
  987SOL    HW2 3861   2.958   0.770   3.022
  988SOL     OW 3862   3.657   2.877   1.379
  988SOL    HW1 3863   3.694   2.970   1.385
  988SOL    HW2 3864   3.710   2.816   1.438
  989SOL     OW 3865   0.647   1.403   4.542
  989SOL    HW1 3866   0.687   1.489   4.575
  989SOL    HW2 3867   0.640   1.406   4.442
  990SOL     OW 3868   4.778   6.632   2.140
  990SOL    HW1 3869   4.838   6.711   2.156
  990SOL    HW2 3870   4.686   6.653   2.174
  991SOL     OW 3871   6.055   1.950   5.775
  991SOL    HW1 3872   6.130   1.965   5.710
  991SOL    HW2 3873   6.085   1.889   5.848
  992SOL     OW 3874   0.205   2.430   0.793
  992SOL    HW1 3875   0.150   2.513   0.793
  992SOL    HW2 3876   0.272   2.434   0.867
  993SOL     OW 3877   4.593   0.125   4.446
  993SOL    HW1 3878   4.574   0.104   4.542
  993SOL    HW2 3879   4.511   0.161   4.403
  994SOL     OW 3880   3.061   3.880   3.789
  994SOL    HW1 3881   3.067   3.958   3.727
  994SOL    HW2 3882   3.003   3.904   3.867
  995SOL     OW 3883   1.053   1.574   5.413
  995SOL    HW1 3884   1.104   1.636   5.472
  995SOL    HW2 3885   1.019   1.625   5.333
  996SOL     OW 3886   1.406   3.350   6.627
  996SOL    HW1 3887   1.499   3.335   6.593
  996SOL    HW2 3888   1.352   3.398   6.558
  997SOL     OW 3889   6.775   1.471   0.372
  997SOL    HW1 3890   6.754   1.374   0.374
  997SOL    HW2 3891   6.780   1.506   0.466
  998SOL     OW 3892   4.870   0.140   3.299
  998SOL    HW1 3893   4.840   0.225   3.344
  998SOL    HW2 3894   4.885   0.158   3.202
  999SOL     OW 3895   6.679   5.456   0.246
  999SOL    HW1 3896   6.763   5.506   0.222
  999SOL    HW2 3897   6.667   5.458   0.345
 1000SOL     OW 3898   4.024   1.926   4.831
 1000SOL    HW1 3899   4.079   1.980   4.895
 1000SOL    HW2 3900   4.024   1.970   4.742
 1001SOL     OW 3901   4.878   1.034   4.739
 1001SOL    HW1 3902   4.790   1.083   4.742
 1001SOL    HW2 3903   4.898   0.997   4.830
 1002SOL     OW 3904   0.509   1.261   0.240
 1002SOL    HW1 3905   0.450   1.180   0.251
 1002SOL    HW2 3906   0.524   1.304   0.329
 1003SOL     OW 3907   4.087   5.157   2.765
 1003SOL    HW1 3908   4.098   5.202   2.677
 1003SOL    HW2 3909   4.011   5.198   2.815
 1004SOL     OW 3910   5.900   6.004   0.218
 1004SOL    HW1 3911   5.801   5.997   0.224
 1004SOL    HW2 3912   5.931   6.086   0.267
 1005SOL     OW 3913   5.893   6.462   3.146
 1005SOL    HW1 3914   5.898   6.557   3.115
 1005SOL    HW2 3915   5.817   6.416   3.100
 1006SOL     OW 3916   1.807   4.983   0.050
 1006SOL    HW1 3917   1.888   4.960   7.021
 1006SOL    HW2 3918   1.775   5.074   0.026
 1007SOL     OW 3919   6.048   1.882   2.821
 1007SOL    HW1 3920   6.147   1.871   2.818
 1007SOL    HW2 3921   6.020   1.943   2.746
 1008SOL     OW 3922   3.344   1.762   4.988
 1008SOL    HW1 3923   3.274   1.807   4.933
 1008SOL    HW2 3924   3.419   1.732   4.929
 1009SOL     OW 3925   3.166   6.298   5.747
 1009SOL    HW1 3926   3.094   6.367   5.757
 1009SOL    HW2 3927   3.234   6.331   5.682
 1010SOL     OW 3928   5.329   6.618   5.472
 1010SOL    HW1 3929   5.258   6.589   5.537
 1010SOL    HW2 3930   5.288   6.632   5.382
 1011SOL     OW 3931   2.974   5.284   4.489
 1011SOL    HW1 3932   2.958   5.321   4.398
 1011SOL    HW2 3933   2.888   5.281   4.539
 1012SOL     OW 3934   3.708   6.468   1.302
 1012SOL    HW1 3935   3.706   6.535   1.376
 1012SOL    HW2 3936   3.720   6.515   1.214
 1013SOL     OW 3937   0.559   0.257   0.269
 1013SOL    HW1 3938   0.571   0.260   0.368
 1013SOL    HW2 3939   0.596   0.172   0.233
 1014SOL     OW 3940   6.003   7.018   6.171
 1014SOL    HW1 3941   6.052   7.016   6.085
 1014SOL    HW2 3942   6.050   0.053   6.236
 1015SOL     OW 3943   2.677   0.488   4.973
 1015SOL    HW1 3944   2.757   0.434   4.947
 1015SOL    HW2 3945   2.604   0.475   4.906
 1016SOL     OW 3946   4.071   3.158   0.965
 1016SOL    HW1 3947   3.973   3.175   0.954
 1016SOL    HW2 3948   4.089   3.059   0.963
 1017SOL     OW 3949   4.581   6.759   6.116
 1017SOL    HW1 3950   4.661   6.751   6.056
 1017SOL    HW2 3951   4.503   6.715   6.072
 1018SOL     OW 3952   1.335   1.861   1.679
 1018SOL    HW1 3953   1.347   1.768   1.644
 1018SOL    HW2 3954   1.384   1.926   1.621
 1019SOL     OW 3955   5.436   1.079   0.722
 1019SOL    HW1 3956   5.492   1.044   0.797
 1019SOL    HW2 3957   5.492   1.088   0.640
 1020SOL     OW 3958   3.697   2.046   1.707
 1020SOL    HW1 3959   3.722   2.103   1.785
 1020SOL    HW2 3960   3.627   2.093   1.652
 1021SOL     OW 3961   6.776   1.795   0.941
 1021SOL    HW1 3962   6.728   1.830   1.022
 1021SOL    HW2 3963   6.732   1.830   0.859
 1022SOL     OW 3964   3.544   3.082   0.250
 1022SOL    HW1 3965   3.485   3.097   0.170
 1022SOL    HW2 3966   3.490   3.095   0.333
 1023SOL     OW 3967   6.517   0.936   4.410
 1023SOL    HW1 3968   6.461   0.964   4.488
 1023SOL    HW2 3969   6.613   0.956   4.429
 1024SOL     OW 3970   6.396   2.247   3.426
 1024SOL    HW1 3971   6.378   2.218   3.332
 1024SOL    HW2 3972   6.442   2.336   3.425
 1025SOL     OW 3973   2.446   4.229   1.509
 1025SOL    HW1 3974   2.489   4.290   1.576
 1025SOL    HW2 3975   2.393   4.284   1.444
 1026SOL     OW 3976   0.881   2.629   6.462
 1026SOL    HW1 3977   0.919   2.546   6.421
 1026SOL    HW2 3978   0.902   2.630   6.559
 1027SOL     OW 3979   2.052   4.936   0.878
 1027SOL    HW1 3980   2.127   4.881   0.914
 1027SOL    HW2 3981   1.972   4.878   0.865
 1028SOL     OW 3982   0.529   5.256   6.854
 1028SOL    HW1 3983   0.553   5.323   6.924
 1028SOL    HW2 3984   0.469   5.187   6.893
 1029SOL     OW 3985   3.776   0.507   4.806
 1029SOL    HW1 3986   3.827   0.592   4.814
 1029SOL    HW2 3987   3.756   0.470   4.897
 1030SOL     OW 3988   4.432   5.098   4.955
 1030SOL    HW1 3989   4.351   5.120   5.010
 1030SOL    HW2 3990   4.510   5.150   4.989
 1031SOL     OW 3991   2.577   6.203   1.006
 1031SOL    HW1 3992   2.492   6.190   1.058
 1031SOL    HW2 3993   2.556   6.199   0.908
 1032SOL     OW 3994   0.971   1.770   5.711
 1032SOL    HW1 3995   0.923   1.800   5.629
 1032SOL    HW2 3996   1.062   1.736   5.687
 1033SOL     OW 3997   3.303   6.951   1.730
 1033SOL    HW1 3998   3.322   6.866   1.680
 1033SOL    HW2 3999   3.274   7.022   1.666
 1034SOL     OW 4000   0.031   6.054   2.555
 1034SOL    HW1 4001   0.115   6.044   2.502
 1034SOL    HW2 4002   6.989   6.104   2.501
 1035SOL     OW 4003   3.449   2.073   3.068
 1035SOL    HW1 4004   3.356   2.072   3.034
 1035SOL    HW2 4005   3.513   2.064   2.992
 1036SOL     OW 4006   4.755   0.091   6.398
 1036SOL    HW1 4007   4.748   0.184   6.360
 1036SOL    HW2 4008   4.851   0.069   6.415
 1037SOL     OW 4009   4.273   0.881   6.096
 1037SOL    HW1 4010   4.342   0.873   6.167
 1037SOL    HW2 4011   4.300   0.954   6.032
 1038SOL     OW 4012   2.830   1.804   5.147
 1038SOL    HW1 4013   2.916   1.849   5.127
 1038SOL    HW2 4014   2.797   1.756   5.066
 1039SOL     OW 4015   5.228   1.708   2.906
 1039SOL    HW1 4016   5.150   1.653   2.938
 1039SOL    HW2 4017   5.233   1.703   2.807
 1040SOL     OW 4018   6.114   4.588   4.443
 1040SOL    HW1 4019   6.023   4.595   4.402
 1040SOL    HW2 4020   6.183   4.583   4.370
 1041SOL     OW 4021   1.659   6.684   4.384
 1041SOL    HW1 4022   1.690   6.778   4.368
 1041SOL    HW2 4023   1.738   6.623   4.386
 1042SOL     OW 4024   4.499   4.069   0.723
 1042SOL    HW1 4025   4.512   4.019   0.808
 1042SOL    HW2 4026   4.427   4.025   0.669
 1043SOL     OW 4027   3.826   0.263   6.371
 1043SOL    HW1 4028   3.820   0.240   6.468
 1043SOL    HW2 4029   3.734   0.286   6.337
 1044SOL     OW 4030   3.581   4.004   3.527
 1044SOL    HW1 4031   3.523   4.077   3.562
 1044SOL    HW2 4032   3.671   4.010   3.569
 1045SOL     OW 4033   2.494   1.016   2.485
 1045SOL    HW1 4034   2.459   1.039   2.576
 1045SOL    HW2 4035   2.585   1.055   2.473
 1046SOL     OW 4036   2.780   0.838   2.020
 1046SOL    HW1 4037   2.819   0.843   2.112
 1046SOL    HW2 4038   2.727   0.754   2.011
 1047SOL     OW 4039   6.952   6.666   2.068
 1047SOL    HW1 4040   6.931   6.606   2.145
 1047SOL    HW2 4041   0.024   6.666   2.051
 1048SOL     OW 4042   6.196   3.839   4.809
 1048SOL    HW1 4043   6.286   3.868   4.844
 1048SOL    HW2 4044   6.206   3.753   4.759
 1049SOL     OW 4045   0.442   3.719   5.659
 1049SOL    HW1 4046   0.364   3.662   5.685
 1049SOL    HW2 4047   0.519   3.701   5.720
 1050SOL     OW 4048   2.896   0.392   1.321
 1050SOL    HW1 4049   2.835   0.360   1.393
 1050SOL    HW2 4050   2.918   0.488   1.337
 1051SOL     OW 4051   4.535   4.703   1.730
 1051SOL    HW1 4052   4.539   4.608   1.761
 1051SOL    HW2 4053   4.549   4.706   1.631
 1052SOL     OW 4054   3.034   0.129   3.817
 1052SOL    HW1 4055   2.948   0.145   3.767
 1052SOL    HW2 4056   3.038   0.033   3.845
 1053SOL     OW 4057   3.858   5.264   3.567
 1053SOL    HW1 4058   3.878   5.217   3.653
 1053SOL    HW2 4059   3.787   5.333   3.582
 1054SOL     OW 4060   4.013   6.071   5.192
 1054SOL    HW1 4061   3.955   6.132   5.245
 1054SOL    HW2 4062   3.968   5.983   5.180
 1055SOL     OW 4063   4.049   4.805   4.425
 1055SOL    HW1 4064   4.134   4.774   4.468
 1055SOL    HW2 4065   4.063   4.810   4.326
 1056SOL     OW 4066   3.014   5.679   0.421
 1056SOL    HW1 4067   3.057   5.703   0.334
 1056SOL    HW2 4068   3.073   5.615   0.471
 1057SOL     OW 4069   3.670   3.977   1.444
 1057SOL    HW1 4070   3.598   3.951   1.378
 1057SOL    HW2 4071   3.713   3.895   1.480
 1058SOL     OW 4072   2.959   0.277   2.008
 1058SOL    HW1 4073   2.871   0.317   1.979
 1058SOL    HW2 4074   2.941   0.194   2.059
 1059SOL     OW 4075   4.294   0.186   0.618
 1059SOL    HW1 4076   4.286   0.124   0.696
 1059SOL    HW2 4077   4.345   0.141   0.545
 1060SOL     OW 4078   3.597   1.631   4.049
 1060SOL    HW1 4079   3.597   1.614   3.951
 1060SOL    HW2 4080   3.551   1.718   4.068
 1061SOL     OW 4081   2.362   5.791   1.178
 1061SOL    HW1 4082   2.341   5.699   1.212
 1061SOL    HW2 4083   2.417   5.840   1.245
 1062SOL     OW 4084   5.090   4.109   4.675
 1062SOL    HW1 4085   5.059   4.075   4.586
 1062SOL    HW2 4086   5.039   4.192   4.698
 1063SOL     OW 4087   3.593   2.253   5.814
 1063SOL    HW1 4088   3.563   2.342   5.781
 1063SOL    HW2 4089   3.581   2.185   5.743
 1064SOL     OW 4090   0.473   3.770   2.886
 1064SOL    HW1 4091   0.413   3.834   2.932
 1064SOL    HW2 4092   0.448   3.764   2.789
 1065SOL     OW 4093   4.162   5.292   6.779
 1065SOL    HW1 4094   4.131   5.197   6.773
 1065SOL    HW2 4095   4.252   5.294   6.822
 1066SOL     OW 4096   5.092   0.393   3.550
 1066SOL    HW1 4097   5.127   0.300   3.545
 1066SOL    HW2 4098   5.048   0.408   3.639
 1067SOL     OW 4099   3.166   4.017   0.397
 1067SOL    HW1 4100   3.076   3.973   0.403
 1067SOL    HW2 4101   3.167   4.099   0.454
 1068SOL     OW 4102   1.039   5.559   1.651
 1068SOL    HW1 4103   1.085   5.608   1.726
 1068SOL    HW2 4104   1.104   5.497   1.607
 1069SOL     OW 4105   3.608   3.271   2.920
 1069SOL    HW1 4106   3.590   3.369   2.918
 1069SOL    HW2 4107   3.546   3.224   2.856
 1070SOL     OW 4108   1.620   6.413   0.531
 1070SOL    HW1 4109   1.637   6.323   0.490
 1070SOL    HW2 4110   1.708   6.460   0.542
 1071SOL     OW 4111   5.106   6.016   3.599
 1071SOL    HW1 4112   5.115   6.101   3.546
 1071SOL    HW2 4113   5.146   6.029   3.690
 1072SOL     OW 4114   4.224   5.864   3.556
 1072SOL    HW1 4115   4.236   5.951   3.605
 1072SOL    HW2 4116   4.265   5.871   3.465
 1073SOL     OW 4117   2.959   5.401   3.266
 1073SOL    HW1 4118   2.867   5.422   3.231
 1073SOL    HW2 4119   3.002   5.333   3.207
 1074SOL     OW 4120   1.954   4.769   3.649
 1074SOL    HW1 4121   1.874   4.809   3.693
 1074SOL    HW2 4122   1.984   4.827   3.573
 1075SOL     OW 4123   0.783   4.425   2.632
 1075SOL    HW1 4124   0.830   4.484   2.697
 1075SOL    HW2 4125   0.715   4.478   2.581
 1076SOL     OW 4126   5.893   3.413   3.115
 1076SOL    HW1 4127   5.795   3.395   3.111
 1076SOL    HW2 4128   5.925   3.402   3.209
 1077SOL     OW 4129   4.272   0.444   2.143
 1077SOL    HW1 4130   4.217   0.395   2.210
 1077SOL    HW2 4131   4.367   0.446   2.174
 1078SOL     OW 4132   6.830   2.618   2.344
 1078SOL    HW1 4133   6.844   2.521   2.326
 1078SOL    HW2 4134   6.744   2.648   2.302
 1079SOL     OW 4135   1.900   4.550   3.304
 1079SOL    HW1 4136   1.925   4.512   3.393
 1079SOL    HW2 4137   1.817   4.506   3.271
 1080SOL     OW 4138   2.140   5.508   4.019
 1080SOL    HW1 4139   2.041   5.518   4.011
 1080SOL    HW2 4140   2.183   5.599   4.018
 1081SOL     OW 4141   1.687   0.338   6.975
 1081SOL    HW1 4142   1.756   0.368   0.015
 1081SOL    HW2 4143   1.630   0.416   6.949
 1082SOL     OW 4144   2.046   0.197   1.054
 1082SOL    HW1 4145   2.033   0.134   0.978
 1082SOL    HW2 4146   2.143   0.205   1.076
 1083SOL     OW 4147   3.864   2.917   1.857
 1083SOL    HW1 4148   3.870   3.007   1.900
 1083SOL    HW2 4149   3.948   2.898   1.806
 1084SOL     OW 4150   6.023   3.766   1.204
 1084SOL    HW1 4151   6.111   3.786   1.247
 1084SOL    HW2 4152   5.960   3.729   1.273
 1085SOL     OW 4153   1.405   5.627   4.078
 1085SOL    HW1 4154   1.326   5.626   4.018
 1085SOL    HW2 4155   1.410   5.716   4.124
 1086SOL     OW 4156   2.780   5.576   2.637
 1086SOL    HW1 4157   2.784   5.618   2.728
 1086SOL    HW2 4158   2.720   5.496   2.641
 1087SOL     OW 4159   3.935   2.979   5.158
 1087SOL    HW1 4160   3.971   3.046   5.223
 1087SOL    HW2 4161   3.940   3.016   5.065
 1088SOL     OW 4162   0.055   4.389   2.520
 1088SOL    HW1 4163   0.097   4.307   2.558
 1088SOL    HW2 4164   0.001   4.435   2.590
 1089SOL     OW 4165   6.702   0.084   3.132
 1089SOL    HW1 4166   6.645   0.047   3.205
 1089SOL    HW2 4167   6.735   0.010   3.074
 1090SOL     OW 4168   2.902   2.344   6.386
 1090SOL    HW1 4169   2.896   2.362   6.288
 1090SOL    HW2 4170   2.815   2.368   6.429
 1091SOL     OW 4171   1.562   2.081   6.044
 1091SOL    HW1 4172   1.573   2.054   5.949
 1091SOL    HW2 4173   1.464   2.080   6.067
 1092SOL     OW 4174   3.132   4.860   1.595
 1092SOL    HW1 4175   3.150   4.773   1.640
 1092SOL    HW2 4176   3.177   4.934   1.644
 1093SOL     OW 4177   0.658   2.406   1.533
 1093SOL    HW1 4178   0.717   2.465   1.587
 1093SOL    HW2 4179   0.569   2.398   1.577
 1094SOL     OW 4180   0.966   6.086   2.642
 1094SOL    HW1 4181   0.920   6.123   2.561
 1094SOL    HW2 4182   0.943   5.989   2.652
 1095SOL     OW 4183   1.232   3.099   6.033
 1095SOL    HW1 4184   1.218   3.192   6.069
 1095SOL    HW2 4185   1.330   3.079   6.030
 1096SOL     OW 4186   3.566   2.870   2.612
 1096SOL    HW1 4187   3.523   2.783   2.635
 1096SOL    HW2 4188   3.566   2.930   2.692
 1097SOL     OW 4189   2.945   5.305   5.732
 1097SOL    HW1 4190   2.931   5.360   5.814
 1097SOL    HW2 4191   2.862   5.254   5.711
 1098SOL     OW 4192   3.029   0.709   2.713
 1098SOL    HW1 4193   2.965   0.749   2.778
 1098SOL    HW2 4194   3.059   0.619   2.746
 1099SOL     OW 4195   3.251   0.580   2.242
 1099SOL    HW1 4196   3.251   0.661   2.184
 1099SOL    HW2 4197   3.223   0.500   2.188
 1100SOL     OW 4198   6.679   0.880   0.372
 1100SOL    HW1 4199   6.747   0.875   0.445
 1100SOL    HW2 4200   6.699   0.809   0.303
 1101SOL     OW 4201   5.923   3.912   1.017
 1101SOL    HW1 4202   5.834   3.942   1.050
 1101SOL    HW2 4203   5.960   3.842   1.077
 1102SOL     OW 4204   0.245   3.924   4.172
 1102SOL    HW1 4205   0.191   4.008   4.183
 1102SOL    HW2 4206   0.205   3.852   4.229
 1103SOL     OW 4207   0.557   2.662   0.046
 1103SOL    HW1 4208   0.570   2.562   0.046
 1103SOL    HW2 4209   0.600   2.701   0.127
 1104SOL     OW 4210   2.669   5.546   5.759
 1104SOL    HW1 4211   2.637   5.640   5.757
 1104SOL    HW2 4212   2.628   5.495   5.683
 1105SOL     OW 4213   3.959   5.893   0.616
 1105SOL    HW1 4214   4.049   5.924   0.585
 1105SOL    HW2 4215   3.903   5.869   0.538
 1106SOL     OW 4216   0.528   1.413   6.829
 1106SOL    HW1 4217   0.619   1.404   6.789
 1106SOL    HW2 4218   0.512   1.337   6.892
 1107SOL     OW 4219   6.789   0.212   1.435
 1107SOL    HW1 4220   6.710   0.268   1.461
 1107SOL    HW2 4221   6.758   0.131   1.387
 1108SOL     OW 4222   1.564   1.171   0.478
 1108SOL    HW1 4223   1.464   1.167   0.472
 1108SOL    HW2 4224   1.591   1.231   0.553
 1109SOL     OW 4225   4.019   1.399   3.614
 1109SOL    HW1 4226   4.087   1.460   3.572
 1109SOL    HW2 4227   4.058   1.357   3.696
 1110SOL     OW 4228   3.848   3.234   3.084
 1110SOL    HW1 4229   3.900   3.213   3.166
 1110SOL    HW2 4230   3.758   3.191   3.089
 1111SOL     OW 4231   3.932   6.553   6.455
 1111SOL    HW1 4232   4.007   6.517   6.510
 1111SOL    HW2 4233   3.946   6.651   6.439
 1112SOL     OW 4234   0.976   1.289   2.930
 1112SOL    HW1 4235   0.993   1.382   2.898
 1112SOL    HW2 4236   0.945   1.292   3.025
 1113SOL     OW 4237   6.595   4.113   1.853
 1113SOL    HW1 4238   6.507   4.106   1.900
 1113SOL    HW2 4239   6.592   4.056   1.770
 1114SOL     OW 4240   5.868   1.175   5.712
 1114SOL    HW1 4241   5.888   1.086   5.752
 1114SOL    HW2 4242   5.919   1.185   5.627
 1115SOL     OW 4243   2.257   5.233   0.667
 1115SOL    HW1 4244   2.178   5.295   0.668
 1115SOL    HW2 4245   2.307   5.241   0.753
 1116SOL     OW 4246   3.659   6.245   6.482
 1116SOL    HW1 4247   3.605   6.189   6.420
 1116SOL    HW2 4248   3.696   6.188   6.555
 1117SOL     OW 4249   2.689   3.021   0.432
 1117SOL    HW1 4250   2.650   3.104   0.472
 1117SOL    HW2 4251   2.639   2.997   0.349
 1118SOL     OW 4252   1.585   2.634   1.232
 1118SOL    HW1 4253   1.656   2.691   1.190
 1118SOL    HW2 4254   1.624   2.546   1.257
 1119SOL     OW 4255   3.101   3.617   3.716
 1119SOL    HW1 4256   3.098   3.711   3.750
 1119SOL    HW2 4257   3.054   3.557   3.781
 1120SOL     OW 4258   3.415   1.083   3.700
 1120SOL    HW1 4259   3.474   1.142   3.755
 1120SOL    HW2 4260   3.322   1.121   3.700
 1121SOL     OW 4261   4.931   4.004   3.155
 1121SOL    HW1 4262   4.934   3.961   3.246
 1121SOL    HW2 4263   5.021   3.996   3.112
 1122SOL     OW 4264   4.363   4.830   6.469
 1122SOL    HW1 4265   4.455   4.867   6.463
 1122SOL    HW2 4266   4.363   4.750   6.528
 1123SOL     OW 4267   3.650   0.503   2.056
 1123SOL    HW1 4268   3.718   0.466   2.119
 1123SOL    HW2 4269   3.610   0.586   2.095
 1124SOL     OW 4270   2.386   5.171   3.584
 1124SOL    HW1 4271   2.362   5.094   3.644
 1124SOL    HW2 4272   2.322   5.174   3.507
 1125SOL     OW 4273   3.470   4.323   5.447
 1125SOL    HW1 4274   3.422   4.263   5.383
 1125SOL    HW2 4275   3.408   4.351   5.520
 1126SOL     OW 4276   6.448   0.489   1.864
 1126SOL    HW1 4277   6.477   0.573   1.909
 1126SOL    HW2 4278   6.348   0.484   1.864
 1127SOL     OW 4279   2.330   5.632   5.943
 1127SOL    HW1 4280   2.266   5.648   6.018
 1127SOL    HW2 4281   2.286   5.652   5.856
 1128SOL     OW 4282   2.157   2.502   5.129
 1128SOL    HW1 4283   2.177   2.584   5.181
 1128SOL    HW2 4284   2.058   2.488   5.124
 1129SOL     OW 4285   4.377   5.277   6.454
 1129SOL    HW1 4286   4.428   5.230   6.526
 1129SOL    HW2 4287   4.323   5.351   6.494
 1130SOL     OW 4288   1.574   5.454   5.693
 1130SOL    HW1 4289   1.574   5.449   5.793
 1130SOL    HW2 4290   1.554   5.548   5.664
 1131SOL     OW 4291   0.083   4.479   6.286
 1131SOL    HW1 4292   0.016   4.413   6.251
 1131SOL    HW2 4293   0.140   4.512   6.211
 1132SOL     OW 4294   5.307   6.762   5.157
 1132SOL    HW1 4295   5.240   6.821   5.110
 1132SOL    HW2 4296   5.310   6.673   5.110
 1133SOL     OW 4297   6.572   1.635   6.542
 1133SOL    HW1 4298   6.589   1.552   6.489
 1133SOL    HW2 4299   6.488   1.678   6.510
 1134SOL     OW 4300   0.228   3.279   5.044
 1134SOL    HW1 4301   0.166   3.354   5.065
 1134SOL    HW2 4302   0.306   3.281   5.106
 1135SOL     OW 4303   0.052   1.908   4.208
 1135SOL    HW1 4304   0.054   1.827   4.149
 1135SOL    HW2 4305   7.024   1.980   4.164
 1136SOL     OW 4306   3.863   5.322   3.965
 1136SOL    HW1 4307   3.851   5.240   3.910
 1136SOL    HW2 4308   3.775   5.367   3.978
 1137SOL     OW 4309   0.705   0.448   0.075
 1137SOL    HW1 4310   0.668   0.522   0.132
 1137SOL    HW2 4311   0.674   0.360   0.109
 1138SOL     OW 4312   1.054   2.981   5.576
 1138SOL    HW1 4313   1.075   2.934   5.661
 1138SOL    HW2 4314   1.132   2.974   5.514
 1139SOL     OW 4315   0.601   0.335   2.684
 1139SOL    HW1 4316   0.652   0.251   2.666
 1139SOL    HW2 4317   0.513   0.332   2.637
 1140SOL     OW 4318   4.165   1.932   3.331
 1140SOL    HW1 4319   4.085   1.920   3.390
 1140SOL    HW2 4320   4.161   1.868   3.255
 1141SOL     OW 4321   0.154   6.557   6.006
 1141SOL    HW1 4322   0.186   6.603   6.089
 1141SOL    HW2 4323   0.141   6.625   5.934
 1142SOL     OW 4324   6.321   6.907   5.139
 1142SOL    HW1 4325   6.416   6.939   5.146
 1142SOL    HW2 4326   6.311   6.822   5.191
 1143SOL     OW 4327   5.470   2.851   1.367
 1143SOL    HW1 4328   5.411   2.783   1.412
 1143SOL    HW2 4329   5.556   2.859   1.419
 1144SOL     OW 4330   1.156   6.478   4.825
 1144SOL    HW1 4331   1.197   6.417   4.893
 1144SOL    HW2 4332   1.092   6.427   4.768
 1145SOL     OW 4333   2.533   5.230   4.971
 1145SOL    HW1 4334   2.471   5.153   4.957
 1145SOL    HW2 4335   2.622   5.195   5.003
 1146SOL     OW 4336   5.800   1.910   1.944
 1146SOL    HW1 4337   5.771   1.822   1.982
 1146SOL    HW2 4338   5.810   1.903   1.845
 1147SOL     OW 4339   6.312   4.139   1.956
 1147SOL    HW1 4340   6.328   4.145   2.055
 1147SOL    HW2 4341   6.231   4.082   1.939
 1148SOL     OW 4342   6.323   6.982   6.313
 1148SOL    HW1 4343   6.297   0.026   6.247
 1148SOL    HW2 4344   6.274   6.997   6.399
 1149SOL     OW 4345   4.924   3.433   2.966
 1149SOL    HW1 4346   4.910   3.435   2.868
 1149SOL    HW2 4347   4.908   3.523   3.005
 1150SOL     OW 4348   1.863   6.139   5.442
 1150SOL    HW1 4349   1.773   6.180   5.427
 1150SOL    HW2 4350   1.909   6.128   5.354
 1151SOL     OW 4351   2.424   5.353   0.185
 1151SOL    HW1 4352   2.423   5.451   0.205
 1151SOL    HW2 4353   2.335   5.325   0.149
 1152SOL     OW 4354   6.555   0.591   3.476
 1152SOL    HW1 4355   6.496   0.549   3.545
 1152SOL    HW2 4356   6.522   0.684   3.456
 1153SOL     OW 4357   2.136   4.250   2.602
 1153SOL    HW1 4358   2.166   4.337   2.641
 1153SOL    HW2 4359   2.201   4.179   2.627
 1154SOL     OW 4360   1.876   4.334   2.254
 1154SOL    HW1 4361   1.924   4.293   2.332
 1154SOL    HW2 4362   1.783   4.357   2.280
 1155SOL     OW 4363   5.072   0.544   2.317
 1155SOL    HW1 4364   5.050   0.613   2.386
 1155SOL    HW2 4365   5.145   0.485   2.350
 1156SOL     OW 4366   2.306   0.666   4.647
 1156SOL    HW1 4367   2.295   0.732   4.721
 1156SOL    HW2 4368   2.285   0.574   4.680
 1157SOL     OW 4369   1.342   3.497   3.702
 1157SOL    HW1 4370   1.414   3.442   3.744
 1157SOL    HW2 4371   1.254   3.475   3.746
 1158SOL     OW 4372   4.713   5.338   5.805
 1158SOL    HW1 4373   4.636   5.278   5.784
 1158SOL    HW2 4374   4.741   5.324   5.900
 1159SOL     OW 4375   6.226   4.413   2.667
 1159SOL    HW1 4376   6.164   4.377   2.736
 1159SOL    HW2 4377   6.253   4.506   2.692
 1160SOL     OW 4378   2.695   2.403   1.358
 1160SOL    HW1 4379   2.665   2.358   1.442
 1160SOL    HW2 4380   2.626   2.389   1.287
 1161SOL     OW 4381   3.873   1.016   3.516
 1161SOL    HW1 4382   3.952   1.016   3.578
 1161SOL    HW2 4383   3.891   0.956   3.439
 1162SOL     OW 4384   3.588   5.222   1.704
 1162SOL    HW1 4385   3.610   5.276   1.622
 1162SOL    HW2 4386   3.514   5.267   1.754
 1163SOL     OW 4387   5.118   6.676   2.551
 1163SOL    HW1 4388   5.023   6.648   2.533
 1163SOL    HW2 4389   5.176   6.643   2.477
 1164SOL     OW 4390   6.778   4.415   4.519
 1164SOL    HW1 4391   6.862   4.468   4.531
 1164SOL    HW2 4392   6.767   4.391   4.423
 1165SOL     OW 4393   0.333   4.958   1.914
 1165SOL    HW1 4394   0.324   5.053   1.945
 1165SOL    HW2 4395   0.394   4.955   1.835
 1166SOL     OW 4396   3.637   0.477   6.653
 1166SOL    HW1 4397   3.696   0.448   6.729
 1166SOL    HW2 4398   3.541   0.470   6.680
 1167SOL     OW 4399   4.624   1.516   5.542
 1167SOL    HW1 4400   4.565   1.529   5.462
 1167SOL    HW2 4401   4.599   1.583   5.612
 1168SOL     OW 4402   5.498   1.079   3.955
 1168SOL    HW1 4403   5.461   1.004   3.901
 1168SOL    HW2 4404   5.511   1.159   3.897
 1169SOL     OW 4405   1.702   2.389   0.788
 1169SOL    HW1 4406   1.681   2.487   0.792
 1169SOL    HW2 4407   1.725   2.356   0.879
 1170SOL     OW 4408   2.633   0.796   1.666
 1170SOL    HW1 4409   2.548   0.838   1.633
 1170SOL    HW2 4410   2.710   0.831   1.613
 1171SOL     OW 4411   4.355   0.868   0.871
 1171SOL    HW1 4412   4.367   0.862   0.970
 1171SOL    HW2 4413   4.312   0.785   0.837
 1172SOL     OW 4414   3.391   3.208   5.774
 1172SOL    HW1 4415   3.407   3.169   5.684
 1172SOL    HW2 4416   3.478   3.225   5.820
 1173SOL     OW 4417   5.630   6.344   6.190
 1173SOL    HW1 4418   5.580   6.320   6.272
 1173SOL    HW2 4419   5.568   6.386   6.123
 1174SOL     OW 4420   3.735   5.959   6.583
 1174SOL    HW1 4421   3.791   5.878   6.566
 1174SOL    HW2 4422   3.656   5.933   6.639
 1175SOL     OW 4423   0.203   5.271   4.568
 1175SOL    HW1 4424   0.181   5.177   4.546
 1175SOL    HW2 4425   0.144   5.303   4.642
 1176SOL     OW 4426   6.222   3.618   1.725
 1176SOL    HW1 4427   6.284   3.582   1.654
 1176SOL    HW2 4428   6.183   3.541   1.776
 1177SOL     OW 4429   6.427   3.406   5.707
 1177SOL    HW1 4430   6.369   3.343   5.759
 1177SOL    HW2 4431   6.384   3.427   5.619
 1178SOL     OW 4432   4.112   5.267   2.515
 1178SOL    HW1 4433   4.194   5.323   2.522
 1178SOL    HW2 4434   4.135   5.180   2.472
 1179SOL     OW 4435   1.465   5.087   6.139
 1179SOL    HW1 4436   1.500   5.043   6.056
 1179SOL    HW2 4437   1.458   5.020   6.213
 1180SOL     OW 4438   2.061   1.086   4.079
 1180SOL    HW1 4439   2.029   1.007   4.028
 1180SOL    HW2 4440   2.132   1.133   4.027
 1181SOL     OW 4441   1.603   4.378   2.270
 1181SOL    HW1 4442   1.593   4.447   2.342
 1181SOL    HW2 4443   1.549   4.405   2.190
 1182SOL     OW 4444   0.565   3.477   4.456
 1182SOL    HW1 4445   0.593   3.442   4.367
 1182SOL    HW2 4446   0.547   3.575   4.449
 1183SOL     OW 4447   4.174   5.632   0.811
 1183SOL    HW1 4448   4.141   5.613   0.719
 1183SOL    HW2 4449   4.104   5.680   0.864
 1184SOL     OW 4450   3.646   2.975   6.496
 1184SOL    HW1 4451   3.691   2.951   6.410
 1184SOL    HW2 4452   3.553   3.007   6.478
 1185SOL     OW 4453   3.101   1.453   6.443
 1185SOL    HW1 4454   3.111   1.385   6.370
 1185SOL    HW2 4455   3.181   1.512   6.445
 1186SOL     OW 4456   3.972   0.123   5.020
 1186SOL    HW1 4457   3.905   0.053   5.045
 1186SOL    HW2 4458   3.941   0.213   5.052
 1187SOL     OW 4459   0.542   2.211   4.580
 1187SOL    HW1 4460   0.464   2.260   4.540
 1187SOL    HW2 4461   0.521   2.114   4.587
 1188SOL     OW 4462   1.957   0.960   5.438
 1188SOL    HW1 4463   1.908   0.885   5.395
 1188SOL    HW2 4464   1.898   1.041   5.441
 1189SOL     OW 4465   1.152   1.124   1.262
 1189SOL    HW1 4466   1.100   1.207   1.284
 1189SOL    HW2 4467   1.117   1.048   1.317
 1190SOL     OW 4468   3.489   5.960   2.290
 1190SOL    HW1 4469   3.557   5.887   2.300
 1190SOL    HW2 4470   3.397   5.921   2.294
 1191SOL     OW 4471   2.201   4.139   1.998
 1191SOL    HW1 4472   2.271   4.205   2.025
 1191SOL    HW2 4473   2.111   4.183   1.998
 1192SOL     OW 4474   3.520   5.569   2.818
 1192SOL    HW1 4475   3.478   5.619   2.894
 1192SOL    HW2 4476   3.618   5.586   2.817
 1193SOL     OW 4477   3.084   1.396   3.623
 1193SOL    HW1 4478   3.055   1.458   3.696
 1193SOL    HW2 4479   3.164   1.434   3.577
 1194SOL     OW 4480   6.499   2.070   2.780
 1194SOL    HW1 4481   6.521   2.023   2.694
 1194SOL    HW2 4482   6.409   2.113   2.772
 1195SOL     OW 4483   3.359   0.223   0.233
 1195SOL    HW1 4484   3.264   0.234   0.261
 1195SOL    HW2 4485   3.380   0.126   0.223
 1196SOL     OW 4486   1.950   5.366   3.480
 1196SOL    HW1 4487   1.934   5.426   3.558
 1196SOL    HW2 4488   1.929   5.415   3.396
 1197SOL     OW 4489   3.599   5.066   6.910
 1197SOL    HW1 4490   3.628   5.123   6.833
 1197SOL    HW2 4491   3.513   5.101   6.947
 1198SOL     OW 4492   3.081   1.008   3.440
 1198SOL    HW1 4493   3.022   1.069   3.388
 1198SOL    HW2 4494   3.177   1.031   3.422
 1199SOL     OW 4495   3.671   4.116   3.843
 1199SOL    HW1 4496   3.728   4.105   3.762
 1199SOL    HW2 4497   3.615   4.198   3.833
 1200SOL     OW 4498   4.674   3.925   1.322
 1200SOL    HW1 4499   4.651   4.007   1.374
 1200SOL    HW2 4500   4.712   3.951   1.234
 1201SOL     OW 4501   1.804   2.131   5.171
 1201SOL    HW1 4502   1.758   2.045   5.148
 1201SOL    HW2 4503   1.898   2.112   5.199
 1202SOL     OW 4504   6.070   6.540   4.466
 1202SOL    HW1 4505   5.977   6.548   4.502
 1202SOL    HW2 4506   6.069   6.561   4.368
 1203SOL     OW 4507   6.008   0.204   2.182
 1203SOL    HW1 4508   5.998   0.304   2.185
 1203SOL    HW2 4509   6.079   0.176   2.246
 1204SOL     OW 4510   2.205   6.624   0.287
 1204SOL    HW1 4511   2.228   6.701   0.346
 1204SOL    HW2 4512   2.288   6.570   0.269
 1205SOL     OW 4513   0.670   3.598   5.808
 1205SOL    HW1 4514   0.617   3.613   5.892
 1205SOL    HW2 4515   0.767   3.597   5.829
 1206SOL     OW 4516   6.243   1.298   5.305
 1206SOL    HW1 4517   6.188   1.322   5.384
 1206SOL    HW2 4518   6.323   1.357   5.300
 1207SOL     OW 4519   6.491   6.033   6.235
 1207SOL    HW1 4520   6.493   6.123   6.191
 1207SOL    HW2 4521   6.535   6.040   6.325
 1208SOL     OW 4522   3.644   3.641   2.556
 1208SOL    HW1 4523   3.558   3.693   2.556
 1208SOL    HW2 4524   3.718   3.699   2.521
 1209SOL     OW 4525   6.822   3.942   5.132
 1209SOL    HW1 4526   6.879   3.947   5.050
 1209SOL    HW2 4527   6.746   3.879   5.116
 1210SOL     OW 4528   2.534   0.331   3.377
 1210SOL    HW1 4529   2.472   0.317   3.300
 1210SOL    HW2 4530   2.613   0.271   3.367
 1211SOL     OW 4531   6.894   3.569   3.522
 1211SOL    HW1 4532   6.853   3.512   3.451
 1211SOL    HW2 4533   6.916   3.512   3.602
 1212SOL     OW 4534   0.957   4.571   3.207
 1212SOL    HW1 4535   0.913   4.493   3.251
 1212SOL    HW2 4536   1.040   4.540   3.161
 1213SOL     OW 4537   5.766   3.854   4.891
 1213SOL    HW1 4538   5.731   3.946   4.878
 1213SOL    HW2 4539   5.822   3.827   4.812
 1214SOL     OW 4540   0.823   1.869   1.147
 1214SOL    HW1 4541   0.732   1.910   1.144
 1214SOL    HW2 4542   0.819   1.783   1.198
 1215SOL     OW 4543   0.768   5.785   2.266
 1215SOL    HW1 4544   0.864   5.815   2.264
 1215SOL    HW2 4545   0.722   5.815   2.183
 1216SOL     OW 4546   2.345   6.639   1.324
 1216SOL    HW1 4547   2.430   6.649   1.375
 1216SOL    HW2 4548   2.351   6.689   1.238
 1217SOL     OW 4549   1.890   2.782   3.154
 1217SOL    HW1 4550   1.931   2.787   3.245
 1217SOL    HW2 4551   1.960   2.802   3.085
 1218SOL     OW 4552   0.291   3.969   3.205
 1218SOL    HW1 4553   0.266   3.873   3.191
 1218SOL    HW2 4554   0.382   3.975   3.246
 1219SOL     OW 4555   2.009   6.105   3.281
 1219SOL    HW1 4556   2.076   6.095   3.355
 1219SOL    HW2 4557   1.917   6.106   3.320
 1220SOL     OW 4558   6.441   5.148   2.577
 1220SOL    HW1 4559   6.493   5.113   2.499
 1220SOL    HW2 4560   6.491   5.224   2.619
 1221SOL     OW 4561   4.803   4.691   6.669
 1221SOL    HW1 4562   4.764   4.655   6.754
 1221SOL    HW2 4563   4.875   4.756   6.691
 1222SOL     OW 4564   6.668   4.551   1.580
 1222SOL    HW1 4565   6.586   4.558   1.523
 1222SOL    HW2 4566   6.749   4.565   1.523
 1223SOL     OW 4567   0.454   4.663   4.452
 1223SOL    HW1 4568   0.399   4.600   4.506
 1223SOL    HW2 4569   0.547   4.667   4.490
 1224SOL     OW 4570   4.395   4.271   1.368
 1224SOL    HW1 4571   4.374   4.176   1.348
 1224SOL    HW2 4572   4.328   4.307   1.433
 1225SOL     OW 4573   5.272   1.325   6.668
 1225SOL    HW1 4574   5.233   1.264   6.736
 1225SOL    HW2 4575   5.217   1.323   6.585
 1226SOL     OW 4576   5.744   5.496   0.721
 1226SOL    HW1 4577   5.785   5.564   0.661
 1226SOL    HW2 4578   5.814   5.460   0.783
 1227SOL     OW 4579   5.274   4.436   6.931
 1227SOL    HW1 4580   5.374   4.445   6.923
 1227SOL    HW2 4581   5.245   4.349   6.891
 1228SOL     OW 4582   4.125   3.671   4.889
 1228SOL    HW1 4583   4.093   3.697   4.979
 1228SOL    HW2 4584   4.225   3.682   4.884
 1229SOL     OW 4585   2.323   5.387   2.037
 1229SOL    HW1 4586   2.330   5.436   2.124
 1229SOL    HW2 4587   2.274   5.301   2.051
 1230SOL     OW 4588   4.934   4.613   6.995
 1230SOL    HW1 4589   4.848   4.657   6.972
 1230SOL    HW2 4590   4.990   4.675   0.024
 1231SOL     OW 4591   1.747   0.236   0.767
 1231SOL    HW1 4592   1.779   0.149   0.729
 1231SOL    HW2 4593   1.712   0.293   0.693
 1232SOL     OW 4594   2.395   1.781   5.660
 1232SOL    HW1 4595   2.469   1.714   5.668
 1232SOL    HW2 4596   2.320   1.754   5.721
 1233SOL     OW 4597   0.265   5.546   4.436
 1233SOL    HW1 4598   0.201   5.565   4.511
 1233SOL    HW2 4599   0.216   5.502   4.361
 1234SOL     OW 4600   6.921   4.600   5.410
 1234SOL    HW1 4601   6.935   4.587   5.509
 1234SOL    HW2 4602   6.972   4.531   5.360
 1235SOL     OW 4603   6.291   5.533   1.029
 1235SOL    HW1 4604   6.205   5.583   1.032
 1235SOL    HW2 4605   6.284   5.458   0.963
 1236SOL     OW 4606   0.285   0.725   2.655
 1236SOL    HW1 4607   0.340   0.668   2.716
 1236SOL    HW2 4608   0.345   0.787   2.604
 1237SOL     OW 4609   0.586   0.462   4.202
 1237SOL    HW1 4610   0.513   0.478   4.136
 1237SOL    HW2 4611   0.579   0.368   4.236
 1238SOL     OW 4612   0.502   1.174   4.163
 1238SOL    HW1 4613   0.416   1.137   4.126
 1238SOL    HW2 4614   0.532   1.118   4.240
 1239SOL     OW 4615   5.328   4.781   3.864
 1239SOL    HW1 4616   5.233   4.783   3.835
 1239SOL    HW2 4617   5.356   4.686   3.880
 1240SOL     OW 4618   0.829   4.632   1.419
 1240SOL    HW1 4619   0.779   4.627   1.333
 1240SOL    HW2 4620   0.784   4.698   1.479
 1241SOL     OW 4621   3.883   5.251   6.179
 1241SOL    HW1 4622   3.794   5.227   6.218
 1241SOL    HW2 4623   3.955   5.222   6.241
 1242SOL     OW 4624   2.153   5.484   1.112
 1242SOL    HW1 4625   2.201   5.488   1.024
 1242SOL    HW2 4626   2.065   5.530   1.103
 1243SOL     OW 4627   0.211   3.672   3.677
 1243SOL    HW1 4628   0.146   3.688   3.603
 1243SOL    HW2 4629   0.181   3.721   3.759
 1244SOL     OW 4630   0.045   6.905   4.726
 1244SOL    HW1 4631   0.097   6.961   4.791
 1244SOL    HW2 4632   6.975   6.932   4.727
 1245SOL     OW 4633   4.441   0.835   1.576
 1245SOL    HW1 4634   4.434   0.736   1.560
 1245SOL    HW2 4635   4.413   0.856   1.669
 1246SOL     OW 4636   5.016   2.730   2.109
 1246SOL    HW1 4637   5.055   2.685   2.028
 1246SOL    HW2 4638   5.046   2.682   2.192
 1247SOL     OW 4639   5.040   6.943   2.479
 1247SOL    HW1 4640   5.017   0.004   2.523
 1247SOL    HW2 4641   5.135   6.920   2.498
 1248SOL     OW 4642   0.484   0.178   4.723
 1248SOL    HW1 4643   0.570   0.221   4.753
 1248SOL    HW2 4644   0.448   0.122   4.797
 1249SOL     OW 4645   6.630   6.858   6.753
 1249SOL    HW1 4646   6.673   6.947   6.767
 1249SOL    HW2 4647   6.643   6.802   6.834
 1250SOL     OW 4648   0.606   4.450   5.377
 1250SOL    HW1 4649   0.671   4.421   5.307
 1250SOL    HW2 4650   0.535   4.506   5.335
 1251SOL     OW 4651   2.366   0.700   3.054
 1251SOL    HW1 4652   2.401   0.701   3.148
 1251SOL    HW2 4653   2.266   0.704   3.056
 1252SOL     OW 4654   2.229   5.101   6.344
 1252SOL    HW1 4655   2.251   5.024   6.403
 1252SOL    HW2 4656   2.241   5.074   6.248
 1253SOL     OW 4657   2.885   5.738   0.657
 1253SOL    HW1 4658   2.949   5.799   0.610
 1253SOL    HW2 4659   2.812   5.792   0.699
 1254SOL     OW 4660   6.425   0.663   3.998
 1254SOL    HW1 4661   6.327   0.663   3.979
 1254SOL    HW2 4662   6.456   0.756   4.014
 1255SOL     OW 4663   6.382   2.203   6.148
 1255SOL    HW1 4664   6.363   2.107   6.170
 1255SOL    HW2 4665   6.395   2.254   6.233
 1256SOL     OW 4666   0.008   5.815   6.267
 1256SOL    HW1 4667   0.066   5.897   6.266
 1256SOL    HW2 4668   6.962   5.826   6.336
 1257SOL     OW 4669   6.985   6.536   3.015
 1257SOL    HW1 4670   7.007   6.482   2.934
 1257SOL    HW2 4671   7.012   6.631   2.999
 1258SOL     OW 4672   5.204   5.645   6.468
 1258SOL    HW1 4673   5.146   5.600   6.401
 1258SOL    HW2 4674   5.147   5.696   6.533
 1259SOL     OW 4675   6.152   6.415   4.837
 1259SOL    HW1 4676   6.177   6.411   4.740
 1259SOL    HW2 4677   6.088   6.491   4.851
 1260SOL     OW 4678   3.584   1.046   0.679
 1260SOL    HW1 4679   3.570   1.094   0.766
 1260SOL    HW2 4680   3.529   0.963   0.678
 1261SOL     OW 4681   0.473   4.373   4.837
 1261SOL    HW1 4682   0.522   4.456   4.810
 1261SOL    HW2 4683   0.476   4.362   4.936
 1262SOL     OW 4684   4.322   6.382   1.405
 1262SOL    HW1 4685   4.293   6.417   1.316
 1262SOL    HW2 4686   4.316   6.454   1.473
 1263SOL     OW 4687   6.944   1.635   1.285
 1263SOL    HW1 4688   6.901   1.675   1.366
 1263SOL    HW2 4689   6.985   1.707   1.230
 1264SOL     OW 4690   5.847   2.815   4.923
 1264SOL    HW1 4691   5.874   2.901   4.966
 1264SOL    HW2 4692   5.761   2.783   4.964
 1265SOL     OW 4693   5.538   4.932   4.819
 1265SOL    HW1 4694   5.469   4.860   4.825
 1265SOL    HW2 4695   5.571   4.939   4.725
 1266SOL     OW 4696   2.761   0.390   3.909
 1266SOL    HW1 4697   2.783   0.483   3.937
 1266SOL    HW2 4698   2.755   0.386   3.809
 1267SOL     OW 4699   0.429   4.395   2.288
 1267SOL    HW1 4700   0.386   4.316   2.244
 1267SOL    HW2 4701   0.458   4.460   2.217
 1268SOL     OW 4702   6.167   4.798   7.018
 1268SOL    HW1 4703   6.110   4.748   6.953
 1268SOL    HW2 4704   6.230   4.736   0.038
 1269SOL     OW 4705   0.996   4.368   6.155
 1269SOL    HW1 4706   0.914   4.322   6.121
 1269SOL    HW2 4707   1.064   4.299   6.181
 1270SOL     OW 4708   1.813   2.584   4.366
 1270SOL    HW1 4709   1.800   2.533   4.452
 1270SOL    HW2 4710   1.866   2.528   4.303
 1271SOL     OW 4711   5.627   3.335   3.148
 1271SOL    HW1 4712   5.556   3.389   3.193
 1271SOL    HW2 4713   5.668   3.272   3.214
 1272SOL     OW 4714   5.998   6.673   6.863
 1272SOL    HW1 4715   5.974   6.763   6.900
 1272SOL    HW2 4716   6.057   6.625   6.928
 1273SOL     OW 4717   3.159   6.696   5.054
 1273SOL    HW1 4718   3.082   6.742   5.009
 1273SOL    HW2 4719   3.241   6.705   4.997
 1274SOL     OW 4720   5.311   2.749   1.913
 1274SOL    HW1 4721   5.283   2.805   1.991
 1274SOL    HW2 4722   5.235   2.691   1.884
 1275SOL     OW 4723   3.391   1.051   4.046
 1275SOL    HW1 4724   3.340   0.965   4.054
 1275SOL    HW2 4725   3.331   1.120   4.006
 1276SOL     OW 4726   5.190   6.833   2.756
 1276SOL    HW1 4727   5.139   6.814   2.840
 1276SOL    HW2 4728   5.155   6.776   2.682
 1277SOL     OW 4729   0.684   1.833   4.551
 1277SOL    HW1 4730   0.775   1.868   4.531
 1277SOL    HW2 4731   0.626   1.843   4.470
 1278SOL     OW 4732   3.157   1.769   4.516
 1278SOL    HW1 4733   3.165   1.711   4.597
 1278SOL    HW2 4734   3.101   1.849   4.539
 1279SOL     OW 4735   1.805   5.021   0.541
 1279SOL    HW1 4736   1.720   5.015   0.594
 1279SOL    HW2 4737   1.881   4.988   0.596
 1280SOL     OW 4738   1.298   5.923   3.347
 1280SOL    HW1 4739   1.327   5.975   3.427
 1280SOL    HW2 4740   1.310   5.825   3.364
 1281SOL     OW 4741   0.532   6.594   4.219
 1281SOL    HW1 4742   0.573   6.503   4.215
 1281SOL    HW2 4743   0.583   6.651   4.284
 1282SOL     OW 4744   1.379   6.788   2.502
 1282SOL    HW1 4745   1.445   6.717   2.524
 1282SOL    HW2 4746   1.427   6.865   2.459
 1283SOL     OW 4747   5.404   4.185   5.344
 1283SOL    HW1 4748   5.316   4.231   5.357
 1283SOL    HW2 4749   5.389   4.086   5.346
 1284SOL     OW 4750   2.862   2.044   2.926
 1284SOL    HW1 4751   2.860   2.144   2.925
 1284SOL    HW2 4752   2.929   2.013   2.993
 1285SOL     OW 4753   5.977   2.502   5.617
 1285SOL    HW1 4754   5.993   2.530   5.712
 1285SOL    HW2 4755   5.974   2.402   5.612
 1286SOL     OW 4756   5.437   5.793   0.976
 1286SOL    HW1 4757   5.531   5.765   0.955
 1286SOL    HW2 4758   5.395   5.832   0.894
 1287SOL     OW 4759   5.818   3.759   5.846
 1287SOL    HW1 4760   5.914   3.770   5.869
 1287SOL    HW2 4761   5.777   3.687   5.903
 1288SOL     OW 4762   6.908   3.393   3.735
 1288SOL    HW1 4763   6.982   3.326   3.730
 1288SOL    HW2 4764   6.931   3.465   3.800
 1289SOL     OW 4765   0.440   5.233   2.982
 1289SOL    HW1 4766   0.534   5.212   2.953
 1289SOL    HW2 4767   0.385   5.254   2.901
 1290SOL     OW 4768   6.352   6.903   2.001
 1290SOL    HW1 4769   6.403   6.908   1.915
 1290SOL    HW2 4770   6.417   6.890   2.077
 1291SOL     OW 4771   1.480   6.106   1.623
 1291SOL    HW1 4772   1.549   6.109   1.695
 1291SOL    HW2 4773   1.421   6.187   1.630
 1292SOL     OW 4774   1.712   6.228   0.790
 1292SOL    HW1 4775   1.646   6.255   0.860
 1292SOL    HW2 4776   1.686   6.140   0.751
 1293SOL     OW 4777   6.159   1.594   6.602
 1293SOL    HW1 4778   6.099   1.617   6.678
 1293SOL    HW2 4779   6.191   1.500   6.611
 1294SOL     OW 4780   0.615   1.846   3.720
 1294SOL    HW1 4781   0.518   1.844   3.699
 1294SOL    HW2 4782   0.630   1.891   3.808
 1295SOL     OW 4783   4.824   4.469   0.932
 1295SOL    HW1 4784   4.889   4.539   0.959
 1295SOL    HW2 4785   4.852   4.380   0.969
 1296SOL     OW 4786   3.718   1.624   0.658
 1296SOL    HW1 4787   3.639   1.591   0.709
 1296SOL    HW2 4788   3.709   1.722   0.642
 1297SOL     OW 4789   6.302   0.997   6.259
 1297SOL    HW1 4790   6.376   0.930   6.244
 1297SOL    HW2 4791   6.268   1.029   6.171
 1298SOL     OW 4792   6.266   2.594   3.418
 1298SOL    HW1 4793   6.263   2.634   3.510
 1298SOL    HW2 4794   6.178   2.553   3.396
 1299SOL     OW 4795   1.440   3.310   4.785
 1299SOL    HW1 4796   1.506   3.271   4.849
 1299SOL    HW2 4797   1.447   3.410   4.788
 1300SOL     OW 4798   3.535   2.877   3.459
 1300SOL    HW1 4799   3.612   2.819   3.434
 1300SOL    HW2 4800   3.564   2.943   3.528
 1301SOL     OW 4801   1.324   1.568   1.644
 1301SOL    HW1 4802   1.262   1.489   1.643
 1301SOL    HW2 4803   1.394   1.556   1.572
 1302SOL     OW 4804   2.705   6.118   5.441
 1302SOL    HW1 4805   2.789   6.170   5.429
 1302SOL    HW2 4806   2.647   6.164   5.509
 1303SOL     OW 4807   3.210   0.105   1.124
 1303SOL    HW1 4808   3.127   0.156   1.149
 1303SOL    HW2 4809   3.186   0.010   1.104
 1304SOL     OW 4810   3.153   0.785   5.932
 1304SOL    HW1 4811   3.211   0.805   6.011
 1304SOL    HW2 4812   3.207   0.737   5.863
 1305SOL     OW 4813   5.919   6.900   3.982
 1305SOL    HW1 4814   5.844   6.903   4.048
 1305SOL    HW2 4815   6.005   6.882   4.030
 1306SOL     OW 4816   1.583   5.276   3.956
 1306SOL    HW1 4817   1.609   5.338   4.030
 1306SOL    HW2 4818   1.593   5.324   3.868
 1307SOL     OW 4819   1.134   1.441   4.867
 1307SOL    HW1 4820   1.076   1.360   4.883
 1307SOL    HW2 4821   1.119   1.474   4.774
 1308SOL     OW 4822   4.677   6.250   3.127
 1308SOL    HW1 4823   4.728   6.188   3.067
 1308SOL    HW2 4824   4.619   6.310   3.072
 1309SOL     OW 4825   6.277   2.993   4.408
 1309SOL    HW1 4826   6.228   3.022   4.326
 1309SOL    HW2 4827   6.216   2.939   4.466
 1310SOL     OW 4828   5.362   3.515   5.735
 1310SOL    HW1 4829   5.285   3.451   5.730
 1310SOL    HW2 4830   5.404   3.509   5.825
 1311SOL     OW 4831   4.773   4.816   0.022
 1311SOL    HW1 4832   4.696   4.800   0.084
 1311SOL    HW2 4833   4.740   4.855   6.962
 1312SOL     OW 4834   6.930   0.599   1.686
 1312SOL    HW1 4835   6.999   0.625   1.753
 1312SOL    HW2 4836   6.859   0.669   1.681
 1313SOL     OW 4837   3.596   4.954   4.554
 1313SOL    HW1 4838   3.646   4.925   4.635
 1313SOL    HW2 4839   3.643   5.031   4.511
 1314SOL     OW 4840   7.005   1.173   5.817
 1314SOL    HW1 4841   0.057   1.220   5.858
 1314SOL    HW2 4842   6.932   1.239   5.799
 1315SOL     OW 4843   1.668   6.736   3.821
 1315SOL    HW1 4844   1.636   6.713   3.913
 1315SOL    HW2 4845   1.754   6.787   3.827
 1316SOL     OW 4846   3.204   6.189   4.011
 1316SOL    HW1 4847   3.290   6.223   3.973
 1316SOL    HW2 4848   3.190   6.095   3.983
 1317SOL     OW 4849   6.908   3.170   4.447
 1317SOL    HW1 4850   7.000   3.133   4.431
 1317SOL    HW2 4851   6.897   3.190   4.544
 1318SOL     OW 4852   0.647   6.882   1.735
 1318SOL    HW1 4853   0.610   6.789   1.742
 1318SOL    HW2 4854   0.671   6.901   1.640
 1319SOL     OW 4855   0.068   6.699   0.925
 1319SOL    HW1 4856   0.003   6.625   0.942
 1319SOL    HW2 4857   0.133   6.671   0.854
 1320SOL     OW 4858   5.319   5.688   5.230
 1320SOL    HW1 4859   5.221   5.688   5.210
 1320SOL    HW2 4860   5.342   5.769   5.284
 1321SOL     OW 4861   3.429   1.219   0.910
 1321SOL    HW1 4862   3.465   1.311   0.891
 1321SOL    HW2 4863   3.440   1.198   1.007
 1322SOL     OW 4864   5.115   0.795   6.529
 1322SOL    HW1 4865   5.025   0.839   6.522
 1322SOL    HW2 4866   5.172   0.823   6.452
 1323SOL     OW 4867   6.605   0.885   4.038
 1323SOL    HW1 4868   6.598   0.984   4.046
 1323SOL    HW2 4869   6.698   0.856   4.061
 1324SOL     OW 4870   1.373   2.531   0.350
 1324SOL    HW1 4871   1.379   2.434   0.373
 1324SOL    HW2 4872   1.364   2.585   0.433
 1325SOL     OW 4873   4.492   5.401   4.453
 1325SOL    HW1 4874   4.396   5.402   4.426
 1325SOL    HW2 4875   4.536   5.319   4.415
 1326SOL     OW 4876   5.676   4.309   4.379
 1326SOL    HW1 4877   5.735   4.258   4.443
 1326SOL    HW2 4878   5.649   4.248   4.304
 1327SOL     OW 4879   2.991   6.366   4.046
 1327SOL    HW1 4880   3.053   6.292   4.020
 1327SOL    HW2 4881   2.931   6.335   4.120
 1328SOL     OW 4882   2.618   1.553   1.483
 1328SOL    HW1 4883   2.536   1.584   1.434
 1328SOL    HW2 4884   2.597   1.545   1.581
 1329SOL     OW 4885   1.201   6.224   1.712
 1329SOL    HW1 4886   1.194   6.124   1.705
 1329SOL    HW2 4887   1.133   6.266   1.652
 1330SOL     OW 4888   5.537   6.798   1.410
 1330SOL    HW1 4889   5.514   6.836   1.321
 1330SOL    HW2 4890   5.511   6.862   1.482
 1331SOL     OW 4891   0.392   2.101   1.787
 1331SOL    HW1 4892   0.476   2.060   1.751
 1331SOL    HW2 4893   0.393   2.098   1.887
 1332SOL     OW 4894   4.808   2.169   0.616
 1332SOL    HW1 4895   4.862   2.142   0.537
 1332SOL    HW2 4896   4.731   2.106   0.627
 1333SOL     OW 4897   4.292   3.446   5.618
 1333SOL    HW1 4898   4.388   3.455   5.591
 1333SOL    HW2 4899   4.238   3.419   5.539
 1334SOL     OW 4900   1.540   3.561   4.279
 1334SOL    HW1 4901   1.483   3.642   4.294
 1334SOL    HW2 4902   1.604   3.551   4.355
 1335SOL     OW 4903   2.171   5.238   3.396
 1335SOL    HW1 4904   2.146   5.145   3.370
 1335SOL    HW2 4905   2.102   5.274   3.459
 1336SOL     OW 4906   0.632   6.329   5.086
 1336SOL    HW1 4907   0.725   6.356   5.061
 1336SOL    HW2 4908   0.636   6.259   5.158
 1337SOL     OW 4909   3.674   6.755   6.339
 1337SOL    HW1 4910   3.683   6.824   6.411
 1337SOL    HW2 4911   3.674   6.664   6.380
 1338SOL     OW 4912   3.693   5.192   0.647
 1338SOL    HW1 4913   3.710   5.219   0.552
 1338SOL    HW2 4914   3.755   5.242   0.707
 1339SOL     OW 4915   0.014   3.707   6.692
 1339SOL    HW1 4916   0.092   3.769   6.699
 1339SOL    HW2 4917   6.959   3.751   6.731
 1340SOL     OW 4918   2.896   1.603   5.865
 1340SOL    HW1 4919   2.907   1.508   5.893
 1340SOL    HW2 4920   2.983   1.651   5.875
 1341SOL     OW 4921   5.783   1.933   4.348
 1341SOL    HW1 4922   5.816   1.976   4.432
 1341SOL    HW2 4923   5.831   1.847   4.333
 1342SOL     OW 4924   0.278   6.931   0.830
 1342SOL    HW1 4925   0.197   6.874   0.840
 1342SOL    HW2 4926   0.265   7.016   0.881
 1343SOL     OW 4927   2.875   5.805   3.401
 1343SOL    HW1 4928   2.914   5.725   3.447
 1343SOL    HW2 4929   2.946   5.873   3.385
 1344SOL     OW 4930   5.280   1.866   2.346
 1344SOL    HW1 4931   5.277   1.777   2.301
 1344SOL    HW2 4932   5.284   1.853   2.445
 1345SOL     OW 4933   6.393   6.035   2.399
 1345SOL    HW1 4934   6.404   6.134   2.389
 1345SOL    HW2 4935   6.479   5.990   2.378
 1346SOL     OW 4936   6.829   1.682   2.873
 1346SOL    HW1 4937   6.831   1.782   2.863
 1346SOL    HW2 4938   6.804   1.659   2.967
 1347SOL     OW 4939   4.668   1.326   3.528
 1347SOL    HW1 4940   4.665   1.231   3.561
 1347SOL    HW2 4941   4.747   1.372   3.568
 1348SOL     OW 4942   5.095   6.235   4.955
 1348SOL    HW1 4943   5.109   6.166   4.884
 1348SOL    HW2 4944   5.129   6.200   5.042
 1349SOL     OW 4945   4.959   2.036   0.115
 1349SOL    HW1 4946   5.012   1.966   0.163
 1349SOL    HW2 4947   4.869   2.046   0.158
 1350SOL     OW 4948   3.133   1.109   4.554
 1350SOL    HW1 4949   3.061   1.177   4.565
 1350SOL    HW2 4950   3.187   1.131   4.472
 1351SOL     OW 4951   1.488   1.588   3.682
 1351SOL    HW1 4952   1.538   1.666   3.720
 1351SOL    HW2 4953   1.408   1.568   3.739
 1352SOL     OW 4954   1.245   6.096   4.665
 1352SOL    HW1 4955   1.252   6.011   4.718
 1352SOL    HW2 4956   1.324   6.154   4.683
 1353SOL     OW 4957   2.605   3.092   5.672
 1353SOL    HW1 4958   2.680   3.031   5.646
 1353SOL    HW2 4959   2.566   3.134   5.590
 1354SOL     OW 4960   0.095   6.684   6.752
 1354SOL    HW1 4961   0.009   6.673   6.701
 1354SOL    HW2 4962   0.127   6.594   6.782
 1355SOL     OW 4963   4.263   3.291   6.951
 1355SOL    HW1 4964   4.273   3.194   6.926
 1355SOL    HW2 4965   4.166   3.315   6.954
 1356SOL     OW 4966   3.454   2.827   2.081
 1356SOL    HW1 4967   3.521   2.838   2.154
 1356SOL    HW2 4968   3.500   2.798   1.997
 1357SOL     OW 4969   3.464   2.135   5.434
 1357SOL    HW1 4970   3.407   2.103   5.359
 1357SOL    HW2 4971   3.447   2.080   5.515
 1358SOL     OW 4972   1.972   3.115   6.023
 1358SOL    HW1 4973   2.012   3.046   6.083
 1358SOL    HW2 4974   1.878   3.089   6.001
 1359SOL     OW 4975   0.206   1.690   6.659
 1359SOL    HW1 4976   0.299   1.719   6.682
 1359SOL    HW2 4977   0.190   1.703   6.562
 1360SOL     OW 4978   3.322   3.353   4.236
 1360SOL    HW1 4979   3.346   3.407   4.155
 1360SOL    HW2 4980   3.351   3.258   4.222
 1361SOL     OW 4981   0.932   6.581   0.919
 1361SOL    HW1 4982   0.874   6.509   0.958
 1361SOL    HW2 4983   0.972   6.549   0.834
 1362SOL     OW 4984   3.394   1.253   6.905
 1362SOL    HW1 4985   3.392   1.225   6.809
 1362SOL    HW2 4986   3.488   1.273   6.933
 1363SOL     OW 4987   6.540   6.425   1.125
 1363SOL    HW1 4988   6.481   6.490   1.078
 1363SOL    HW2 4989   6.566   6.462   1.214
 1364SOL     OW 4990   1.066   3.382   1.267
 1364SOL    HW1 4991   1.137   3.360   1.334
 1364SOL    HW2 4992   1.081   3.328   1.184
 1365SOL     OW 4993   1.269   3.674   6.216
 1365SOL    HW1 4994   1.330   3.753   6.211
 1365SOL    HW2 4995   1.201   3.689   6.288
 1366SOL     OW 4996   3.784   0.685   1.246
 1366SOL    HW1 4997   3.726   0.625   1.301
 1366SOL    HW2 4998   3.777   0.779   1.279
 1367SOL     OW 4999   1.014   6.731   4.618
 1367SOL    HW1 5000   1.021   6.749   4.520
 1367SOL    HW2 5001   0.920   6.704   4.640
 1368SOL     OW 5002   1.483   6.274   4.962
 1368SOL    HW1 5003   1.487   6.189   5.015
 1368SOL    HW2 5004   1.497   6.254   4.865
 1369SOL     OW 5005   2.242   5.840   3.664
 1369SOL    HW1 5006   2.208   5.905   3.596
 1369SOL    HW2 5007   2.178   5.763   3.672
 1370SOL     OW 5008   0.075   2.936   2.765
 1370SOL    HW1 5009   0.060   2.930   2.666
 1370SOL    HW2 5010   0.046   3.026   2.797
 1371SOL     OW 5011   5.930   1.737   6.376
 1371SOL    HW1 5012   5.988   1.817   6.360
 1371SOL    HW2 5013   5.857   1.760   6.440
 1372SOL     OW 5014   5.063   2.693   1.809
 1372SOL    HW1 5015   5.004   2.769   1.835
 1372SOL    HW2 5016   5.017   2.637   1.740
 1373SOL     OW 5017   5.029   2.403   1.414
 1373SOL    HW1 5018   5.073   2.458   1.343
 1373SOL    HW2 5019   4.973   2.332   1.372
 1374SOL     OW 5020   4.085   3.738   2.658
 1374SOL    HW1 5021   4.152   3.758   2.729
 1374SOL    HW2 5022   4.060   3.641   2.663
 1375SOL     OW 5023   5.214   4.316   4.955
 1375SOL    HW1 5024   5.126   4.288   4.994
 1375SOL    HW2 5025   5.199   4.387   4.887
 1376SOL     OW 5026   3.077   4.546   5.926
 1376SOL    HW1 5027   3.091   4.554   6.025
 1376SOL    HW2 5028   3.106   4.455   5.896
 1377SOL     OW 5029   1.292   1.865   3.468
 1377SOL    HW1 5030   1.200   1.884   3.431
 1377SOL    HW2 5031   1.306   1.766   3.471
 1378SOL     OW 5032   4.342   2.019   4.338
 1378SOL    HW1 5033   4.440   2.001   4.326
 1378SOL    HW2 5034   4.291   1.974   4.264
 1379SOL     OW 5035   4.821   5.848   6.706
 1379SOL    HW1 5036   4.790   5.917   6.640
 1379SOL    HW2 5037   4.747   5.829   6.772
 1380SOL     OW 5038   6.988   6.397   3.681
 1380SOL    HW1 5039   6.955   6.317   3.732
 1380SOL    HW2 5040   0.011   6.366   3.599
 1381SOL     OW 5041   6.589   2.870   6.068
 1381SOL    HW1 5042   6.629   2.829   6.150
 1381SOL    HW2 5043   6.566   2.965   6.086
 1382SOL     OW 5044   4.335   1.657   5.873
 1382SOL    HW1 5045   4.303   1.703   5.789
 1382SOL    HW2 5046   4.380   1.724   5.932
 1383SOL     OW 5047   6.251   0.473   0.819
 1383SOL    HW1 5048   6.276   0.559   0.775
 1383SOL    HW2 5049   6.211   0.491   0.909
 1384SOL     OW 5050   5.809   2.610   2.202
 1384SOL    HW1 5051   5.822   2.618   2.103
 1384SOL    HW2 5052   5.794   2.514   2.226
 1385SOL     OW 5053   6.530   6.499   1.697
 1385SOL    HW1 5054   6.580   6.572   1.650
 1385SOL    HW2 5055   6.499   6.432   1.630
 1386SOL     OW 5056   2.207   0.005   3.848
 1386SOL    HW1 5057   2.169   6.947   3.888
 1386SOL    HW2 5058   2.255   7.008   3.763
 1387SOL     OW 5059   1.187   5.918   1.692
 1387SOL    HW1 5060   1.251   5.860   1.742
 1387SOL    HW2 5061   1.185   5.891   1.595
 1388SOL     OW 5062   6.491   0.923   1.691
 1388SOL    HW1 5063   6.524   1.017   1.700
 1388SOL    HW2 5064   6.432   0.901   1.769
 1389SOL     OW 5065   6.389   1.367   1.717
 1389SOL    HW1 5066   6.359   1.419   1.797
 1389SOL    HW2 5067   6.472   1.317   1.739
 1390SOL     OW 5068   1.278   1.667   4.353
 1390SOL    HW1 5069   1.257   1.651   4.257
 1390SOL    HW2 5070   1.208   1.726   4.393
 1391SOL     OW 5071   0.884   2.810   3.301
 1391SOL    HW1 5072   0.785   2.824   3.304
 1391SOL    HW2 5073   0.924   2.875   3.236
 1392SOL     OW 5074   5.510   4.851   4.258
 1392SOL    HW1 5075   5.429   4.851   4.317
 1392SOL    HW2 5076   5.569   4.775   4.283
 1393SOL     OW 5077   3.812   4.734   6.974
 1393SOL    HW1 5078   3.897   4.685   6.956
 1393SOL    HW2 5079   3.776   4.706   0.037
 1394SOL     OW 5080   1.243   6.391   6.966
 1394SOL    HW1 5081   1.337   6.373   6.937
 1394SOL    HW2 5082   1.183   6.319   6.930
 1395SOL     OW 5083   4.041   4.831   6.316
 1395SOL    HW1 5084   4.080   4.908   6.365
 1395SOL    HW2 5085   4.084   4.746   6.347
 1396SOL     OW 5086   5.377   5.930   3.806
 1396SOL    HW1 5087   5.397   5.932   3.708
 1396SOL    HW2 5088   5.377   6.023   3.842
 1397SOL     OW 5089   5.559   6.371   5.137
 1397SOL    HW1 5090   5.600   6.305   5.074
 1397SOL    HW2 5091   5.615   6.378   5.219
 1398SOL     OW 5092   1.601   0.224   4.959
 1398SOL    HW1 5093   1.696   0.229   4.991
 1398SOL    HW2 5094   1.570   0.129   4.964
 1399SOL     OW 5095   3.613   5.248   2.509
 1399SOL    HW1 5096   3.674   5.280   2.437
 1399SOL    HW2 5097   3.575   5.159   2.484
 1400SOL     OW 5098   1.084   0.200   3.108
 1400SOL    HW1 5099   1.163   0.261   3.115
 1400SOL    HW2 5100   1.078   0.165   3.014
 1401SOL     OW 5101   6.453   2.324   4.365
 1401SOL    HW1 5102   6.446   2.231   4.329
 1401SOL    HW2 5103   6.382   2.339   4.434
 1402SOL     OW 5104   5.655   2.436   0.142
 1402SOL    HW1 5105   5.679   2.465   0.235
 1402SOL    HW2 5106   5.654   2.515   0.082
 1403SOL     OW 5107   3.508   0.552   1.823
 1403SOL    HW1 5108   3.546   0.555   1.916
 1403SOL    HW2 5109   3.410   0.574   1.826
 1404SOL     OW 5110   4.978   1.424   0.377
 1404SOL    HW1 5111   4.911   1.396   0.307
 1404SOL    HW2 5112   5.058   1.364   0.372
 1405SOL     OW 5113   3.446   2.693   1.357
 1405SOL    HW1 5114   3.527   2.746   1.382
 1405SOL    HW2 5115   3.445   2.678   1.258
 1406SOL     OW 5116   0.688   3.865   2.327
 1406SOL    HW1 5117   0.657   3.788   2.384
 1406SOL    HW2 5118   0.761   3.913   2.375
 1407SOL     OW 5119   0.257   2.674   2.357
 1407SOL    HW1 5120   0.181   2.739   2.366
 1407SOL    HW2 5121   0.290   2.648   2.448
 1408SOL     OW 5122   6.434   5.748   6.427
 1408SOL    HW1 5123   6.344   5.790   6.426
 1408SOL    HW2 5124   6.486   5.781   6.506
 1409SOL     OW 5125   7.020   1.519   3.866
 1409SOL    HW1 5126   0.066   1.462   3.906
 1409SOL    HW2 5127   0.015   1.537   3.770
 1410SOL     OW 5128   6.443   1.748   6.827
 1410SOL    HW1 5129   6.515   1.708   6.771
 1410SOL    HW2 5130   6.394   1.676   6.876
 1411SOL     OW 5131   1.878   0.691   1.670
 1411SOL    HW1 5132   1.917   0.599   1.666
 1411SOL    HW2 5133   1.782   0.686   1.697
 1412SOL     OW 5134   1.421   2.594   0.071
 1412SOL    HW1 5135   1.426   2.501   0.035
 1412SOL    HW2 5136   1.403   2.591   0.169
 1413SOL     OW 5137   2.962   6.608   3.269
 1413SOL    HW1 5138   2.916   6.667   3.203
 1413SOL    HW2 5139   3.000   6.528   3.222
 1414SOL     OW 5140   1.523   1.017   2.519
 1414SOL    HW1 5141   1.479   0.951   2.580
 1414SOL    HW2 5142   1.499   1.110   2.547
 1415SOL     OW 5143   5.681   6.581   4.976
 1415SOL    HW1 5144   5.736   6.607   5.056
 1415SOL    HW2 5145   5.651   6.486   4.987
 1416SOL     OW 5146   4.798   5.376   3.630
 1416SOL    HW1 5147   4.807   5.466   3.673
 1416SOL    HW2 5148   4.783   5.306   3.700
 1417SOL     OW 5149   3.647   2.955   5.967
 1417SOL    HW1 5150   3.556   2.997   5.978
 1417SOL    HW2 5151   3.681   2.925   6.056
 1418SOL     OW 5152   3.357   3.872   3.419
 1418SOL    HW1 5153   3.358   3.878   3.320
 1418SOL    HW2 5154   3.430   3.928   3.457
 1419SOL     OW 5155   3.455   6.427   3.944
 1419SOL    HW1 5156   3.541   6.388   3.976
 1419SOL    HW2 5157   3.406   6.469   4.020
 1420SOL     OW 5158   0.616   6.005   2.578
 1420SOL    HW1 5159   0.557   6.057   2.639
 1420SOL    HW2 5160   0.676   5.946   2.631
 1421SOL     OW 5161   3.864   0.919   2.742
 1421SOL    HW1 5162   3.924   0.995   2.719
 1421SOL    HW2 5163   3.916   0.849   2.793
 1422SOL     OW 5164   2.471   6.219   0.746
 1422SOL    HW1 5165   2.374   6.199   0.753
 1422SOL    HW2 5166   2.486   6.290   0.678
 1423SOL     OW 5167   5.316   0.876   2.323
 1423SOL    HW1 5168   5.387   0.880   2.252
 1423SOL    HW2 5169   5.227   0.896   2.283
 1424SOL     OW 5170   6.782   5.182   2.497
 1424SOL    HW1 5171   6.773   5.236   2.581
 1424SOL    HW2 5172   6.824   5.094   2.519
 1425SOL     OW 5173   1.815   0.699   4.467
 1425SOL    HW1 5174   1.864   0.704   4.554
 1425SOL    HW2 5175   1.876   0.663   4.396
 1426SOL     OW 5176   1.857   1.247   5.472
 1426SOL    HW1 5177   1.792   1.316   5.504
 1426SOL    HW2 5178   1.938   1.249   5.531
 1427SOL     OW 5179   5.589   1.741   5.739
 1427SOL    HW1 5180   5.507   1.742   5.795
 1427SOL    HW2 5181   5.632   1.832   5.741
 1428SOL     OW 5182   5.650   0.883   0.569
 1428SOL    HW1 5183   5.729   0.823   0.576
 1428SOL    HW2 5184   5.636   0.907   0.473
 1429SOL     OW 5185   5.516   6.006   0.089
 1429SOL    HW1 5186   5.536   6.021   0.186
 1429SOL    HW2 5187   5.597   5.966   0.044
 1430SOL     OW 5188   2.805   4.736   2.620
 1430SOL    HW1 5189   2.812   4.722   2.521
 1430SOL    HW2 5190   2.719   4.698   2.653
 1431SOL     OW 5191   1.589   6.932   0.928
 1431SOL    HW1 5192   1.588   7.013   0.987
 1431SOL    HW2 5193   1.668   6.875   0.951
 1432SOL     OW 5194   3.123   0.347   1.489
 1432SOL    HW1 5195   3.073   0.401   1.557
 1432SOL    HW2 5196   3.079   0.357   1.400
 1433SOL     OW 5197   5.065   0.142   3.883
 1433SOL    HW1 5198   4.969   0.160   3.859
 1433SOL    HW2 5199   5.080   0.164   3.979
 1434SOL     OW 5200   1.120   1.116   5.184
 1434SOL    HW1 5201   1.155   1.023   5.191
 1434SOL    HW2 5202   1.093   1.149   5.275
 1435SOL     OW 5203   0.088   2.262   3.377
 1435SOL    HW1 5204   0.115   2.322   3.302
 1435SOL    HW2 5205   0.039   2.315   3.446
 1436SOL     OW 5206   4.773   3.704   0.926
 1436SOL    HW1 5207   4.694   3.660   0.969
 1436SOL    HW2 5208   4.745   3.745   0.839
 1437SOL     OW 5209   4.406   1.060   2.424
 1437SOL    HW1 5210   4.399   1.071   2.325
 1437SOL    HW2 5211   4.333   1.000   2.457
 1438SOL     OW 5212   2.684   0.351   1.979
 1438SOL    HW1 5213   2.710   0.432   2.031
 1438SOL    HW2 5214   2.606   0.307   2.022
 1439SOL     OW 5215   0.453   5.702   1.839
 1439SOL    HW1 5216   0.506   5.694   1.755
 1439SOL    HW2 5217   0.404   5.789   1.840
 1440SOL     OW 5218   2.341   2.908   1.629
 1440SOL    HW1 5219   2.279   2.893   1.551
 1440SOL    HW2 5220   2.402   2.829   1.638
 1441SOL     OW 5221   5.077   5.833   6.626
 1441SOL    HW1 5222   4.978   5.826   6.638
 1441SOL    HW2 5223   5.100   5.926   6.597
 1442SOL     OW 5224   5.187   5.332   1.289
 1442SOL    HW1 5225   5.256   5.343   1.218
 1442SOL    HW2 5226   5.107   5.285   1.251
 1443SOL     OW 5227   7.024   2.815   2.218
 1443SOL    HW1 5228   7.019   2.718   2.194
 1443SOL    HW2 5229   6.954   2.837   2.285
 1444SOL     OW 5230   0.617   6.250   5.806
 1444SOL    HW1 5231   0.703   6.283   5.845
 1444SOL    HW2 5232   0.541   6.274   5.866
 1445SOL     OW 5233   0.712   2.831   0.973
 1445SOL    HW1 5234   0.747   2.925   0.974
 1445SOL    HW2 5235   0.618   2.830   1.009
 1446SOL     OW 5236   6.784   5.625   1.309
 1446SOL    HW1 5237   6.849   5.694   1.277
 1446SOL    HW2 5238   6.733   5.589   1.231
 1447SOL     OW 5239   6.757   6.408   4.088
 1447SOL    HW1 5240   6.723   6.348   4.015
 1447SOL    HW2 5241   6.686   6.472   4.115
 1448SOL     OW 5242   1.188   1.048   5.765
 1448SOL    HW1 5243   1.088   1.050   5.764
 1448SOL    HW2 5244   1.223   1.111   5.695
 1449SOL     OW 5245   2.156   3.265   2.926
 1449SOL    HW1 5246   2.132   3.188   2.984
 1449SOL    HW2 5247   2.165   3.348   2.982
 1450SOL     OW 5248   3.345   1.795   3.235
 1450SOL    HW1 5249   3.297   1.850   3.303
 1450SOL    HW2 5250   3.385   1.856   3.166
 1451SOL     OW 5251   3.680   1.226   2.411
 1451SOL    HW1 5252   3.708   1.244   2.506
 1451SOL    HW2 5253   3.588   1.187   2.411
 1452SOL     OW 5254   4.330   2.704   6.036
 1452SOL    HW1 5255   4.347   2.609   6.063
 1452SOL    HW2 5256   4.313   2.709   5.938
 1453SOL     OW 5257   1.250   3.459   5.238
 1453SOL    HW1 5258   1.206   3.488   5.153
 1453SOL    HW2 5259   1.232   3.527   5.309
 1454SOL     OW 5260   3.177   2.196   2.720
 1454SOL    HW1 5261   3.107   2.183   2.650
 1454SOL    HW2 5262   3.268   2.184   2.680
 1455SOL     OW 5263   0.176   5.412   2.176
 1455SOL    HW1 5264   0.243   5.477   2.143
 1455SOL    HW2 5265   0.135   5.446   2.261
 1456SOL     OW 5266   6.807   5.844   4.258
 1456SOL    HW1 5267   6.717   5.861   4.219
 1456SOL    HW2 5268   6.800   5.773   4.328
 1457SOL     OW 5269   1.269   5.390   5.791
 1457SOL    HW1 5270   1.268   5.488   5.811
 1457SOL    HW2 5271   1.333   5.344   5.852
 1458SOL     OW 5272   6.653   5.077   5.068
 1458SOL    HW1 5273   6.668   4.985   5.033
 1458SOL    HW2 5274   6.644   5.074   5.168
 1459SOL     OW 5275   6.660   5.938   5.122
 1459SOL    HW1 5276   6.583   5.944   5.185
 1459SOL    HW2 5277   6.738   5.895   5.167
 1460SOL     OW 5278   1.905   6.170   5.159
 1460SOL    HW1 5279   1.844   6.200   5.085
 1460SOL    HW2 5280   1.999   6.195   5.136
 1461SOL     OW 5281   6.133   3.506   3.753
 1461SOL    HW1 5282   6.082   3.436   3.804
 1461SOL    HW2 5283   6.168   3.466   3.668
 1462SOL     OW 5284   0.090   1.607   2.041
 1462SOL    HW1 5285   0.122   1.609   2.136
 1462SOL    HW2 5286   0.008   1.664   2.032
 1463SOL     OW 5287   1.554   4.817   6.815
 1463SOL    HW1 5288   1.568   4.795   6.911
 1463SOL    HW2 5289   1.589   4.909   6.796
 1464SOL     OW 5290   1.419   4.813   4.787
 1464SOL    HW1 5291   1.450   4.720   4.769
 1464SOL    HW2 5292   1.348   4.811   4.858
 1465SOL     OW 5293   1.373   2.423   5.724
 1465SOL    HW1 5294   1.396   2.330   5.753
 1465SOL    HW2 5295   1.282   2.447   5.758
 1466SOL     OW 5296   5.575   1.029   2.847
 1466SOL    HW1 5297   5.480   1.026   2.819
 1466SOL    HW2 5298   5.633   0.996   2.773
 1467SOL     OW 5299   0.169   0.115   3.694
 1467SOL    HW1 5300   0.266   0.134   3.688
 1467SOL    HW2 5301   0.139   0.123   3.789
 1468SOL     OW 5302   3.597   6.444   3.142
 1468SOL    HW1 5303   3.522   6.420   3.080
 1468SOL    HW2 5304   3.577   6.532   3.186
 1469SOL     OW 5305   6.040   4.085   3.282
 1469SOL    HW1 5306   6.064   4.128   3.369
 1469SOL    HW2 5307   5.951   4.042   3.289
 1470SOL     OW 5308   6.535   2.471   2.263
 1470SOL    HW1 5309   6.456   2.426   2.222
 1470SOL    HW2 5310   6.617   2.414   2.250
 1471SOL     OW 5311   4.650   0.338   6.483
 1471SOL    HW1 5312   4.687   0.343   6.576
 1471SOL    HW2 5313   4.564   0.288   6.484
 1472SOL     OW 5314   2.272   0.579   6.569
 1472SOL    HW1 5315   2.216   0.656   6.539
 1472SOL    HW2 5316   2.316   0.537   6.489
 1473SOL     OW 5317   1.926   5.799   3.486
 1473SOL    HW1 5318   1.931   5.889   3.529
 1473SOL    HW2 5319   1.998   5.790   3.417
 1474SOL     OW 5320   1.764   3.998   2.250
 1474SOL    HW1 5321   1.792   3.998   2.154
 1474SOL    HW2 5322   1.669   4.029   2.256
 1475SOL     OW 5323   6.180   6.986   6.541
 1475SOL    HW1 5324   6.231   6.953   6.620
 1475SOL    HW2 5325   6.082   6.982   6.561
 1476SOL     OW 5326   5.699   0.386   6.669
 1476SOL    HW1 5327   5.679   0.322   6.743
 1476SOL    HW2 5328   5.618   0.399   6.612
 1477SOL     OW 5329   3.168   4.092   1.748
 1477SOL    HW1 5330   3.221   4.145   1.681
 1477SOL    HW2 5331   3.120   4.018   1.701
 1478SOL     OW 5332   5.232   4.120   6.014
 1478SOL    HW1 5333   5.324   4.131   5.977
 1478SOL    HW2 5334   5.217   4.186   6.087
 1479SOL     OW 5335   4.582   4.661   1.159
 1479SOL    HW1 5336   4.612   4.735   1.098
 1479SOL    HW2 5337   4.534   4.592   1.106
 1480SOL     OW 5338   2.625   1.428   4.232
 1480SOL    HW1 5339   2.608   1.494   4.158
 1480SOL    HW2 5340   2.562   1.351   4.222
 1481SOL     OW 5341   4.080   1.550   5.932
 1481SOL    HW1 5342   4.173   1.576   5.907
 1481SOL    HW2 5343   4.059   1.460   5.893
 1482SOL     OW 5344   6.560   1.200   1.451
 1482SOL    HW1 5345   6.498   1.221   1.376
 1482SOL    HW2 5346   6.558   1.102   1.470
 1483SOL     OW 5347   6.534   0.223   0.185
 1483SOL    HW1 5348   6.619   0.170   0.175
 1483SOL    HW2 5349   6.550   0.317   0.153
 1484SOL     OW 5350   3.138   5.980   4.816
 1484SOL    HW1 5351   3.053   5.928   4.824
 1484SOL    HW2 5352   3.180   5.961   4.728
 1485SOL     OW 5353   5.154   3.770   3.151
 1485SOL    HW1 5354   5.091   3.779   3.228
 1485SOL    HW2 5355   5.165   3.858   3.105
 1486SOL     OW 5356   5.516   6.218   4.191
 1486SOL    HW1 5357   5.545   6.129   4.156
 1486SOL    HW2 5358   5.591   6.262   4.239
 1487SOL     OW 5359   6.254   0.825   0.121
 1487SOL    HW1 5360   6.285   0.897   0.060
 1487SOL    HW2 5361   6.210   0.752   0.068
 1488SOL     OW 5362   6.839   2.789   2.783
 1488SOL    HW1 5363   6.780   2.742   2.849
 1488SOL    HW2 5364   6.930   2.804   2.824
 1489SOL     OW 5365   3.142   5.281   6.609
 1489SOL    HW1 5366   3.121   5.376   6.587
 1489SOL    HW2 5367   3.074   5.245   6.673
 1490SOL     OW 5368   6.202   2.976   2.194
 1490SOL    HW1 5369   6.171   2.962   2.288
 1490SOL    HW2 5370   6.296   3.012   2.195
 1491SOL     OW 5371   5.107   2.984   4.141
 1491SOL    HW1 5372   5.156   2.976   4.228
 1491SOL    HW2 5373   5.173   2.978   4.066
 1492SOL     OW 5374   0.643   2.550   2.071
 1492SOL    HW1 5375   0.634   2.579   1.976
 1492SOL    HW2 5376   0.655   2.450   2.074
 1493SOL     OW 5377   6.171   2.250   6.649
 1493SOL    HW1 5378   6.100   2.180   6.639
 1493SOL    HW2 5379   6.213   2.242   6.740
 1494SOL     OW 5380   1.151   4.111   6.419
 1494SOL    HW1 5381   1.102   4.069   6.496
 1494SOL    HW2 5382   1.143   4.210   6.424
 1495SOL     OW 5383   6.703   4.146   3.672
 1495SOL    HW1 5384   6.781   4.182   3.620
 1495SOL    HW2 5385   6.654   4.221   3.715
 1496SOL     OW 5386   6.554   6.509   5.491
 1496SOL    HW1 5387   6.624   6.439   5.507
 1496SOL    HW2 5388   6.471   6.485   5.540
 1497SOL     OW 5389   4.937   2.575   2.550
 1497SOL    HW1 5390   4.857   2.633   2.533
 1497SOL    HW2 5391   4.906   2.485   2.581
 1498SOL     OW 5392   3.785   4.087   0.678
 1498SOL    HW1 5393   3.816   4.017   0.742
 1498SOL    HW2 5394   3.816   4.177   0.710
 1499SOL     OW 5395   0.888   4.334   4.076
 1499SOL    HW1 5396   0.979   4.357   4.112
 1499SOL    HW2 5397   0.877   4.234   4.076
 1500SOL     OW 5398   2.604   5.412   2.068
 1500SOL    HW1 5399   2.509   5.410   2.035
 1500SOL    HW2 5400   2.666   5.415   1.991
 1501SOL     OW 5401   5.824   1.237   0.876
 1501SOL    HW1 5402   5.740   1.255   0.825
 1501SOL    HW2 5403   5.848   1.318   0.930
 1502SOL     OW 5404   0.595   6.099   6.721
 1502SOL    HW1 5405   0.587   6.191   6.684
 1502SOL    HW2 5406   0.505   6.066   6.749
 1503SOL     OW 5407   0.118   5.470   1.603
 1503SOL    HW1 5408   0.022   5.497   1.603
 1503SOL    HW2 5409   0.135   5.409   1.526
 1504SOL     OW 5410   1.764   0.112   3.186
 1504SOL    HW1 5411   1.805   0.021   3.196
 1504SOL    HW2 5412   1.735   0.145   3.276
 1505SOL     OW 5413   0.081   4.740   4.879
 1505SOL    HW1 5414   0.180   4.722   4.875
 1505SOL    HW2 5415   0.053   4.749   4.975
 1506SOL     OW 5416   1.479   0.822   1.103
 1506SOL    HW1 5417   1.546   0.750   1.084
 1506SOL    HW2 5418   1.471   0.882   1.023
 1507SOL     OW 5419   2.634   2.189   3.231
 1507SOL    HW1 5420   2.624   2.119   3.160
 1507SOL    HW2 5421   2.614   2.149   3.320
 1508SOL     OW 5422   1.593   0.702   2.264
 1508SOL    HW1 5423   1.544   0.646   2.198
 1508SOL    HW2 5424   1.568   0.798   2.251
 1509SOL     OW 5425   4.640   1.666   4.354
 1509SOL    HW1 5426   4.738   1.686   4.354
 1509SOL    HW2 5427   4.613   1.634   4.445
 1510SOL     OW 5428   2.935   6.914   5.285
 1510SOL    HW1 5429   2.973   6.898   5.194
 1510SOL    HW2 5430   2.961   6.839   5.346
 1511SOL     OW 5431   3.708   4.421   5.495
 1511SOL    HW1 5432   3.611   4.399   5.485
 1511SOL    HW2 5433   3.758   4.338   5.521
 1512SOL     OW 5434   5.021   6.458   0.942
 1512SOL    HW1 5435   4.953   6.409   0.888
 1512SOL    HW2 5436   5.004   6.557   0.937
 1513SOL     OW 5437   2.754   0.569   5.821
 1513SOL    HW1 5438   2.748   0.523   5.733
 1513SOL    HW2 5439   2.668   0.616   5.840
 1514SOL     OW 5440   3.182   1.809   6.753
 1514SOL    HW1 5441   3.111   1.876   6.729
 1514SOL    HW2 5442   3.142   1.738   6.810
 1515SOL     OW 5443   3.417   0.985   2.663
 1515SOL    HW1 5444   3.472   1.050   2.715
 1515SOL    HW2 5445   3.332   0.967   2.711
 1516SOL     OW 5446   6.537   6.747   6.053
 1516SOL    HW1 5447   6.537   6.764   6.151
 1516SOL    HW2 5448   6.569   6.829   6.005
 1517SOL     OW 5449   2.552   6.064   3.053
 1517SOL    HW1 5450   2.502   6.148   3.031
 1517SOL    HW2 5451   2.650   6.083   3.053
 1518SOL     OW 5452   0.974   2.977   6.586
 1518SOL    HW1 5453   0.894   3.036   6.583
 1518SOL    HW2 5454   1.047   3.016   6.531
 1519SOL     OW 5455   0.780   4.229   6.726
 1519SOL    HW1 5456   0.851   4.281   6.774
 1519SOL    HW2 5457   0.761   4.273   6.639
 1520SOL     OW 5458   6.838   6.924   3.377
 1520SOL    HW1 5459   6.874   6.839   3.339
 1520SOL    HW2 5460   6.755   6.950   3.329
 1521SOL     OW 5461   1.990   4.974   6.758
 1521SOL    HW1 5462   1.982   5.053   6.697
 1521SOL    HW2 5463   2.055   4.995   6.831
 1522SOL     OW 5464   5.469   6.646   4.126
 1522SOL    HW1 5465   5.445   6.732   4.082
 1522SOL    HW2 5466   5.410   6.631   4.206
 1523SOL     OW 5467   2.406   6.147   0.367
 1523SOL    HW1 5468   2.468   6.189   0.301
 1523SOL    HW2 5469   2.394   6.207   0.446
 1524SOL     OW 5470   1.942   2.803   4.492
 1524SOL    HW1 5471   1.912   2.729   4.432
 1524SOL    HW2 5472   1.872   2.874   4.497
 1525SOL     OW 5473   5.662   3.980   6.730
 1525SOL    HW1 5474   5.721   4.057   6.752
 1525SOL    HW2 5475   5.663   3.914   6.806
 1526SOL     OW 5476   0.599   1.598   0.928
 1526SOL    HW1 5477   0.681   1.542   0.914
 1526SOL    HW2 5478   0.605   1.646   1.015
 1527SOL     OW 5479   5.316   1.490   4.541
 1527SOL    HW1 5480   5.299   1.442   4.627
 1527SOL    HW2 5481   5.230   1.508   4.495
 1528SOL     OW 5482   3.824   2.946   2.561
 1528SOL    HW1 5483   3.858   2.923   2.470
 1528SOL    HW2 5484   3.747   2.886   2.583
 1529SOL     OW 5485   4.226   1.207   5.392
 1529SOL    HW1 5486   4.301   1.163   5.343
 1529SOL    HW2 5487   4.139   1.182   5.349
 1530SOL     OW 5488   2.758   6.848   1.781
 1530SOL    HW1 5489   2.705   6.932   1.777
 1530SOL    HW2 5490   2.814   6.839   1.699
 1531SOL     OW 5491   4.949   6.512   4.655
 1531SOL    HW1 5492   4.950   6.424   4.608
 1531SOL    HW2 5493   5.035   6.560   4.637
 1532SOL     OW 5494   2.914   5.245   2.354
 1532SOL    HW1 5495   2.925   5.328   2.409
 1532SOL    HW2 5496   2.905   5.270   2.258
 1533SOL     OW 5497   5.637   6.218   1.206
 1533SOL    HW1 5498   5.622   6.296   1.145
 1533SOL    HW2 5499   5.575   6.144   1.181
 1534SOL     OW 5500   2.216   4.680   7.008
 1534SOL    HW1 5501   2.197   4.586   6.979
 1534SOL    HW2 5502   2.209   4.686   0.082
 1535SOL     OW 5503   5.098   4.390   3.557
 1535SOL    HW1 5504   5.151   4.455   3.502
 1535SOL    HW2 5505   5.005   4.424   3.569
 1536SOL     OW 5506   4.217   3.809   6.479
 1536SOL    HW1 5507   4.294   3.853   6.433
 1536SOL    HW2 5508   4.147   3.786   6.411
 1537SOL     OW 5509   3.212   5.374   2.508
 1537SOL    HW1 5510   3.141   5.343   2.571
 1537SOL    HW2 5511   3.297   5.391   2.558
 1538SOL     OW 5512   2.187   1.109   0.397
 1538SOL    HW1 5513   2.102   1.104   0.344
 1538SOL    HW2 5514   2.265   1.111   0.334
 1539SOL     OW 5515   6.829   3.232   0.990
 1539SOL    HW1 5516   6.908   3.172   0.976
 1539SOL    HW2 5517   6.810   3.241   1.088
 1540SOL     OW 5518   3.369   6.214   3.729
 1540SOL    HW1 5519   3.446   6.197   3.790
 1540SOL    HW2 5520   3.365   6.311   3.706
 1541SOL     OW 5521   4.357   2.401   5.810
 1541SOL    HW1 5522   4.425   2.470   5.787
 1541SOL    HW2 5523   4.401   2.321   5.850
 1542SOL     OW 5524   6.969   4.705   2.660
 1542SOL    HW1 5525   7.002   4.621   2.703
 1542SOL    HW2 5526   6.895   4.743   2.715
 1543SOL     OW 5527   3.142   5.434   0.579
 1543SOL    HW1 5528   3.064   5.407   0.636
 1543SOL    HW2 5529   3.191   5.352   0.549
 1544SOL     OW 5530   4.113   3.356   3.954
 1544SOL    HW1 5531   4.137   3.264   3.987
 1544SOL    HW2 5532   4.093   3.352   3.856
 1545SOL     OW 5533   6.133   5.208   1.281
 1545SOL    HW1 5534   6.225   5.246   1.287
 1545SOL    HW2 5535   6.106   5.170   1.369
 1546SOL     OW 5536   6.462   6.697   5.260
 1546SOL    HW1 5537   6.474   6.670   5.164
 1546SOL    HW2 5538   6.521   6.640   5.318
 1547SOL     OW 5539   1.583   3.286   6.336
 1547SOL    HW1 5540   1.567   3.289   6.237
 1547SOL    HW2 5541   1.597   3.379   6.370
 1548SOL     OW 5542   6.370   2.234   0.348
 1548SOL    HW1 5543   6.392   2.259   0.254
 1548SOL    HW2 5544   6.283   2.185   0.351
 1549SOL     OW 5545   4.975   1.155   4.521
 1549SOL    HW1 5546   4.907   1.161   4.448
 1549SOL    HW2 5547   4.934   1.116   4.603
 1550SOL     OW 5548   2.954   3.757   4.256
 1550SOL    HW1 5549   2.942   3.720   4.348
 1550SOL    HW2 5550   2.980   3.683   4.193
 1551SOL     OW 5551   7.009   5.575   5.778
 1551SOL    HW1 5552   0.027   5.644   5.721
 1551SOL    HW2 5553   7.025   5.597   5.875
 1552SOL     OW 5554   1.875   4.150   1.645
 1552SOL    HW1 5555   1.971   4.142   1.671
 1552SOL    HW2 5556   1.823   4.187   1.722
 1553SOL     OW 5557   1.908   1.786   5.457
 1553SOL    HW1 5558   1.879   1.713   5.395
 1553SOL    HW2 5559   2.000   1.816   5.432
 1554SOL     OW 5560   4.467   1.954   3.109
 1554SOL    HW1 5561   4.427   1.969   3.019
 1554SOL    HW2 5562   4.486   1.856   3.121
 1555SOL     OW 5563   5.966   5.655   5.686
 1555SOL    HW1 5564   5.973   5.604   5.600
 1555SOL    HW2 5565   5.932   5.594   5.758
 1556SOL     OW 5566   1.958   1.133   5.993
 1556SOL    HW1 5567   1.994   1.146   5.900
 1556SOL    HW2 5568   2.024   1.082   6.048
 1557SOL     OW 5569   0.969   1.878   5.975
 1557SOL    HW1 5570   0.932   1.817   6.046
 1557SOL    HW2 5571   0.960   1.835   5.886
 1558SOL     OW 5572   6.994   6.643   4.864
 1558SOL    HW1 5573   0.025   6.715   4.823
 1558SOL    HW2 5574   6.900   6.650   4.829
 1559SOL     OW 5575   1.800   1.198   6.378
 1559SOL    HW1 5576   1.837   1.272   6.434
 1559SOL    HW2 5577   1.721   1.230   6.327
 1560SOL     OW 5578   0.121   0.738   0.370
 1560SOL    HW1 5579   0.124   0.748   0.469
 1560SOL    HW2 5580   0.206   0.696   0.338
 1561SOL     OW 5581   6.007   6.094   1.634
 1561SOL    HW1 5582   6.024   6.158   1.559
 1561SOL    HW2 5583   5.908   6.083   1.646
 1562SOL     OW 5584   5.370   0.477   4.407
 1562SOL    HW1 5585   5.374   0.441   4.501
 1562SOL    HW2 5586   5.408   0.410   4.344
 1563SOL     OW 5587   2.953   7.022   6.164
 1563SOL    HW1 5588   3.034   6.966   6.179
 1563SOL    HW2 5589   2.871   6.967   6.177
 1564SOL     OW 5590   1.811   2.416   2.804
 1564SOL    HW1 5591   1.786   2.447   2.896
 1564SOL    HW2 5592   1.911   2.422   2.793
 1565SOL     OW 5593   6.084   4.787   1.073
 1565SOL    HW1 5594   6.038   4.874   1.052
 1565SOL    HW2 5595   6.112   4.787   1.169
 1566SOL     OW 5596   6.071   4.983   2.317
 1566SOL    HW1 5597   6.132   4.990   2.237
 1566SOL    HW2 5598   6.121   5.010   2.399
 1567SOL     OW 5599   6.911   5.843   5.277
 1567SOL    HW1 5600   6.838   5.803   5.332
 1567SOL    HW2 5601   6.959   5.912   5.332
 1568SOL     OW 5602   0.305   6.837   0.552
 1568SOL    HW1 5603   0.220   6.868   0.509
 1568SOL    HW2 5604   0.303   6.859   0.649
 1569SOL     OW 5605   3.164   6.041   5.276
 1569SOL    HW1 5606   3.185   6.127   5.231
 1569SOL    HW2 5607   3.248   6.001   5.313
 1570SOL     OW 5608   3.052   2.130   1.936
 1570SOL    HW1 5609   2.991   2.209   1.933
 1570SOL    HW2 5610   3.010   2.058   1.992
 1571SOL     OW 5611   0.142   3.064   0.660
 1571SOL    HW1 5612   0.094   3.057   0.747
 1571SOL    HW2 5613   0.177   2.974   0.634
 1572SOL     OW 5614   0.258   5.610   3.425
 1572SOL    HW1 5615   0.315   5.528   3.417
 1572SOL    HW2 5616   0.185   5.593   3.491
 1573SOL     OW 5617   4.719   6.581   0.262
 1573SOL    HW1 5618   4.726   6.665   0.316
 1573SOL    HW2 5619   4.627   6.571   0.227
 1574SOL     OW 5620   5.363   3.587   1.924
 1574SOL    HW1 5621   5.323   3.498   1.902
 1574SOL    HW2 5622   5.290   3.653   1.943
 1575SOL     OW 5623   3.782   2.307   0.449
 1575SOL    HW1 5624   3.694   2.268   0.422
 1575SOL    HW2 5625   3.852   2.279   0.383
 1576SOL     OW 5626   6.367   5.135   3.009
 1576SOL    HW1 5627   6.268   5.135   3.023
 1576SOL    HW2 5628   6.393   5.216   2.956
 1577SOL     OW 5629   1.702   0.497   0.601
 1577SOL    HW1 5630   1.730   0.515   0.507
 1577SOL    HW2 5631   1.676   0.583   0.645
 1578SOL     OW 5632   5.811   6.031   4.494
 1578SOL    HW1 5633   5.751   5.959   4.457
 1578SOL    HW2 5634   5.876   6.058   4.424
 1579SOL     OW 5635   6.645   0.621   3.057
 1579SOL    HW1 5636   6.681   0.528   3.067
 1579SOL    HW2 5637   6.552   0.625   3.093
 1580SOL     OW 5638   3.344   4.366   5.691
 1580SOL    HW1 5639   3.263   4.319   5.725
 1580SOL    HW2 5640   3.324   4.462   5.677
 1581SOL     OW 5641   6.106   3.308   4.526
 1581SOL    HW1 5642   6.119   3.224   4.474
 1581SOL    HW2 5643   6.114   3.387   4.464
 1582SOL     OW 5644   5.767   6.590   4.061
 1582SOL    HW1 5645   5.675   6.606   4.099
 1582SOL    HW2 5646   5.775   6.636   3.973
 1583SOL     OW 5647   2.067   2.759   1.567
 1583SOL    HW1 5648   2.001   2.739   1.494
 1583SOL    HW2 5649   2.026   2.824   1.631
 1584SOL     OW 5650   2.482   0.041   6.536
 1584SOL    HW1 5651   2.533   6.990   6.577
 1584SOL    HW2 5652   2.483   0.031   6.436
 1585SOL     OW 5653   5.582   1.082   6.410
 1585SOL    HW1 5654   5.671   1.109   6.447
 1585SOL    HW2 5655   5.533   1.026   6.477
 1586SOL     OW 5656   3.751   3.027   2.849
 1586SOL    HW1 5657   3.811   2.976   2.787
 1586SOL    HW2 5658   3.663   2.980   2.857
 1587SOL     OW 5659   1.678   6.791   6.205
 1587SOL    HW1 5660   1.598   6.770   6.262
 1587SOL    HW2 5661   1.665   6.880   6.161
 1588SOL     OW 5662   5.964   4.177   0.384
 1588SOL    HW1 5663   5.931   4.085   0.406
 1588SOL    HW2 5664   5.915   4.243   0.440
 1589SOL     OW 5665   5.047   4.632   3.097
 1589SOL    HW1 5666   5.108   4.698   3.140
 1589SOL    HW2 5667   4.977   4.603   3.163
 1590SOL     OW 5668   2.333   6.110   4.585
 1590SOL    HW1 5669   2.379   6.050   4.519
 1590SOL    HW2 5670   2.240   6.076   4.601
 1591SOL     OW 5671   2.272   3.420   0.175
 1591SOL    HW1 5672   2.290   3.482   0.099
 1591SOL    HW2 5673   2.173   3.410   0.188
 1592SOL     OW 5674   3.751   3.513   3.971
 1592SOL    HW1 5675   3.690   3.591   3.986
 1592SOL    HW2 5676   3.763   3.462   4.056
 1593SOL     OW 5677   1.671   4.110   4.183
 1593SOL    HW1 5678   1.706   4.203   4.185
 1593SOL    HW2 5679   1.648   4.085   4.089
 1594SOL     OW 5680   0.467   5.663   2.684
 1594SOL    HW1 5681   0.540   5.650   2.617
 1594SOL    HW2 5682   0.495   5.733   2.750
 1595SOL     OW 5683   6.876   3.575   4.836
 1595SOL    HW1 5684   6.940   3.595   4.761
 1595SOL    HW2 5685   6.831   3.488   4.818
 1596SOL     OW 5686   2.996   5.110   6.793
 1596SOL    HW1 5687   2.998   5.012   6.814
 1596SOL    HW2 5688   2.929   5.155   6.852
 1597SOL     OW 5689   2.660   6.854   0.764
 1597SOL    HW1 5690   2.636   6.810   0.677
 1597SOL    HW2 5691   2.757   6.879   0.763
 1598SOL     OW 5692   6.965   5.841   1.527
 1598SOL    HW1 5693   6.944   5.751   1.567
 1598SOL    HW2 5694   6.944   5.912   1.594
 1599SOL     OW 5695   2.805   5.531   0.349
 1599SOL    HW1 5696   2.867   5.609   0.359
 1599SOL    HW2 5697   2.802   5.480   0.434
 1600SOL     OW 5698   3.581   1.629   4.887
 1600SOL    HW1 5699   3.637   1.649   4.807
 1600SOL    HW2 5700   3.640   1.607   4.965
 1601SOL     OW 5701   2.002   5.154   4.951
 1601SOL    HW1 5702   2.049   5.090   4.891
 1601SOL    HW2 5703   2.055   5.239   4.956
 1602SOL     OW 5704   0.354   3.602   1.920
 1602SOL    HW1 5705   0.384   3.523   1.867
 1602SOL    HW2 5706   0.290   3.573   1.991
 1603SOL     OW 5707   6.230   6.839   0.476
 1603SOL    HW1 5708   6.218   6.751   0.522
 1603SOL    HW2 5709   6.315   6.881   0.506
 1604SOL     OW 5710   0.785   5.233   4.451
 1604SOL    HW1 5711   0.790   5.291   4.370
 1604SOL    HW2 5712   0.783   5.290   4.533
 1605SOL     OW 5713   4.564   5.013   2.671
 1605SOL    HW1 5714   4.605   5.104   2.671
 1605SOL    HW2 5715   4.590   4.965   2.755
 1606SOL     OW 5716   5.794   5.612   4.540
 1606SOL    HW1 5717   5.775   5.655   4.628
 1606SOL    HW2 5718   5.763   5.672   4.466
 1607SOL     OW 5719   5.003   3.336   1.696
 1607SOL    HW1 5720   5.078   3.313   1.635
 1607SOL    HW2 5721   4.936   3.262   1.697
 1608SOL     OW 5722   2.553   7.023   0.933
 1608SOL    HW1 5723   2.592   6.963   0.863
 1608SOL    HW2 5724   2.478   0.050   0.894
 1609SOL     OW 5725   5.498   1.419   4.819
 1609SOL    HW1 5726   5.592   1.442   4.846
 1609SOL    HW2 5727   5.437   1.495   4.843
 1610SOL     OW 5728   4.636   6.559   3.114
 1610SOL    HW1 5729   4.654   6.642   3.062
 1610SOL    HW2 5730   4.611   6.485   3.052
 1611SOL     OW 5731   4.189   4.091   1.410
 1611SOL    HW1 5732   4.187   4.074   1.312
 1611SOL    HW2 5733   4.127   4.027   1.457
 1612SOL     OW 5734   3.087   0.659   4.662
 1612SOL    HW1 5735   3.065   0.736   4.603
 1612SOL    HW2 5736   3.027   0.582   4.640
 1613SOL     OW 5737   2.047   0.455   1.562
 1613SOL    HW1 5738   1.979   0.425   1.495
 1613SOL    HW2 5739   2.102   0.529   1.522
 1614SOL     OW 5740   7.003   2.294   5.254
 1614SOL    HW1 5741   6.947   2.298   5.171
 1614SOL    HW2 5742   0.036   2.213   5.250
 1615SOL     OW 5743   6.672   5.755   5.387
 1615SOL    HW1 5744   6.596   5.773   5.449
 1615SOL    HW2 5745   6.697   5.658   5.393
 1616SOL     OW 5746   2.434   1.878   6.313
 1616SOL    HW1 5747   2.496   1.799   6.309
 1616SOL    HW2 5748   2.489   1.962   6.312
 1617SOL     OW 5749   2.838   1.035   3.622
 1617SOL    HW1 5750   2.802   1.119   3.662
 1617SOL    HW2 5751   2.858   1.051   3.525
 1618SOL     OW 5752   5.241   2.931   2.114
 1618SOL    HW1 5753   5.189   2.860   2.161
 1618SOL    HW2 5754   5.300   2.979   2.180
 1619SOL     OW 5755   1.488   2.683   4.819
 1619SOL    HW1 5756   1.560   2.660   4.753
 1619SOL    HW2 5757   1.479   2.782   4.824
 1620SOL     OW 5758   3.538   5.851   1.740
 1620SOL    HW1 5759   3.562   5.907   1.820
 1620SOL    HW2 5760   3.608   5.862   1.670
 1621SOL     OW 5761   2.217   2.614   1.725
 1621SOL    HW1 5762   2.314   2.612   1.699
 1621SOL    HW2 5763   2.168   2.677   1.665
 1622SOL     OW 5764   2.360   2.337   5.136
 1622SOL    HW1 5765   2.354   2.301   5.230
 1622SOL    HW2 5766   2.280   2.394   5.118
 1623SOL     OW 5767   2.274   2.029   4.508
 1623SOL    HW1 5768   2.286   1.946   4.453
 1623SOL    HW2 5769   2.183   2.068   4.489
 1624SOL     OW 5770   1.971   0.669   0.578
 1624SOL    HW1 5771   2.033   0.595   0.604
 1624SOL    HW2 5772   1.985   0.748   0.637
 1625SOL     OW 5773   1.079   6.902   1.278
 1625SOL    HW1 5774   1.016   6.846   1.333
 1625SOL    HW2 5775   1.030   6.938   1.199
 1626SOL     OW 5776   2.680   3.162   6.267
 1626SOL    HW1 5777   2.684   3.115   6.179
 1626SOL    HW2 5778   2.707   3.099   6.340
 1627SOL     OW 5779   4.706   4.181   3.422
 1627SOL    HW1 5780   4.713   4.208   3.326
 1627SOL    HW2 5781   4.673   4.259   3.476
 1628SOL     OW 5782   3.369   3.597   0.313
 1628SOL    HW1 5783   3.426   3.551   0.382
 1628SOL    HW2 5784   3.418   3.597   0.226
 1629SOL     OW 5785   2.899   2.311   2.864
 1629SOL    HW1 5786   2.862   2.399   2.897
 1629SOL    HW2 5787   2.999   2.315   2.863
 1630SOL     OW 5788   5.846   4.826   4.217
 1630SOL    HW1 5789   5.921   4.878   4.257
 1630SOL    HW2 5790   5.808   4.876   4.139
 1631SOL     OW 5791   1.183   0.276   5.981
 1631SOL    HW1 5792   1.174   0.335   6.061
 1631SOL    HW2 5793   1.248   0.317   5.916
 1632SOL     OW 5794   4.118   6.629   6.660
 1632SOL    HW1 5795   4.135   6.727   6.654
 1632SOL    HW2 5796   4.189   6.579   6.611
 1633SOL     OW 5797   6.183   4.058   2.845
 1633SOL    HW1 5798   6.142   4.143   2.879
 1633SOL    HW2 5799   6.244   4.020   2.914
 1634SOL     OW 5800   3.445   1.161   1.196
 1634SOL    HW1 5801   3.441   1.072   1.242
 1634SOL    HW2 5802   3.535   1.201   1.208
 1635SOL     OW 5803   1.621   4.466   3.260
 1635SOL    HW1 5804   1.575   4.377   3.270
 1635SOL    HW2 5805   1.574   4.534   3.316
 1636SOL     OW 5806   3.079   6.157   0.737
 1636SOL    HW1 5807   2.986   6.160   0.699
 1636SOL    HW2 5808   3.112   6.062   0.735
 1637SOL     OW 5809   0.910   3.137   2.800
 1637SOL    HW1 5810   0.984   3.173   2.743
 1637SOL    HW2 5811   0.910   3.038   2.795
 1638SOL     OW 5812   1.352   2.364   6.133
 1638SOL    HW1 5813   1.325   2.279   6.177
 1638SOL    HW2 5814   1.324   2.362   6.037
 1639SOL     OW 5815   4.099   4.856   2.752
 1639SOL    HW1 5816   4.090   4.956   2.746
 1639SOL    HW2 5817   4.076   4.827   2.845
 1640SOL     OW 5818   5.941   0.133   1.083
 1640SOL    HW1 5819   6.013   0.140   1.151
 1640SOL    HW2 5820   5.903   0.041   1.084
 1641SOL     OW 5821   6.521   2.674   4.724
 1641SOL    HW1 5822   6.610   2.652   4.763
 1641SOL    HW2 5823   6.523   2.656   4.626
 1642SOL     OW 5824   0.825   2.199   1.895
 1642SOL    HW1 5825   0.874   2.117   1.926
 1642SOL    HW2 5826   0.763   2.229   1.967
 1643SOL     OW 5827   3.834   0.389   6.045
 1643SOL    HW1 5828   3.791   0.437   6.121
 1643SOL    HW2 5829   3.775   0.314   6.015
 1644SOL     OW 5830   3.972   1.298   1.083
 1644SOL    HW1 5831   3.886   1.253   1.063
 1644SOL    HW2 5832   4.046   1.254   1.032
 1645SOL     OW 5833   2.197   6.080   6.149
 1645SOL    HW1 5834   2.201   6.077   6.249
 1645SOL    HW2 5835   2.127   6.016   6.117
 1646SOL     OW 5836   2.454   3.526   0.349
 1646SOL    HW1 5837   2.406   3.478   0.277
 1646SOL    HW2 5838   2.389   3.552   0.421
 1647SOL     OW 5839   5.497   3.623   2.525
 1647SOL    HW1 5840   5.461   3.550   2.584
 1647SOL    HW2 5841   5.423   3.686   2.501
 1648SOL     OW 5842   3.066   0.720   3.138
 1648SOL    HW1 5843   3.165   0.717   3.129
 1648SOL    HW2 5844   3.032   0.629   3.163
 1649SOL     OW 5845   2.815   0.183   4.286
 1649SOL    HW1 5846   2.796   0.257   4.351
 1649SOL    HW2 5847   2.858   0.222   4.205
 1650SOL     OW 5848   3.055   0.061   4.421
 1650SOL    HW1 5849   2.970   0.094   4.378
 1650SOL    HW2 5850   3.044   0.060   4.520
 1651SOL     OW 5851   1.255   6.770   2.232
 1651SOL    HW1 5852   1.259   6.794   2.329
 1651SOL    HW2 5853   1.314   6.691   2.215
 1652SOL     OW 5854   3.542   3.330   1.876
 1652SOL    HW1 5855   3.585   3.395   1.938
 1652SOL    HW2 5856   3.444   3.327   1.894
 1653SOL     OW 5857   0.895   4.379   1.103
 1653SOL    HW1 5858   0.980   4.393   1.052
 1653SOL    HW2 5859   0.875   4.459   1.159
 1654SOL     OW 5860   0.845   2.163   3.804
 1654SOL    HW1 5861   0.797   2.249   3.812
 1654SOL    HW2 5862   0.800   2.093   3.859
 1655SOL     OW 5863   4.409   4.251   5.304
 1655SOL    HW1 5864   4.348   4.174   5.287
 1655SOL    HW2 5865   4.373   4.333   5.259
 1656SOL     OW 5866   0.298   3.586   2.420
 1656SOL    HW1 5867   0.236   3.531   2.474
 1656SOL    HW2 5868   0.392   3.552   2.431
 1657SOL     OW 5869   1.213   0.889   5.279
 1657SOL    HW1 5870   1.301   0.871   5.324
 1657SOL    HW2 5871   1.139   0.848   5.332
 1658SOL     OW 5872   5.829   0.136   2.953
 1658SOL    HW1 5873   5.813   0.118   3.050
 1658SOL    HW2 5874   5.910   0.194   2.942
 1659SOL     OW 5875   5.287   2.269   6.639
 1659SOL    HW1 5876   5.218   2.275   6.567
 1659SOL    HW2 5877   5.243   2.274   6.729
 1660SOL     OW 5878   2.273   5.987   3.902
 1660SOL    HW1 5879   2.314   6.077   3.904
 1660SOL    HW2 5880   2.278   5.949   3.810
 1661SOL     OW 5881   2.359   0.664   3.357
 1661SOL    HW1 5882   2.328   0.571   3.378
 1661SOL    HW2 5883   2.403   0.703   3.437
 1662SOL     OW 5884   6.744   0.347   3.076
 1662SOL    HW1 5885   6.842   0.354   3.095
 1662SOL    HW2 5886   6.718   0.251   3.071
 1663SOL     OW 5887   1.909   0.458   3.461
 1663SOL    HW1 5888   1.856   0.510   3.528
 1663SOL    HW2 5889   1.849   0.396   3.411
 1664SOL     OW 5890   2.250   5.658   4.539
 1664SOL    HW1 5891   2.304   5.603   4.475
 1664SOL    HW2 5892   2.258   5.619   4.631
 1665SOL     OW 5893   6.647   1.089   3.722
 1665SOL    HW1 5894   6.622   1.184   3.705
 1665SOL    HW2 5895   6.723   1.086   3.787
 1666SOL     OW 5896   5.433   2.196   6.310
 1666SOL    HW1 5897   5.443   2.172   6.406
 1666SOL    HW2 5898   5.498   2.269   6.287
 1667SOL     OW 5899   0.020   0.311   1.266
 1667SOL    HW1 5900   0.106   0.260   1.271
 1667SOL    HW2 5901   0.002   0.355   1.353
 1668SOL     OW 5902   2.017   0.387   4.627
 1668SOL    HW1 5903   1.943   0.454   4.638
 1668SOL    HW2 5904   2.053   0.393   4.534
 1669SOL     OW 5905   5.404   5.964   5.926
 1669SOL    HW1 5906   5.387   6.028   6.002
 1669SOL    HW2 5907   5.396   5.870   5.960
 1670SOL     OW 5908   6.920   3.151   6.292
 1670SOL    HW1 5909   6.918   3.116   6.385
 1670SOL    HW2 5910   7.014   3.153   6.258
 1671SOL     OW 5911   5.510   5.421   0.349
 1671SOL    HW1 5912   5.468   5.498   0.397
 1671SOL    HW2 5913   5.485   5.336   0.396
 1672SOL     OW 5914   1.743   4.772   2.767
 1672SOL    HW1 5915   1.776   4.817   2.850
 1672SOL    HW2 5916   1.764   4.829   2.688
 1673SOL     OW 5917   6.475   2.951   3.514
 1673SOL    HW1 5918   6.392   2.973   3.464
 1673SOL    HW2 5919   6.551   2.938   3.449
 1674SOL     OW 5920   2.530   5.616   0.425
 1674SOL    HW1 5921   2.597   5.542   0.435
 1674SOL    HW2 5922   2.571   5.702   0.456
 1675SOL     OW 5923   5.012   1.503   6.680
 1675SOL    HW1 5924   5.081   1.514   6.751
 1675SOL    HW2 5925   5.002   1.588   6.629
 1676SOL     OW 5926   3.004   1.818   3.790
 1676SOL    HW1 5927   2.995   1.902   3.843
 1676SOL    HW2 5928   3.058   1.835   3.708
 1677SOL     OW 5929   5.689   0.295   5.857
 1677SOL    HW1 5930   5.737   0.244   5.929
 1677SOL    HW2 5931   5.597   0.320   5.888
 1678SOL     OW 5932   5.072   6.830   2.017
 1678SOL    HW1 5933   5.051   6.867   1.926
 1678SOL    HW2 5934   4.998   6.854   2.080
 1679SOL     OW 5935   6.174   4.562   0.307
 1679SOL    HW1 5936   6.235   4.641   0.299
 1679SOL    HW2 5937   6.142   4.554   0.401
 1680SOL     OW 5938   0.526   2.276   5.815
 1680SOL    HW1 5939   0.605   2.273   5.876
 1680SOL    HW2 5940   0.448   2.315   5.864
 1681SOL     OW 5941   4.470   5.534   0.060
 1681SOL    HW1 5942   4.377   5.568   0.076
 1681SOL    HW2 5943   4.531   5.568   0.131
 1682SOL     OW 5944   0.217   2.898   5.698
 1682SOL    HW1 5945   0.223   2.827   5.768
 1682SOL    HW2 5946   0.149   2.872   5.630
 1683SOL     OW 5947   5.489   5.075   6.024
 1683SOL    HW1 5948   5.540   5.157   5.999
 1683SOL    HW2 5949   5.484   5.013   5.946
 1684SOL     OW 5950   0.337   6.700   4.404
 1684SOL    HW1 5951   0.404   6.626   4.401
 1684SOL    HW2 5952   0.260   6.678   4.344
 1685SOL     OW 5953   0.968   1.753   0.392
 1685SOL    HW1 5954   0.914   1.704   0.460
 1685SOL    HW2 5955   0.911   1.819   0.343
 1686SOL     OW 5956   1.452   6.388   6.174
 1686SOL    HW1 5957   1.468   6.368   6.271
 1686SOL    HW2 5958   1.399   6.472   6.167
 1687SOL     OW 5959   3.140   6.396   2.480
 1687SOL    HW1 5960   3.055   6.444   2.506
 1687SOL    HW2 5961   3.127   6.298   2.492
 1688SOL     OW 5962   0.474   1.467   3.866
 1688SOL    HW1 5963   0.466   1.454   3.767
 1688SOL    HW2 5964   0.411   1.404   3.913
 1689SOL     OW 5965   3.046   1.364   1.510
 1689SOL    HW1 5966   2.966   1.379   1.451
 1689SOL    HW2 5967   3.116   1.313   1.459
 1690SOL     OW 5968   0.986   2.193   0.766
 1690SOL    HW1 5969   0.908   2.255   0.759
 1690SOL    HW2 5970   0.953   2.099   0.773
 1691SOL     OW 5971   4.549   4.402   3.861
 1691SOL    HW1 5972   4.637   4.448   3.848
 1691SOL    HW2 5973   4.565   4.306   3.885
 1692SOL     OW 5974   1.071   0.040   3.651
 1692SOL    HW1 5975   1.118   6.980   3.630
 1692SOL    HW2 5976   1.014   0.067   3.573
 1693SOL     OW 5977   3.509   2.131   4.074
 1693SOL    HW1 5978   3.525   2.142   3.976
 1693SOL    HW2 5979   3.597   2.134   4.123
 1694SOL     OW 5980   6.263   6.014   4.908
 1694SOL    HW1 5981   6.320   5.973   4.837
 1694SOL    HW2 5982   6.289   6.110   4.920
 1695SOL     OW 5983   3.919   1.587   6.380
 1695SOL    HW1 5984   4.003   1.641   6.375
 1695SOL    HW2 5985   3.845   1.636   6.334
 1696SOL     OW 5986   3.798   5.651   1.702
 1696SOL    HW1 5987   3.852   5.568   1.704
 1696SOL    HW2 5988   3.739   5.655   1.782
 1697SOL     OW 5989   1.195   1.739   2.230
 1697SOL    HW1 5990   1.155   1.775   2.315
 1697SOL    HW2 5991   1.264   1.670   2.253
 1698SOL     OW 5992   4.751   1.729   0.139
 1698SOL    HW1 5993   4.831   1.722   0.198
 1698SOL    HW2 5994   4.669   1.736   0.194
 1699SOL     OW 5995   2.435   4.768   1.222
 1699SOL    HW1 5996   2.495   4.693   1.195
 1699SOL    HW2 5997   2.432   4.837   1.150
 1700SOL     OW 5998   6.134   2.900   4.604
 1700SOL    HW1 5999   6.213   2.880   4.662
 1700SOL    HW2 6000   6.067   2.826   4.613
 1701SOL     OW 6001   5.957   3.123   4.981
 1701SOL    HW1 6002   5.962   3.131   4.882
 1701SOL    HW2 6003   5.936   3.213   5.021
 1702SOL     OW 6004   5.244   2.681   1.466
 1702SOL    HW1 6005   5.277   2.651   1.376
 1702SOL    HW2 6006   5.144   2.680   1.467
 1703SOL     OW 6007   2.073   3.619   0.761
 1703SOL    HW1 6008   2.039   3.527   0.740
 1703SOL    HW2 6009   2.017   3.687   0.713
 1704SOL     OW 6010   6.859   2.026   2.616
 1704SOL    HW1 6011   6.923   2.081   2.562
 1704SOL    HW2 6012   6.766   2.061   2.604
 1705SOL     OW 6013   3.960   3.151   2.653
 1705SOL    HW1 6014   4.019   3.188   2.582
 1705SOL    HW2 6015   3.910   3.072   2.618
 1706SOL     OW 6016   2.151   1.022   6.135
 1706SOL    HW1 6017   2.220   1.093   6.128
 1706SOL    HW2 6018   2.195   0.932   6.138
 1707SOL     OW 6019   5.294   1.592   2.268
 1707SOL    HW1 6020   5.227   1.520   2.285
 1707SOL    HW2 6021   5.302   1.608   2.170
 1708SOL     OW 6022   0.582   4.370   1.275
 1708SOL    HW1 6023   0.490   4.392   1.307
 1708SOL    HW2 6024   0.637   4.453   1.270
 1709SOL     OW 6025   3.626   5.393   3.630
 1709SOL    HW1 6026   3.618   5.482   3.675
 1709SOL    HW2 6027   3.595   5.402   3.535
 1710SOL     OW 6028   6.803   4.675   4.813
 1710SOL    HW1 6029   6.821   4.743   4.742
 1710SOL    HW2 6030   6.888   4.655   4.862
 1711SOL     OW 6031   1.417   4.827   5.592
 1711SOL    HW1 6032   1.490   4.872   5.540
 1711SOL    HW2 6033   1.407   4.733   5.560
 1712SOL     OW 6034   1.678   4.714   2.233
 1712SOL    HW1 6035   1.616   4.661   2.291
 1712SOL    HW2 6036   1.762   4.734   2.283
 1713SOL     OW 6037   2.765   3.095   0.884
 1713SOL    HW1 6038   2.757   3.167   0.952
 1713SOL    HW2 6039   2.728   3.127   0.796
 1714SOL     OW 6040   4.197   1.288   1.637
 1714SOL    HW1 6041   4.178   1.330   1.548
 1714SOL    HW2 6042   4.254   1.349   1.692
 1715SOL     OW 6043   1.123   3.102   3.375
 1715SOL    HW1 6044   1.181   3.053   3.311
 1715SOL    HW2 6045   1.071   3.172   3.327
 1716SOL     OW 6046   0.314   6.992   6.553
 1716SOL    HW1 6047   0.286   0.041   6.493
 1716SOL    HW2 6048   0.395   7.019   6.605
 1717SOL     OW 6049   2.910   0.476   6.617
 1717SOL    HW1 6050   2.930   0.573   6.635
 1717SOL    HW2 6051   2.853   0.468   6.535
 1718SOL     OW 6052   2.130   4.010   5.646
 1718SOL    HW1 6053   2.207   4.055   5.692
 1718SOL    HW2 6054   2.116   3.919   5.686
 1719SOL     OW 6055   1.859   3.683   1.084
 1719SOL    HW1 6056   1.835   3.705   0.989
 1719SOL    HW2 6057   1.929   3.612   1.085
 1720SOL     OW 6058   0.051   2.405   2.390
 1720SOL    HW1 6059   0.061   2.450   2.479
 1720SOL    HW2 6060   0.135   2.416   2.337
 1721SOL     OW 6061   1.092   6.600   4.350
 1721SOL    HW1 6062   1.148   6.581   4.431
 1721SOL    HW2 6063   1.150   6.595   4.268
 1722SOL     OW 6064   5.756   0.168   1.810
 1722SOL    HW1 6065   5.831   0.121   1.858
 1722SOL    HW2 6066   5.789   0.258   1.778
 1723SOL     OW 6067   5.671   1.468   3.179
 1723SOL    HW1 6068   5.607   1.397   3.148
 1723SOL    HW2 6069   5.665   1.476   3.278
 1724SOL     OW 6070   5.062   0.595   0.193
 1724SOL    HW1 6071   5.129   0.669   0.194
 1724SOL    HW2 6072   4.970   0.634   0.193
 1725SOL     OW 6073   3.645   5.722   2.343
 1725SOL    HW1 6074   3.733   5.752   2.306
 1725SOL    HW2 6075   3.636   5.623   2.330
 1726SOL     OW 6076   6.716   4.079   4.547
 1726SOL    HW1 6077   6.666   4.161   4.520
 1726SOL    HW2 6078   6.813   4.089   4.523
 1727SOL     OW 6079   2.707   3.944   5.687
 1727SOL    HW1 6080   2.616   3.977   5.661
 1727SOL    HW2 6081   2.774   4.017   5.671
 1728SOL     OW 6082   4.773   5.620   3.763
 1728SOL    HW1 6083   4.699   5.641   3.826
 1728SOL    HW2 6084   4.789   5.698   3.703
 1729SOL     OW 6085   0.245   3.199   2.459
 1729SOL    HW1 6086   0.169   3.256   2.429
 1729SOL    HW2 6087   0.256   3.209   2.558
 1730SOL     OW 6088   4.919   2.178   4.562
 1730SOL    HW1 6089   5.010   2.137   4.552
 1730SOL    HW2 6090   4.882   2.199   4.471
 1731SOL     OW 6091   0.768   6.669   0.112
 1731SOL    HW1 6092   0.865   6.689   0.105
 1731SOL    HW2 6093   0.715   6.752   0.094
 1732SOL     OW 6094   0.888   4.280   0.041
 1732SOL    HW1 6095   0.969   4.279   7.008
 1732SOL    HW2 6096   0.915   4.302   0.134
 1733SOL     OW 6097   1.242   4.543   6.705
 1733SOL    HW1 6098   1.239   4.562   6.607
 1733SOL    HW2 6099   1.288   4.456   6.721
 1734SOL     OW 6100   5.182   4.341   0.624
 1734SOL    HW1 6101   5.205   4.427   0.580
 1734SOL    HW2 6102   5.095   4.307   0.589
 1735SOL     OW 6103   4.791   5.173   7.017
 1735SOL    HW1 6104   4.854   5.181   0.069
 1735SOL    HW2 6105   4.773   5.265   6.980
 1736SOL     OW 6106   3.412   3.084   0.500
 1736SOL    HW1 6107   3.496   3.038   0.526
 1736SOL    HW2 6108   3.340   3.065   0.567
 1737SOL     OW 6109   1.266   5.783   2.951
 1737SOL    HW1 6110   1.193   5.768   3.016
 1737SOL    HW2 6111   1.312   5.869   2.971
 1738SOL     OW 6112   0.535   1.451   2.117
 1738SOL    HW1 6113   0.615   1.483   2.168
 1738SOL    HW2 6114   0.465   1.420   2.181
 1739SOL     OW 6115   4.179   1.731   6.173
 1739SOL    HW1 6116   4.278   1.718   6.183
 1739SOL    HW2 6117   4.153   1.710   6.079
 1740SOL     OW 6118   0.741   2.340   6.819
 1740SOL    HW1 6119   0.779   2.285   6.745
 1740SOL    HW2 6120   0.735   2.436   6.790
 1741SOL     OW 6121   0.931   0.953   2.306
 1741SOL    HW1 6122   1.030   0.942   2.319
 1741SOL    HW2 6123   0.913   1.041   2.262
 1742SOL     OW 6124   5.865   6.186   4.110
 1742SOL    HW1 6125   5.861   6.264   4.047
 1742SOL    HW2 6126   5.960   6.160   4.125
 1743SOL     OW 6127   4.473   1.030   0.662
 1743SOL    HW1 6128   4.573   1.033   0.663
 1743SOL    HW2 6129   4.440   0.977   0.741
 1744SOL     OW 6130   3.734   5.969   1.534
 1744SOL    HW1 6131   3.755   6.032   1.609
 1744SOL    HW2 6132   3.768   6.007   1.448
 1745SOL     OW 6133   6.940   2.725   5.192
 1745SOL    HW1 6134   6.880   2.803   5.209
 1745SOL    HW2 6135   6.893   2.640   5.214
 1746SOL     OW 6136   2.571   0.986   6.046
 1746SOL    HW1 6137   2.526   1.004   6.134
 1746SOL    HW2 6138   2.670   0.991   6.058
 1747SOL     OW 6139   4.355   7.013   5.277
 1747SOL    HW1 6140   4.410   6.942   5.232
 1747SOL    HW2 6141   4.274   6.971   5.318
 1748SOL     OW 6142   5.628   1.151   1.927
 1748SOL    HW1 6143   5.688   1.224   1.958
 1748SOL    HW2 6144   5.560   1.131   1.999
 1749SOL     OW 6145   4.999   0.378   6.218
 1749SOL    HW1 6146   5.041   0.348   6.305
 1749SOL    HW2 6147   4.921   0.438   6.238
 1750SOL     OW 6148   3.508   0.671   3.673
 1750SOL    HW1 6149   3.544   0.762   3.656
 1750SOL    HW2 6150   3.482   0.662   3.769
 1751SOL     OW 6151   2.049   5.838   4.456
 1751SOL    HW1 6152   2.017   5.878   4.542
 1751SOL    HW2 6153   2.105   5.758   4.474
 1752SOL     OW 6154   0.118   2.045   6.524
 1752SOL    HW1 6155   0.171   2.092   6.454
 1752SOL    HW2 6156   0.089   1.956   6.490
 1753SOL     OW 6157   2.064   6.198   2.601
 1753SOL    HW1 6158   1.989   6.258   2.628
 1753SOL    HW2 6159   2.077   6.127   2.672
 1754SOL     OW 6160   3.176   3.285   2.948
 1754SOL    HW1 6161   3.080   3.273   2.922
 1754SOL    HW2 6162   3.233   3.222   2.896
 1755SOL     OW 6163   6.570   4.458   0.085
 1755SOL    HW1 6164   6.509   4.429   0.159
 1755SOL    HW2 6165   6.608   4.377   0.040
 1756SOL     OW 6166   6.132   4.735   5.371
 1756SOL    HW1 6167   6.034   4.751   5.380
 1756SOL    HW2 6168   6.160   4.659   5.430
 1757SOL     OW 6169   4.077   0.531   5.325
 1757SOL    HW1 6170   4.146   0.508   5.393
 1757SOL    HW2 6171   4.014   0.599   5.362
 1758SOL     OW 6172   2.662   1.428   3.305
 1758SOL    HW1 6173   2.748   1.413   3.355
 1758SOL    HW2 6174   2.674   1.504   3.242
 1759SOL     OW 6175   6.901   6.172   6.147
 1759SOL    HW1 6176   6.834   6.135   6.082
 1759SOL    HW2 6177   6.993   6.160   6.110
 1760SOL     OW 6178   4.550   6.205   2.687
 1760SOL    HW1 6179   4.623   6.272   2.680
 1760SOL    HW2 6180   4.571   6.126   2.631
 1761SOL     OW 6181   5.552   3.277   1.552
 1761SOL    HW1 6182   5.483   3.346   1.575
 1761SOL    HW2 6183   5.608   3.310   1.476
 1762SOL     OW 6184   5.904   3.214   0.273
 1762SOL    HW1 6185   5.855   3.196   0.358
 1762SOL    HW2 6186   5.957   3.299   0.282
 1763SOL     OW 6187   2.316   2.804   4.570
 1763SOL    HW1 6188   2.234   2.754   4.597
 1763SOL    HW2 6189   2.292   2.896   4.541
 1764SOL     OW 6190   6.800   3.699   3.138
 1764SOL    HW1 6191   6.888   3.710   3.093
 1764SOL    HW2 6192   6.804   3.622   3.201
 1765SOL     OW 6193   1.673   3.497   5.657
 1765SOL    HW1 6194   1.701   3.519   5.563
 1765SOL    HW2 6195   1.592   3.551   5.681
 1766SOL     OW 6196   5.887   3.778   5.272
 1766SOL    HW1 6197   5.857   3.865   5.311
 1766SOL    HW2 6198   5.942   3.796   5.190
 1767SOL     OW 6199   6.369   4.904   1.243
 1767SOL    HW1 6200   6.444   4.939   1.186
 1767SOL    HW2 6201   6.341   4.815   1.209
 1768SOL     OW 6202   6.089   6.780   3.157
 1768SOL    HW1 6203   6.143   6.696   3.166
 1768SOL    HW2 6204   6.113   6.842   3.232
 1769SOL     OW 6205   4.542   1.121   3.734
 1769SOL    HW1 6206   4.454   1.088   3.767
 1769SOL    HW2 6207   4.590   1.047   3.688
 1770SOL     OW 6208   3.562   6.167   5.396
 1770SOL    HW1 6209   3.514   6.128   5.475
 1770SOL    HW2 6210   3.518   6.253   5.369
 1771SOL     OW 6211   4.531   6.229   6.796
 1771SOL    HW1 6212   4.456   6.292   6.817
 1771SOL    HW2 6213   4.536   6.159   6.867
 1772SOL     OW 6214   2.505   5.860   2.856
 1772SOL    HW1 6215   2.568   5.911   2.798
 1772SOL    HW2 6216   2.483   5.914   2.938
 1773SOL     OW 6217   1.221   6.957   0.253
 1773SOL    HW1 6218   1.230   6.857   0.250
 1773SOL    HW2 6219   1.295   6.996   0.307
 1774SOL     OW 6220   2.558   5.116   2.166
 1774SOL    HW1 6221   2.629   5.072   2.111
 1774SOL    HW2 6222   2.572   5.215   2.165
 1775SOL     OW 6223   0.685   5.169   0.690
 1775SOL    HW1 6224   0.773   5.196   0.652
 1775SOL    HW2 6225   0.676   5.207   0.783
 1776SOL     OW 6226   3.085   5.628   5.030
 1776SOL    HW1 6227   3.053   5.717   5.062
 1776SOL    HW2 6228   3.028   5.556   5.068
 1777SOL     OW 6229   3.553   6.216   0.491
 1777SOL    HW1 6230   3.481   6.285   0.501
 1777SOL    HW2 6231   3.606   6.210   0.576
 1778SOL     OW 6232   0.234   3.554   5.684
 1778SOL    HW1 6233   0.196   3.499   5.611
 1778SOL    HW2 6234   0.166   3.565   5.757
 1779SOL     OW 6235   3.531   0.036   5.698
 1779SOL    HW1 6236   3.535   0.132   5.727
 1779SOL    HW2 6237   3.527   7.003   5.779
 1780SOL     OW 6238   4.103   2.588   0.004
 1780SOL    HW1 6239   4.185   2.571   0.058
 1780SOL    HW2 6240   4.028   2.617   0.065
 1781SOL     OW 6241   2.190   5.591   3.404
 1781SOL    HW1 6242   2.159   5.574   3.497
 1781SOL    HW2 6243   2.264   5.528   3.381
 1782SOL     OW 6244   3.131   1.732   4.231
 1782SOL    HW1 6245   3.109   1.645   4.186
 1782SOL    HW2 6246   3.168   1.713   4.322
 1783SOL     OW 6247   2.087   5.722   0.505
 1783SOL    HW1 6248   1.995   5.742   0.469
 1783SOL    HW2 6249   2.141   5.806   0.505
 1784SOL     OW 6250   1.982   6.920   6.194
 1784SOL    HW1 6251   1.919   6.855   6.237
 1784SOL    HW2 6252   1.975   7.009   6.241
 1785SOL     OW 6253   6.714   5.302   2.262
 1785SOL    HW1 6254   6.720   5.226   2.197
 1785SOL    HW2 6255   6.734   5.268   2.354
 1786SOL     OW 6256   3.792   2.762   1.571
 1786SOL    HW1 6257   3.769   2.842   1.627
 1786SOL    HW2 6258   3.847   2.698   1.626
 1787SOL     OW 6259   3.394   0.527   5.548
 1787SOL    HW1 6260   3.368   0.437   5.583
 1787SOL    HW2 6261   3.485   0.523   5.507
 1788SOL     OW 6262   1.572   5.104   5.263
 1788SOL    HW1 6263   1.576   5.150   5.175
 1788SOL    HW2 6264   1.483   5.059   5.273
 1789SOL     OW 6265   5.555   6.328   0.248
 1789SOL    HW1 6266   5.519   6.272   0.174
 1789SOL    HW2 6267   5.619   6.395   0.211
 1790SOL     OW 6268   2.262   6.747   2.371
 1790SOL    HW1 6269   2.268   6.835   2.417
 1790SOL    HW2 6270   2.259   6.674   2.440
 1791SOL     OW 6271   0.399   6.563   3.360
 1791SOL    HW1 6272   0.384   6.655   3.396
 1791SOL    HW2 6273   0.341   6.548   3.280
 1792SOL     OW 6274   0.774   3.426   4.625
 1792SOL    HW1 6275   0.795   3.335   4.589
 1792SOL    HW2 6276   0.691   3.461   4.581
 1793SOL     OW 6277   0.216   0.615   3.831
 1793SOL    HW1 6278   0.143   0.565   3.878
 1793SOL    HW2 6279   0.176   0.692   3.781
 1794SOL     OW 6280   4.857   6.061   6.504
 1794SOL    HW1 6281   4.945   6.107   6.514
 1794SOL    HW2 6282   4.783   6.128   6.506
 1795SOL     OW 6283   1.494   3.643   6.760
 1795SOL    HW1 6284   1.463   3.564   6.814
 1795SOL    HW2 6285   1.588   3.667   6.786
 1796SOL     OW 6286   3.975   0.263   5.761
 1796SOL    HW1 6287   3.925   0.176   5.765
 1796SOL    HW2 6288   3.912   0.339   5.778
 1797SOL     OW 6289   0.131   1.427   1.839
 1797SOL    HW1 6290   0.230   1.421   1.827
 1797SOL    HW2 6291   0.110   1.496   1.908
 1798SOL     OW 6292   5.904   1.774   3.143
 1798SOL    HW1 6293   5.970   1.799   3.214
 1798SOL    HW2 6294   5.908   1.676   3.126
 1799SOL     OW 6295   2.600   0.862   0.070
 1799SOL    HW1 6296   2.625   0.796   7.025
 1799SOL    HW2 6297   2.502   0.852   0.091
 1800SOL     OW 6298   3.039   5.074   2.518
 1800SOL    HW1 6299   3.063   5.115   2.605
 1800SOL    HW2 6300   3.003   5.144   2.457
 1801SOL     OW 6301   5.703   6.921   0.405
 1801SOL    HW1 6302   5.711   6.836   0.458
 1801SOL    HW2 6303   5.698   6.999   0.467
 1802SOL     OW 6304   5.964   5.048   4.336
 1802SOL    HW1 6305   6.018   5.035   4.418
 1802SOL    HW2 6306   5.942   5.145   4.325
 1803SOL     OW 6307   6.195   4.974   0.622
 1803SOL    HW1 6308   6.129   4.954   0.694
 1803SOL    HW2 6309   6.277   4.919   0.636
 1804SOL     OW 6310   3.308   3.338   6.092
 1804SOL    HW1 6311   3.223   3.347   6.040
 1804SOL    HW2 6312   3.300   3.261   6.156
 1805SOL     OW 6313   6.191   2.897   7.026
 1805SOL    HW1 6314   6.241   2.982   7.010
 1805SOL    HW2 6315   6.105   2.918   0.047
 1806SOL     OW 6316   6.606   6.781   0.117
 1806SOL    HW1 6317   6.700   6.764   0.147
 1806SOL    HW2 6318   6.591   6.735   0.029
 1807SOL     OW 6319   6.825   2.037   5.592
 1807SOL    HW1 6320   6.911   2.055   5.639
 1807SOL    HW2 6321   6.839   1.968   5.521
 1808SOL     OW 6322   2.444   4.565   4.558
 1808SOL    HW1 6323   2.365   4.625   4.568
 1808SOL    HW2 6324   2.435   4.487   4.619
 1809SOL     OW 6325   3.756   0.130   6.592
 1809SOL    HW1 6326   3.786   0.041   6.558
 1809SOL    HW2 6327   3.660   0.125   6.620
 1810SOL     OW 6328   2.700   6.479   2.766
 1810SOL    HW1 6329   2.688   6.553   2.700
 1810SOL    HW2 6330   2.716   6.393   2.717
 1811SOL     OW 6331   5.805   5.787   3.187
 1811SOL    HW1 6332   5.867   5.847   3.135
 1811SOL    HW2 6333   5.735   5.842   3.231
 1812SOL     OW 6334   4.381   4.906   5.414
 1812SOL    HW1 6335   4.380   4.824   5.471
 1812SOL    HW2 6336   4.448   4.895   5.340
 1813SOL     OW 6337   6.742   6.088   5.615
 1813SOL    HW1 6338   6.768   6.131   5.529
 1813SOL    HW2 6339   6.814   6.023   5.643
 1814SOL     OW 6340   5.057   6.793   2.988
 1814SOL    HW1 6341   4.983   6.860   2.983
 1814SOL    HW2 6342   5.057   6.748   3.077
 1815SOL     OW 6343   0.194   1.323   2.890
 1815SOL    HW1 6344   0.101   1.356   2.873
 1815SOL    HW2 6345   0.235   1.377   2.964
 1816SOL     OW 6346   1.110   5.421   0.651
 1816SOL    HW1 6347   1.149   5.435   0.742
 1816SOL    HW2 6348   1.182   5.427   0.583
 1817SOL     OW 6349   1.757   4.979   1.921
 1817SOL    HW1 6350   1.843   4.982   1.869
 1817SOL    HW2 6351   1.777   4.988   2.018
 1818SOL     OW 6352   0.858   1.355   3.222
 1818SOL    HW1 6353   0.853   1.432   3.159
 1818SOL    HW2 6354   0.836   1.386   3.315
 1819SOL     OW 6355   1.155   4.436   2.778
 1819SOL    HW1 6356   1.069   4.487   2.774
 1819SOL    HW2 6357   1.136   4.338   2.776
 1820SOL     OW 6358   5.839   6.745   3.013
 1820SOL    HW1 6359   5.855   6.755   2.915
 1820SOL    HW2 6360   5.918   6.782   3.063
 1821SOL     OW 6361   1.859   1.910   3.098
 1821SOL    HW1 6362   1.875   1.991   3.041
 1821SOL    HW2 6363   1.822   1.939   3.187
 1822SOL     OW 6364   3.305   3.191   2.386
 1822SOL    HW1 6365   3.385   3.208   2.328
 1822SOL    HW2 6366   3.298   3.262   2.456
 1823SOL     OW 6367   4.255   0.008   2.251
 1823SOL    HW1 6368   4.229   0.016   2.155
 1823SOL    HW2 6369   4.345   0.049   2.265
 1824SOL     OW 6370   5.257   1.653   1.421
 1824SOL    HW1 6371   5.226   1.570   1.375
 1824SOL    HW2 6372   5.339   1.633   1.474
 1825SOL     OW 6373   0.538   0.091   1.803
 1825SOL    HW1 6374   0.618   0.145   1.828
 1825SOL    HW2 6375   0.568   0.003   1.766
 1826SOL     OW 6376   2.759   5.854   5.916
 1826SOL    HW1 6377   2.711   5.842   5.829
 1826SOL    HW2 6378   2.820   5.933   5.909
 1827SOL     OW 6379   5.709   0.118   0.564
 1827SOL    HW1 6380   5.733   0.102   0.660
 1827SOL    HW2 6381   5.690   0.215   0.551
 1828SOL     OW 6382   2.376   3.186   0.546
 1828SOL    HW1 6383   2.292   3.235   0.569
 1828SOL    HW2 6384   2.441   3.195   0.621
 1829SOL     OW 6385   5.455   5.506   2.376
 1829SOL    HW1 6386   5.378   5.445   2.356
 1829SOL    HW2 6387   5.422   5.600   2.383
 1830SOL     OW 6388   5.063   6.825   4.688
 1830SOL    HW1 6389   4.995   6.827   4.760
 1830SOL    HW2 6390   5.061   6.911   4.637
 1831SOL     OW 6391   4.981   1.226   3.198
 1831SOL    HW1 6392   4.919   1.156   3.161
 1831SOL    HW2 6393   4.953   1.316   3.163
 1832SOL     OW 6394   5.221   2.672   6.898
 1832SOL    HW1 6395   5.267   2.590   6.862
 1832SOL    HW2 6396   5.249   2.687   6.993
 1833SOL     OW 6397   5.751   1.972   5.811
 1833SOL    HW1 6398   5.693   2.028   5.870
 1833SOL    HW2 6399   5.846   1.999   5.823
 1834SOL     OW 6400   2.561   4.079   0.228
 1834SOL    HW1 6401   2.468   4.050   0.250
 1834SOL    HW2 6402   2.568   4.096   0.130
 1835SOL     OW 6403   1.943   4.719   0.014
 1835SOL    HW1 6404   2.032   4.732   6.996
 1835SOL    HW2 6405   1.936   4.780   0.093
 1836SOL     OW 6406   0.781   6.838   0.613
 1836SOL    HW1 6407   0.688   6.865   0.640
 1836SOL    HW2 6408   0.795   6.860   0.516
 1837SOL     OW 6409   0.401   2.784   4.629
 1837SOL    HW1 6410   0.348   2.869   4.632
 1837SOL    HW2 6411   0.463   2.781   4.707
 1838SOL     OW 6412   0.581   2.785   4.850
 1838SOL    HW1 6413   0.656   2.760   4.789
 1838SOL    HW2 6414   0.590   2.735   4.937
 1839SOL     OW 6415   1.238   1.551   6.884
 1839SOL    HW1 6416   1.177   1.503   6.820
 1839SOL    HW2 6417   1.306   1.603   6.832
 1840SOL     OW 6418   1.104   5.086   1.659
 1840SOL    HW1 6419   1.136   5.038   1.740
 1840SOL    HW2 6420   1.021   5.138   1.681
 1841SOL     OW 6421   1.377   3.043   3.782
 1841SOL    HW1 6422   1.420   2.953   3.775
 1841SOL    HW2 6423   1.293   3.035   3.834
 1842SOL     OW 6424   1.339   6.139   6.346
 1842SOL    HW1 6425   1.365   6.093   6.431
 1842SOL    HW2 6426   1.377   6.090   6.268
 1843SOL     OW 6427   4.506   1.931   5.095
 1843SOL    HW1 6428   4.470   2.011   5.047
 1843SOL    HW2 6429   4.592   1.903   5.053
 1844SOL     OW 6430   5.887   4.396   3.520
 1844SOL    HW1 6431   5.797   4.382   3.477
 1844SOL    HW2 6432   5.874   4.417   3.617
 1845SOL     OW 6433   4.547   6.427   0.876
 1845SOL    HW1 6434   4.535   6.520   0.910
 1845SOL    HW2 6435   4.552   6.364   0.953
 1846SOL     OW 6436   3.717   1.552   5.430
 1846SOL    HW1 6437   3.714   1.635   5.375
 1846SOL    HW2 6438   3.729   1.576   5.526
 1847SOL     OW 6439   1.694   6.036   6.578
 1847SOL    HW1 6440   1.722   5.964   6.514
 1847SOL    HW2 6441   1.772   6.093   6.600
 1848SOL     OW 6442   2.227   0.904   3.661
 1848SOL    HW1 6443   2.164   0.827   3.646
 1848SOL    HW2 6444   2.321   0.873   3.646
 1849SOL     OW 6445   2.504   0.847   6.647
 1849SOL    HW1 6446   2.492   0.939   6.608
 1849SOL    HW2 6447   2.423   0.825   6.703
 1850SOL     OW 6448   5.414   1.795   1.716
 1850SOL    HW1 6449   5.318   1.821   1.726
 1850SOL    HW2 6450   5.470   1.848   1.779
 1851SOL     OW 6451   6.593   4.247   2.379
 1851SOL    HW1 6452   6.693   4.252   2.384
 1851SOL    HW2 6453   6.555   4.339   2.386
 1852SOL     OW 6454   5.193   1.537   5.715
 1852SOL    HW1 6455   5.234   1.602   5.779
 1852SOL    HW2 6456   5.242   1.450   5.721
 1853SOL     OW 6457   0.925   4.799   0.895
 1853SOL    HW1 6458   0.940   4.897   0.904
 1853SOL    HW2 6459   1.001   4.758   0.845
 1854SOL     OW 6460   2.400   4.959   4.134
 1854SOL    HW1 6461   2.316   5.010   4.153
 1854SOL    HW2 6462   2.404   4.879   4.193
 1855SOL     OW 6463   5.979   4.606   1.668
 1855SOL    HW1 6464   6.039   4.618   1.747
 1855SOL    HW2 6465   5.885   4.625   1.695
 1856SOL     OW 6466   5.406   2.909   6.989
 1856SOL    HW1 6467   5.386   2.839   0.032
 1856SOL    HW2 6468   5.433   2.865   6.903
 1857SOL     OW 6469   5.335   1.295   3.147
 1857SOL    HW1 6470   5.354   1.361   3.074
 1857SOL    HW2 6471   5.413   1.232   3.156
 1858SOL     OW 6472   5.545   4.608   3.047
 1858SOL    HW1 6473   5.609   4.531   3.045
 1858SOL    HW2 6474   5.589   4.689   3.008
 1859SOL     OW 6475   5.907   1.510   3.085
 1859SOL    HW1 6476   5.965   1.432   3.107
 1859SOL    HW2 6477   5.812   1.488   3.108
 1860SOL     OW 6478   4.059   2.219   4.687
 1860SOL    HW1 6479   4.030   2.219   4.783
 1860SOL    HW2 6480   4.139   2.160   4.677
 1861SOL     OW 6481   4.853   5.804   2.321
 1861SOL    HW1 6482   4.804   5.846   2.245
 1861SOL    HW2 6483   4.909   5.728   2.287
 1862SOL     OW 6484   2.663   1.259   0.540
 1862SOL    HW1 6485   2.718   1.267   0.623
 1862SOL    HW2 6486   2.573   1.222   0.564
 1863SOL     OW 6487   1.959   1.847   1.245
 1863SOL    HW1 6488   2.057   1.863   1.235
 1863SOL    HW2 6489   1.922   1.809   1.161
 1864SOL     OW 6490   0.282   6.590   3.119
 1864SOL    HW1 6491   0.223   6.657   3.073
 1864SOL    HW2 6492   0.378   6.611   3.100
 1865SOL     OW 6493   5.169   3.421   6.397
 1865SOL    HW1 6494   5.259   3.426   6.353
 1865SOL    HW2 6495   5.110   3.359   6.345
 1866SOL     OW 6496   5.494   5.686   1.696
 1866SOL    HW1 6497   5.518   5.625   1.771
 1866SOL    HW2 6498   5.573   5.698   1.635
 1867SOL     OW 6499   1.140   4.620   6.102
 1867SOL    HW1 6500   1.076   4.546   6.122
 1867SOL    HW2 6501   1.224   4.608   6.155
 1868SOL     OW 6502   0.142   4.491   5.629
 1868SOL    HW1 6503   0.101   4.423   5.569
 1868SOL    HW2 6504   0.070   4.546   5.672
 1869SOL     OW 6505   6.188   1.445   4.471
 1869SOL    HW1 6506   6.165   1.460   4.375
 1869SOL    HW2 6507   6.184   1.348   4.492
 1870SOL     OW 6508   2.194   3.996   4.825
 1870SOL    HW1 6509   2.233   3.940   4.752
 1870SOL    HW2 6510   2.233   3.969   4.913
 1871SOL     OW 6511   1.637   0.636   0.999
 1871SOL    HW1 6512   1.653   0.663   0.904
 1871SOL    HW2 6513   1.639   0.537   1.006
 1872SOL     OW 6514   2.066   5.548   6.418
 1872SOL    HW1 6515   2.064   5.577   6.514
 1872SOL    HW2 6516   2.074   5.448   6.413
 1873SOL     OW 6517   4.988   0.054   6.712
 1873SOL    HW1 6518   4.959   0.146   6.685
 1873SOL    HW2 6519   4.975   0.043   6.810
 1874SOL     OW 6520   0.585   3.792   2.561
 1874SOL    HW1 6521   0.626   3.876   2.597
 1874SOL    HW2 6522   0.491   3.785   2.594
 1875SOL     OW 6523   0.505   6.767   2.128
 1875SOL    HW1 6524   0.418   6.765   2.079
 1875SOL    HW2 6525   0.569   6.825   2.078
 1876SOL     OW 6526   1.699   6.365   4.178
 1876SOL    HW1 6527   1.603   6.364   4.208
 1876SOL    HW2 6528   1.729   6.272   4.157
 1877SOL     OW 6529   0.465   6.988   4.098
 1877SOL    HW1 6530   0.448   6.909   4.039
 1877SOL    HW2 6531   0.391   6.997   4.164
 1878SOL     OW 6532   6.322   2.952   6.053
 1878SOL    HW1 6533   6.418   2.931   6.071
 1878SOL    HW2 6534   6.263   2.893   6.109
 1879SOL     OW 6535   2.029   5.381   6.050
 1879SOL    HW1 6536   2.128   5.372   6.046
 1879SOL    HW2 6537   1.988   5.291   6.064
 1880SOL     OW 6538   6.602   0.232   4.545
 1880SOL    HW1 6539   6.654   0.317   4.534
 1880SOL    HW2 6540   6.590   0.213   4.643
 1881SOL     OW 6541   6.844   2.364   6.669
 1881SOL    HW1 6542   6.793   2.369   6.583
 1881SOL    HW2 6543   6.881   2.272   6.681
 1882SOL     OW 6544   1.038   6.639   0.527
 1882SOL    HW1 6545   1.053   6.563   0.590
 1882SOL    HW2 6546   0.948   6.679   0.544
 1883SOL     OW 6547   0.372   1.921   3.637
 1883SOL    HW1 6548   0.390   2.018   3.618
 1883SOL    HW2 6549   0.313   1.914   3.717
 1884SOL     OW 6550   5.977   2.390   1.394
 1884SOL    HW1 6551   5.937   2.317   1.339
 1884SOL    HW2 6552   5.907   2.459   1.413
 1885SOL     OW 6553   2.991   1.355   4.556
 1885SOL    HW1 6554   3.062   1.417   4.590
 1885SOL    HW2 6555   2.924   1.338   4.628
 1886SOL     OW 6556   0.405   6.184   3.255
 1886SOL    HW1 6557   0.479   6.182   3.323
 1886SOL    HW2 6558   0.331   6.242   3.289
 1887SOL     OW 6559   2.813   5.569   6.404
 1887SOL    HW1 6560   2.744   5.497   6.415
 1887SOL    HW2 6561   2.780   5.637   6.338
 1888SOL     OW 6562   2.083   6.801   2.754
 1888SOL    HW1 6563   2.155   6.828   2.818
 1888SOL    HW2 6564   2.084   6.863   2.675
 1889SOL     OW 6565   0.025   3.660   2.726
 1889SOL    HW1 6566   0.012   3.739   2.666
 1889SOL    HW2 6567   6.977   3.655   2.793
 1890SOL     OW 6568   1.632   5.792   5.000
 1890SOL    HW1 6569   1.551   5.735   4.984
 1890SOL    HW2 6570   1.714   5.735   5.001
 1891SOL     OW 6571   4.021   3.191   3.460
 1891SOL    HW1 6572   3.962   3.122   3.417
 1891SOL    HW2 6573   4.062   3.248   3.388
 1892SOL     OW 6574   0.396   0.587   2.848
 1892SOL    HW1 6575   0.459   0.523   2.804
 1892SOL    HW2 6576   0.371   0.553   2.938
 1893SOL     OW 6577   3.917   3.050   4.229
 1893SOL    HW1 6578   3.899   3.034   4.132
 1893SOL    HW2 6579   3.849   3.001   4.284
 1894SOL     OW 6580   2.977   3.339   4.288
 1894SOL    HW1 6581   3.018   3.338   4.379
 1894SOL    HW2 6582   2.993   3.427   4.245
 1895SOL     OW 6583   1.084   6.123   1.397
 1895SOL    HW1 6584   1.183   6.129   1.380
 1895SOL    HW2 6585   1.055   6.201   1.452
 1896SOL     OW 6586   6.012   2.742   1.382
 1896SOL    HW1 6587   5.981   2.769   1.473
 1896SOL    HW2 6588   6.109   2.719   1.385
 1897SOL     OW 6589   1.639   4.393   3.613
 1897SOL    HW1 6590   1.736   4.370   3.622
 1897SOL    HW2 6591   1.598   4.334   3.543
 1898SOL     OW 6592   1.521   6.009   2.410
 1898SOL    HW1 6593   1.568   5.970   2.489
 1898SOL    HW2 6594   1.470   6.090   2.437
 1899SOL     OW 6595   0.022   1.008   2.098
 1899SOL    HW1 6596   6.968   1.026   2.040
 1899SOL    HW2 6597   7.017   0.991   2.192
 1900SOL     OW 6598   2.748   6.342   6.387
 1900SOL    HW1 6599   2.792   6.261   6.346
 1900SOL    HW2 6600   2.777   6.424   6.338
 1901SOL     OW 6601   3.115   3.029   2.798
 1901SOL    HW1 6602   3.112   3.015   2.699
 1901SOL    HW2 6603   3.034   3.081   2.827
 1902SOL     OW 6604   1.523   6.651   5.159
 1902SOL    HW1 6605   1.613   6.681   5.127
 1902SOL    HW2 6606   1.515   6.552   5.150
 1903SOL     OW 6607   1.222   1.752   3.930
 1903SOL    HW1 6608   1.182   1.829   3.979
 1903SOL    HW2 6609   1.288   1.785   3.863
 1904SOL     OW 6610   5.922   5.530   1.544
 1904SOL    HW1 6611   5.981   5.604   1.513
 1904SOL    HW2 6612   5.945   5.505   1.638
 1905SOL     OW 6613   0.734   2.775   4.070
 1905SOL    HW1 6614   0.706   2.851   4.012
 1905SOL    HW2 6615   0.657   2.747   4.128
 1906SOL     OW 6616   0.214   6.017   3.846
 1906SOL    HW1 6617   0.313   6.010   3.835
 1906SOL    HW2 6618   0.180   5.936   3.894
 1907SOL     OW 6619   5.863   3.073   0.900
 1907SOL    HW1 6620   5.909   2.994   0.859
 1907SOL    HW2 6621   5.921   3.154   0.890
 1908SOL     OW 6622   3.684   0.851   1.501
 1908SOL    HW1 6623   3.702   0.766   1.552
 1908SOL    HW2 6624   3.760   0.914   1.512
 1909SOL     OW 6625   6.311   5.557   5.348
 1909SOL    HW1 6626   6.367   5.617   5.406
 1909SOL    HW2 6627   6.361   5.535   5.265
 1910SOL     OW 6628   0.399   6.101   5.225
 1910SOL    HW1 6629   0.332   6.143   5.286
 1910SOL    HW2 6630   0.492   6.123   5.257
 1911SOL     OW 6631   5.465   6.399   3.995
 1911SOL    HW1 6632   5.463   6.483   4.049
 1911SOL    HW2 6633   5.516   6.329   4.044
 1912SOL     OW 6634   3.143   4.881   2.241
 1912SOL    HW1 6635   3.063   4.854   2.295
 1912SOL    HW2 6636   3.204   4.938   2.297
 1913SOL     OW 6637   3.213   4.234   6.373
 1913SOL    HW1 6638   3.168   4.264   6.457
 1913SOL    HW2 6639   3.147   4.235   6.298
 1914SOL     OW 6640   3.925   4.328   0.279
 1914SOL    HW1 6641   4.018   4.302   0.253
 1914SOL    HW2 6642   3.860   4.268   0.233
 1915SOL     OW 6643   3.919   2.265   6.988
 1915SOL    HW1 6644   4.017   2.246   6.982
 1915SOL    HW2 6645   3.871   2.210   6.920
 1916SOL     OW 6646   3.992   1.135   2.611
 1916SOL    HW1 6647   3.988   1.126   2.512
 1916SOL    HW2 6648   4.059   1.205   2.636
 1917SOL     OW 6649   2.387   3.775   1.353
 1917SOL    HW1 6650   2.417   3.680   1.342
 1917SOL    HW2 6651   2.388   3.799   1.450
 1918SOL     OW 6652   5.228   2.601   4.146
 1918SOL    HW1 6653   5.278   2.539   4.086
 1918SOL    HW2 6654   5.148   2.637   4.096
 1919SOL     OW 6655   6.331   1.924   6.243
 1919SOL    HW1 6656   6.366   1.934   6.336
 1919SOL    HW2 6657   6.264   1.850   6.241
 1920SOL     OW 6658   4.854   3.509   0.604
 1920SOL    HW1 6659   4.830   3.602   0.629
 1920SOL    HW2 6660   4.774   3.463   0.564
 1921SOL     OW 6661   3.060   2.457   6.929
 1921SOL    HW1 6662   3.111   2.416   6.854
 1921SOL    HW2 6663   3.089   2.415   7.015
 1922SOL     OW 6664   3.485   3.363   4.683
 1922SOL    HW1 6665   3.539   3.284   4.653
 1922SOL    HW2 6666   3.491   3.435   4.614
 1923SOL     OW 6667   3.063   0.533   3.914
 1923SOL    HW1 6668   3.077   0.546   3.816
 1923SOL    HW2 6669   2.980   0.581   3.943
 1924SOL     OW 6670   5.440   0.766   0.747
 1924SOL    HW1 6671   5.358   0.773   0.689
 1924SOL    HW2 6672   5.501   0.843   0.729
 1925SOL     OW 6673   1.143   4.116   0.960
 1925SOL    HW1 6674   1.101   4.056   1.028
 1925SOL    HW2 6675   1.189   4.060   0.890
 1926SOL     OW 6676   3.329   6.714   1.593
 1926SOL    HW1 6677   3.254   6.675   1.540
 1926SOL    HW2 6678   3.391   6.641   1.623
 1927SOL     OW 6679   2.279   5.489   0.876
 1927SOL    HW1 6680   2.200   5.498   0.814
 1927SOL    HW2 6681   2.324   5.401   0.860
 1928SOL     OW 6682   0.192   4.649   3.040
 1928SOL    HW1 6683   0.193   4.747   3.058
 1928SOL    HW2 6684   0.107   4.624   2.994
 1929SOL     OW 6685   3.765   0.589   3.526
 1929SOL    HW1 6686   3.777   0.638   3.612
 1929SOL    HW2 6687   3.749   0.492   3.544
 1930SOL     OW 6688   3.773   3.562   0.231
 1930SOL    HW1 6689   3.768   3.533   0.327
 1930SOL    HW2 6690   3.749   3.485   0.172
 1931SOL     OW 6691   6.567   3.676   3.433
 1931SOL    HW1 6692   6.599   3.589   3.473
 1931SOL    HW2 6693   6.638   3.713   3.374
 1932SOL     OW 6694   4.984   0.713   2.092
 1932SOL    HW1 6695   5.044   0.654   2.145
 1932SOL    HW2 6696   4.945   0.661   2.015
 1933SOL     OW 6697   1.634   1.177   1.179
 1933SOL    HW1 6698   1.534   1.175   1.171
 1933SOL    HW2 6699   1.663   1.267   1.211
 1934SOL     OW 6700   6.434   0.922   6.954
 1934SOL    HW1 6701   6.458   1.011   6.993
 1934SOL    HW2 6702   6.509   0.857   6.971
 1935SOL     OW 6703   5.926   5.104   3.873
 1935SOL    HW1 6704   5.839   5.067   3.841
 1935SOL    HW2 6705   5.968   5.040   3.938
 1936SOL     OW 6706   5.481   3.171   6.478
 1936SOL    HW1 6707   5.496   3.259   6.523
 1936SOL    HW2 6708   5.406   3.180   6.412
 1937SOL     OW 6709   0.948   4.857   6.827
 1937SOL    HW1 6710   1.033   4.841   6.776
 1937SOL    HW2 6711   0.871   4.858   6.763
 1938SOL     OW 6712   6.592   2.290   6.792
 1938SOL    HW1 6713   6.548   2.201   6.781
 1938SOL    HW2 6714   6.691   2.278   6.782
 1939SOL     OW 6715   0.197   0.237   4.347
 1939SOL    HW1 6716   0.276   0.250   4.407
 1939SOL    HW2 6717   0.163   0.326   4.316
 1940SOL     OW 6718   0.911   5.285   1.706
 1940SOL    HW1 6719   0.855   5.276   1.788
 1940SOL    HW2 6720   0.927   5.382   1.688
 1941SOL     OW 6721   5.814   0.568   4.324
 1941SOL    HW1 6722   5.807   0.583   4.422
 1941SOL    HW2 6723   5.883   0.630   4.286
 1942SOL     OW 6724   0.680   5.208   1.873
 1942SOL    HW1 6725   0.640   5.289   1.916
 1942SOL    HW2 6726   0.615   5.169   1.808
 1943SOL     OW 6727   0.964   3.466   4.300
 1943SOL    HW1 6728   1.013   3.443   4.215
 1943SOL    HW2 6729   0.868   3.486   4.279
 1944SOL     OW 6730   0.330   3.278   4.088
 1944SOL    HW1 6731   0.374   3.200   4.132
 1944SOL    HW2 6732   0.251   3.306   4.142
 1945SOL     OW 6733   5.338   1.593   1.971
 1945SOL    HW1 6734   5.353   1.495   1.963
 1945SOL    HW2 6735   5.266   1.621   1.908
 1946SOL     OW 6736   5.821   5.683   6.962
 1946SOL    HW1 6737   5.784   5.599   6.920
 1946SOL    HW2 6738   5.823   5.671   0.036
 1947SOL     OW 6739   5.668   5.565   2.555
 1947SOL    HW1 6740   5.633   5.604   2.640
 1947SOL    HW2 6741   5.593   5.524   2.504
 1948SOL     OW 6742   5.388   3.479   3.212
 1948SOL    HW1 6743   5.424   3.569   3.185
 1948SOL    HW2 6744   5.332   3.489   3.294
 1949SOL     OW 6745   3.531   4.058   6.195
 1949SOL    HW1 6746   3.551   4.081   6.290
 1949SOL    HW2 6747   3.486   4.135   6.150
 1950SOL     OW 6748   3.945   3.851   3.506
 1950SOL    HW1 6749   4.009   3.878   3.434
 1950SOL    HW2 6750   3.966   3.759   3.537
 1951SOL     OW 6751   6.985   5.629   6.056
 1951SOL    HW1 6752   0.002   5.540   6.065
 1951SOL    HW2 6753   7.017   5.690   6.129
 1952SOL     OW 6754   5.938   3.866   0.086
 1952SOL    HW1 6755   5.971   3.951   0.046
 1952SOL    HW2 6756   6.013   3.820   0.135
 1953SOL     OW 6757   0.116   0.814   6.980
 1953SOL    HW1 6758   0.150   0.723   6.955
 1953SOL    HW2 6759   0.042   0.841   6.919
 1954SOL     OW 6760   3.510   6.780   2.523
 1954SOL    HW1 6761   3.464   6.765   2.611
 1954SOL    HW2 6762   3.443   6.811   2.455
 1955SOL     OW 6763   6.539   3.514   4.242
 1955SOL    HW1 6764   6.532   3.499   4.341
 1955SOL    HW2 6765   6.603   3.448   4.203
 1956SOL     OW 6766   4.267   1.672   1.410
 1956SOL    HW1 6767   4.345   1.619   1.443
 1956SOL    HW2 6768   4.258   1.661   1.311
 1957SOL     OW 6769   6.745   2.902   4.654
 1957SOL    HW1 6770   6.710   2.923   4.745
 1957SOL    HW2 6771   6.679   2.931   4.585
 1958SOL     OW 6772   4.897   2.467   6.924
 1958SOL    HW1 6773   4.912   2.565   6.905
 1958SOL    HW2 6774   4.825   2.458   6.993
 1959SOL     OW 6775   1.526   1.417   6.239
 1959SOL    HW1 6776   1.540   1.422   6.140
 1959SOL    HW2 6777   1.481   1.331   6.262
 1960SOL     OW 6778   4.666   4.706   2.288
 1960SOL    HW1 6779   4.604   4.683   2.363
 1960SOL    HW2 6780   4.671   4.629   2.224
 1961SOL     OW 6781   0.509   3.746   4.485
 1961SOL    HW1 6782   0.597   3.771   4.446
 1961SOL    HW2 6783   0.476   3.819   4.545
 1962SOL     OW 6784   0.480   0.092   2.249
 1962SOL    HW1 6785   0.471   0.054   2.157
 1962SOL    HW2 6786   0.408   0.160   2.264
 1963SOL     OW 6787   0.864   1.744   0.092
 1963SOL    HW1 6788   0.960   1.721   0.109
 1963SOL    HW2 6789   0.809   1.661   0.100
 1964SOL     OW 6790   5.452   3.193   0.566
 1964SOL    HW1 6791   5.549   3.184   0.540
 1964SOL    HW2 6792   5.395   3.150   0.496
 1965SOL     OW 6793   5.377   4.723   4.848
 1965SOL    HW1 6794   5.368   4.679   4.759
 1965SOL    HW2 6795   5.286   4.740   4.887
 1966SOL     OW 6796   1.529   5.169   6.391
 1966SOL    HW1 6797   1.483   5.162   6.303
 1966SOL    HW2 6798   1.461   5.189   6.462
 1967SOL     OW 6799   6.863   2.375   4.723
 1967SOL    HW1 6800   6.918   2.447   4.767
 1967SOL    HW2 6801   6.766   2.398   4.728
 1968SOL     OW 6802   2.615   1.263   5.932
 1968SOL    HW1 6803   2.576   1.171   5.943
 1968SOL    HW2 6804   2.550   1.321   5.884
 1969SOL     OW 6805   0.024   6.147   1.976
 1969SOL    HW1 6806   0.011   6.242   1.949
 1969SOL    HW2 6807   0.117   6.134   2.010
 1970SOL     OW 6808   5.400   4.381   2.974
 1970SOL    HW1 6809   5.392   4.281   2.980
 1970SOL    HW2 6810   5.456   4.415   3.050
 1971SOL     OW 6811   1.583   5.290   4.359
 1971SOL    HW1 6812   1.521   5.211   4.354
 1971SOL    HW2 6813   1.566   5.339   4.445
 1972SOL     OW 6814   5.253   1.955   3.011
 1972SOL    HW1 6815   5.239   1.944   3.110
 1972SOL    HW2 6816   5.245   1.866   2.967
 1973SOL     OW 6817   4.440   2.484   0.390
 1973SOL    HW1 6818   4.479   2.573   0.415
 1973SOL    HW2 6819   4.364   2.461   0.451
 1974SOL     OW 6820   2.302   6.396   4.570
 1974SOL    HW1 6821   2.295   6.451   4.653
 1974SOL    HW2 6822   2.296   6.299   4.594
 1975SOL     OW 6823   2.309   2.480   2.346
 1975SOL    HW1 6824   2.308   2.544   2.423
 1975SOL    HW2 6825   2.385   2.504   2.285
 1976SOL     OW 6826   2.014   0.745   4.699
 1976SOL    HW1 6827   2.106   0.769   4.668
 1976SOL    HW2 6828   2.006   0.761   4.798
 1977SOL     OW 6829   1.068   4.189   6.830
 1977SOL    HW1 6830   1.083   4.204   6.732
 1977SOL    HW2 6831   1.143   4.229   6.882
 1978SOL     OW 6832   2.706   0.450   2.424
 1978SOL    HW1 6833   2.724   0.440   2.326
 1978SOL    HW2 6834   2.779   0.504   2.466
 1979SOL     OW 6835   5.517   3.400   6.573
 1979SOL    HW1 6836   5.461   3.477   6.604
 1979SOL    HW2 6837   5.572   3.367   6.649
 1980SOL     OW 6838   4.152   0.678   1.589
 1980SOL    HW1 6839   4.105   0.597   1.623
 1980SOL    HW2 6840   4.124   0.758   1.642
 1981SOL     OW 6841   4.281   2.469   1.895
 1981SOL    HW1 6842   4.252   2.379   1.928
 1981SOL    HW2 6843   4.303   2.463   1.797
 1982SOL     OW 6844   2.019   2.550   6.788
 1982SOL    HW1 6845   2.119   2.545   6.780
 1982SOL    HW2 6846   1.986   2.470   6.838
 1983SOL     OW 6847   0.113   2.169   1.524
 1983SOL    HW1 6848   0.142   2.111   1.448
 1983SOL    HW2 6849   0.016   2.155   1.542
 1984SOL     OW 6850   4.887   3.431   5.618
 1984SOL    HW1 6851   4.804   3.432   5.563
 1984SOL    HW2 6852   4.868   3.470   5.708
 1985SOL     OW 6853   5.610   5.211   4.433
 1985SOL    HW1 6854   5.612   5.284   4.502
 1985SOL    HW2 6855   5.625   5.122   4.478
 1986SOL     OW 6856   2.933   3.272   2.798
 1986SOL    HW1 6857   2.924   3.366   2.767
 1986SOL    HW2 6858   2.942   3.212   2.718
 1987SOL     OW 6859   1.988   1.636   2.165
 1987SOL    HW1 6860   2.020   1.572   2.235
 1987SOL    HW2 6861   2.017   1.603   2.075
 1988SOL     OW 6862   1.054   2.038   3.073
 1988SOL    HW1 6863   0.963   2.008   3.045
 1988SOL    HW2 6864   1.097   2.089   2.998
 1989SOL     OW 6865   3.195   5.429   3.751
 1989SOL    HW1 6866   3.260   5.500   3.724
 1989SOL    HW2 6867   3.242   5.360   3.806
 1990SOL     OW 6868   4.224   6.850   0.584
 1990SOL    HW1 6869   4.312   6.889   0.556
 1990SOL    HW2 6870   4.151   6.915   0.564
 1991SOL     OW 6871   3.027   5.530   1.880
 1991SOL    HW1 6872   3.052   5.439   1.911
 1991SOL    HW2 6873   3.096   5.564   1.816
 1992SOL     OW 6874   1.242   6.858   3.587
 1992SOL    HW1 6875   1.269   6.900   3.501
 1992SOL    HW2 6876   1.320   6.855   3.649
 1993SOL     OW 6877   1.507   1.082   1.803
 1993SOL    HW1 6878   1.548   1.086   1.712
 1993SOL    HW2 6879   1.524   1.169   1.850
 1994SOL     OW 6880   2.689   3.310   1.704
 1994SOL    HW1 6881   2.597   3.274   1.689
 1994SOL    HW2 6882   2.698   3.399   1.660
 1995SOL     OW 6883   5.988   0.763   4.231
 1995SOL    HW1 6884   5.940   0.815   4.161
 1995SOL    HW2 6885   6.082   0.796   4.238
 1996SOL     OW 6886   4.861   0.137   1.293
 1996SOL    HW1 6887   4.783   0.078   1.274
 1996SOL    HW2 6888   4.945   0.092   1.261
 1997SOL     OW 6889   3.354   1.540   2.986
 1997SOL    HW1 6890   3.285   1.473   3.012
 1997SOL    HW2 6891   3.428   1.540   3.054
 1998SOL     OW 6892   2.488   3.175   1.413
 1998SOL    HW1 6893   2.579   3.132   1.409
 1998SOL    HW2 6894   2.464   3.192   1.508
 1999SOL     OW 6895   0.692   0.160   5.756
 1999SOL    HW1 6896   0.622   0.097   5.791
 1999SOL    HW2 6897   0.769   0.164   5.819
 2000SOL     OW 6898   4.471   4.215   6.359
 2000SOL    HW1 6899   4.442   4.122   6.336
 2000SOL    HW2 6900   4.499   4.218   6.455
 2001SOL     OW 6901   1.492   2.239   0.698
 2001SOL    HW1 6902   1.529   2.316   0.751
 2001SOL    HW2 6903   1.455   2.274   0.612
 2002SOL     OW 6904   6.257   5.066   0.025
 2002SOL    HW1 6905   6.233   4.969   0.022
 2002SOL    HW2 6906   6.256   5.103   6.958
 2003SOL     OW 6907   6.358   5.384   1.281
 2003SOL    HW1 6908   6.337   5.429   1.195
 2003SOL    HW2 6909   6.355   5.451   1.355
 2004SOL     OW 6910   3.712   0.609   2.784
 2004SOL    HW1 6911   3.697   0.703   2.754
 2004SOL    HW2 6912   3.631   0.554   2.763
 2005SOL     OW 6913   1.620   6.108   0.167
 2005SOL    HW1 6914   1.524   6.128   0.190
 2005SOL    HW2 6915   1.637   6.010   0.176
 2006SOL     OW 6916   6.086   6.982   1.985
 2006SOL    HW1 6917   6.046   6.895   1.955
 2006SOL    HW2 6918   6.183   6.968   2.004
 2007SOL     OW 6919   5.736   5.379   6.012
 2007SOL    HW1 6920   5.761   5.347   6.103
 2007SOL    HW2 6921   5.801   5.450   5.983
 2008SOL     OW 6922   1.945   3.222   2.736
 2008SOL    HW1 6923   1.872   3.270   2.785
 2008SOL    HW2 6924   2.025   3.213   2.795
 2009SOL     OW 6925   5.916   0.387   3.502
 2009SOL    HW1 6926   5.944   0.344   3.587
 2009SOL    HW2 6927   5.831   0.345   3.469
 2010SOL     OW 6928   0.013   1.363   1.253
 2010SOL    HW1 6929   7.006   1.457   1.253
 2010SOL    HW2 6930   0.113   1.363   1.260
 2011SOL     OW 6931   0.891   0.297   4.971
 2011SOL    HW1 6932   0.807   0.255   5.008
 2011SOL    HW2 6933   0.969   0.240   4.995
 2012SOL     OW 6934   6.961   2.446   0.226
 2012SOL    HW1 6935   0.005   2.385   0.265
 2012SOL    HW2 6936   6.887   2.391   0.188
 2013SOL     OW 6937   0.718   2.785   2.202
 2013SOL    HW1 6938   0.696   2.701   2.152
 2013SOL    HW2 6939   0.649   2.801   2.272
 2014SOL     OW 6940   3.899   1.655   3.755
 2014SOL    HW1 6941   3.960   1.592   3.803
 2014SOL    HW2 6942   3.845   1.707   3.821
 2015SOL     OW 6943   3.929   6.156   1.811
 2015SOL    HW1 6944   3.917   6.241   1.760
 2015SOL    HW2 6945   3.987   6.094   1.758
 2016SOL     OW 6946   1.934   1.053   4.665
 2016SOL    HW1 6947   1.888   0.971   4.699
 2016SOL    HW2 6948   1.977   1.102   4.742
 2017SOL     OW 6949   1.926   6.890   4.677
 2017SOL    HW1 6950   2.016   6.922   4.705
 2017SOL    HW2 6951   1.893   6.945   4.600
 2018SOL     OW 6952   0.320   0.792   4.297
 2018SOL    HW1 6953   0.382   0.736   4.352
 2018SOL    HW2 6954   0.366   0.821   4.213
 2019SOL     OW 6955   0.647   4.871   6.836
 2019SOL    HW1 6956   0.630   4.812   6.915
 2019SOL    HW2 6957   0.567   4.871   6.776
 2020SOL     OW 6958   1.497   6.780   1.570
 2020SOL    HW1 6959   1.481   6.828   1.656
 2020SOL    HW2 6960   1.511   6.683   1.588
 2021SOL     OW 6961   6.937   5.153   3.736
 2021SOL    HW1 6962   6.955   5.138   3.833
 2021SOL    HW2 6963   6.863   5.220   3.726
 2022SOL     OW 6964   2.246   2.957   4.171
 2022SOL    HW1 6965   2.222   3.037   4.116
 2022SOL    HW2 6966   2.226   2.977   4.267
 2023SOL     OW 6967   0.887   5.447   6.930
 2023SOL    HW1 6968   0.790   5.437   6.951
 2023SOL    HW2 6969   0.917   5.371   6.872
 2024SOL     OW 6970   6.556   6.082   3.692
 2024SOL    HW1 6971   6.499   6.103   3.613
 2024SOL    HW2 6972   6.636   6.030   3.662
 2025SOL     OW 6973   1.785   0.219   4.280
 2025SOL    HW1 6974   1.884   0.214   4.288
 2025SOL    HW2 6975   1.760   0.294   4.219
 2026SOL     OW 6976   1.621   6.957   5.461
 2026SOL    HW1 6977   1.600   0.010   5.404
 2026SOL    HW2 6978   1.719   6.956   5.482
 2027SOL     OW 6979   6.217   6.556   2.869
 2027SOL    HW1 6980   6.200   6.480   2.932
 2027SOL    HW2 6981   6.133   6.576   2.819
 2028SOL     OW 6982   2.419   6.202   4.827
 2028SOL    HW1 6983   2.456   6.292   4.848
 2028SOL    HW2 6984   2.423   6.185   4.729
 2029SOL     OW 6985   6.796   2.302   0.085
 2029SOL    HW1 6986   6.780   2.393   0.048
 2029SOL    HW2 6987   6.824   2.240   0.011
 2030SOL     OW 6988   1.506   6.131   2.701
 2030SOL    HW1 6989   1.560   6.210   2.672
 2030SOL    HW2 6990   1.560   6.048   2.690
 2031SOL     OW 6991   0.198   6.857   5.457
 2031SOL    HW1 6992   0.260   6.797   5.407
 2031SOL    HW2 6993   0.207   6.950   5.422
 2032SOL     OW 6994   2.721   2.921   6.406
 2032SOL    HW1 6995   2.794   2.946   6.470
 2032SOL    HW2 6996   2.740   2.831   6.367
 2033SOL     OW 6997   2.608   6.597   1.416
 2033SOL    HW1 6998   2.648   6.506   1.402
 2033SOL    HW2 6999   2.676   6.657   1.458
 2034SOL     OW 7000   0.800   3.876   4.972
 2034SOL    HW1 7001   0.817   3.804   4.906
 2034SOL    HW2 7002   0.870   3.946   4.964
 2035SOL     OW 7003   5.325   5.897   3.207
 2035SOL    HW1 7004   5.272   5.862   3.284
 2035SOL    HW2 7005   5.284   5.867   3.122
 2036SOL     OW 7006   0.246   3.392   6.174
 2036SOL    HW1 7007   0.328   3.436   6.137
 2036SOL    HW2 7008   0.170   3.457   6.170
 2037SOL     OW 7009   1.505   2.103   0.107
 2037SOL    HW1 7010   1.506   2.037   0.182
 2037SOL    HW2 7011   1.586   2.090   0.050
 2038SOL     OW 7012   1.690   1.035   5.856
 2038SOL    HW1 7013   1.683   0.956   5.795
 2038SOL    HW2 7014   1.775   1.028   5.909
 2039SOL     OW 7015   5.169   6.103   4.396
 2039SOL    HW1 7016   5.231   6.052   4.455
 2039SOL    HW2 7017   5.099   6.040   4.359
 2040SOL     OW 7018   2.576   1.497   0.965
 2040SOL    HW1 7019   2.651   1.543   0.917
 2040SOL    HW2 7020   2.502   1.478   0.901
 2041SOL     OW 7021   3.122   0.028   0.027
 2041SOL    HW1 7022   3.194   0.097   0.033
 2041SOL    HW2 7023   3.059   0.039   0.104
 2042SOL     OW 7024   0.161   0.199   5.102
 2042SOL    HW1 7025   0.180   0.159   5.192
 2042SOL    HW2 7026   0.077   0.253   5.107
 2043SOL     OW 7027   0.961   3.620   0.255
 2043SOL    HW1 7028   0.864   3.601   0.246
 2043SOL    HW2 7029   1.013   3.536   0.243
 2044SOL     OW 7030   3.842   0.893   2.378
 2044SOL    HW1 7031   3.766   0.872   2.440
 2044SOL    HW2 7032   3.876   0.985   2.398
 2045SOL     OW 7033   1.841   5.506   3.252
 2045SOL    HW1 7034   1.912   5.481   3.185
 2045SOL    HW2 7035   1.752   5.510   3.206
 2046SOL     OW 7036   0.615   2.541   6.165
 2046SOL    HW1 7037   0.679   2.614   6.144
 2046SOL    HW2 7038   0.591   2.545   6.262
 2047SOL     OW 7039   6.835   0.148   2.121
 2047SOL    HW1 7040   6.884   0.079   2.174
 2047SOL    HW2 7041   6.867   0.239   2.147
 2048SOL     OW 7042   1.596   1.027   3.468
 2048SOL    HW1 7043   1.572   1.037   3.372
 2048SOL    HW2 7044   1.589   0.931   3.495
 2049SOL     OW 7045   4.442   2.046   5.452
 2049SOL    HW1 7046   4.397   2.044   5.363
 2049SOL    HW2 7047   4.526   2.100   5.445
 2050SOL     OW 7048   0.208   1.034   2.401
 2050SOL    HW1 7049   0.226   1.109   2.465
 2050SOL    HW2 7050   0.271   0.959   2.420
 2051SOL     OW 7051   3.283   6.985   6.486
 2051SOL    HW1 7052   3.195   6.959   6.446
 2051SOL    HW2 7053   3.267   0.005   6.574
 2052SOL     OW 7054   6.982   4.489   0.711
 2052SOL    HW1 7055   0.046   4.517   0.747
 2052SOL    HW2 7056   6.949   4.410   0.761
 2053SOL     OW 7057   4.596   5.207   1.922
 2053SOL    HW1 7058   4.537   5.277   1.880
 2053SOL    HW2 7059   4.549   5.119   1.919
 2054SOL     OW 7060   3.106   3.986   3.496
 2054SOL    HW1 7061   3.196   3.950   3.472
 2054SOL    HW2 7062   3.083   4.062   3.437
 2055SOL     OW 7063   3.635   3.134   5.431
 2055SOL    HW1 7064   3.643   3.129   5.530
 2055SOL    HW2 7065   3.538   3.138   5.405
 2056SOL     OW 7066   2.667   5.441   2.354
 2056SOL    HW1 7067   2.616   5.478   2.276
 2056SOL    HW2 7068   2.762   5.470   2.348
 2057SOL     OW 7069   6.437   3.213   3.623
 2057SOL    HW1 7070   6.519   3.267   3.603
 2057SOL    HW2 7071   6.455   3.116   3.605
 2058SOL     OW 7072   5.357   0.075   3.849
 2058SOL    HW1 7073   5.268   0.111   3.878
 2058SOL    HW2 7074   5.405   0.144   3.794
 2059SOL     OW 7075   2.458   1.440   5.805
 2059SOL    HW1 7076   2.525   1.514   5.804
 2059SOL    HW2 7077   2.446   1.405   5.712
 2060SOL     OW 7078   1.485   2.445   6.359
 2060SOL    HW1 7079   1.476   2.367   6.420
 2060SOL    HW2 7080   1.418   2.437   6.285
 2061SOL     OW 7081   2.017   2.820   4.101
 2061SOL    HW1 7082   2.089   2.875   4.144
 2061SOL    HW2 7083   2.033   2.723   4.122
 2062SOL     OW 7084   5.191   5.421   3.841
 2062SOL    HW1 7085   5.202   5.335   3.892
 2062SOL    HW2 7086   5.115   5.473   3.880
 2063SOL     OW 7087   1.143   1.841   4.500
 2063SOL    HW1 7088   1.066   1.891   4.461
 2063SOL    HW2 7089   1.193   1.900   4.563
 2064SOL     OW 7090   0.617   3.896   4.756
 2064SOL    HW1 7091   0.694   3.918   4.815
 2064SOL    HW2 7092   0.581   3.805   4.780
 2065SOL     OW 7093   3.577   3.700   6.008
 2065SOL    HW1 7094   3.646   3.758   6.051
 2065SOL    HW2 7095   3.529   3.647   6.077
 2066SOL     OW 7096   2.169   2.414   4.399
 2066SOL    HW1 7097   2.249   2.354   4.392
 2066SOL    HW2 7098   2.142   2.423   4.495
 2067SOL     OW 7099   6.549   5.062   2.339
 2067SOL    HW1 7100   6.557   4.972   2.297
 2067SOL    HW2 7101   6.639   5.104   2.347
 2068SOL     OW 7102   3.305   6.919   3.980
 2068SOL    HW1 7103   3.259   6.917   4.069
 2068SOL    HW2 7104   3.402   6.940   3.993
 2069SOL     OW 7105   6.092   2.052   3.059
 2069SOL    HW1 7106   6.169   2.104   3.020
 2069SOL    HW2 7107   6.059   1.987   2.991
 2070SOL     OW 7108   0.333   5.371   1.765
 2070SOL    HW1 7109   0.241   5.401   1.738
 2070SOL    HW2 7110   0.389   5.358   1.683
 2071SOL     OW 7111   6.604   2.224   3.806
 2071SOL    HW1 7112   6.524   2.250   3.860
 2071SOL    HW2 7113   6.575   2.171   3.727
 2072SOL     OW 7114   5.109   3.118   5.531
 2072SOL    HW1 7115   5.134   3.116   5.628
 2072SOL    HW2 7116   5.065   3.031   5.507
 2073SOL     OW 7117   3.413   5.157   6.577
 2073SOL    HW1 7118   3.334   5.208   6.611
 2073SOL    HW2 7119   3.492   5.174   6.636
 2074SOL     OW 7120   3.702   4.818   5.507
 2074SOL    HW1 7121   3.754   4.742   5.468
 2074SOL    HW2 7122   3.750   4.854   5.587
 2075SOL     OW 7123   5.088   0.709   0.901
 2075SOL    HW1 7124   5.022   0.784   0.897
 2075SOL    HW2 7125   5.103   0.684   0.997
 2076SOL     OW 7126   6.826   6.922   4.102
 2076SOL    HW1 7127   6.926   6.929   4.096
 2076SOL    HW2 7128   6.793   6.988   4.170
 2077SOL     OW 7129   0.927   4.170   0.782
 2077SOL    HW1 7130   0.985   4.161   0.863
 2077SOL    HW2 7131   0.877   4.257   0.786
 2078SOL     OW 7132   0.800   2.478   0.230
 2078SOL    HW1 7133   0.703   2.490   0.209
 2078SOL    HW2 7134   0.810   2.421   0.312
 2079SOL     OW 7135   5.458   2.059   3.620
 2079SOL    HW1 7136   5.503   2.045   3.708
 2079SOL    HW2 7137   5.365   2.093   3.634
 2080SOL     OW 7138   2.280   2.839   5.476
 2080SOL    HW1 7139   2.297   2.885   5.564
 2080SOL    HW2 7140   2.366   2.805   5.439
 2081SOL     OW 7141   0.278   6.028   3.051
 2081SOL    HW1 7142   0.335   6.070   3.122
 2081SOL    HW2 7143   0.211   5.968   3.093
 2082SOL     OW 7144   6.561   6.602   3.723
 2082SOL    HW1 7145   6.636   6.658   3.757
 2082SOL    HW2 7146   6.597   6.532   3.662
 2083SOL     OW 7147   1.030   5.728   3.102
 2083SOL    HW1 7148   0.999   5.636   3.081
 2083SOL    HW2 7149   1.025   5.744   3.200
 2084SOL     OW 7150   5.760   2.534   1.505
 2084SOL    HW1 7151   5.791   2.517   1.598
 2084SOL    HW2 7152   5.666   2.501   1.495
 2085SOL     OW 7153   6.300   5.595   0.290
 2085SOL    HW1 7154   6.207   5.570   0.261
 2085SOL    HW2 7155   6.314   5.567   0.385
 2086SOL     OW 7156   5.625   0.487   5.590
 2086SOL    HW1 7157   5.528   0.494   5.569
 2086SOL    HW2 7158   5.641   0.410   5.652
 2087SOL     OW 7159   5.159   1.263   6.417
 2087SOL    HW1 7160   5.090   1.298   6.354
 2087SOL    HW2 7161   5.216   1.195   6.371
 2088SOL     OW 7162   0.321   3.250   5.310
 2088SOL    HW1 7163   0.400   3.271   5.369
 2088SOL    HW2 7164   0.244   3.308   5.336
 2089SOL     OW 7165   2.826   4.983   4.547
 2089SOL    HW1 7166   2.908   4.936   4.515
 2089SOL    HW2 7167   2.837   5.082   4.537
 2090SOL     OW 7168   5.035   2.229   6.286
 2090SOL    HW1 7169   5.120   2.178   6.273
 2090SOL    HW2 7170   5.051   2.304   6.350
 2091SOL     OW 7171   5.587   6.480   0.835
 2091SOL    HW1 7172   5.682   6.496   0.806
 2091SOL    HW2 7173   5.537   6.566   0.833
 2092SOL     OW 7174   3.565   2.866   2.892
 2092SOL    HW1 7175   3.597   2.785   2.941
 2092SOL    HW2 7176   3.469   2.882   2.914
 2093SOL     OW 7177   4.640   0.035   0.029
 2093SOL    HW1 7178   4.718   0.092   0.054
 2093SOL    HW2 7179   4.641   0.019   6.956
 2094SOL     OW 7180   4.352   2.744   1.564
 2094SOL    HW1 7181   4.387   2.672   1.504
 2094SOL    HW2 7182   4.307   2.702   1.643
 2095SOL     OW 7183   4.536   5.543   3.464
 2095SOL    HW1 7184   4.520   5.612   3.535
 2095SOL    HW2 7185   4.585   5.586   3.388
 2096SOL     OW 7186   3.803   0.025   2.903
 2096SOL    HW1 7187   3.794   6.966   2.954
 2096SOL    HW2 7188   3.743   0.022   2.823
 2097SOL     OW 7189   2.447   5.667   5.299
 2097SOL    HW1 7190   2.457   5.593   5.366
 2097SOL    HW2 7191   2.376   5.730   5.330
 2098SOL     OW 7192   1.739   0.017   3.664
 2098SOL    HW1 7193   1.802   6.989   3.721
 2098SOL    HW2 7194   1.652   0.027   3.711
 2099SOL     OW 7195   4.381   1.626   6.762
 2099SOL    HW1 7196   4.391   1.566   6.841
 2099SOL    HW2 7197   4.467   1.675   6.746
 2100SOL     OW 7198   4.269   0.260   1.007
 2100SOL    HW1 7199   4.177   0.281   0.973
 2100SOL    HW2 7200   4.337   0.292   0.942
 2101SOL     OW 7201   1.284   0.524   2.567
 2101SOL    HW1 7202   1.377   0.559   2.557
 2101SOL    HW2 7203   1.260   0.468   2.487
 2102SOL     OW 7204   3.617   2.891   2.288
 2102SOL    HW1 7205   3.605   2.892   2.388
 2102SOL    HW2 7206   3.712   2.911   2.266
 2103SOL     OW 7207   1.786   6.947   1.618
 2103SOL    HW1 7208   1.720   6.969   1.546
 2103SOL    HW2 7209   1.777   7.014   1.692
 2104SOL     OW 7210   1.227   4.281   2.427
 2104SOL    HW1 7211   1.204   4.204   2.486
 2104SOL    HW2 7212   1.192   4.366   2.467
 2105SOL     OW 7213   5.133   6.366   5.270
 2105SOL    HW1 7214   5.125   6.378   5.369
 2105SOL    HW2 7215   5.144   6.269   5.248
 2106SOL     OW 7216   3.207   2.480   0.912
 2106SOL    HW1 7217   3.210   2.476   1.011
 2106SOL    HW2 7218   3.223   2.574   0.881
 2107SOL     OW 7219   6.327   4.628   4.971
 2107SOL    HW1 7220   6.312   4.661   4.878
 2107SOL    HW2 7221   6.412   4.574   4.974
 2108SOL     OW 7222   4.530   6.309   5.605
 2108SOL    HW1 7223   4.547   6.408   5.598
 2108SOL    HW2 7224   4.543   6.280   5.700
 2109SOL     OW 7225   2.456   5.896   2.048
 2109SOL    HW1 7226   2.517   5.970   2.075
 2109SOL    HW2 7227   2.405   5.864   2.128
 2110SOL     OW 7228   3.837   5.707   6.697
 2110SOL    HW1 7229   3.921   5.667   6.660
 2110SOL    HW2 7230   3.855   5.746   6.787
 2111SOL     OW 7231   0.602   2.620   0.534
 2111SOL    HW1 7232   0.692   2.593   0.569
 2111SOL    HW2 7233   0.613   2.678   0.453
 2112SOL     OW 7234   0.587   0.732   6.652
 2112SOL    HW1 7235   0.630   0.667   6.715
 2112SOL    HW2 7236   0.603   0.702   6.558
 2113SOL     OW 7237   6.383   2.037   4.318
 2113SOL    HW1 7238   6.286   2.017   4.330
 2113SOL    HW2 7239   6.417   1.991   4.235
 2114SOL     OW 7240   3.043   1.025   5.421
 2114SOL    HW1 7241   2.955   1.042   5.465
 2114SOL    HW2 7242   3.030   0.964   5.343
 2115SOL     OW 7243   6.819   6.936   3.697
 2115SOL    HW1 7244   6.818   6.928   3.597
 2115SOL    HW2 7245   6.826   0.007   3.723
 2116SOL     OW 7246   1.919   0.612   5.746
 2116SOL    HW1 7247   1.967   0.687   5.701
 2116SOL    HW2 7248   1.835   0.647   5.787
 2117SOL     OW 7249   5.717   3.278   1.316
 2117SOL    HW1 7250   5.666   3.268   1.230
 2117SOL    HW2 7251   5.770   3.195   1.334
 2118SOL     OW 7252   6.876   3.492   2.525
 2118SOL    HW1 7253   6.920   3.529   2.607
 2118SOL    HW2 7254   6.789   3.538   2.510
 2119SOL     OW 7255   2.327   2.166   6.866
 2119SOL    HW1 7256   2.342   2.264   6.881
 2119SOL    HW2 7257   2.413   2.117   6.881
 2120SOL     OW 7258   5.910   1.606   0.595
 2120SOL    HW1 7259   5.958   1.593   0.508
 2120SOL    HW2 7260   5.941   1.537   0.661
 2121SOL     OW 7261   3.166   5.334   1.568
 2121SOL    HW1 7262   3.187   5.425   1.532
 2121SOL    HW2 7263   3.120   5.280   1.497
 2122SOL     OW 7264   0.578   0.677   5.001
 2122SOL    HW1 7265   0.510   0.750   5.011
 2122SOL    HW2 7266   0.577   0.644   4.906
 2123SOL     OW 7267   1.145   4.650   3.417
 2123SOL    HW1 7268   1.104   4.580   3.475
 2123SOL    HW2 7269   1.073   4.711   3.382
 2124SOL     OW 7270   5.360   3.377   6.196
 2124SOL    HW1 7271   5.450   3.353   6.161
 2124SOL    HW2 7272   5.290   3.349   6.131
 2125SOL     OW 7273   2.524   5.819   6.025
 2125SOL    HW1 7274   2.603   5.860   5.978
 2125SOL    HW2 7275   2.491   5.742   5.972
 2126SOL     OW 7276   2.840   5.214   1.813
 2126SOL    HW1 7277   2.837   5.313   1.827
 2126SOL    HW2 7278   2.781   5.189   1.736
 2127SOL     OW 7279   1.354   4.108   4.213
 2127SOL    HW1 7280   1.427   4.053   4.254
 2127SOL    HW2 7281   1.367   4.112   4.114
 2128SOL     OW 7282   5.444   3.053   1.181
 2128SOL    HW1 7283   5.468   2.979   1.244
 2128SOL    HW2 7284   5.516   3.062   1.112
 2129SOL     OW 7285   6.116   4.338   3.855
 2129SOL    HW1 7286   6.206   4.377   3.836
 2129SOL    HW2 7287   6.118   4.290   3.942
 2130SOL     OW 7288   1.689   0.169   2.930
 2130SOL    HW1 7289   1.745   0.236   2.881
 2130SOL    HW2 7290   1.727   0.156   3.022
 2131SOL     OW 7291   6.074   0.269   6.754
 2131SOL    HW1 7292   6.036   0.292   6.664
 2131SOL    HW2 7293   6.152   0.208   6.742
 2132SOL     OW 7294   3.530   1.629   7.006
 2132SOL    HW1 7295   3.457   1.614   0.048
 2132SOL    HW2 7296   3.506   1.708   6.949
 2133SOL     OW 7297   4.191   3.182   1.672
 2133SOL    HW1 7298   4.178   3.176   1.573
 2133SOL    HW2 7299   4.265   3.120   1.699
 2134SOL     OW 7300   2.435   0.396   5.101
 2134SOL    HW1 7301   2.387   0.400   5.188
 2134SOL    HW2 7302   2.373   0.363   5.030
 2135SOL     OW 7303   0.123   6.153   4.380
 2135SOL    HW1 7304   0.052   6.184   4.317
 2135SOL    HW2 7305   0.112   6.199   4.469
 2136SOL     OW 7306   0.617   4.906   3.600
 2136SOL    HW1 7307   0.658   4.815   3.595
 2136SOL    HW2 7308   0.517   4.898   3.596
 2137SOL     OW 7309   0.029   0.520   4.607
 2137SOL    HW1 7310   0.026   0.518   4.507
 2137SOL    HW2 7311   0.118   0.554   4.637
 2138SOL     OW 7312   1.068   2.136   6.967
 2138SOL    HW1 7313   1.132   2.059   6.973
 2138SOL    HW2 7314   0.975   2.102   6.984
 2139SOL     OW 7315   3.716   6.234   4.327
 2139SOL    HW1 7316   3.781   6.179   4.380
 2139SOL    HW2 7317   3.737   6.331   4.340
 2140SOL     OW 7318   1.466   5.607   3.368
 2140SOL    HW1 7319   1.458   5.602   3.269
 2140SOL    HW2 7320   1.504   5.521   3.403
 2141SOL     OW 7321   6.495   0.492   6.476
 2141SOL    HW1 7322   6.429   0.506   6.401
 2141SOL    HW2 7323   6.587   0.513   6.443
 2142SOL     OW 7324   3.940   0.894   3.275
 2142SOL    HW1 7325   3.852   0.903   3.228
 2142SOL    HW2 7326   3.975   0.801   3.263
 2143SOL     OW 7327   3.605   5.879   0.113
 2143SOL    HW1 7328   3.570   5.956   0.167
 2143SOL    HW2 7329   3.548   5.799   0.129
 2144SOL     OW 7330   0.411   1.485   1.853
 2144SOL    HW1 7331   0.485   1.486   1.919
 2144SOL    HW2 7332   0.369   1.576   1.849
 2145SOL     OW 7333   2.615   5.809   3.822
 2145SOL    HW1 7334   2.554   5.791   3.899
 2145SOL    HW2 7335   2.579   5.765   3.740
 2146SOL     OW 7336   2.975   2.209   1.234
 2146SOL    HW1 7337   2.994   2.267   1.313
 2146SOL    HW2 7338   2.891   2.157   1.250
 2147SOL     OW 7339   6.910   0.228   4.420
 2147SOL    HW1 7340   6.955   0.201   4.505
 2147SOL    HW2 7341   6.871   0.320   4.431
 2148SOL     OW 7342   6.893   3.816   3.670
 2148SOL    HW1 7343   6.799   3.849   3.669
 2148SOL    HW2 7344   6.903   3.741   3.606
 2149SOL     OW 7345   2.287   1.102   2.291
 2149SOL    HW1 7346   2.332   1.097   2.380
 2149SOL    HW2 7347   2.221   1.028   2.283
 2150SOL     OW 7348   5.320   0.289   3.193
 2150SOL    HW1 7349   5.337   0.369   3.134
 2150SOL    HW2 7350   5.331   0.316   3.289
 2151SOL     OW 7351   4.365   4.270   5.576
 2151SOL    HW1 7352   4.397   4.265   5.481
 2151SOL    HW2 7353   4.275   4.313   5.578
 2152SOL     OW 7354   6.948   6.127   3.056
 2152SOL    HW1 7355   6.857   6.108   3.019
 2152SOL    HW2 7356   7.012   6.139   2.981
 2153SOL     OW 7357   4.330   1.426   3.954
 2153SOL    HW1 7358   4.327   1.506   3.893
 2153SOL    HW2 7359   4.408   1.369   3.929
 2154SOL     OW 7360   4.257   0.067   4.118
 2154SOL    HW1 7361   4.210   0.100   4.035
 2154SOL    HW2 7362   4.296   7.003   4.101
 2155SOL     OW 7363   5.598   3.869   0.679
 2155SOL    HW1 7364   5.547   3.861   0.593
 2155SOL    HW2 7365   5.640   3.782   0.701
 2156SOL     OW 7366   6.024   5.913   2.574
 2156SOL    HW1 7367   6.124   5.917   2.565
 2156SOL    HW2 7368   5.984   5.993   2.530
 2157SOL     OW 7369   5.413   1.560   3.908
 2157SOL    HW1 7370   5.330   1.504   3.906
 2157SOL    HW2 7371   5.491   1.507   3.876
 2158SOL     OW 7372   4.072   0.578   3.663
 2158SOL    HW1 7373   4.055   0.497   3.608
 2158SOL    HW2 7374   4.144   0.633   3.621
 2159SOL     OW 7375   2.596   1.470   5.087
 2159SOL    HW1 7376   2.503   1.498   5.061
 2159SOL    HW2 7377   2.662   1.531   5.042
 2160SOL     OW 7378   2.566   4.064   0.744
 2160SOL    HW1 7379   2.640   3.999   0.729
 2160SOL    HW2 7380   2.545   4.070   0.842
 2161SOL     OW 7381   4.803   2.687   2.866
 2161SOL    HW1 7382   4.885   2.739   2.893
 2161SOL    HW2 7383   4.793   2.692   2.767
 2162SOL     OW 7384   2.502   1.768   2.296
 2162SOL    HW1 7385   2.442   1.743   2.220
 2162SOL    HW2 7386   2.553   1.850   2.273
 2163SOL     OW 7387   4.465   1.840   1.167
 2163SOL    HW1 7388   4.454   1.795   1.078
 2163SOL    HW2 7389   4.390   1.906   1.180
 2164SOL     OW 7390   6.413   0.609   1.326
 2164SOL    HW1 7391   6.403   0.645   1.233
 2164SOL    HW2 7392   6.503   0.566   1.336
 2165SOL     OW 7393   2.155   0.652   2.189
 2165SOL    HW1 7394   2.209   0.633   2.107
 2165SOL    HW2 7395   2.061   0.621   2.174
 2166SOL     OW 7396   5.343   2.740   4.864
 2166SOL    HW1 7397   5.396   2.658   4.842
 2166SOL    HW2 7398   5.260   2.743   4.808
 2167SOL     OW 7399   3.481   1.762   1.220
 2167SOL    HW1 7400   3.540   1.789   1.144
 2167SOL    HW2 7401   3.531   1.702   1.282
 2168SOL     OW 7402   5.546   6.749   4.644
 2168SOL    HW1 7403   5.510   6.838   4.672
 2168SOL    HW2 7404   5.500   6.677   4.696
 2169SOL     OW 7405   5.331   1.790   5.825
 2169SOL    HW1 7406   5.255   1.836   5.781
 2169SOL    HW2 7407   5.302   1.757   5.915
 2170SOL     OW 7408   4.879   5.703   4.479
 2170SOL    HW1 7409   4.781   5.683   4.477
 2170SOL    HW2 7410   4.896   5.780   4.541
 2171SOL     OW 7411   0.530   3.284   0.107
 2171SOL    HW1 7412   0.473   3.249   0.182
 2171SOL    HW2 7413   0.480   3.355   0.058
 2172SOL     OW 7414   2.203   7.010   2.918
 2172SOL    HW1 7415   2.281   0.009   2.976
 2172SOL    HW2 7416   2.146   0.065   2.902
 2173SOL     OW 7417   4.301   2.096   4.614
 2173SOL    HW1 7418   4.371   2.147   4.664
 2173SOL    HW2 7419   4.343   2.050   4.536
 2174SOL     OW 7420   1.080   5.651   4.938
 2174SOL    HW1 7421   1.065   5.704   5.022
 2174SOL    HW2 7422   1.005   5.667   4.875
 2175SOL     OW 7423   1.022   0.326   0.038
 2175SOL    HW1 7424   1.014   0.414   7.016
 2175SOL    HW2 7425   1.118   0.301   0.046
 2176SOL     OW 7426   2.290   2.753   2.215
 2176SOL    HW1 7427   2.263   2.691   2.142
 2176SOL    HW2 7428   2.308   2.701   2.298
 2177SOL     OW 7429   0.886   1.522   1.724
 2177SOL    HW1 7430   0.861   1.589   1.795
 2177SOL    HW2 7431   0.947   1.454   1.764
 2178SOL     OW 7432   6.818   6.108   0.234
 2178SOL    HW1 7433   6.841   6.040   0.164
 2178SOL    HW2 7434   6.847   6.074   0.323
 2179SOL     OW 7435   2.109   3.660   4.322
 2179SOL    HW1 7436   2.083   3.564   4.327
 2179SOL    HW2 7437   2.147   3.680   4.232
 2180SOL     OW 7438   3.088   3.141   2.222
 2180SOL    HW1 7439   3.152   3.161   2.297
 2180SOL    HW2 7440   3.108   3.051   2.185
 2181SOL     OW 7441   3.621   0.098   1.095
 2181SOL    HW1 7442   3.558   0.160   1.142
 2181SOL    HW2 7443   3.677   0.150   1.030
 2182SOL     OW 7444   4.013   3.548   0.606
 2182SOL    HW1 7445   4.049   3.462   0.641
 2182SOL    HW2 7446   3.918   3.535   0.577
 2183SOL     OW 7447   4.564   2.944   1.460
 2183SOL    HW1 7448   4.477   2.965   1.417
 2183SOL    HW2 7449   4.565   2.848   1.489
 2184SOL     OW 7450   4.628   2.699   6.004
 2184SOL    HW1 7451   4.591   2.771   6.063
 2184SOL    HW2 7452   4.665   2.625   6.061
 2185SOL     OW 7453   6.758   6.714   2.353
 2185SOL    HW1 7454   6.821   6.640   2.330
 2185SOL    HW2 7455   6.798   6.802   2.326
 2186SOL     OW 7456   6.920   4.439   3.001
 2186SOL    HW1 7457   6.883   4.350   2.974
 2186SOL    HW2 7458   6.844   4.499   3.028
 2187SOL     OW 7459   6.311   0.543   6.719
 2187SOL    HW1 7460   6.302   0.493   6.805
 2187SOL    HW2 7461   6.387   0.505   6.666
 2188SOL     OW 7462   4.501   2.067   3.632
 2188SOL    HW1 7463   4.423   2.126   3.651
 2188SOL    HW2 7464   4.481   2.009   3.553
 2189SOL     OW 7465   3.923   6.135   6.656
 2189SOL    HW1 7466   3.860   6.059   6.641
 2189SOL    HW2 7467   3.974   6.121   6.741
 2190SOL     OW 7468   5.599   3.496   0.967
 2190SOL    HW1 7469   5.592   3.589   1.003
 2190SOL    HW2 7470   5.516   3.475   0.914
 2191SOL     OW 7471   3.700   0.698   6.885
 2191SOL    HW1 7472   3.630   0.657   6.828
 2191SOL    HW2 7473   3.659   0.733   6.970
 2192SOL     OW 7474   4.270   6.327   1.876
 2192SOL    HW1 7475   4.223   6.335   1.964
 2192SOL    HW2 7476   4.368   6.344   1.889
 2193SOL     OW 7477   0.072   6.222   4.630
 2193SOL    HW1 7478   0.152   6.192   4.684
 2193SOL    HW2 7479   0.073   6.322   4.624
 2194SOL     OW 7480   2.496   0.199   2.120
 2194SOL    HW1 7481   2.468   0.285   2.162
 2194SOL    HW2 7482   2.500   0.127   2.190
 2195SOL     OW 7483   0.419   5.207   2.573
 2195SOL    HW1 7484   0.452   5.134   2.633
 2195SOL    HW2 7485   0.485   5.222   2.499
 2196SOL     OW 7486   4.436   3.627   0.630
 2196SOL    HW1 7487   4.361   3.693   0.624
 2196SOL    HW2 7488   4.403   3.542   0.669
 2197SOL     OW 7489   4.885   3.274   6.928
 2197SOL    HW1 7490   4.936   3.279   6.842
 2197SOL    HW2 7491   4.893   3.360   6.977
 2198SOL     OW 7492   0.500   4.575   6.764
 2198SOL    HW1 7493   0.588   4.575   6.715
 2198SOL    HW2 7494   0.510   4.527   6.851
 2199SOL     OW 7495   3.960   1.654   2.969
 2199SOL    HW1 7496   3.934   1.662   3.066
 2199SOL    HW2 7497   3.889   1.603   2.921
 2200SOL     OW 7498   3.754   0.289   3.845
 2200SOL    HW1 7499   3.751   0.190   3.856
 2200SOL    HW2 7500   3.810   0.329   3.918
 2201SOL     OW 7501   5.028   4.649   4.292
 2201SOL    HW1 7502   5.019   4.742   4.330
 2201SOL    HW2 7503   5.107   4.646   4.231
 2202SOL     OW 7504   4.767   6.167   4.079
 2202SOL    HW1 7505   4.781   6.137   3.985
 2202SOL    HW2 7506   4.702   6.107   4.124
 2203SOL     OW 7507   1.911   1.221   2.417
 2203SOL    HW1 7508   1.866   1.293   2.469
 2203SOL    HW2 7509   1.934   1.254   2.326
 2204SOL     OW 7510   3.488   2.240   1.136
 2204SOL    HW1 7511   3.477   2.160   1.077
 2204SOL    HW2 7512   3.421   2.237   1.210
 2205SOL     OW 7513   3.517   0.698   2.223
 2205SOL    HW1 7514   3.432   0.647   2.236
 2205SOL    HW2 7515   3.508   0.789   2.264
 2206SOL     OW 7516   1.378   4.064   0.284
 2206SOL    HW1 7517   1.348   4.048   0.378
 2206SOL    HW2 7518   1.305   4.035   0.221
 2207SOL     OW 7519   6.524   4.735   5.445
 2207SOL    HW1 7520   6.493   4.675   5.518
 2207SOL    HW2 7521   6.617   4.767   5.464
 2208SOL     OW 7522   6.544   5.443   2.062
 2208SOL    HW1 7523   6.578   5.400   1.979
 2208SOL    HW2 7524   6.575   5.391   2.142
 2209SOL     OW 7525   6.532   6.969   1.803
 2209SOL    HW1 7526   6.583   7.017   1.874
 2209SOL    HW2 7527   6.567   6.996   1.713
 2210SOL     OW 7528   2.349   4.551   3.996
 2210SOL    HW1 7529   2.277   4.586   3.937
 2210SOL    HW2 7530   2.348   4.599   4.083
 2211SOL     OW 7531   6.216   0.835   6.000
 2211SOL    HW1 7532   6.278   0.913   6.009
 2211SOL    HW2 7533   6.126   0.867   5.969
 2212SOL     OW 7534   2.222   6.733   6.219
 2212SOL    HW1 7535   2.248   6.668   6.291
 2212SOL    HW2 7536   2.127   6.760   6.232
 2213SOL     OW 7537   4.685   0.930   3.629
 2213SOL    HW1 7538   4.648   0.880   3.708
 2213SOL    HW2 7539   4.767   0.884   3.596
 2214SOL     OW 7540   3.653   0.307   4.482
 2214SOL    HW1 7541   3.739   0.332   4.528
 2214SOL    HW2 7542   3.644   0.207   4.482
 2215SOL     OW 7543   5.807   2.105   6.106
 2215SOL    HW1 7544   5.864   2.164   6.164
 2215SOL    HW2 7545   5.841   2.011   6.110
 2216SOL     OW 7546   3.044   1.344   2.212
 2216SOL    HW1 7547   3.072   1.429   2.257
 2216SOL    HW2 7548   3.092   1.267   2.252
 2217SOL     OW 7549   2.933   6.873   1.002
 2217SOL    HW1 7550   3.021   6.870   1.051
 2217SOL    HW2 7551   2.869   6.810   1.046
 2218SOL     OW 7552   6.748   1.054   2.044
 2218SOL    HW1 7553   6.702   1.105   2.116
 2218SOL    HW2 7554   6.713   0.960   2.043
 2219SOL     OW 7555   2.626   1.981   3.053
 2219SOL    HW1 7556   2.555   1.950   2.990
 2219SOL    HW2 7557   2.709   2.005   3.002
 2220SOL     OW 7558   1.789   6.501   3.033
 2220SOL    HW1 7559   1.790   6.402   3.042
 2220SOL    HW2 7560   1.873   6.539   3.071
 2221SOL     OW 7561   0.361   6.346   4.924
 2221SOL    HW1 7562   0.370   6.264   4.867
 2221SOL    HW2 7563   0.444   6.360   4.977
 2222SOL     OW 7564   5.672   5.019   4.100
 2222SOL    HW1 7565   5.622   4.967   4.169
 2222SOL    HW2 7566   5.705   5.104   4.140
 2223SOL     OW 7567   6.668   6.525   2.553
 2223SOL    HW1 7568   6.687   6.603   2.494
 2223SOL    HW2 7569   6.573   6.529   2.584
 2224SOL     OW 7570   1.024   5.838   1.413
 2224SOL    HW1 7571   1.040   5.937   1.410
 2224SOL    HW2 7572   1.096   5.792   1.361
 2225SOL     OW 7573   0.494   4.295   0.077
 2225SOL    HW1 7574   0.407   4.308   0.125
 2225SOL    HW2 7575   0.552   4.376   0.091
 2226SOL     OW 7576   3.504   3.759   2.901
 2226SOL    HW1 7577   3.437   3.768   2.974
 2226SOL    HW2 7578   3.485   3.825   2.829
 2227SOL     OW 7579   1.480   1.778   5.225
 2227SOL    HW1 7580   1.409   1.845   5.204
 2227SOL    HW2 7581   1.467   1.696   5.170
 2228SOL     OW 7582   1.822   4.437   4.494
 2228SOL    HW1 7583   1.796   4.393   4.580
 2228SOL    HW2 7584   1.922   4.443   4.488
 2229SOL     OW 7585   5.605   5.656   2.804
 2229SOL    HW1 7586   5.539   5.730   2.817
 2229SOL    HW2 7587   5.619   5.608   2.891
 2230SOL     OW 7588   1.890   5.583   2.885
 2230SOL    HW1 7589   1.934   5.598   2.797
 2230SOL    HW2 7590   1.934   5.507   2.932
 2231SOL     OW 7591   1.903   5.568   1.013
 2231SOL    HW1 7592   1.840   5.645   1.022
 2231SOL    HW2 7593   1.863   5.499   0.953
 2232SOL     OW 7594   5.923   2.164   3.658
 2232SOL    HW1 7595   5.993   2.207   3.601
 2232SOL    HW2 7596   5.966   2.122   3.738
 2233SOL     OW 7597   3.853   0.990   0.546
 2233SOL    HW1 7598   3.769   0.989   0.600
 2233SOL    HW2 7599   3.924   1.041   0.595
 2234SOL     OW 7600   4.499   2.173   1.091
 2234SOL    HW1 7601   4.583   2.119   1.103
 2234SOL    HW2 7602   4.508   2.231   1.011
 2235SOL     OW 7603   1.847   2.333   2.198
 2235SOL    HW1 7604   1.823   2.375   2.285
 2235SOL    HW2 7605   1.939   2.295   2.203
 2236SOL     OW 7606   0.471   3.946   5.459
 2236SOL    HW1 7607   0.457   3.869   5.521
 2236SOL    HW2 7608   0.550   3.999   5.489
 2237SOL     OW 7609   6.243   3.007   3.380
 2237SOL    HW1 7610   6.173   2.970   3.442
 2237SOL    HW2 7611   6.227   2.973   3.287
 2238SOL     OW 7612   5.253   6.081   6.702
 2238SOL    HW1 7613   5.260   6.180   6.714
 2238SOL    HW2 7614   5.189   6.044   6.770
 2239SOL     OW 7615   0.462   5.811   1.461
 2239SOL    HW1 7616   0.518   5.765   1.531
 2239SOL    HW2 7617   0.366   5.808   1.488
 2240SOL     OW 7618   6.495   3.622   1.172
 2240SOL    HW1 7619   6.562   3.595   1.102
 2240SOL    HW2 7620   6.504   3.720   1.191
 2241SOL     OW 7621   0.604   0.323   3.939
 2241SOL    HW1 7622   0.632   0.227   3.933
 2241SOL    HW2 7623   0.511   0.328   3.975
 2242SOL     OW 7624   2.080   1.726   3.090
 2242SOL    HW1 7625   2.005   1.778   3.131
 2242SOL    HW2 7626   2.152   1.788   3.059
 2243SOL     OW 7627   1.689   0.140   4.674
 2243SOL    HW1 7628   1.647   0.154   4.584
 2243SOL    HW2 7629   1.674   0.045   4.703
 2244SOL     OW 7630   3.497   0.305   5.135
 2244SOL    HW1 7631   3.407   0.338   5.109
 2244SOL    HW2 7632   3.497   0.284   5.233
 2245SOL     OW 7633   0.999   2.544   2.091
 2245SOL    HW1 7634   1.033   2.608   2.159
 2245SOL    HW2 7635   0.939   2.477   2.134
 2246SOL     OW 7636   0.639   4.040   5.132
 2246SOL    HW1 7637   0.648   3.971   5.061
 2246SOL    HW2 7638   0.701   4.020   5.208
 2247SOL     OW 7639   1.902   2.323   4.251
 2247SOL    HW1 7640   1.949   2.270   4.322
 2247SOL    HW2 7641   1.932   2.293   4.161
 2248SOL     OW 7642   5.688   3.761   6.244
 2248SOL    HW1 7643   5.668   3.819   6.164
 2248SOL    HW2 7644   5.607   3.706   6.266
 2249SOL     OW 7645   5.509   5.676   4.968
 2249SOL    HW1 7646   5.443   5.748   4.946
 2249SOL    HW2 7647   5.539   5.687   5.063
 2250SOL     OW 7648   4.285   4.501   1.806
 2250SOL    HW1 7649   4.328   4.420   1.848
 2250SOL    HW2 7650   4.207   4.472   1.752
 2251SOL     OW 7651   0.606   0.964   5.273
 2251SOL    HW1 7652   0.656   0.901   5.333
 2251SOL    HW2 7653   0.599   1.054   5.317
 2252SOL     OW 7654   3.481   1.455   6.477
 2252SOL    HW1 7655   3.447   1.549   6.468
 2252SOL    HW2 7656   3.506   1.420   6.387
 2253SOL     OW 7657   0.603   3.935   0.464
 2253SOL    HW1 7658   0.528   3.874   0.491
 2253SOL    HW2 7659   0.642   3.977   0.546
 2254SOL     OW 7660   1.615   4.580   6.218
 2254SOL    HW1 7661   1.713   4.560   6.220
 2254SOL    HW2 7662   1.589   4.628   6.301
 2255SOL     OW 7663   6.488   3.664   6.755
 2255SOL    HW1 7664   6.468   3.742   6.695
 2255SOL    HW2 7665   6.458   3.580   6.711
 2256SOL     OW 7666   3.294   5.349   2.225
 2256SOL    HW1 7667   3.281   5.256   2.189
 2256SOL    HW2 7668   3.290   5.346   2.325
 2257SOL     OW 7669   1.411   4.586   5.484
 2257SOL    HW1 7670   1.333   4.531   5.454
 2257SOL    HW2 7671   1.487   4.526   5.509
 2258SOL     OW 7672   2.074   6.497   6.003
 2258SOL    HW1 7673   2.027   6.581   5.975
 2258SOL    HW2 7674   2.081   6.435   5.925
 2259SOL     OW 7675   6.158   1.707   6.226
 2259SOL    HW1 7676   6.073   1.688   6.276
 2259SOL    HW2 7677   6.227   1.639   6.251
 2260SOL     OW 7678   4.198   3.066   0.505
 2260SOL    HW1 7679   4.152   3.131   0.445
 2260SOL    HW2 7680   4.276   3.111   0.549
 2261SOL     OW 7681   2.599   6.883   5.098
 2261SOL    HW1 7682   2.635   6.966   5.140
 2261SOL    HW2 7683   2.552   6.828   5.167
 2262SOL     OW 7684   2.796   1.902   3.519
 2262SOL    HW1 7685   2.776   1.848   3.601
 2262SOL    HW2 7686   2.742   1.986   3.519
 2263SOL     OW 7687   0.972   4.623   5.574
 2263SOL    HW1 7688   0.986   4.686   5.651
 2263SOL    HW2 7689   0.875   4.622   5.550
 2264SOL     OW 7690   3.453   3.415   3.703
 2264SOL    HW1 7691   3.549   3.438   3.687
 2264SOL    HW2 7692   3.394   3.484   3.663
 2265SOL     OW 7693   0.999   5.872   4.327
 2265SOL    HW1 7694   1.012   5.942   4.397
 2265SOL    HW2 7695   0.924   5.898   4.267
 2266SOL     OW 7696   6.843   0.551   5.346
 2266SOL    HW1 7697   6.751   0.578   5.317
 2266SOL    HW2 7698   6.869   0.605   5.427
 2267SOL     OW 7699   6.170   1.904   5.528
 2267SOL    HW1 7700   6.191   1.812   5.496
 2267SOL    HW2 7701   6.138   1.960   5.451
 2268SOL     OW 7702   0.094   6.852   0.121
 2268SOL    HW1 7703   0.091   6.936   0.066
 2268SOL    HW2 7704   0.142   6.780   0.069
 2269SOL     OW 7705   6.483   6.207   2.743
 2269SOL    HW1 7706   6.535   6.136   2.696
 2269SOL    HW2 7707   6.446   6.272   2.677
 2270SOL     OW 7708   3.140   3.031   3.466
 2270SOL    HW1 7709   3.090   3.095   3.407
 2270SOL    HW2 7710   3.192   2.968   3.409
 2271SOL     OW 7711   1.770   4.016   2.703
 2271SOL    HW1 7712   1.770   3.956   2.783
 2271SOL    HW2 7713   1.838   3.983   2.637
 2272SOL     OW 7714   5.292   0.797   5.661
 2272SOL    HW1 7715   5.316   0.783   5.565
 2272SOL    HW2 7716   5.214   0.859   5.667
 2273SOL     OW 7717   0.330   1.378   2.279
 2273SOL    HW1 7718   0.298   1.302   2.223
 2273SOL    HW2 7719   0.366   1.343   2.366
 2274SOL     OW 7720   0.308   4.561   3.272
 2274SOL    HW1 7721   0.265   4.597   3.189
 2274SOL    HW2 7722   0.239   4.549   3.342
 2275SOL     OW 7723   4.524   6.500   3.356
 2275SOL    HW1 7724   4.529   6.571   3.286
 2275SOL    HW2 7725   4.576   6.419   3.326
 2276SOL     OW 7726   3.544   6.353   2.687
 2276SOL    HW1 7727   3.547   6.449   2.714
 2276SOL    HW2 7728   3.608   6.300   2.742
 2277SOL     OW 7729   3.209   2.954   2.504
 2277SOL    HW1 7730   3.238   3.020   2.435
 2277SOL    HW2 7731   3.228   2.861   2.473
 2278SOL     OW 7732   4.286   4.784   1.224
 2278SOL    HW1 7733   4.378   4.754   1.250
 2278SOL    HW2 7734   4.293   4.866   1.168
 2279SOL     OW 7735   5.727   3.960   5.380
 2279SOL    HW1 7736   5.638   3.944   5.338
 2279SOL    HW2 7737   5.723   3.934   5.477
 2280SOL     OW 7738   5.626   1.072   6.112
 2280SOL    HW1 7739   5.703   1.137   6.116
 2280SOL    HW2 7740   5.604   1.041   6.204
 2281SOL     OW 7741   2.549   0.438   0.486
 2281SOL    HW1 7742   2.511   0.371   0.549
 2281SOL    HW2 7743   2.476   0.499   0.455
 2282SOL     OW 7744   3.724   0.338   2.551
 2282SOL    HW1 7745   3.644   0.305   2.601
 2282SOL    HW2 7746   3.715   0.437   2.535
 2283SOL     OW 7747   0.780   3.280   1.531
 2283SOL    HW1 7748   0.681   3.284   1.520
 2283SOL    HW2 7749   0.821   3.364   1.498
 2284SOL     OW 7750   1.982   3.384   0.722
 2284SOL    HW1 7751   2.049   3.334   0.667
 2284SOL    HW2 7752   1.897   3.333   0.726
 2285SOL     OW 7753   2.502   2.590   6.908
 2285SOL    HW1 7754   2.464   2.527   6.976
 2285SOL    HW2 7755   2.597   2.611   6.932
 2286SOL     OW 7756   6.625   6.187   3.936
 2286SOL    HW1 7757   6.587   6.148   4.020
 2286SOL    HW2 7758   6.571   6.155   3.858
 2287SOL     OW 7759   2.675   1.567   0.588
 2287SOL    HW1 7760   2.595   1.540   0.535
 2287SOL    HW2 7761   2.741   1.492   0.589
 2288SOL     OW 7762   2.629   5.848   4.221
 2288SOL    HW1 7763   2.725   5.821   4.222
 2288SOL    HW2 7764   2.620   5.940   4.184
 2289SOL     OW 7765   3.677   0.054   6.257
 2289SOL    HW1 7766   3.760   7.024   6.254
 2289SOL    HW2 7767   3.662   0.097   6.168
 2290SOL     OW 7768   2.664   3.655   5.520
 2290SOL    HW1 7769   2.590   3.688   5.461
 2290SOL    HW2 7770   2.696   3.730   5.578
 2291SOL     OW 7771   3.088   1.777   0.336
 2291SOL    HW1 7772   3.092   1.727   0.423
 2291SOL    HW2 7773   3.162   1.844   0.332
 2292SOL     OW 7774   5.134   2.108   2.803
 2292SOL    HW1 7775   5.172   2.199   2.822
 2292SOL    HW2 7776   5.165   2.044   2.873
 2293SOL     OW 7777   0.625   0.879   0.182
 2293SOL    HW1 7778   0.717   0.840   0.192
 2293SOL    HW2 7779   0.608   0.942   0.258
 2294SOL     OW 7780   6.507   2.911   5.641
 2294SOL    HW1 7781   6.549   2.841   5.699
 2294SOL    HW2 7782   6.529   3.002   5.677
 2295SOL     OW 7783   5.636   5.641   0.160
 2295SOL    HW1 7784   5.582   5.573   0.111
 2295SOL    HW2 7785   5.600   5.652   0.253
 2296SOL     OW 7786   3.904   6.046   4.031
 2296SOL    HW1 7787   3.937   6.130   4.075
 2296SOL    HW2 7788   3.982   5.997   3.990
 2297SOL     OW 7789   6.365   2.727   6.936
 2297SOL    HW1 7790   6.293   2.763   6.995
 2297SOL    HW2 7791   6.385   2.794   6.864
 2298SOL     OW 7792   2.459   3.787   5.387
 2298SOL    HW1 7793   2.462   3.843   5.304
 2298SOL    HW2 7794   2.373   3.735   5.389
 2299SOL     OW 7795   5.941   3.705   4.697
 2299SOL    HW1 7796   5.978   3.718   4.605
 2299SOL    HW2 7797   5.883   3.623   4.699
 2300SOL     OW 7798   3.970   0.406   3.247
 2300SOL    HW1 7799   3.993   0.503   3.256
 2300SOL    HW2 7800   4.009   0.371   3.162
 2301SOL     OW 7801   4.215   3.114   5.692
 2301SOL    HW1 7802   4.308   3.119   5.729
 2301SOL    HW2 7803   4.155   3.174   5.744
 2302SOL     OW 7804   0.207   2.983   5.062
 2302SOL    HW1 7805   0.260   2.968   5.145
 2302SOL    HW2 7806   0.227   3.074   5.026
 2303SOL     OW 7807   2.873   1.862   6.538
 2303SOL    HW1 7808   2.842   1.767   6.536
 2303SOL    HW2 7809   2.793   1.922   6.545
 2304SOL     OW 7810   3.934   6.636   2.919
 2304SOL    HW1 7811   3.985   6.586   2.989
 2304SOL    HW2 7812   3.988   6.640   2.835
 2305SOL     OW 7813   2.906   5.839   4.851
 2305SOL    HW1 7814   2.906   5.739   4.850
 2305SOL    HW2 7815   2.855   5.871   4.930
 2306SOL     OW 7816   1.012   4.868   5.389
 2306SOL    HW1 7817   1.068   4.883   5.471
 2306SOL    HW2 7818   0.929   4.818   5.414
 2307SOL     OW 7819   6.045   4.131   5.088
 2307SOL    HW1 7820   6.017   4.227   5.090
 2307SOL    HW2 7821   5.993   4.082   5.019
 2308SOL     OW 7822   1.140   6.513   2.616
 2308SOL    HW1 7823   1.092   6.601   2.611
 2308SOL    HW2 7824   1.101   6.449   2.550
 2309SOL     OW 7825   2.056   1.133   4.883
 2309SOL    HW1 7826   2.024   1.226   4.862
 2309SOL    HW2 7827   2.038   1.113   4.979
 2310SOL     OW 7828   5.249   5.950   0.481
 2310SOL    HW1 7829   5.257   5.937   0.580
 2310SOL    HW2 7830   5.304   6.029   0.454
 2311SOL     OW 7831   2.376   5.824   0.728
 2311SOL    HW1 7832   2.435   5.744   0.743
 2311SOL    HW2 7833   2.384   5.886   0.806
 2312SOL     OW 7834   2.520   4.605   2.561
 2312SOL    HW1 7835   2.431   4.649   2.565
 2312SOL    HW2 7836   2.529   4.556   2.474
 2313SOL     OW 7837   4.962   5.182   1.508
 2313SOL    HW1 7838   4.975   5.197   1.410
 2313SOL    HW2 7839   4.881   5.126   1.523
 2314SOL     OW 7840   2.432   4.309   2.902
 2314SOL    HW1 7841   2.444   4.212   2.881
 2314SOL    HW2 7842   2.335   4.332   2.899
 2315SOL     OW 7843   3.949   1.748   6.646
 2315SOL    HW1 7844   3.935   1.798   6.560
 2315SOL    HW2 7845   3.965   1.813   6.720
 2316SOL     OW 7846   5.399   3.903   1.301
 2316SOL    HW1 7847   5.329   3.888   1.230
 2316SOL    HW2 7848   5.358   3.953   1.377
 2317SOL     OW 7849   0.331   6.461   3.633
 2317SOL    HW1 7850   0.368   6.516   3.558
 2317SOL    HW2 7851   0.328   6.517   3.716
 2318SOL     OW 7852   6.877   1.522   3.435
 2318SOL    HW1 7853   6.943   1.501   3.507
 2318SOL    HW2 7854   6.861   1.620   3.431
 2319SOL     OW 7855   0.935   5.594   2.757
 2319SOL    HW1 7856   1.031   5.594   2.732
 2319SOL    HW2 7857   0.925   5.558   2.850
 2320SOL     OW 7858   6.753   4.981   3.578
 2320SOL    HW1 7859   6.797   4.950   3.494
 2320SOL    HW2 7860   6.819   5.029   3.635
 2321SOL     OW 7861   3.189   4.937   3.946
 2321SOL    HW1 7862   3.172   5.036   3.948
 2321SOL    HW2 7863   3.112   4.891   3.902
 2322SOL     OW 7864   2.161   1.705   4.378
 2322SOL    HW1 7865   2.156   1.618   4.427
 2322SOL    HW2 7866   2.207   1.692   4.290
 2323SOL     OW 7867   5.182   3.729   1.698
 2323SOL    HW1 7868   5.159   3.639   1.660
 2323SOL    HW2 7869   5.183   3.724   1.798
 2324SOL     OW 7870   0.511   5.529   4.304
 2324SOL    HW1 7871   0.478   5.533   4.210
 2324SOL    HW2 7872   0.434   5.542   4.367
 2325SOL     OW 7873   6.024   1.934   0.907
 2325SOL    HW1 7874   5.933   1.898   0.887
 2325SOL    HW2 7875   6.078   1.866   0.956
 2326SOL     OW 7876   0.323   5.408   0.369
 2326SOL    HW1 7877   0.350   5.340   0.301
 2326SOL    HW2 7878   0.233   5.445   0.345
 2327SOL     OW 7879   4.553   1.679   3.249
 2327SOL    HW1 7880   4.630   1.736   3.277
 2327SOL    HW2 7881   4.587   1.593   3.211
 2328SOL     OW 7882   6.080   4.981   4.058
 2328SOL    HW1 7883   6.175   4.954   4.043
 2328SOL    HW2 7884   6.077   5.059   4.120
 2329SOL     OW 7885   1.341   6.421   3.416
 2329SOL    HW1 7886   1.329   6.462   3.325
 2329SOL    HW2 7887   1.436   6.429   3.444
 2330SOL     OW 7888   1.590   4.097   0.091
 2330SOL    HW1 7889   1.502   4.093   0.138
 2330SOL    HW2 7890   1.658   4.139   0.151
 2331SOL     OW 7891   2.132   5.003   4.797
 2331SOL    HW1 7892   2.096   5.040   4.711
 2331SOL    HW2 7893   2.217   4.954   4.778
 2332SOL     OW 7894   6.842   3.604   6.043
 2332SOL    HW1 7895   6.915   3.604   6.111
 2332SOL    HW2 7896   6.878   3.633   5.955
 2333SOL     OW 7897   2.413   4.668   4.242
 2333SOL    HW1 7898   2.402   4.572   4.267
 2333SOL    HW2 7899   2.511   4.689   4.232
 2334SOL     OW 7900   2.487   0.147   5.632
 2334SOL    HW1 7901   2.543   0.090   5.573
 2334SOL    HW2 7902   2.492   0.114   5.726
 2335SOL     OW 7903   4.746   4.897   4.291
 2335SOL    HW1 7904   4.700   4.841   4.359
 2335SOL    HW2 7905   4.679   4.936   4.228
 2336SOL     OW 7906   4.628   1.129   5.325
 2336SOL    HW1 7907   4.702   1.096   5.268
 2336SOL    HW2 7908   4.665   1.175   5.406
 2337SOL     OW 7909   5.585   0.748   5.136
 2337SOL    HW1 7910   5.569   0.653   5.110
 2337SOL    HW2 7911   5.625   0.752   5.227
 2338SOL     OW 7912   1.714   0.137   6.787
 2338SOL    HW1 7913   1.690   0.202   6.858
 2338SOL    HW2 7914   1.633   0.085   6.760
 2339SOL     OW 7915   3.838   4.625   6.501
 2339SOL    HW1 7916   3.937   4.617   6.484
 2339SOL    HW2 7917   3.791   4.640   6.414
 2340SOL     OW 7918   4.300   5.052   4.159
 2340SOL    HW1 7919   4.306   5.132   4.100
 2340SOL    HW2 7920   4.311   5.081   4.255
 2341SOL     OW 7921   0.306   4.258   6.183
 2341SOL    HW1 7922   0.264   4.198   6.115
 2341SOL    HW2 7923   0.283   4.226   6.275
 2342SOL     OW 7924   5.943   0.946   5.865
 2342SOL    HW1 7925   5.873   0.875   5.870
 2342SOL    HW2 7926   5.966   0.978   5.957
 2343SOL     OW 7927   1.520   5.727   1.533
 2343SOL    HW1 7928   1.484   5.634   1.525
 2343SOL    HW2 7929   1.610   5.732   1.489
 2344SOL     OW 7930   2.067   0.849   2.585
 2344SOL    HW1 7931   2.047   0.932   2.637
 2344SOL    HW2 7932   2.107   0.873   2.496
 2345SOL     OW 7933   0.839   2.229   2.375
 2345SOL    HW1 7934   0.832   2.192   2.467
 2345SOL    HW2 7935   0.934   2.224   2.344
 2346SOL     OW 7936   5.120   3.088   5.043
 2346SOL    HW1 7937   5.213   3.061   5.020
 2346SOL    HW2 7938   5.055   3.022   5.004
 2347SOL     OW 7939   1.330   4.140   0.746
 2347SOL    HW1 7940   1.426   4.158   0.765
 2347SOL    HW2 7941   1.290   4.220   0.701
 2348SOL     OW 7942   2.895   0.028   1.323
 2348SOL    HW1 7943   2.872   7.016   1.413
 2348SOL    HW2 7944   2.990   0.059   1.323
 2349SOL     OW 7945   5.642   3.288   6.801
 2349SOL    HW1 7946   5.712   3.297   6.872
 2349SOL    HW2 7947   5.558   3.254   6.842
 2350SOL     OW 7948   2.370   6.116   5.407
 2350SOL    HW1 7949   2.292   6.062   5.437
 2350SOL    HW2 7950   2.417   6.068   5.333
 2351SOL     OW 7951   1.817   5.134   3.539
 2351SOL    HW1 7952   1.842   5.133   3.636
 2351SOL    HW2 7953   1.866   5.209   3.493
 2352SOL     OW 7954   5.923   6.084   6.505
 2352SOL    HW1 7955   5.895   6.089   6.409
 2352SOL    HW2 7956   5.998   6.018   6.514
 2353SOL     OW 7957   3.469   2.737   5.841
 2353SOL    HW1 7958   3.370   2.736   5.828
 2353SOL    HW2 7959   3.494   2.817   5.897
 2354SOL     OW 7960   3.647   1.537   2.354
 2354SOL    HW1 7961   3.681   1.443   2.353
 2354SOL    HW2 7962   3.553   1.539   2.319
 2355SOL     OW 7963   6.932   1.675   2.374
 2355SOL    HW1 7964   6.906   1.586   2.413
 2355SOL    HW2 7965   7.017   1.665   2.322
 2356SOL     OW 7966   3.784   4.913   4.217
 2356SOL    HW1 7967   3.785   4.865   4.305
 2356SOL    HW2 7968   3.865   4.973   4.212
 2357SOL     OW 7969   1.129   5.219   1.356
 2357SOL    HW1 7970   1.157   5.185   1.267
 2357SOL    HW2 7971   1.177   5.304   1.376
 2358SOL     OW 7972   2.038   0.530   5.349
 2358SOL    HW1 7973   2.011   0.462   5.417
 2358SOL    HW2 7974   2.106   0.490   5.288
 2359SOL     OW 7975   2.913   2.534   5.911
 2359SOL    HW1 7976   2.873   2.582   5.833
 2359SOL    HW2 7977   2.904   2.592   5.993
 2360SOL     OW 7978   3.407   4.833   0.899
 2360SOL    HW1 7979   3.311   4.816   0.874
 2360SOL    HW2 7980   3.453   4.880   0.823
 2361SOL     OW 7981   3.593   4.968   1.333
 2361SOL    HW1 7982   3.624   4.889   1.384
 2361SOL    HW2 7983   3.671   5.023   1.305
 2362SOL     OW 7984   2.684   4.682   4.603
 2362SOL    HW1 7985   2.696   4.696   4.702
 2362SOL    HW2 7986   2.592   4.645   4.587
 2363SOL     OW 7987   2.712   4.176   1.320
 2363SOL    HW1 7988   2.621   4.204   1.350
 2363SOL    HW2 7989   2.721   4.077   1.328
 2364SOL     OW 7990   5.236   0.912   2.833
 2364SOL    HW1 7991   5.158   0.851   2.821
 2364SOL    HW2 7992   5.253   0.962   2.748
 2365SOL     OW 7993   5.757   4.437   3.115
 2365SOL    HW1 7994   5.688   4.435   3.187
 2365SOL    HW2 7995   5.766   4.346   3.074
 2366SOL     OW 7996   3.615   5.069   5.013
 2366SOL    HW1 7997   3.543   5.069   5.082
 2366SOL    HW2 7998   3.608   5.153   4.959
 2367SOL     OW 7999   5.819   4.688   5.698
 2367SOL    HW1 8000   5.785   4.669   5.605
 2367SOL    HW2 8001   5.849   4.603   5.740
 2368SOL     OW 8002   5.062   0.311   5.218
 2368SOL    HW1 8003   4.996   0.375   5.178
 2368SOL    HW2 8004   5.018   0.222   5.231
 2369SOL     OW 8005   3.857   1.740   4.061
 2369SOL    HW1 8006   3.761   1.716   4.079
 2369SOL    HW2 8007   3.911   1.656   4.054
 2370SOL     OW 8008   3.934   2.438   1.050
 2370SOL    HW1 8009   3.953   2.517   0.992
 2370SOL    HW2 8010   3.977   2.452   1.140
 2371SOL     OW 8011   2.267   6.585   2.595
 2371SOL    HW1 8012   2.168   6.571   2.598
 2371SOL    HW2 8013   2.310   6.538   2.672
 2372SOL     OW 8014   6.413   6.932   5.773
 2372SOL    HW1 8015   6.336   6.874   5.799
 2372SOL    HW2 8016   6.480   6.878   5.722
 2373SOL     OW 8017   6.271   4.138   5.874
 2373SOL    HW1 8018   6.361   4.171   5.902
 2373SOL    HW2 8019   6.282   4.066   5.806
 2374SOL     OW 8020   6.645   5.952   2.661
 2374SOL    HW1 8021   6.681   5.862   2.685
 2374SOL    HW2 8022   6.671   5.974   2.567
 2375SOL     OW 8023   1.922   0.188   4.800
 2375SOL    HW1 8024   1.970   0.245   4.734
 2375SOL    HW2 8025   1.830   0.169   4.767
 2376SOL     OW 8026   5.662   3.437   3.858
 2376SOL    HW1 8027   5.678   3.383   3.775
 2376SOL    HW2 8028   5.701   3.528   3.846
 2377SOL     OW 8029   3.630   4.571   5.721
 2377SOL    HW1 8030   3.559   4.507   5.750
 2377SOL    HW2 8031   3.690   4.527   5.655
 2378SOL     OW 8032   1.211   0.951   0.794
 2378SOL    HW1 8033   1.174   0.953   0.701
 2378SOL    HW2 8034   1.196   1.040   0.838
 2379SOL     OW 8035   0.729   4.857   2.619
 2379SOL    HW1 8036   0.787   4.798   2.561
 2379SOL    HW2 8037   0.682   4.801   2.687
 2380SOL     OW 8038   4.541   5.218   6.672
 2380SOL    HW1 8039   4.518   5.209   6.769
 2380SOL    HW2 8040   4.640   5.210   6.660
 2381SOL     OW 8041   2.150   3.674   3.766
 2381SOL    HW1 8042   2.188   3.766   3.767
 2381SOL    HW2 8043   2.143   3.642   3.672
 2382SOL     OW 8044   6.135   6.288   2.595
 2382SOL    HW1 8045   6.135   6.218   2.523
 2382SOL    HW2 8046   6.130   6.379   2.554
 2383SOL     OW 8047   5.262   4.240   6.253
 2383SOL    HW1 8048   5.340   4.293   6.222
 2383SOL    HW2 8049   5.292   4.173   6.320
 2384SOL     OW 8050   0.824   2.342   3.291
 2384SOL    HW1 8051   0.818   2.403   3.371
 2384SOL    HW2 8052   0.911   2.293   3.294
 2385SOL     OW 8053   0.665   1.037   0.821
 2385SOL    HW1 8054   0.598   1.079   0.882
 2385SOL    HW2 8055   0.652   1.071   0.728
 2386SOL     OW 8056   6.610   5.086   5.794
 2386SOL    HW1 8057   6.539   5.083   5.723
 2386SOL    HW2 8058   6.570   5.059   5.882
 2387SOL     OW 8059   0.044   0.499   3.474
 2387SOL    HW1 8060   0.032   0.583   3.420
 2387SOL    HW2 8061   0.114   0.442   3.432
 2388SOL     OW 8062   1.707   3.587   4.558
 2388SOL    HW1 8063   1.785   3.650   4.554
 2388SOL    HW2 8064   1.636   3.625   4.616
 2389SOL     OW 8065   3.570   0.092   3.095
 2389SOL    HW1 8066   3.662   0.063   3.070
 2389SOL    HW2 8067   3.560   0.091   3.194
 2390SOL     OW 8068   5.118   2.656   5.384
 2390SOL    HW1 8069   5.177   2.662   5.303
 2390SOL    HW2 8070   5.036   2.604   5.361
 2391SOL     OW 8071   2.742   3.834   6.223
 2391SOL    HW1 8072   2.724   3.767   6.151
 2391SOL    HW2 8073   2.841   3.841   6.238
 2392SOL     OW 8074   4.468   5.193   5.837
 2392SOL    HW1 8075   4.415   5.271   5.870
 2392SOL    HW2 8076   4.517   5.151   5.913
 2393SOL     OW 8077   4.361   4.104   0.332
 2393SOL    HW1 8078   4.442   4.086   0.276
 2393SOL    HW2 8079   4.384   4.169   0.404
 2394SOL     OW 8080   7.003   2.842   3.160
 2394SOL    HW1 8081   6.917   2.824   3.207
 2394SOL    HW2 8082   0.014   2.757   3.123
 2395SOL     OW 8083   1.657   2.369   3.573
 2395SOL    HW1 8084   1.636   2.434   3.647
 2395SOL    HW2 8085   1.584   2.301   3.568
 2396SOL     OW 8086   0.355   0.395   6.230
 2396SOL    HW1 8087   0.383   0.325   6.296
 2396SOL    HW2 8088   0.345   0.483   6.276
 2397SOL     OW 8089   2.324   4.635   5.958
 2397SOL    HW1 8090   2.225   4.646   5.970
 2397SOL    HW2 8091   2.341   4.562   5.891
 2398SOL     OW 8092   3.927   6.095   4.464
 2398SOL    HW1 8093   3.988   6.125   4.391
 2398SOL    HW2 8094   3.950   6.002   4.491
 2399SOL     OW 8095   3.305   1.353   2.526
 2399SOL    HW1 8096   3.206   1.338   2.532
 2399SOL    HW2 8097   3.332   1.359   2.430
 2400SOL     OW 8098   1.135   2.389   6.955
 2400SOL    HW1 8099   1.103   2.297   6.975
 2400SOL    HW2 8100   1.056   2.451   6.950
 2401SOL     OW 8101   1.279   6.586   0.742
 2401SOL    HW1 8102   1.218   6.521   0.698
 2401SOL    HW2 8103   1.272   6.576   0.842
 2402SOL     OW 8104   0.729   3.281   2.205
 2402SOL    HW1 8105   0.789   3.288   2.285
 2402SOL    HW2 8106   0.638   3.252   2.235
 2403SOL     OW 8107   3.169   4.429   5.325
 2403SOL    HW1 8108   3.088   4.468   5.283
 2403SOL    HW2 8109   3.249   4.484   5.301
 2404SOL     OW 8110   6.276   2.138   2.029
 2404SOL    HW1 8111   6.296   2.158   1.933
 2404SOL    HW2 8112   6.226   2.052   2.036
 2405SOL     OW 8113   2.019   2.990   0.184
 2405SOL    HW1 8114   2.058   3.082   0.179
 2405SOL    HW2 8115   1.928   2.995   0.225
 2406SOL     OW 8116   4.243   5.933   5.142
 2406SOL    HW1 8117   4.166   5.997   5.139
 2406SOL    HW2 8118   4.220   5.856   5.201
 2407SOL     OW 8119   2.094   1.749   3.402
 2407SOL    HW1 8120   2.137   1.838   3.389
 2407SOL    HW2 8121   2.132   1.683   3.338
 2408SOL     OW 8122   4.568   6.790   5.036
 2408SOL    HW1 8123   4.555   6.691   5.045
 2408SOL    HW2 8124   4.665   6.810   5.023
 2409SOL     OW 8125   1.138   2.958   6.311
 2409SOL    HW1 8126   1.191   3.019   6.370
 2409SOL    HW2 8127   1.195   2.924   6.237
 2410SOL     OW 8128   6.916   3.797   4.217
 2410SOL    HW1 8129   6.972   3.721   4.184
 2410SOL    HW2 8130   6.824   3.790   4.177
 2411SOL     OW 8131   3.418   1.554   0.558
 2411SOL    HW1 8132   3.322   1.529   0.570
 2411SOL    HW2 8133   3.475   1.497   0.617
 2412SOL     OW 8134   3.359   2.418   6.835
 2412SOL    HW1 8135   3.396   2.443   6.925
 2412SOL    HW2 8136   3.377   2.492   6.770
 2413SOL     OW 8137   6.705   3.909   6.419
 2413SOL    HW1 8138   6.683   3.814   6.396
 2413SOL    HW2 8139   6.781   3.911   6.483
 2414SOL     OW 8140   6.498   1.640   4.831
 2414SOL    HW1 8141   6.502   1.681   4.922
 2414SOL    HW2 8142   6.557   1.691   4.769
 2415SOL     OW 8143   2.918   4.127   5.665
 2415SOL    HW1 8144   2.884   4.159   5.753
 2415SOL    HW2 8145   2.981   4.194   5.627
 2416SOL     OW 8146   6.879   3.645   3.882
 2416SOL    HW1 8147   6.881   3.707   3.804
 2416SOL    HW2 8148   6.938   3.680   3.954
 2417SOL     OW 8149   3.690   2.485   1.719
 2417SOL    HW1 8150   3.772   2.540   1.706
 2417SOL    HW2 8151   3.715   2.396   1.757
 2418SOL     OW 8152   6.232   3.427   6.522
 2418SOL    HW1 8153   6.178   3.466   6.596
 2418SOL    HW2 8154   6.275   3.343   6.552
 2419SOL     OW 8155   3.636   1.056   2.836
 2419SOL    HW1 8156   3.659   1.103   2.921
 2419SOL    HW2 8157   3.718   1.010   2.801
 2420SOL     OW 8158   0.913   3.222   1.850
 2420SOL    HW1 8159   0.935   3.173   1.766
 2420SOL    HW2 8160   0.815   3.215   1.869
 2421SOL     OW 8161   2.329   0.274   2.783
 2421SOL    HW1 8162   2.362   0.348   2.842
 2421SOL    HW2 8163   2.404   0.210   2.764
 2422SOL     OW 8164   3.613   6.635   0.340
 2422SOL    HW1 8165   3.707   6.602   0.342
 2422SOL    HW2 8166   3.581   6.653   0.433
 2423SOL     OW 8167   4.005   4.937   4.850
 2423SOL    HW1 8168   4.040   4.844   4.847
 2423SOL    HW2 8169   3.998   4.968   4.945
 2424SOL     OW 8170   5.393   0.186   6.180
 2424SOL    HW1 8171   5.345   0.250   6.120
 2424SOL    HW2 8172   5.328   0.142   6.241
 2425SOL     OW 8173   4.111   5.529   5.121
 2425SOL    HW1 8174   4.113   5.620   5.162
 2425SOL    HW2 8175   4.141   5.461   5.188
 2426SOL     OW 8176   3.024   2.273   5.358
 2426SOL    HW1 8177   2.943   2.264   5.300
 2426SOL    HW2 8178   3.096   2.321   5.308
 2427SOL     OW 8179   4.485   2.191   6.908
 2427SOL    HW1 8180   4.538   2.108   6.889
 2427SOL    HW2 8181   4.454   2.188   7.003
 2428SOL     OW 8182   1.813   2.057   2.381
 2428SOL    HW1 8183   1.867   2.109   2.316
 2428SOL    HW2 8184   1.716   2.081   2.371
 2429SOL     OW 8185   5.023   6.076   1.711
 2429SOL    HW1 8186   5.111   6.106   1.673
 2429SOL    HW2 8187   4.958   6.063   1.637
 2430SOL     OW 8188   6.866   0.226   0.164
 2430SOL    HW1 8189   6.815   0.140   0.168
 2430SOL    HW2 8190   6.951   0.217   0.217
 2431SOL     OW 8191   1.839   2.749   1.384
 2431SOL    HW1 8192   1.852   2.765   1.286
 2431SOL    HW2 8193   1.790   2.663   1.397
 2432SOL     OW 8194   3.220   6.172   2.253
 2432SOL    HW1 8195   3.290   6.204   2.317
 2432SOL    HW2 8196   3.201   6.075   2.271
 2433SOL     OW 8197   0.468   4.518   4.180
 2433SOL    HW1 8198   0.473   4.571   4.265
 2433SOL    HW2 8199   0.486   4.422   4.200
 2434SOL     OW 8200   4.124   1.666   2.559
 2434SOL    HW1 8201   4.169   1.744   2.516
 2434SOL    HW2 8202   4.041   1.697   2.605
 2435SOL     OW 8203   5.443   0.022   6.564
 2435SOL    HW1 8204   5.535   0.058   6.577
 2435SOL    HW2 8205   5.431   6.964   6.618
 2436SOL     OW 8206   0.025   2.669   0.821
 2436SOL    HW1 8207   6.969   2.660   0.879
 2436SOL    HW2 8208   7.023   2.682   0.726
 2437SOL     OW 8209   1.123   4.634   1.441
 2437SOL    HW1 8210   1.024   4.643   1.430
 2437SOL    HW2 8211   1.149   4.538   1.431
 2438SOL     OW 8212   3.475   1.861   4.156
 2438SOL    HW1 8213   3.502   1.954   4.132
 2438SOL    HW2 8214   3.424   1.862   4.242
 2439SOL     OW 8215   0.513   5.741   0.337
 2439SOL    HW1 8216   0.508   5.658   0.391
 2439SOL    HW2 8217   0.528   5.718   0.241
 2440SOL     OW 8218   6.286   2.569   5.245
 2440SOL    HW1 8219   6.198   2.596   5.285
 2440SOL    HW2 8220   6.292   2.602   5.151
 2441SOL     OW 8221   6.518   0.464   0.057
 2441SOL    HW1 8222   6.579   0.533   0.018
 2441SOL    HW2 8223   6.464   0.505   0.131
 2442SOL     OW 8224   5.566   3.207   2.466
 2442SOL    HW1 8225   5.546   3.160   2.552
 2442SOL    HW2 8226   5.653   3.255   2.473
 2443SOL     OW 8227   0.190   3.034   1.132
 2443SOL    HW1 8228   0.184   2.945   1.177
 2443SOL    HW2 8229   0.199   3.106   1.201
 2444SOL     OW 8230   3.580   4.881   2.761
 2444SOL    HW1 8231   3.500   4.899   2.703
 2444SOL    HW2 8232   3.663   4.901   2.710
 2445SOL     OW 8233   0.637   2.095   1.201
 2445SOL    HW1 8234   0.548   2.138   1.219
 2445SOL    HW2 8235   0.700   2.117   1.275
 2446SOL     OW 8236   6.630   5.594   1.079
 2446SOL    HW1 8237   6.673   5.667   1.026
 2446SOL    HW2 8238   6.566   5.544   1.020
 2447SOL     OW 8239   1.927   6.606   0.311
 2447SOL    HW1 8240   2.025   6.622   0.305
 2447SOL    HW2 8241   1.881   6.690   0.341
 2448SOL     OW 8242   5.861   0.922   4.021
 2448SOL    HW1 8243   5.794   0.991   4.051
 2448SOL    HW2 8244   5.817   0.832   4.018
 2449SOL     OW 8245   2.293   4.097   1.281
 2449SOL    HW1 8246   2.375   4.040   1.281
 2449SOL    HW2 8247   2.216   4.044   1.317
 2450SOL     OW 8248   0.077   6.566   5.231
 2450SOL    HW1 8249   0.082   6.486   5.171
 2450SOL    HW2 8250   0.137   6.638   5.196
 2451SOL     OW 8251   1.419   6.754   6.972
 2451SOL    HW1 8252   1.455   6.671   7.016
 2451SOL    HW2 8253   1.467   6.834   7.010
 2452SOL     OW 8254   2.378   2.066   3.552
 2452SOL    HW1 8255   2.330   2.020   3.477
 2452SOL    HW2 8256   2.435   2.000   3.601
 2453SOL     OW 8257   1.611   1.828   6.282
 2453SOL    HW1 8258   1.641   1.886   6.358
 2453SOL    HW2 8259   1.684   1.822   6.214
 2454SOL     OW 8260   2.795   6.893   7.023
 2454SOL    HW1 8261   2.841   6.950   6.955
 2454SOL    HW2 8262   2.845   6.806   0.008
 2455SOL     OW 8263   4.685   2.456   0.090
 2455SOL    HW1 8264   4.621   2.513   0.039
 2455SOL    HW2 8265   4.635   2.381   0.134
 2456SOL     OW 8266   0.430   3.043   6.333
 2456SOL    HW1 8267   0.528   3.032   6.349
 2456SOL    HW2 8268   0.409   3.020   6.238
 2457SOL     OW 8269   5.235   1.667   6.110
 2457SOL    HW1 8270   5.140   1.636   6.103
 2457SOL    HW2 8271   5.242   1.739   6.179
 2458SOL     OW 8272   0.850   0.056   2.370
 2458SOL    HW1 8273   0.816   0.027   2.281
 2458SOL    HW2 8274   0.853   0.156   2.373
 2459SOL     OW 8275   1.573   6.540   1.600
 2459SOL    HW1 8276   1.667   6.540   1.632
 2459SOL    HW2 8277   1.537   6.446   1.602
 2460SOL     OW 8278   6.923   0.203   4.103
 2460SOL    HW1 8279   6.826   0.215   4.081
 2460SOL    HW2 8280   6.940   0.228   4.198
 2461SOL     OW 8281   2.375   1.018   3.314
 2461SOL    HW1 8282   2.276   1.032   3.306
 2461SOL    HW2 8283   2.416   1.098   3.358
 2462SOL     OW 8284   6.908   6.484   0.972
 2462SOL    HW1 8285   6.859   6.397   0.970
 2462SOL    HW2 8286   6.942   6.501   1.064
 2463SOL     OW 8287   7.017   6.955   0.895
 2463SOL    HW1 8288   0.020   6.864   0.923
 2463SOL    HW2 8289   6.929   6.978   0.938
 2464SOL     OW 8290   0.952   2.351   4.954
 2464SOL    HW1 8291   0.891   2.389   4.884
 2464SOL    HW2 8292   0.945   2.406   5.037
 2465SOL     OW 8293   6.322   1.392   0.287
 2465SOL    HW1 8294   6.407   1.443   0.298
 2465SOL    HW2 8295   6.275   1.422   0.205
 2466SOL     OW 8296   0.969   2.196   1.226
 2466SOL    HW1 8297   1.015   2.256   1.160
 2466SOL    HW2 8298   0.871   2.216   1.226
 2467SOL     OW 8299   5.111   2.150   5.257
 2467SOL    HW1 8300   5.164   2.065   5.261
 2467SOL    HW2 8301   5.013   2.129   5.260
 2468SOL     OW 8302   2.949   0.134   5.044
 2468SOL    HW1 8303   2.892   0.091   4.973
 2468SOL    HW2 8304   3.035   0.084   5.053
 2469SOL     OW 8305   2.922   2.123   5.969
 2469SOL    HW1 8306   2.975   2.083   5.894
 2469SOL    HW2 8307   2.962   2.211   5.995
 2470SOL     OW 8308   2.322   5.341   6.398
 2470SOL    HW1 8309   2.342   5.394   6.316
 2470SOL    HW2 8310   2.278   5.255   6.373
 2471SOL     OW 8311   3.365   5.708   3.032
 2471SOL    HW1 8312   3.346   5.806   3.038
 2471SOL    HW2 8313   3.286   5.657   3.068
 2472SOL     OW 8314   5.009   1.428   2.964
 2472SOL    HW1 8315   5.046   1.340   2.934
 2472SOL    HW2 8316   4.938   1.457   2.900
 2473SOL     OW 8317   0.714   4.135   4.603
 2473SOL    HW1 8318   0.655   4.057   4.625
 2473SOL    HW2 8319   0.804   4.120   4.643
 2474SOL     OW 8320   1.544   6.275   1.008
 2474SOL    HW1 8321   1.540   6.339   0.932
 2474SOL    HW2 8322   1.473   6.205   0.996
 2475SOL     OW 8323   5.626   2.014   1.106
 2475SOL    HW1 8324   5.691   1.940   1.123
 2475SOL    HW2 8325   5.544   1.977   1.062
 2476SOL     OW 8326   4.675   0.003   6.794
 2476SOL    HW1 8327   4.695   0.094   6.756
 2476SOL    HW2 8328   4.734   6.961   6.750
 2477SOL     OW 8329   3.693   1.212   3.563
 2477SOL    HW1 8330   3.768   1.146   3.558
 2477SOL    HW2 8331   3.718   1.286   3.626
 2478SOL     OW 8332   3.409   0.340   4.607
 2478SOL    HW1 8333   3.499   0.319   4.570
 2478SOL    HW2 8334   3.348   0.366   4.532
 2479SOL     OW 8335   5.626   4.139   1.501
 2479SOL    HW1 8336   5.646   4.043   1.521
 2479SOL    HW2 8337   5.608   4.150   1.403
 2480SOL     OW 8338   2.954   2.344   1.463
 2480SOL    HW1 8339   3.009   2.414   1.507
 2480SOL    HW2 8340   2.871   2.385   1.425
 2481SOL     OW 8341   3.278   6.914   2.004
 2481SOL    HW1 8342   3.280   6.905   1.905
 2481SOL    HW2 8343   3.368   6.893   2.042
 2482SOL     OW 8344   6.965   2.877   0.154
 2482SOL    HW1 8345   6.975   2.814   0.231
 2482SOL    HW2 8346   6.881   2.855   0.104
 2483SOL     OW 8347   2.592   2.305   1.568
 2483SOL    HW1 8348   2.624   2.270   1.656
 2483SOL    HW2 8349   2.502   2.266   1.547
 2484SOL     OW 8350   4.217   0.349   6.551
 2484SOL    HW1 8351   4.290   0.416   6.540
 2484SOL    HW2 8352   4.136   0.394   6.590
 2485SOL     OW 8353   0.227   1.533   6.363
 2485SOL    HW1 8354   0.158   1.464   6.384
 2485SOL    HW2 8355   0.304   1.490   6.316
 2486SOL     OW 8356   6.690   5.919   3.384
 2486SOL    HW1 8357   6.738   5.992   3.433
 2486SOL    HW2 8358   6.750   5.881   3.314
 2487SOL     OW 8359   4.542   6.325   0.251
 2487SOL    HW1 8360   4.531   6.248   0.313
 2487SOL    HW2 8361   4.566   6.292   0.160
 2488SOL     OW 8362   6.879   4.036   0.944
 2488SOL    HW1 8363   6.926   4.092   0.876
 2488SOL    HW2 8364   6.804   4.088   0.984
 2489SOL     OW 8365   6.160   5.318   4.626
 2489SOL    HW1 8366   6.116   5.386   4.567
 2489SOL    HW2 8367   6.158   5.349   4.721
 2490SOL     OW 8368   2.595   5.698   1.836
 2490SOL    HW1 8369   2.639   5.685   1.925
 2490SOL    HW2 8370   2.584   5.796   1.818
 2491SOL     OW 8371   3.908   4.638   1.718
 2491SOL    HW1 8372   3.956   4.709   1.665
 2491SOL    HW2 8373   3.868   4.571   1.656
 2492SOL     OW 8374   0.154   5.776   1.237
 2492SOL    HW1 8375   0.182   5.735   1.324
 2492SOL    HW2 8376   0.054   5.777   1.232
 2493SOL     OW 8377   5.845   6.489   0.685
 2493SOL    HW1 8378   5.866   6.451   0.595
 2493SOL    HW2 8379   5.920   6.467   0.749
 2494SOL     OW 8380   6.601   4.166   0.903
 2494SOL    HW1 8381   6.611   4.200   0.996
 2494SOL    HW2 8382   6.614   4.242   0.838
 2495SOL     OW 8383   7.012   3.424   2.129
 2495SOL    HW1 8384   7.009   3.512   2.083
 2495SOL    HW2 8385   6.965   3.355   2.073
 2496SOL     OW 8386   5.925   4.209   6.426
 2496SOL    HW1 8387   6.005   4.150   6.435
 2496SOL    HW2 8388   5.842   4.152   6.424
 2497SOL     OW 8389   0.276   6.953   3.276
 2497SOL    HW1 8390   0.311   6.898   3.351
 2497SOL    HW2 8391   0.223   0.004   3.313
 2498SOL     OW 8392   1.926   3.073   4.715
 2498SOL    HW1 8393   2.020   3.107   4.705
 2498SOL    HW2 8394   1.883   3.067   4.625
 2499SOL     OW 8395   5.994   3.747   2.424
 2499SOL    HW1 8396   5.995   3.820   2.355
 2499SOL    HW2 8397   5.902   3.709   2.430
 2500SOL     OW 8398   3.519   3.292   2.242
 2500SOL    HW1 8399   3.536   3.239   2.159
 2500SOL    HW2 8400   3.522   3.390   2.221
 2501SOL     OW 8401   6.049   5.647   5.400
 2501SOL    HW1 8402   6.136   5.612   5.366
 2501SOL    HW2 8403   5.979   5.576   5.392
 2502SOL     OW 8404   2.563   5.467   3.856
 2502SOL    HW1 8405   2.663   5.459   3.849
 2502SOL    HW2 8406   2.540   5.538   3.923
 2503SOL     OW 8407   2.266   0.247   5.449
 2503SOL    HW1 8408   2.273   0.346   5.461
 2503SOL    HW2 8409   2.336   0.201   5.504
 2504SOL     OW 8410   3.818   0.192   3.267
 2504SOL    HW1 8411   3.843   0.285   3.239
 2504SOL    HW2 8412   3.748   0.196   3.338
 2505SOL     OW 8413   6.074   4.705   3.950
 2505SOL    HW1 8414   6.080   4.804   3.949
 2505SOL    HW2 8415   5.978   4.677   3.959
 2506SOL     OW 8416   6.339   5.370   6.639
 2506SOL    HW1 8417   6.294   5.419   6.565
 2506SOL    HW2 8418   6.405   5.305   6.602
 2507SOL     OW 8419   6.398   3.215   3.267
 2507SOL    HW1 8420   6.357   3.138   3.315
 2507SOL    HW2 8421   6.342   3.297   3.282
 2508SOL     OW 8422   6.197   0.825   3.955
 2508SOL    HW1 8423   6.222   0.889   3.883
 2508SOL    HW2 8424   6.229   0.860   4.044
 2509SOL     OW 8425   7.015   2.890   6.240
 2509SOL    HW1 8426   6.983   2.983   6.255
 2509SOL    HW2 8427   0.034   2.857   6.323
 2510SOL     OW 8428   3.599   3.787   2.271
 2510SOL    HW1 8429   3.594   3.868   2.330
 2510SOL    HW2 8430   3.681   3.792   2.214
 2511SOL     OW 8431   2.060   1.009   4.415
 2511SOL    HW1 8432   1.987   1.050   4.360
 2511SOL    HW2 8433   2.043   1.026   4.512
 2512SOL     OW 8434   3.724   4.910   3.949
 2512SOL    HW1 8435   3.637   4.867   3.926
 2512SOL    HW2 8436   3.733   4.918   4.048
 2513SOL     OW 8437   2.183   5.721   6.665
 2513SOL    HW1 8438   2.110   5.770   6.617
 2513SOL    HW2 8439   2.271   5.748   6.628
 2514SOL     OW 8440   1.862   1.847   2.693
 2514SOL    HW1 8441   1.946   1.793   2.695
 2514SOL    HW2 8442   1.800   1.809   2.624
 2515SOL     OW 8443   0.127   2.010   0.909
 2515SOL    HW1 8444   0.076   2.085   0.951
 2515SOL    HW2 8445   0.222   2.013   0.941
 2516SOL     OW 8446   6.418   2.404   4.910
 2516SOL    HW1 8447   6.389   2.313   4.940
 2516SOL    HW2 8448   6.338   2.457   4.882
 2517SOL     OW 8449   0.254   1.345   4.057
 2517SOL    HW1 8450   0.296   1.258   4.083
 2517SOL    HW2 8451   0.267   1.412   4.130
 2518SOL     OW 8452   2.689   3.903   1.235
 2518SOL    HW1 8453   2.602   3.874   1.194
 2518SOL    HW2 8454   2.749   3.940   1.163
 2519SOL     OW 8455   1.111   1.194   0.863
 2519SOL    HW1 8456   1.024   1.217   0.906
 2519SOL    HW2 8457   1.174   1.271   0.869
 2520SOL     OW 8458   2.718   2.888   0.703
 2520SOL    HW1 8459   2.716   2.951   0.782
 2520SOL    HW2 8460   2.679   2.934   0.623
 2521SOL     OW 8461   4.902   0.506   5.141
 2521SOL    HW1 8462   4.950   0.589   5.171
 2521SOL    HW2 8463   4.826   0.531   5.081
 2522SOL     OW 8464   1.239   1.922   6.960
 2522SOL    HW1 8465   1.313   1.904   6.895
 2522SOL    HW2 8466   1.206   1.836   6.997
 2523SOL     OW 8467   1.054   5.557   6.005
 2523SOL    HW1 8468   0.958   5.586   5.997
 2523SOL    HW2 8469   1.104   5.582   5.922
 2524SOL     OW 8470   1.100   1.916   4.957
 2524SOL    HW1 8471   1.009   1.942   4.989
 2524SOL    HW2 8472   1.118   1.822   4.983
 2525SOL     OW 8473   6.259   2.665   5.861
 2525SOL    HW1 8474   6.312   2.631   5.783
 2525SOL    HW2 8475   6.307   2.744   5.901
 2526SOL     OW 8476   1.658   0.736   0.710
 2526SOL    HW1 8477   1.559   0.749   0.718
 2526SOL    HW2 8478   1.705   0.816   0.748
 2527SOL     OW 8479   3.832   4.829   6.689
 2527SOL    HW1 8480   3.803   4.798   6.780
 2527SOL    HW2 8481   3.839   4.750   6.628
 2528SOL     OW 8482   4.610   5.607   6.435
 2528SOL    HW1 8483   4.613   5.518   6.390
 2528SOL    HW2 8484   4.589   5.678   6.368
 2529SOL     OW 8485   0.551   6.214   5.538
 2529SOL    HW1 8486   0.579   6.229   5.633
 2529SOL    HW2 8487   0.451   6.213   5.533
 2530SOL     OW 8488   2.514   6.110   6.729
 2530SOL    HW1 8489   2.490   6.183   6.794
 2530SOL    HW2 8490   2.582   6.050   6.770
 2531SOL     OW 8491   0.244   4.890   6.461
 2531SOL    HW1 8492   0.320   4.846   6.412
 2531SOL    HW2 8493   0.169   4.825   6.470
 2532SOL     OW 8494   5.546   5.514   1.886
 2532SOL    HW1 8495   5.475   5.501   1.956
 2532SOL    HW2 8496   5.592   5.428   1.869
 2533SOL     OW 8497   4.307   1.045   3.855
 2533SOL    HW1 8498   4.320   0.956   3.899
 2533SOL    HW2 8499   4.250   1.103   3.914
 2534SOL     OW 8500   4.274   1.455   2.456
 2534SOL    HW1 8501   4.213   1.530   2.483
 2534SOL    HW2 8502   4.234   1.405   2.379
 2535SOL     OW 8503   3.953   2.990   6.115
 2535SOL    HW1 8504   3.972   3.065   6.179
 2535SOL    HW2 8505   4.030   2.981   6.051
 2536SOL     OW 8506   1.372   0.210   0.850
 2536SOL    HW1 8507   1.369   0.310   0.856
 2536SOL    HW2 8508   1.381   0.172   0.942
 2537SOL     OW 8509   3.925   6.726   5.549
 2537SOL    HW1 8510   3.989   6.718   5.626
 2537SOL    HW2 8511   3.958   6.670   5.473
 2538SOL     OW 8512   5.969   3.784   3.710
 2538SOL    HW1 8513   6.024   3.821   3.785
 2538SOL    HW2 8514   6.000   3.691   3.688
 2539SOL     OW 8515   4.628   2.436   5.273
 2539SOL    HW1 8516   4.575   2.518   5.251
 2539SOL    HW2 8517   4.641   2.382   5.190
 2540SOL     OW 8518   2.873   2.073   1.536
 2540SOL    HW1 8519   2.906   2.168   1.527
 2540SOL    HW2 8520   2.821   2.049   1.454
 2541SOL     OW 8521   3.410   6.806   3.528
 2541SOL    HW1 8522   3.506   6.812   3.556
 2541SOL    HW2 8523   3.352   6.797   3.609
 2542SOL     OW 8524   1.884   5.816   5.793
 2542SOL    HW1 8525   1.921   5.753   5.725
 2542SOL    HW2 8526   1.870   5.906   5.751
 2543SOL     OW 8527   0.382   0.616   4.048
 2543SOL    HW1 8528   0.424   0.706   4.034
 2543SOL    HW2 8529   0.309   0.603   3.981
 2544SOL     OW 8530   0.689   5.246   6.047
 2544SOL    HW1 8531   0.783   5.243   6.079
 2544SOL    HW2 8532   0.666   5.340   6.020
 2545SOL     OW 8533   2.489   5.723   3.594
 2545SOL    HW1 8534   2.399   5.748   3.629
 2545SOL    HW2 8535   2.480   5.692   3.500
 2546SOL     OW 8536   7.006   0.881   1.504
 2546SOL    HW1 8537   6.995   0.799   1.448
 2546SOL    HW2 8538   6.961   0.958   1.459
 2547SOL     OW 8539   0.481   3.613   5.405
 2547SOL    HW1 8540   0.502   3.515   5.399
 2547SOL    HW2 8541   0.475   3.639   5.502
 2548SOL     OW 8542   0.799   0.510   6.322
 2548SOL    HW1 8543   0.838   0.438   6.264
 2548SOL    HW2 8544   0.862   0.588   6.325
 2549SOL     OW 8545   5.566   2.932   2.237
 2549SOL    HW1 8546   5.598   3.025   2.218
 2549SOL    HW2 8547   5.572   2.877   2.154
 2550SOL     OW 8548   5.708   5.424   6.867
 2550SOL    HW1 8549   5.672   5.412   6.775
 2550SOL    HW2 8550   5.640   5.394   6.934
 2551SOL     OW 8551   1.110   5.095   0.015
 2551SOL    HW1 8552   1.028   5.041   0.033
 2551SOL    HW2 8553   1.176   5.040   6.991
 2552SOL     OW 8554   1.682   5.798   3.400
 2552SOL    HW1 8555   1.639   5.708   3.389
 2552SOL    HW2 8556   1.778   5.785   3.428
 2553SOL     OW 8557   4.080   3.688   6.866
 2553SOL    HW1 8558   4.164   3.725   6.904
 2553SOL    HW2 8559   4.098   3.650   6.776
 2554SOL     OW 8560   1.191   2.027   0.499
 2554SOL    HW1 8561   1.101   1.986   0.508
 2554SOL    HW2 8562   1.198   2.071   0.409
 2555SOL     OW 8563   0.252   0.135   6.321
 2555SOL    HW1 8564   0.199   0.075   6.262
 2555SOL    HW2 8565   0.226   0.230   6.306
 2556SOL     OW 8566   4.167   4.888   0.255
 2556SOL    HW1 8567   4.146   4.861   0.349
 2556SOL    HW2 8568   4.172   4.806   0.198
 2557SOL     OW 8569   1.766   4.630   6.829
 2557SOL    HW1 8570   1.672   4.663   6.832
 2557SOL    HW2 8571   1.816   4.666   6.908
 2558SOL     OW 8572   4.352   0.689   5.165
 2558SOL    HW1 8573   4.326   0.602   5.122
 2558SOL    HW2 8574   4.371   0.675   5.262
 2559SOL     OW 8575   0.606   4.985   5.213
 2559SOL    HW1 8576   0.602   4.946   5.120
 2559SOL    HW2 8577   0.522   4.961   5.262
 2560SOL     OW 8578   6.028   0.844   0.244
 2560SOL    HW1 8579   6.115   0.852   0.196
 2560SOL    HW2 8580   6.017   0.750   0.277
 2561SOL     OW 8581   3.152   5.946   3.919
 2561SOL    HW1 8582   3.090   5.946   3.841
 2561SOL    HW2 8583   3.156   5.854   3.958
 2562SOL     OW 8584   2.123   3.824   0.206
 2562SOL    HW1 8585   2.056   3.867   0.145
 2562SOL    HW2 8586   2.075   3.785   0.285
 2563SOL     OW 8587   1.311   0.536   1.849
 2563SOL    HW1 8588   1.332   0.589   1.767
 2563SOL    HW2 8589   1.214   0.547   1.871
 2564SOL     OW 8590   1.421   6.494   2.543
 2564SOL    HW1 8591   1.395   6.519   2.449
 2564SOL    HW2 8592   1.339   6.493   2.600
 2565SOL     OW 8593   0.610   0.920   1.578
 2565SOL    HW1 8594   0.634   0.985   1.650
 2565SOL    HW2 8595   0.515   0.933   1.552
 2566SOL     OW 8596   1.926   6.809   5.295
 2566SOL    HW1 8597   1.847   6.796   5.235
 2566SOL    HW2 8598   1.983   6.727   5.293
 2567SOL     OW 8599   1.045   0.703   0.704
 2567SOL    HW1 8600   1.089   0.784   0.666
 2567SOL    HW2 8601   1.076   0.688   0.798
 2568SOL     OW 8602   5.079   3.668   0.246
 2568SOL    HW1 8603   5.138   3.588   0.250
 2568SOL    HW2 8604   5.136   3.750   0.239
 2569SOL     OW 8605   2.440   0.579   2.447
 2569SOL    HW1 8606   2.530   0.542   2.472
 2569SOL    HW2 8607   2.407   0.640   2.518
 2570SOL     OW 8608   5.318   2.171   5.879
 2570SOL    HW1 8609   5.327   2.271   5.872
 2570SOL    HW2 8610   5.327   2.144   5.975
 2571SOL     OW 8611   0.942   4.053   4.736
 2571SOL    HW1 8612   0.992   4.036   4.821
 2571SOL    HW2 8613   0.959   3.979   4.671
 2572SOL     OW 8614   1.620   4.682   3.562
 2572SOL    HW1 8615   1.568   4.693   3.476
 2572SOL    HW2 8616   1.664   4.593   3.563
 2573SOL     OW 8617   1.571   6.947   0.022
 2573SOL    HW1 8618   1.653   6.896   7.020
 2573SOL    HW2 8619   1.591   6.998   0.106
 2574SOL     OW 8620   6.467   3.771   0.570
 2574SOL    HW1 8621   6.534   3.701   0.596
 2574SOL    HW2 8622   6.485   3.855   0.622
 2575SOL     OW 8623   0.731   6.480   6.386
 2575SOL    HW1 8624   0.709   6.577   6.398
 2575SOL    HW2 8625   0.804   6.469   6.319
 2576SOL     OW 8626   4.226   6.571   5.105
 2576SOL    HW1 8627   4.198   6.658   5.065
 2576SOL    HW2 8628   4.187   6.496   5.051
 2577SOL     OW 8629   1.448   3.621   2.589
 2577SOL    HW1 8630   1.489   3.667   2.668
 2577SOL    HW2 8631   1.519   3.601   2.521
 2578SOL     OW 8632   4.290   1.843   2.169
 2578SOL    HW1 8633   4.286   1.752   2.211
 2578SOL    HW2 8634   4.335   1.907   2.231
 2579SOL     OW 8635   0.127   6.166   2.876
 2579SOL    HW1 8636   0.180   6.103   2.933
 2579SOL    HW2 8637   0.188   6.229   2.830
 2580SOL     OW 8638   2.780   1.516   5.546
 2580SOL    HW1 8639   2.705   1.493   5.608
 2580SOL    HW2 8640   2.794   1.615   5.545
 2581SOL     OW 8641   3.108   0.455   5.851
 2581SOL    HW1 8642   3.088   0.369   5.898
 2581SOL    HW2 8643   3.023   0.494   5.814
 2582SOL     OW 8644   0.068   3.715   0.875
 2582SOL    HW1 8645   7.020   3.657   0.909
 2582SOL    HW2 8646   0.121   3.751   0.952
 2583SOL     OW 8647   5.194   0.347   0.826
 2583SOL    HW1 8648   5.113   0.381   0.779
 2583SOL    HW2 8649   5.252   0.298   0.761
 2584SOL     OW 8650   3.606   4.094   6.447
 2584SOL    HW1 8651   3.642   4.008   6.482
 2584SOL    HW2 8652   3.681   4.160   6.435
 2585SOL     OW 8653   2.680   5.265   0.140
 2585SOL    HW1 8654   2.710   5.298   0.230
 2585SOL    HW2 8655   2.586   5.297   0.123
 2586SOL     OW 8656   2.509   1.080   4.046
 2586SOL    HW1 8657   2.529   1.066   4.143
 2586SOL    HW2 8658   2.518   0.993   3.997
 2587SOL     OW 8659   5.989   1.160   4.732
 2587SOL    HW1 8660   6.072   1.141   4.784
 2587SOL    HW2 8661   5.987   1.101   4.651
 2588SOL     OW 8662   4.413   0.930   6.743
 2588SOL    HW1 8663   4.422   0.917   6.842
 2588SOL    HW2 8664   4.400   1.027   6.724
 2589SOL     OW 8665   1.889   6.066   0.249
 2589SOL    HW1 8666   1.952   6.142   0.234
 2589SOL    HW2 8667   1.799   6.101   0.276
 2590SOL     OW 8668   2.498   5.613   0.132
 2590SOL    HW1 8669   2.504   5.611   0.232
 2590SOL    HW2 8670   2.540   5.698   0.099
 2591SOL     OW 8671   5.067   6.152   3.099
 2591SOL    HW1 8672   5.045   6.237   3.146
 2591SOL    HW2 8673   5.164   6.152   3.073
 2592SOL     OW 8674   2.902   3.449   0.724
 2592SOL    HW1 8675   2.957   3.396   0.788
 2592SOL    HW2 8676   2.809   3.412   0.722
 2593SOL     OW 8677   3.438   4.502   6.948
 2593SOL    HW1 8678   3.344   4.496   6.914
 2593SOL    HW2 8679   3.500   4.464   6.879
 2594SOL     OW 8680   2.139   3.263   3.523
 2594SOL    HW1 8681   2.176   3.298   3.609
 2594SOL    HW2 8682   2.093   3.175   3.540
 2595SOL     OW 8683   2.031   1.105   2.846
 2595SOL    HW1 8684   1.980   1.191   2.849
 2595SOL    HW2 8685   2.100   1.110   2.774
 2596SOL     OW 8686   0.200   1.776   0.491
 2596SOL    HW1 8687   0.121   1.802   0.545
 2596SOL    HW2 8688   0.245   1.697   0.532
 2597SOL     OW 8689   6.562   6.299   0.619
 2597SOL    HW1 8690   6.614   6.347   0.548
 2597SOL    HW2 8691   6.469   6.282   0.586
 2598SOL     OW 8692   4.684   2.654   2.016
 2598SOL    HW1 8693   4.778   2.624   2.032
 2598SOL    HW2 8694   4.683   2.751   1.994
 2599SOL     OW 8695   2.427   5.927   2.336
 2599SOL    HW1 8696   2.370   5.954   2.413
 2599SOL    HW2 8697   2.501   5.867   2.369
 2600SOL     OW 8698   5.871   4.369   4.616
 2600SOL    HW1 8699   5.886   4.414   4.528
 2600SOL    HW2 8700   5.918   4.420   4.688
 2601SOL     OW 8701   6.984   1.290   4.109
 2601SOL    HW1 8702   6.939   1.209   4.147
 2601SOL    HW2 8703   0.057   1.282   4.122
 2602SOL     OW 8704   1.060   4.893   2.717
 2602SOL    HW1 8705   1.125   4.969   2.721
 2602SOL    HW2 8706   0.972   4.922   2.753
 2603SOL     OW 8707   1.812   5.672   1.920
 2603SOL    HW1 8708   1.845   5.725   1.998
 2603SOL    HW2 8709   1.812   5.729   1.838
 2604SOL     OW 8710   4.865   3.053   3.259
 2604SOL    HW1 8711   4.841   3.055   3.162
 2604SOL    HW2 8712   4.808   2.986   3.306
 2605SOL     OW 8713   1.357   2.752   1.125
 2605SOL    HW1 8714   1.330   2.690   1.051
 2605SOL    HW2 8715   1.444   2.721   1.163
 2606SOL     OW 8716   4.991   3.867   0.961
 2606SOL    HW1 8717   4.990   3.931   0.883
 2606SOL    HW2 8718   4.912   3.807   0.956
 2607SOL     OW 8719   2.700   2.864   1.666
 2607SOL    HW1 8720   2.716   2.876   1.568
 2607SOL    HW2 8721   2.737   2.942   1.716
 2608SOL     OW 8722   3.193   5.354   4.682
 2608SOL    HW1 8723   3.241   5.308   4.756
 2608SOL    HW2 8724   3.142   5.287   4.628
 2609SOL     OW 8725   0.300   1.777   1.395
 2609SOL    HW1 8726   0.342   1.817   1.477
 2609SOL    HW2 8727   0.249   1.695   1.421
 2610SOL     OW 8728   1.267   4.378   4.781
 2610SOL    HW1 8729   1.180   4.399   4.737
 2610SOL    HW2 8730   1.264   4.408   4.876
 2611SOL     OW 8731   5.677   0.802   5.395
 2611SOL    HW1 8732   5.769   0.802   5.357
 2611SOL    HW2 8733   5.643   0.708   5.400
 2612SOL     OW 8734   6.695   6.467   0.434
 2612SOL    HW1 8735   6.764   6.523   0.479
 2612SOL    HW2 8736   6.726   6.445   0.341
 2613SOL     OW 8737   1.495   6.595   0.367
 2613SOL    HW1 8738   1.529   6.504   0.393
 2613SOL    HW2 8739   1.457   6.641   0.448
 2614SOL     OW 8740   5.402   1.939   0.971
 2614SOL    HW1 8741   5.341   1.925   0.893
 2614SOL    HW2 8742   5.388   1.866   1.038
 2615SOL     OW 8743   1.240   3.409   6.421
 2615SOL    HW1 8744   1.273   3.482   6.362
 2615SOL    HW2 8745   1.141   3.401   6.414
 2616SOL     OW 8746   1.203   0.821   4.417
 2616SOL    HW1 8747   1.227   0.918   4.408
 2616SOL    HW2 8748   1.232   0.788   4.507
 2617SOL     OW 8749   5.265   6.996   0.475
 2617SOL    HW1 8750   5.337   6.989   0.406
 2617SOL    HW2 8751   5.226   0.063   0.473
 2618SOL     OW 8752   1.116   0.720   0.096
 2618SOL    HW1 8753   1.069   0.657   0.034
 2618SOL    HW2 8754   1.171   0.668   0.161
 2619SOL     OW 8755   4.830   1.153   2.657
 2619SOL    HW1 8756   4.801   1.221   2.590
 2619SOL    HW2 8757   4.789   1.173   2.746
 2620SOL     OW 8758   5.986   2.340   2.390
 2620SOL    HW1 8759   5.980   2.291   2.303
 2620SOL    HW2 8760   5.896   2.342   2.433
 2621SOL     OW 8761   2.775   6.361   1.373
 2621SOL    HW1 8762   2.812   6.271   1.397
 2621SOL    HW2 8763   2.828   6.399   1.297
 2622SOL     OW 8764   2.777   3.648   6.655
 2622SOL    HW1 8765   2.870   3.676   6.631
 2622SOL    HW2 8766   2.712   3.704   6.604
 2623SOL     OW 8767   0.070   1.244   3.508
 2623SOL    HW1 8768   7.023   1.208   3.450
 2623SOL    HW2 8769   0.088   1.180   3.583
 2624SOL     OW 8770   1.483   1.757   5.698
 2624SOL    HW1 8771   1.562   1.698   5.716
 2624SOL    HW2 8772   1.504   1.820   5.623
 2625SOL     OW 8773   3.192   5.501   5.945
 2625SOL    HW1 8774   3.180   5.600   5.942
 2625SOL    HW2 8775   3.103   5.456   5.953
 2626SOL     OW 8776   0.058   6.872   0.408
 2626SOL    HW1 8777   0.017   6.954   0.448
 2626SOL    HW2 8778   0.090   6.893   0.316
 2627SOL     OW 8779   2.049   0.418   5.602
 2627SOL    HW1 8780   2.016   0.325   5.616
 2627SOL    HW2 8781   1.997   0.481   5.661
 2628SOL     OW 8782   0.260   5.510   1.192
 2628SOL    HW1 8783   0.211   5.596   1.175
 2628SOL    HW2 8784   0.348   5.531   1.236
 2629SOL     OW 8785   3.218   4.071   3.014
 2629SOL    HW1 8786   3.119   4.069   3.002
 2629SOL    HW2 8787   3.260   4.108   2.931
 2630SOL     OW 8788   3.257   0.415   5.035
 2630SOL    HW1 8789   3.202   0.433   4.954
 2630SOL    HW2 8790   3.206   0.358   5.099
 2631SOL     OW 8791   4.555   6.103   0.445
 2631SOL    HW1 8792   4.505   6.096   0.531
 2631SOL    HW2 8793   4.645   6.061   0.455
 2632SOL     OW 8794   5.409   5.122   1.844
 2632SOL    HW1 8795   5.378   5.194   1.782
 2632SOL    HW2 8796   5.475   5.161   1.909
 2633SOL     OW 8797   0.257   3.120   5.849
 2633SOL    HW1 8798   0.177   3.178   5.866
 2633SOL    HW2 8799   0.229   3.043   5.791
 2634SOL     OW 8800   2.091   2.089   6.283
 2634SOL    HW1 8801   2.119   2.182   6.263
 2634SOL    HW2 8802   2.079   2.077   6.381
 2635SOL     OW 8803   3.890   5.169   2.954
 2635SOL    HW1 8804   3.815   5.232   2.968
 2635SOL    HW2 8805   3.856   5.075   2.958
 2636SOL     OW 8806   3.270   6.318   6.166
 2636SOL    HW1 8807   3.257   6.274   6.077
 2636SOL    HW2 8808   3.277   6.249   6.237
 2637SOL     OW 8809   0.248   1.883   3.152
 2637SOL    HW1 8810   0.226   1.838   3.238
 2637SOL    HW2 8811   0.204   1.835   3.077
 2638SOL     OW 8812   0.668   6.364   4.617
 2638SOL    HW1 8813   0.632   6.446   4.662
 2638SOL    HW2 8814   0.661   6.286   4.680
 2639SOL     OW 8815   4.948   5.532   4.838
 2639SOL    HW1 8816   4.905   5.463   4.779
 2639SOL    HW2 8817   4.924   5.623   4.805
 2640SOL     OW 8818   2.156   1.072   3.088
 2640SOL    HW1 8819   2.086   1.054   3.019
 2640SOL    HW2 8820   2.118   1.056   3.179
 2641SOL     OW 8821   5.363   1.877   0.121
 2641SOL    HW1 8822   5.267   1.901   0.135
 2641SOL    HW2 8823   5.416   1.961   0.104
 2642SOL     OW 8824   0.390   0.327   2.481
 2642SOL    HW1 8825   0.353   0.400   2.424
 2642SOL    HW2 8826   0.321   0.299   2.548
 2643SOL     OW 8827   1.798   4.331   4.262
 2643SOL    HW1 8828   1.794   4.389   4.343
 2643SOL    HW2 8829   1.874   4.359   4.204
 2644SOL     OW 8830   5.538   5.541   3.729
 2644SOL    HW1 8831   5.445   5.546   3.691
 2644SOL    HW2 8832   5.560   5.446   3.750
 2645SOL     OW 8833   4.296   5.830   2.499
 2645SOL    HW1 8834   4.268   5.923   2.522
 2645SOL    HW2 8835   4.300   5.774   2.582
 2646SOL     OW 8836   1.358   1.920   6.235
 2646SOL    HW1 8837   1.452   1.896   6.256
 2646SOL    HW2 8838   1.301   1.838   6.232
 2647SOL     OW 8839   4.089   0.284   3.041
 2647SOL    HW1 8840   4.089   0.194   3.084
 2647SOL    HW2 8841   4.030   0.283   2.961
 2648SOL     OW 8842   1.588   0.799   5.736
 2648SOL    HW1 8843   1.589   0.701   5.720
 2648SOL    HW2 8844   1.495   0.834   5.725
 2649SOL     OW 8845   6.168   1.884   3.720
 2649SOL    HW1 8846   6.165   1.801   3.664
 2649SOL    HW2 8847   6.126   1.866   3.809
 2650SOL     OW 8848   2.193   6.741   4.255
 2650SOL    HW1 8849   2.256   6.811   4.289
 2650SOL    HW2 8850   2.243   6.654   4.248
 2651SOL     OW 8851   3.878   1.622   3.236
 2651SOL    HW1 8852   3.829   1.682   3.300
 2651SOL    HW2 8853   3.876   1.529   3.271
 2652SOL     OW 8854   4.828   3.782   5.476
 2652SOL    HW1 8855   4.831   3.689   5.511
 2652SOL    HW2 8856   4.864   3.845   5.545
 2653SOL     OW 8857   1.980   6.382   6.951
 2653SOL    HW1 8858   1.969   6.478   6.978
 2653SOL    HW2 8859   2.026   6.377   6.862
 2654SOL     OW 8860   0.078   0.826   0.925
 2654SOL    HW1 8861   0.102   0.887   1.001
 2654SOL    HW2 8862   0.136   0.745   0.929
 2655SOL     OW 8863   4.997   6.791   3.272
 2655SOL    HW1 8864   5.031   6.706   3.311
 2655SOL    HW2 8865   4.979   6.857   3.345
 2656SOL     OW 8866   4.670   6.788   4.510
 2656SOL    HW1 8867   4.693   6.697   4.543
 2656SOL    HW2 8868   4.600   6.828   4.570
 2657SOL     OW 8869   1.555   3.117   6.532
 2657SOL    HW1 8870   1.584   3.023   6.512
 2657SOL    HW2 8871   1.552   3.170   6.447
 2658SOL     OW 8872   3.647   4.407   0.311
 2658SOL    HW1 8873   3.745   4.389   0.322
 2658SOL    HW2 8874   3.597   4.356   0.381
 2659SOL     OW 8875   0.128   2.052   5.332
 2659SOL    HW1 8876   0.186   1.993   5.275
 2659SOL    HW2 8877   0.043   2.003   5.354
 2660SOL     OW 8878   1.116   1.457   0.652
 2660SOL    HW1 8879   1.109   1.491   0.746
 2660SOL    HW2 8880   1.172   1.519   0.598
 2661SOL     OW 8881   1.918   0.584   0.839
 2661SOL    HW1 8882   1.834   0.589   0.786
 2661SOL    HW2 8883   1.899   0.543   0.928
 2662SOL     OW 8884   2.802   1.680   1.720
 2662SOL    HW1 8885   2.821   1.771   1.756
 2662SOL    HW2 8886   2.885   1.640   1.682
 2663SOL     OW 8887   3.757   0.824   0.847
 2663SOL    HW1 8888   3.784   0.919   0.865
 2663SOL    HW2 8889   3.660   0.812   0.869
 2664SOL     OW 8890   4.907   3.093   5.852
 2664SOL    HW1 8891   4.849   3.170   5.825
 2664SOL    HW2 8892   4.881   3.012   5.799
 2665SOL     OW 8893   1.268   3.221   4.563
 2665SOL    HW1 8894   1.320   3.243   4.645
 2665SOL    HW2 8895   1.183   3.274   4.562
 2666SOL     OW 8896   1.796   3.891   1.970
 2666SOL    HW1 8897   1.755   3.807   2.007
 2666SOL    HW2 8898   1.887   3.870   1.934
 2667SOL     OW 8899   5.962   2.713   4.678
 2667SOL    HW1 8900   5.910   2.628   4.663
 2667SOL    HW2 8901   5.922   2.763   4.755
 2668SOL     OW 8902   5.691   0.840   4.549
 2668SOL    HW1 8903   5.716   0.750   4.586
 2668SOL    HW2 8904   5.592   0.850   4.552
 2669SOL     OW 8905   2.369   1.062   1.694
 2669SOL    HW1 8906   2.409   1.075   1.603
 2669SOL    HW2 8907   2.372   1.148   1.744
 2670SOL     OW 8908   1.054   0.717   1.289
 2670SOL    HW1 8909   1.121   0.763   1.348
 2670SOL    HW2 8910   1.015   0.638   1.336
 2671SOL     OW 8911   5.849   4.301   6.120
 2671SOL    HW1 8912   5.884   4.229   6.180
 2671SOL    HW2 8913   5.840   4.386   6.172
 2672SOL     OW 8914   2.356   1.672   2.507
 2672SOL    HW1 8915   2.301   1.754   2.524
 2672SOL    HW2 8916   2.433   1.695   2.448
 2673SOL     OW 8917   3.276   0.071   3.050
 2673SOL    HW1 8918   3.234   0.081   3.140
 2673SOL    HW2 8919   3.375   0.086   3.057
 2674SOL     OW 8920   6.315   5.965   3.487
 2674SOL    HW1 8921   6.218   5.957   3.508
 2674SOL    HW2 8922   6.326   6.008   3.398
 2675SOL     OW 8923   4.747   1.109   4.383
 2675SOL    HW1 8924   4.743   1.012   4.407
 2675SOL    HW2 8925   4.661   1.137   4.340
 2676SOL     OW 8926   4.075   3.319   5.079
 2676SOL    HW1 8927   4.144   3.340   5.010
 2676SOL    HW2 8928   4.015   3.247   5.045
 2677SOL     OW 8929   1.473   5.578   0.851
 2677SOL    HW1 8930   1.509   5.645   0.787
 2677SOL    HW2 8931   1.533   5.498   0.852
 2678SOL     OW 8932   3.624   1.933   1.985
 2678SOL    HW1 8933   3.604   1.937   1.887
 2678SOL    HW2 8934   3.649   2.025   2.017
 2679SOL     OW 8935   2.071   3.544   2.362
 2679SOL    HW1 8936   2.023   3.467   2.404
 2679SOL    HW2 8937   2.050   3.547   2.264
 2680SOL     OW 8938   5.627   2.434   6.383
 2680SOL    HW1 8939   5.656   2.432   6.479
 2680SOL    HW2 8940   5.684   2.498   6.332
 2681SOL     OW 8941   2.363   2.756   3.371
 2681SOL    HW1 8942   2.356   2.762   3.470
 2681SOL    HW2 8943   2.442   2.700   3.346
 2682SOL     OW 8944   3.907   3.959   2.306
 2682SOL    HW1 8945   3.934   4.046   2.265
 2682SOL    HW2 8946   3.852   3.907   2.241
 2683SOL     OW 8947   1.594   3.376   1.487
 2683SOL    HW1 8948   1.556   3.428   1.564
 2683SOL    HW2 8949   1.641   3.439   1.425
 2684SOL     OW 8950   5.104   0.694   4.008
 2684SOL    HW1 8951   5.116   0.631   4.085
 2684SOL    HW2 8952   5.184   0.753   4.000
 2685SOL     OW 8953   1.717   0.027   5.770
 2685SOL    HW1 8954   1.748   6.967   5.729
 2685SOL    HW2 8955   1.692   0.010   5.865
 2686SOL     OW 8956   1.843   1.953   6.111
 2686SOL    HW1 8957   1.826   2.034   6.055
 2686SOL    HW2 8958   1.933   1.961   6.154
 2687SOL     OW 8959   3.956   2.606   1.723
 2687SOL    HW1 8960   4.032   2.665   1.751
 2687SOL    HW2 8961   3.981   2.511   1.737
 2688SOL     OW 8962   3.993   2.652   6.785
 2688SOL    HW1 8963   4.021   2.616   6.874
 2688SOL    HW2 8964   3.964   2.747   6.796
 2689SOL     OW 8965   6.281   3.953   2.291
 2689SOL    HW1 8966   6.317   4.045   2.274
 2689SOL    HW2 8967   6.352   3.886   2.271
 2690SOL     OW 8968   5.217   1.099   4.712
 2690SOL    HW1 8969   5.145   1.057   4.658
 2690SOL    HW2 8970   5.218   1.197   4.695
 2691SOL     OW 8971   6.466   3.249   3.923
 2691SOL    HW1 8972   6.452   3.239   3.824
 2691SOL    HW2 8973   6.527   3.326   3.940
 2692SOL     OW 8974   1.572   5.300   1.175
 2692SOL    HW1 8975   1.518   5.231   1.224
 2692SOL    HW2 8976   1.663   5.262   1.155
 2693SOL     OW 8977   0.753   5.575   3.208
 2693SOL    HW1 8978   0.726   5.636   3.282
 2693SOL    HW2 8979   0.678   5.511   3.189
 2694SOL     OW 8980   2.203   0.253   2.380
 2694SOL    HW1 8981   2.119   0.230   2.430
 2694SOL    HW2 8982   2.281   0.205   2.420
 2695SOL     OW 8983   6.509   5.760   3.544
 2695SOL    HW1 8984   6.429   5.820   3.554
 2695SOL    HW2 8985   6.590   5.814   3.523
 2696SOL     OW 8986   3.951   4.390   6.238
 2696SOL    HW1 8987   3.925   4.329   6.312
 2696SOL    HW2 8988   3.994   4.472   6.276
 2697SOL     OW 8989   4.202   2.302   6.993
 2697SOL    HW1 8990   4.220   2.270   6.900
 2697SOL    HW2 8991   4.133   2.375   6.990
 2698SOL     OW 8992   1.999   5.775   6.958
 2698SOL    HW1 8993   2.067   5.707   6.928
 2698SOL    HW2 8994   2.005   5.856   6.899
 2699SOL     OW 8995   2.448   6.501   2.278
 2699SOL    HW1 8996   2.360   6.525   2.237
 2699SOL    HW2 8997   2.467   6.405   2.261
 2700SOL     OW 8998   4.792   2.070   1.391
 2700SOL    HW1 8999   4.734   1.993   1.365
 2700SOL    HW2 9000   4.738   2.138   1.439
 2701SOL     OW 9001   5.264   3.553   5.343
 2701SOL    HW1 9002   5.263   3.473   5.282
 2701SOL    HW2 9003   5.291   3.525   5.435
 2702SOL     OW 9004   1.821   1.738   4.709
 2702SOL    HW1 9005   1.726   1.752   4.680
 2702SOL    HW2 9006   1.826   1.743   4.809
 2703SOL     OW 9007   2.342   6.321   1.749
 2703SOL    HW1 9008   2.379   6.234   1.783
 2703SOL    HW2 9009   2.296   6.369   1.824
 2704SOL     OW 9010   4.110   1.034   3.643
 2704SOL    HW1 9011   4.187   1.006   3.701
 2704SOL    HW2 9012   4.139   1.109   3.583
 2705SOL     OW 9013   1.089   6.847   5.392
 2705SOL    HW1 9014   1.169   6.907   5.392
 2705SOL    HW2 9015   1.028   6.871   5.317
 2706SOL     OW 9016   0.138   4.557   4.277
 2706SOL    HW1 9017   0.125   4.655   4.263
 2706SOL    HW2 9018   0.236   4.537   4.281
 2707SOL     OW 9019   4.414   1.209   3.018
 2707SOL    HW1 9020   4.359   1.275   3.068
 2707SOL    HW2 9021   4.357   1.165   2.948
 2708SOL     OW 9022   5.665   3.115   5.748
 2708SOL    HW1 9023   5.697   3.200   5.790
 2708SOL    HW2 9024   5.667   3.124   5.649
 2709SOL     OW 9025   5.418   1.120   5.916
 2709SOL    HW1 9026   5.459   1.115   5.825
 2709SOL    HW2 9027   5.478   1.075   5.982
 2710SOL     OW 9028   0.956   2.992   4.137
 2710SOL    HW1 9029   0.996   3.030   4.220
 2710SOL    HW2 9030   0.884   2.927   4.162
 2711SOL     OW 9031   4.624   1.200   1.656
 2711SOL    HW1 9032   4.556   1.212   1.728
 2711SOL    HW2 9033   4.630   1.283   1.601
 2712SOL     OW 9034   4.998   6.625   1.772
 2712SOL    HW1 9035   4.999   6.724   1.765
 2712SOL    HW2 9036   5.062   6.586   1.706
 2713SOL     OW 9037   3.728   5.088   5.444
 2713SOL    HW1 9038   3.648   5.118   5.497
 2713SOL    HW2 9039   3.730   4.988   5.442
 2714SOL     OW 9040   3.035   4.324   6.167
 2714SOL    HW1 9041   3.077   4.295   6.081
 2714SOL    HW2 9042   2.936   4.332   6.154
 2715SOL     OW 9043   4.515   6.501   0.470
 2715SOL    HW1 9044   4.509   6.447   0.386
 2715SOL    HW2 9045   4.477   6.449   0.546
 2716SOL     OW 9046   4.612   1.311   2.099
 2716SOL    HW1 9047   4.663   1.377   2.045
 2716SOL    HW2 9048   4.671   1.276   2.172
 2717SOL     OW 9049   0.888   2.121   2.649
 2717SOL    HW1 9050   0.938   2.204   2.672
 2717SOL    HW2 9051   0.952   2.046   2.635
 2718SOL     OW 9052   6.769   1.335   5.792
 2718SOL    HW1 9053   6.786   1.406   5.860
 2718SOL    HW2 9054   6.731   1.254   5.837
 2719SOL     OW 9055   0.962   4.856   3.620
 2719SOL    HW1 9056   0.915   4.808   3.546
 2719SOL    HW2 9057   0.923   4.827   3.708
 2720SOL     OW 9058   1.909   4.950   6.302
 2720SOL    HW1 9059   1.967   4.869   6.297
 2720SOL    HW2 9060   1.852   4.945   6.384
 2721SOL     OW 9061   2.322   6.251   3.923
 2721SOL    HW1 9062   2.272   6.318   3.978
 2721SOL    HW2 9063   2.308   6.270   3.826
 2722SOL     OW 9064   3.461   4.225   6.803
 2722SOL    HW1 9065   3.557   4.253   6.817
 2722SOL    HW2 9066   3.422   4.195   6.890
 2723SOL     OW 9067   3.894   5.315   6.722
 2723SOL    HW1 9068   3.991   5.297   6.713
 2723SOL    HW2 9069   3.880   5.388   6.789
 2724SOL     OW 9070   6.689   5.811   0.889
 2724SOL    HW1 9071   6.639   5.893   0.916
 2724SOL    HW2 9072   6.711   5.816   0.791
 2725SOL     OW 9073   6.246   4.890   2.937
 2725SOL    HW1 9074   6.279   4.972   2.984
 2725SOL    HW2 9075   6.215   4.823   3.005
 2726SOL     OW 9076   6.458   2.423   2.983
 2726SOL    HW1 9077   6.441   2.507   3.035
 2726SOL    HW2 9078   6.487   2.447   2.890
 2727SOL     OW 9079   1.694   5.019   3.990
 2727SOL    HW1 9080   1.668   4.933   3.947
 2727SOL    HW2 9081   1.619   5.085   3.978
 2728SOL     OW 9082   5.039   4.999   5.867
 2728SOL    HW1 9083   5.009   5.093   5.882
 2728SOL    HW2 9084   4.959   4.938   5.867
 2729SOL     OW 9085   0.070   0.197   0.306
 2729SOL    HW1 9086   0.121   0.269   0.352
 2729SOL    HW2 9087   0.128   0.156   0.235
 2730SOL     OW 9088   1.501   5.384   3.044
 2730SOL    HW1 9089   1.480   5.482   3.053
 2730SOL    HW2 9090   1.430   5.331   3.091
 2731SOL     OW 9091   3.947   3.843   5.124
 2731SOL    HW1 9092   3.915   3.933   5.155
 2731SOL    HW2 9093   4.037   3.825   5.162
 2732SOL     OW 9094   4.413   0.643   2.326
 2732SOL    HW1 9095   4.321   0.626   2.361
 2732SOL    HW2 9096   4.476   0.576   2.365
 2733SOL     OW 9097   0.805   0.210   0.965
 2733SOL    HW1 9098   0.799   0.307   0.938
 2733SOL    HW2 9099   0.858   0.160   0.897
 2734SOL     OW 9100   3.200   0.382   2.047
 2734SOL    HW1 9101   3.106   0.350   2.043
 2734SOL    HW2 9102   3.261   0.306   2.072
 2735SOL     OW 9103   1.214   2.543   2.693
 2735SOL    HW1 9104   1.201   2.632   2.647
 2735SOL    HW2 9105   1.223   2.558   2.791
 2736SOL     OW 9106   5.642   4.822   2.922
 2736SOL    HW1 9107   5.728   4.872   2.926
 2736SOL    HW2 9108   5.633   4.778   2.833
 2737SOL     OW 9109   2.586   0.264   6.114
 2737SOL    HW1 9110   2.669   0.277   6.060
 2737SOL    HW2 9111   2.609   0.225   6.202
 2738SOL     OW 9112   5.238   6.314   1.042
 2738SOL    HW1 9113   5.173   6.348   0.975
 2738SOL    HW2 9114   5.205   6.334   1.134
 2739SOL     OW 9115   0.546   5.026   1.686
 2739SOL    HW1 9116   0.617   4.961   1.658
 2739SOL    HW2 9117   0.523   5.086   1.609
 2740SOL     OW 9118   6.549   5.694   4.857
 2740SOL    HW1 9119   6.589   5.603   4.855
 2740SOL    HW2 9120   6.557   5.733   4.949
 2741SOL     OW 9121   0.852   0.165   6.900
 2741SOL    HW1 9122   0.911   0.235   6.940
 2741SOL    HW2 9123   0.858   0.170   6.800
 2742SOL     OW 9124   2.711   5.070   2.438
 2742SOL    HW1 9125   2.668   5.000   2.380
 2742SOL    HW2 9126   2.756   5.138   2.380
 2743SOL     OW 9127   5.644   1.921   2.487
 2743SOL    HW1 9128   5.657   1.963   2.576
 2743SOL    HW2 9129   5.607   1.829   2.498
 2744SOL     OW 9130   3.527   4.023   2.428
 2744SOL    HW1 9131   3.502   4.040   2.333
 2744SOL    HW2 9132   3.468   4.075   2.488
 2745SOL     OW 9133   0.366   6.353   7.023
 2745SOL    HW1 9134   0.318   6.272   0.030
 2745SOL    HW2 9135   0.461   6.329   7.004
 2746SOL     OW 9136   1.583   0.820   4.570
 2746SOL    HW1 9137   1.617   0.788   4.658
 2746SOL    HW2 9138   1.643   0.786   4.497
 2747SOL     OW 9139   4.471   4.554   0.096
 2747SOL    HW1 9140   4.524   4.547   0.012
 2747SOL    HW2 9141   4.525   4.521   0.173
 2748SOL     OW 9142   4.322   0.702   0.358
 2748SOL    HW1 9143   4.259   0.664   0.291
 2748SOL    HW2 9144   4.281   0.782   0.401
 2749SOL     OW 9145   3.814   1.066   0.291
 2749SOL    HW1 9146   3.772   1.150   0.326
 2749SOL    HW2 9147   3.819   0.998   0.364
 2750SOL     OW 9148   2.134   6.076   2.363
 2750SOL    HW1 9149   2.073   6.134   2.416
 2750SOL    HW2 9150   2.184   6.131   2.297
 2751SOL     OW 9151   6.108   4.916   1.326
 2751SOL    HW1 9152   6.052   4.990   1.363
 2751SOL    HW2 9153   6.196   4.952   1.295
 2752SOL     OW 9154   4.350   5.138   6.193
 2752SOL    HW1 9155   4.405   5.054   6.190
 2752SOL    HW2 9156   4.366   5.185   6.280
 2753SOL     OW 9157   4.993   4.556   5.941
 2753SOL    HW1 9158   5.084   4.553   5.899
 2753SOL    HW2 9159   4.981   4.642   5.989
 2754SOL     OW 9160   1.408   0.496   4.628
 2754SOL    HW1 9161   1.405   0.596   4.625
 2754SOL    HW2 9162   1.496   0.464   4.593
 2755SOL     OW 9163   2.898   0.049   2.380
 2755SOL    HW1 9164   2.873   0.022   2.287
 2755SOL    HW2 9165   2.836   0.006   2.445
 2756SOL     OW 9166   4.759   5.471   6.848
 2756SOL    HW1 9167   4.699   5.547   6.873
 2756SOL    HW2 9168   4.767   5.467   6.748
 2757SOL     OW 9169   0.622   4.640   0.537
 2757SOL    HW1 9170   0.688   4.565   0.525
 2757SOL    HW2 9171   0.672   4.724   0.558
 2758SOL     OW 9172   4.714   0.230   5.821
 2758SOL    HW1 9173   4.676   0.183   5.900
 2758SOL    HW2 9174   4.644   0.290   5.781
 2759SOL     OW 9175   4.771   5.159   3.817
 2759SOL    HW1 9176   4.826   5.079   3.795
 2759SOL    HW2 9177   4.773   5.174   3.916
 2760SOL     OW 9178   0.594   5.887   3.210
 2760SOL    HW1 9179   0.585   5.861   3.114
 2760SOL    HW2 9180   0.616   5.984   3.217
 2761SOL     OW 9181   2.427   4.949   4.567
 2761SOL    HW1 9182   2.477   4.981   4.487
 2761SOL    HW2 9183   2.362   5.019   4.596
 2762SOL     OW 9184   1.902   1.741   5.732
 2762SOL    HW1 9185   1.984   1.716   5.784
 2762SOL    HW2 9186   1.928   1.769   5.640
 2763SOL     OW 9187   5.562   0.111   2.221
 2763SOL    HW1 9188   5.575   0.210   2.228
 2763SOL    HW2 9189   5.475   0.086   2.264
 2764SOL     OW 9190   6.303   0.901   1.902
 2764SOL    HW1 9191   6.208   0.919   1.874
 2764SOL    HW2 9192   6.304   0.828   1.969
 2765SOL     OW 9193   5.532   1.744   3.294
 2765SOL    HW1 9194   5.493   1.692   3.370
 2765SOL    HW2 9195   5.551   1.682   3.217
 2766SOL     OW 9196   5.510   6.695   2.779
 2766SOL    HW1 9197   5.508   6.638   2.861
 2766SOL    HW2 9198   5.438   6.765   2.785
 2767SOL     OW 9199   6.610   4.292   5.406
 2767SOL    HW1 9200   6.578   4.302   5.501
 2767SOL    HW2 9201   6.535   4.309   5.343
 2768SOL     OW 9202   5.946   0.992   6.738
 2768SOL    HW1 9203   6.045   1.000   6.750
 2768SOL    HW2 9204   5.903   0.987   6.828
 2769SOL     OW 9205   0.733   4.010   0.705
 2769SOL    HW1 9206   0.674   4.004   0.785
 2769SOL    HW2 9207   0.811   4.069   0.726
 2770SOL     OW 9208   4.608   5.907   2.619
 2770SOL    HW1 9209   4.704   5.879   2.612
 2770SOL    HW2 9210   4.573   5.932   2.529
 2771SOL     OW 9211   4.531   0.368   1.451
 2771SOL    HW1 9212   4.474   0.287   1.436
 2771SOL    HW2 9213   4.489   0.425   1.522
 2772SOL     OW 9214   3.211   1.025   6.820
 2772SOL    HW1 9215   3.194   1.102   6.758
 2772SOL    HW2 9216   3.250   1.059   6.905
 2773SOL     OW 9217   3.060   4.258   1.427
 2773SOL    HW1 9218   3.012   4.333   1.472
 2773SOL    HW2 9219   3.027   4.250   1.333
 2774SOL     OW 9220   4.906   2.942   1.846
 2774SOL    HW1 9221   4.981   3.000   1.877
 2774SOL    HW2 9222   4.840   2.931   1.920
 2775SOL     OW 9223   0.206   0.260   2.654
 2775SOL    HW1 9224   0.236   0.199   2.728
 2775SOL    HW2 9225   0.179   0.348   2.693
 2776SOL     OW 9226   2.618   6.207   0.193
 2776SOL    HW1 9227   2.667   6.294   0.201
 2776SOL    HW2 9228   2.576   6.201   0.102
 2777SOL     OW 9229   1.488   2.446   4.418
 2777SOL    HW1 9230   1.485   2.537   4.377
 2777SOL    HW2 9231   1.524   2.452   4.511
 2778SOL     OW 9232   2.854   2.276   5.130
 2778SOL    HW1 9233   2.948   2.291   5.099
 2778SOL    HW2 9234   2.794   2.265   5.050
 2779SOL     OW 9235   6.230   1.306   0.989
 2779SOL    HW1 9236   6.271   1.268   0.907
 2779SOL    HW2 9237   6.203   1.231   1.050
 2780SOL     OW 9238   3.508   5.921   6.756
 2780SOL    HW1 9239   3.511   5.827   6.790
 2780SOL    HW2 9240   3.416   5.943   6.726
 2781SOL     OW 9241   5.191   3.733   6.419
 2781SOL    HW1 9242   5.109   3.678   6.435
 2781SOL    HW2 9243   5.194   3.762   6.323
 2782SOL     OW 9244   3.555   0.943   5.644
 2782SOL    HW1 9245   3.589   1.032   5.670
 2782SOL    HW2 9246   3.456   0.948   5.630
 2783SOL     OW 9247   0.419   3.793   6.114
 2783SOL    HW1 9248   0.452   3.707   6.074
 2783SOL    HW2 9249   0.407   3.780   6.213
 2784SOL     OW 9250   2.249   1.857   1.579
 2784SOL    HW1 9251   2.304   1.868   1.662
 2784SOL    HW2 9252   2.288   1.785   1.522
 2785SOL     OW 9253   6.081   1.956   1.987
 2785SOL    HW1 9254   6.107   1.867   2.026
 2785SOL    HW2 9255   5.983   1.955   1.966
 2786SOL     OW 9256   3.591   0.475   0.730
 2786SOL    HW1 9257   3.596   0.375   0.724
 2786SOL    HW2 9258   3.562   0.501   0.822
 2787SOL     OW 9259   1.940   4.146   6.172
 2787SOL    HW1 9260   1.985   4.187   6.093
 2787SOL    HW2 9261   1.878   4.074   6.141
 2788SOL     OW 9262   1.001   3.368   0.147
 2788SOL    HW1 9263   0.982   3.290   0.205
 2788SOL    HW2 9264   0.920   3.389   0.091
 2789SOL     OW 9265   0.236   3.124   3.827
 2789SOL    HW1 9266   0.300   3.198   3.805
 2789SOL    HW2 9267   0.283   3.056   3.883
 2790SOL     OW 9268   3.761   6.495   4.355
 2790SOL    HW1 9269   3.725   6.583   4.386
 2790SOL    HW2 9270   3.812   6.508   4.271
 2791SOL     OW 9271   1.663   3.529   2.414
 2791SOL    HW1 9272   1.694   3.624   2.418
 2791SOL    HW2 9273   1.640   3.505   2.320
 2792SOL     OW 9274   0.895   2.119   5.810
 2792SOL    HW1 9275   0.911   2.027   5.847
 2792SOL    HW2 9276   0.861   2.179   5.883
 2793SOL     OW 9277   4.687   0.823   4.406
 2793SOL    HW1 9278   4.771   0.822   4.353
 2793SOL    HW2 9279   4.694   0.757   4.481
 2794SOL     OW 9280   0.191   1.620   2.282
 2794SOL    HW1 9281   0.246   1.697   2.313
 2794SOL    HW2 9282   0.238   1.534   2.306
 2795SOL     OW 9283   0.783   3.736   0.926
 2795SOL    HW1 9284   0.835   3.817   0.900
 2795SOL    HW2 9285   0.738   3.752   1.014
 2796SOL     OW 9286   4.552   4.625   2.530
 2796SOL    HW1 9287   4.630   4.650   2.587
 2796SOL    HW2 9288   4.470   4.671   2.562
 2797SOL     OW 9289   4.648   4.178   5.293
 2797SOL    HW1 9290   4.658   4.146   5.388
 2797SOL    HW2 9291   4.552   4.199   5.276
 2798SOL     OW 9292   1.636   4.056   3.129
 2798SOL    HW1 9293   1.721   4.008   3.109
 2798SOL    HW2 9294   1.574   3.995   3.179
 2799SOL     OW 9295   0.040   6.254   5.757
 2799SOL    HW1 9296   7.022   6.315   5.822
 2799SOL    HW2 9297   6.999   6.226   5.688
 2800SOL     OW 9298   2.518   0.738   6.373
 2800SOL    HW1 9299   2.527   0.640   6.355
 2800SOL    HW2 9300   2.522   0.755   6.471
 2801SOL     OW 9301   3.956   5.133   2.178
 2801SOL    HW1 9302   3.863   5.169   2.188
 2801SOL    HW2 9303   3.952   5.042   2.136
 2802SOL     OW 9304   6.774   0.411   6.129
 2802SOL    HW1 9305   6.678   0.392   6.106
 2802SOL    HW2 9306   6.833   0.372   6.058
 2803SOL     OW 9307   3.390   5.981   4.927
 2803SOL    HW1 9308   3.434   6.014   4.843
 2803SOL    HW2 9309   3.292   5.968   4.910
 2804SOL     OW 9310   0.582   4.983   2.386
 2804SOL    HW1 9311   0.555   5.043   2.311
 2804SOL    HW2 9312   0.657   4.925   2.356
 2805SOL     OW 9313   6.568   4.168   6.984
 2805SOL    HW1 9314   6.616   4.116   0.030
 2805SOL    HW2 9315   6.470   4.162   6.999
 2806SOL     OW 9316   6.417   5.410   2.888
 2806SOL    HW1 9317   6.432   5.424   2.985
 2806SOL    HW2 9318   6.339   5.463   2.857
 2807SOL     OW 9319   4.010   4.815   3.901
 2807SOL    HW1 9320   3.911   4.815   3.890
 2807SOL    HW2 9321   4.047   4.902   3.870
 2808SOL     OW 9322   4.547   6.524   4.361
 2808SOL    HW1 9323   4.598   6.575   4.292
 2808SOL    HW2 9324   4.601   6.518   4.445
 2809SOL     OW 9325   5.379   2.454   0.242
 2809SOL    HW1 9326   5.381   2.427   0.338
 2809SOL    HW2 9327   5.470   2.442   0.202
 2810SOL     OW 9328   1.887   1.401   6.540
 2810SOL    HW1 9329   1.904   1.474   6.474
 2810SOL    HW2 9330   1.805   1.423   6.593
 2811SOL     OW 9331   0.439   0.592   3.671
 2811SOL    HW1 9332   0.355   0.589   3.726
 2811SOL    HW2 9333   0.457   0.502   3.632
 2812SOL     OW 9334   4.805   4.590   2.992
 2812SOL    HW1 9335   4.905   4.587   2.990
 2812SOL    HW2 9336   4.768   4.519   2.932
 2813SOL     OW 9337   6.447   1.396   6.089
 2813SOL    HW1 9338   6.442   1.477   6.149
 2813SOL    HW2 9339   6.537   1.354   6.097
 2814SOL     OW 9340   5.708   4.415   5.130
 2814SOL    HW1 9341   5.638   4.363   5.081
 2814SOL    HW2 9342   5.678   4.430   5.225
 2815SOL     OW 9343   0.928   1.294   4.606
 2815SOL    HW1 9344   0.953   1.265   4.698
 2815SOL    HW2 9345   0.836   1.334   4.607
 2816SOL     OW 9346   4.843   6.548   3.314
 2816SOL    HW1 9347   4.789   6.576   3.235
 2816SOL    HW2 9348   4.806   6.591   3.397
 2817SOL     OW 9349   1.345   1.455   1.147
 2817SOL    HW1 9350   1.400   1.536   1.165
 2817SOL    HW2 9351   1.268   1.478   1.087
 2818SOL     OW 9352   1.546   2.332   6.860
 2818SOL    HW1 9353   1.474   2.394   6.829
 2818SOL    HW2 9354   1.525   2.301   6.953
 2819SOL     OW 9355   6.431   3.243   1.670
 2819SOL    HW1 9356   6.381   3.318   1.627
 2819SOL    HW2 9357   6.473   3.187   1.599
 2820SOL     OW 9358   5.010   2.716   4.042
 2820SOL    HW1 9359   5.014   2.802   4.093
 2820SOL    HW2 9360   5.013   2.735   3.944
 2821SOL     OW 9361   1.263   2.998   3.144
 2821SOL    HW1 9362   1.327   2.931   3.182
 2821SOL    HW2 9363   1.311   3.053   3.075
 2822SOL     OW 9364   2.651   1.808   0.440
 2822SOL    HW1 9365   2.629   1.875   0.511
 2822SOL    HW2 9366   2.679   1.722   0.483
 2823SOL     OW 9367   1.618   0.008   4.333
 2823SOL    HW1 9368   1.553   0.040   4.403
 2823SOL    HW2 9369   1.680   0.082   4.309
 2824SOL     OW 9370   3.277   1.837   5.496
 2824SOL    HW1 9371   3.194   1.888   5.474
 2824SOL    HW2 9372   3.255   1.741   5.509
 2825SOL     OW 9373   6.099   6.096   0.865
 2825SOL    HW1 9374   6.128   6.003   0.839
 2825SOL    HW2 9375   6.099   6.104   0.964
 2826SOL     OW 9376   5.065   3.731   4.086
 2826SOL    HW1 9377   5.054   3.644   4.133
 2826SOL    HW2 9378   5.065   3.716   3.987
 2827SOL     OW 9379   0.096   7.007   6.117
 2827SOL    HW1 9380   0.076   6.912   6.094
 2827SOL    HW2 9381   0.069   0.041   6.042
 2828SOL     OW 9382   3.455   2.024   6.232
 2828SOL    HW1 9383   3.364   2.065   6.236
 2828SOL    HW2 9384   3.511   2.074   6.166
 2829SOL     OW 9385   2.889   0.871   6.986
 2829SOL    HW1 9386   2.849   0.877   6.895
 2829SOL    HW2 9387   2.948   0.950   7.002
 2830SOL     OW 9388   3.252   3.886   6.778
 2830SOL    HW1 9389   3.326   3.919   6.719
 2830SOL    HW2 9390   3.242   3.947   6.856
 2831SOL     OW 9391   6.235   6.513   4.056
 2831SOL    HW1 9392   6.329   6.545   4.065
 2831SOL    HW2 9393   6.202   6.531   3.964
 2832SOL     OW 9394   0.343   0.831   1.914
 2832SOL    HW1 9395   0.300   0.840   2.004
 2832SOL    HW2 9396   0.431   0.783   1.925
 2833SOL     OW 9397   6.479   3.040   2.194
 2833SOL    HW1 9398   6.576   3.033   2.214
 2833SOL    HW2 9399   6.455   3.136   2.179
 2834SOL     OW 9400   4.410   0.927   5.013
 2834SOL    HW1 9401   4.392   0.829   5.007
 2834SOL    HW2 9402   4.500   0.947   4.975
 2835SOL     OW 9403   6.329   6.320   3.798
 2835SOL    HW1 9404   6.379   6.247   3.752
 2835SOL    HW2 9405   6.390   6.398   3.813
 2836SOL     OW 9406   6.485   0.348   0.820
 2836SOL    HW1 9407   6.386   0.358   0.812
 2836SOL    HW2 9408   6.517   0.279   0.754
 2837SOL     OW 9409   5.805   2.989   3.540
 2837SOL    HW1 9410   5.766   3.059   3.598
 2837SOL    HW2 9411   5.750   2.978   3.458
 2838SOL     OW 9412   1.372   4.442   4.352
 2838SOL    HW1 9413   1.411   4.502   4.422
 2838SOL    HW2 9414   1.399   4.475   4.261
 2839SOL     OW 9415   4.808   3.203   0.426
 2839SOL    HW1 9416   4.883   3.269   0.428
 2839SOL    HW2 9417   4.786   3.175   0.520
 2840SOL     OW 9418   6.748   2.663   4.874
 2840SOL    HW1 9419   6.740   2.761   4.892
 2840SOL    HW2 9420   6.840   2.642   4.841
 2841SOL     OW 9421   0.091   6.009   0.249
 2841SOL    HW1 9422   0.129   5.917   0.241
 2841SOL    HW2 9423   0.058   6.024   0.342
 2842SOL     OW 9424   5.924   3.683   3.041
 2842SOL    HW1 9425   5.928   3.601   3.099
 2842SOL    HW2 9426   5.858   3.669   2.968
 2843SOL     OW 9427   3.999   0.995   4.011
 2843SOL    HW1 9428   3.924   0.980   4.075
 2843SOL    HW2 9429   4.010   0.915   3.953
 2844SOL     OW 9430   1.662   4.259   5.672
 2844SOL    HW1 9431   1.738   4.249   5.737
 2844SOL    HW2 9432   1.575   4.244   5.719
 2845SOL     OW 9433   0.159   3.844   6.301
 2845SOL    HW1 9434   0.252   3.813   6.320
 2845SOL    HW2 9435   0.147   3.855   6.203
 2846SOL     OW 9436   5.761   1.378   6.123
 2846SOL    HW1 9437   5.681   1.433   6.146
 2846SOL    HW2 9438   5.776   1.381   6.024
 2847SOL     OW 9439   4.314   5.124   4.418
 2847SOL    HW1 9440   4.406   5.089   4.396
 2847SOL    HW2 9441   4.294   5.104   4.514
 2848SOL     OW 9442   2.257   6.913   5.541
 2848SOL    HW1 9443   2.219   6.822   5.522
 2848SOL    HW2 9444   2.295   6.951   5.457
 2849SOL     OW 9445   2.179   3.050   1.782
 2849SOL    HW1 9446   2.216   3.031   1.873
 2849SOL    HW2 9447   2.229   2.996   1.714
 2850SOL     OW 9448   4.118   1.323   0.801
 2850SOL    HW1 9449   4.081   1.399   0.747
 2850SOL    HW2 9450   4.162   1.360   0.883
 2851SOL     OW 9451   3.009   5.754   5.744
 2851SOL    HW1 9452   2.915   5.737   5.775
 2851SOL    HW2 9453   3.010   5.759   5.644
 2852SOL     OW 9454   0.477   2.258   6.696
 2852SOL    HW1 9455   0.527   2.344   6.686
 2852SOL    HW2 9456   0.520   2.204   6.769
 2853SOL     OW 9457   3.464   2.430   1.438
 2853SOL    HW1 9458   3.460   2.530   1.434
 2853SOL    HW2 9459   3.439   2.399   1.529
 2854SOL     OW 9460   0.551   0.851   3.535
 2854SOL    HW1 9461   0.625   0.860   3.470
 2854SOL    HW2 9462   0.532   0.754   3.552
 2855SOL     OW 9463   3.323   1.343   4.336
 2855SOL    HW1 9464   3.413   1.301   4.330
 2855SOL    HW2 9465   3.323   1.409   4.411
 2856SOL     OW 9466   2.955   1.316   5.619
 2856SOL    HW1 9467   2.912   1.226   5.620
 2856SOL    HW2 9468   2.898   1.380   5.568
 2857SOL     OW 9469   3.279   3.041   3.702
 2857SOL    HW1 9470   3.338   2.959   3.705
 2857SOL    HW2 9471   3.234   3.047   3.614
 2858SOL     OW 9472   5.658   2.746   2.855
 2858SOL    HW1 9473   5.758   2.755   2.845
 2858SOL    HW2 9474   5.618   2.723   2.766
 2859SOL     OW 9475   5.317   5.832   0.008
 2859SOL    HW1 9476   5.393   5.895   0.024
 2859SOL    HW2 9477   5.303   5.776   0.089
 2860SOL     OW 9478   4.234   2.306   0.508
 2860SOL    HW1 9479   4.288   2.240   0.456
 2860SOL    HW2 9480   4.150   2.262   0.540
 2861SOL     OW 9481   4.528   4.613   6.093
 2861SOL    HW1 9482   4.494   4.567   6.174
 2861SOL    HW2 9483   4.477   4.582   6.013
 2862SOL     OW 9484   6.377   0.012   3.646
 2862SOL    HW1 9485   6.343   0.059   3.564
 2862SOL    HW2 9486   6.477   0.017   3.647
 2863SOL     OW 9487   6.568   0.310   6.847
 2863SOL    HW1 9488   6.493   0.266   6.798
 2863SOL    HW2 9489   6.532   0.361   6.925
 2864SOL     OW 9490   3.693   2.154   0.763
 2864SOL    HW1 9491   3.640   2.238   0.761
 2864SOL    HW2 9492   3.737   2.144   0.852
 2865SOL     OW 9493   4.912   4.990   5.250
 2865SOL    HW1 9494   4.875   5.026   5.336
 2865SOL    HW2 9495   4.837   4.970   5.187
 2866SOL     OW 9496   0.637   6.809   6.385
 2866SOL    HW1 9497   0.611   6.899   6.419
 2866SOL    HW2 9498   0.563   6.770   6.331
 2867SOL     OW 9499   6.723   4.426   4.186
 2867SOL    HW1 9500   6.675   4.497   4.238
 2867SOL    HW2 9501   6.656   4.362   4.148
 2868SOL     OW 9502   1.601   4.998   4.857
 2868SOL    HW1 9503   1.674   4.945   4.816
 2868SOL    HW2 9504   1.517   4.944   4.859
 2869SOL     OW 9505   6.010   1.243   2.205
 2869SOL    HW1 9506   6.101   1.233   2.245
 2869SOL    HW2 9507   5.942   1.206   2.268
 2870SOL     OW 9508   4.088   2.175   2.254
 2870SOL    HW1 9509   4.078   2.076   2.245
 2870SOL    HW2 9510   4.037   2.221   2.181
 2871SOL     OW 9511   1.249   1.442   5.916
 2871SOL    HW1 9512   1.155   1.432   5.950
 2871SOL    HW2 9513   1.286   1.530   5.945
 2872SOL     OW 9514   1.945   0.208   3.873
 2872SOL    HW1 9515   2.005   0.132   3.899
 2872SOL    HW2 9516   1.987   0.261   3.800
 2873SOL     OW 9517   6.419   5.790   2.118
 2873SOL    HW1 9518   6.424   5.734   2.035
 2873SOL    HW2 9519   6.349   5.752   2.179
 2874SOL     OW 9520   5.414   2.246   2.059
 2874SOL    HW1 9521   5.489   2.309   2.037
 2874SOL    HW2 9522   5.338   2.261   1.996
 2875SOL     OW 9523   3.139   4.775   0.831
 2875SOL    HW1 9524   3.045   4.741   0.843
 2875SOL    HW2 9525   3.160   4.779   0.734
 2876SOL     OW 9526   5.887   2.374   2.004
 2876SOL    HW1 9527   5.978   2.383   2.043
 2876SOL    HW2 9528   5.843   2.292   2.040
 2877SOL     OW 9529   1.604   3.660   5.236
 2877SOL    HW1 9530   1.539   3.586   5.251
 2877SOL    HW2 9531   1.675   3.656   5.307
 2878SOL     OW 9532   4.077   4.873   0.531
 2878SOL    HW1 9533   3.999   4.837   0.582
 2878SOL    HW2 9534   4.159   4.870   0.588
 2879SOL     OW 9535   5.083   4.159   6.569
 2879SOL    HW1 9536   5.103   4.219   6.647
 2879SOL    HW2 9537   5.167   4.111   6.542
 2880SOL     OW 9538   1.619   6.455   3.561
 2880SOL    HW1 9539   1.635   6.549   3.530
 2880SOL    HW2 9540   1.578   6.457   3.652
 2881SOL     OW 9541   6.837   0.406   6.995
 2881SOL    HW1 9542   6.850   0.343   0.046
 2881SOL    HW2 9543   6.772   0.366   6.930
 2882SOL     OW 9544   6.946   3.453   3.225
 2882SOL    HW1 9545   7.007   3.384   3.263
 2882SOL    HW2 9546   6.851   3.425   3.238
 2883SOL     OW 9547   4.052   6.313   2.063
 2883SOL    HW1 9548   3.999   6.347   2.140
 2883SOL    HW2 9549   3.991   6.297   1.985
 2884SOL     OW 9550   2.131   5.084   3.083
 2884SOL    HW1 9551   2.183   5.055   3.163
 2884SOL    HW2 9552   2.034   5.090   3.107
 2885SOL     OW 9553   0.845   2.189   4.539
 2885SOL    HW1 9554   0.861   2.101   4.584
 2885SOL    HW2 9555   0.751   2.217   4.554
 2886SOL     OW 9556   2.984   2.762   6.090
 2886SOL    HW1 9557   2.990   2.858   6.118
 2886SOL    HW2 9558   3.006   2.703   6.168
 2887SOL     OW 9559   2.786   1.642   4.958
 2887SOL    HW1 9560   2.870   1.607   4.999
 2887SOL    HW2 9561   2.795   1.646   4.859
 2888SOL     OW 9562   0.027   5.206   7.023
 2888SOL    HW1 9563   6.990   5.134   6.993
 2888SOL    HW2 9564   0.046   5.195   0.094
 2889SOL     OW 9565   1.264   0.495   0.876
 2889SOL    HW1 9566   1.191   0.555   0.910
 2889SOL    HW2 9567   1.337   0.551   0.837
 2890SOL     OW 9568   2.744   0.126   0.498
 2890SOL    HW1 9569   2.744   0.100   0.402
 2890SOL    HW2 9570   2.722   0.223   0.507
 2891SOL     OW 9571   2.856   4.886   4.981
 2891SOL    HW1 9572   2.794   4.920   4.910
 2891SOL    HW2 9573   2.838   4.789   4.997
 2892SOL     OW 9574   4.077   4.428   5.334
 2892SOL    HW1 9575   4.157   4.442   5.276
 2892SOL    HW2 9576   4.012   4.368   5.288
 2893SOL     OW 9577   3.312   0.750   5.721
 2893SOL    HW1 9578   3.292   0.843   5.693
 2893SOL    HW2 9579   3.345   0.697   5.643
 2894SOL     OW 9580   4.155   3.449   1.720
 2894SOL    HW1 9581   4.226   3.520   1.725
 2894SOL    HW2 9582   4.198   3.359   1.731
 2895SOL     OW 9583   3.745   3.187   0.408
 2895SOL    HW1 9584   3.690   3.151   0.333
 2895SOL    HW2 9585   3.685   3.223   0.479
 2896SOL     OW 9586   1.393   4.592   0.197
 2896SOL    HW1 9587   1.296   4.580   0.173
 2896SOL    HW2 9588   1.414   4.690   0.202
 2897SOL     OW 9589   1.044   6.953   3.920
 2897SOL    HW1 9590   1.035   7.022   3.848
 2897SOL    HW2 9591   0.954   6.917   3.943
 2898SOL     OW 9592   2.101   5.141   2.829
 2898SOL    HW1 9593   2.003   5.158   2.816
 2898SOL    HW2 9594   2.120   5.131   2.927
 2899SOL     OW 9595   5.849   0.718   0.795
 2899SOL    HW1 9596   5.863   0.713   0.696
 2899SOL    HW2 9597   5.929   0.760   0.838
 2900SOL     OW 9598   3.226   5.315   6.300
 2900SOL    HW1 9599   3.224   5.409   6.266
 2900SOL    HW2 9600   3.144   5.299   6.355
 2901SOL     OW 9601   2.703   6.676   1.003
 2901SOL    HW1 9602   2.622   6.623   1.031
 2901SOL    HW2 9603   2.681   6.727   0.920
 2902SOL     OW 9604   4.793   5.444   0.918
 2902SOL    HW1 9605   4.788   5.371   0.986
 2902SOL    HW2 9606   4.717   5.435   0.854
 2903SOL     OW 9607   2.800   2.500   1.672
 2903SOL    HW1 9608   2.839   2.490   1.764
 2903SOL    HW2 9609   2.723   2.438   1.662
 2904SOL     OW 9610   2.612   2.118   4.492
 2904SOL    HW1 9611   2.645   2.204   4.454
 2904SOL    HW2 9612   2.575   2.134   4.584
 2905SOL     OW 9613   0.745   1.577   2.237
 2905SOL    HW1 9614   0.804   1.657   2.252
 2905SOL    HW2 9615   0.782   1.499   2.288
 2906SOL     OW 9616   5.103   5.188   2.515
 2906SOL    HW1 9617   5.081   5.092   2.531
 2906SOL    HW2 9618   5.037   5.246   2.562
 2907SOL     OW 9619   6.003   0.521   4.942
 2907SOL    HW1 9620   6.056   0.597   4.903
 2907SOL    HW2 9621   6.057   0.477   5.014
 2908SOL     OW 9622   3.560   5.802   4.650
 2908SOL    HW1 9623   3.605   5.791   4.739
 2908SOL    HW2 9624   3.628   5.794   4.577
 2909SOL     OW 9625   2.417   6.441   5.896
 2909SOL    HW1 9626   2.357   6.518   5.875
 2909SOL    HW2 9627   2.364   6.356   5.895
 2910SOL     OW 9628   4.495   5.936   5.693
 2910SOL    HW1 9629   4.488   5.921   5.594
 2910SOL    HW2 9630   4.569   5.880   5.730
 2911SOL     OW 9631   2.443   4.445   3.442
 2911SOL    HW1 9632   2.533   4.484   3.460
 2911SOL    HW2 9633   2.435   4.422   3.345
 2912SOL     OW 9634   3.038   5.128   1.414
 2912SOL    HW1 9635   3.003   5.057   1.475
 2912SOL    HW2 9636   2.967   5.153   1.348
 2913SOL     OW 9637   1.110   3.005   2.446
 2913SOL    HW1 9638   1.183   3.028   2.382
 2913SOL    HW2 9639   1.094   3.082   2.507
 2914SOL     OW 9640   5.560   4.469   5.900
 2914SOL    HW1 9641   5.595   4.560   5.876
 2914SOL    HW2 9642   5.474   4.453   5.851
 2915SOL     OW 9643   4.440   1.424   3.336
 2915SOL    HW1 9644   4.516   1.359   3.331
 2915SOL    HW2 9645   4.473   1.516   3.316
 2916SOL     OW 9646   4.790   0.005   4.794
 2916SOL    HW1 9647   4.850   0.007   4.714
 2916SOL    HW2 9648   4.797   6.942   4.839
 2917SOL     OW 9649   3.843   0.412   2.255
 2917SOL    HW1 9650   3.816   0.450   2.343
 2917SOL    HW2 9651   3.811   0.318   2.248
 2918SOL     OW 9652   1.085   2.558   4.713
 2918SOL    HW1 9653   1.129   2.551   4.624
 2918SOL    HW2 9654   0.990   2.529   4.706
 2919SOL     OW 9655   5.842   5.650   0.533
 2919SOL    HW1 9656   5.859   5.717   0.461
 2919SOL    HW2 9657   5.926   5.599   0.552
 2920SOL     OW 9658   4.580   1.945   2.570
 2920SOL    HW1 9659   4.668   1.924   2.527
 2920SOL    HW2 9660   4.552   1.868   2.628
 2921SOL     OW 9661   6.724   1.349   0.890
 2921SOL    HW1 9662   6.744   1.419   0.958
 2921SOL    HW2 9663   6.779   1.268   0.908
 2922SOL     OW 9664   4.004   6.995   4.427
 2922SOL    HW1 9665   3.937   0.035   4.461
 2922SOL    HW2 9666   4.059   6.961   4.504
 2923SOL     OW 9667   6.837   4.848   6.526
 2923SOL    HW1 9668   6.910   4.801   6.476
 2923SOL    HW2 9669   6.808   4.792   6.603
 2924SOL     OW 9670   6.614   7.025   6.005
 2924SOL    HW1 9671   6.618   0.074   5.939
 2924SOL    HW2 9672   6.633   0.035   6.097
 2925SOL     OW 9673   5.557   4.131   0.627
 2925SOL    HW1 9674   5.587   4.045   0.668
 2925SOL    HW2 9675   5.489   4.175   0.686
 2926SOL     OW 9676   0.423   1.334   3.559
 2926SOL    HW1 9677   0.358   1.403   3.527
 2926SOL    HW2 9678   0.392   1.244   3.529
 2927SOL     OW 9679   0.182   3.456   2.671
 2927SOL    HW1 9680   0.133   3.531   2.714
 2927SOL    HW2 9681   0.277   3.456   2.702
 2928SOL     OW 9682   5.580   5.959   0.365
 2928SOL    HW1 9683   5.554   5.863   0.378
 2928SOL    HW2 9684   5.567   6.008   0.451
 2929SOL     OW 9685   0.885   0.178   5.542
 2929SOL    HW1 9686   0.824   0.157   5.618
 2929SOL    HW2 9687   0.832   0.216   5.467
 2930SOL     OW 9688   3.147   6.895   4.224
 2930SOL    HW1 9689   3.119   6.966   4.289
 2930SOL    HW2 9690   3.120   6.805   4.259
 2931SOL     OW 9691   4.438   4.883   6.151
 2931SOL    HW1 9692   4.396   4.858   6.238
 2931SOL    HW2 9693   4.454   4.801   6.097
 2932SOL     OW 9694   1.504   4.518   1.617
 2932SOL    HW1 9695   1.539   4.527   1.711
 2932SOL    HW2 9696   1.444   4.595   1.596
 2933SOL     OW 9697   5.122   2.466   3.708
 2933SOL    HW1 9698   5.170   2.515   3.636
 2933SOL    HW2 9699   5.091   2.377   3.674
 2934SOL     OW 9700   2.218   1.197   0.845
 2934SOL    HW1 9701   2.123   1.195   0.812
 2934SOL    HW2 9702   2.220   1.177   0.943
 2935SOL     OW 9703   6.911   1.598   0.818
 2935SOL    HW1 9704   6.832   1.585   0.758
 2935SOL    HW2 9705   6.901   1.682   0.870
 2936SOL     OW 9706   3.460   5.494   0.488
 2936SOL    HW1 9707   3.470   5.531   0.396
 2936SOL    HW2 9708   3.369   5.514   0.523
 2937SOL     OW 9709   2.814   4.278   0.061
 2937SOL    HW1 9710   2.765   4.214   0.002
 2937SOL    HW2 9711   2.876   4.228   0.121
 2938SOL     OW 9712   4.908   4.600   6.265
 2938SOL    HW1 9713   4.909   4.577   6.362
 2938SOL    HW2 9714   4.874   4.522   6.212
 2939SOL     OW 9715   0.368   6.468   5.804
 2939SOL    HW1 9716   0.281   6.489   5.849
 2939SOL    HW2 9717   0.427   6.549   5.806
 2940SOL     OW 9718   3.648   0.460   5.446
 2940SOL    HW1 9719   3.587   0.381   5.435
 2940SOL    HW2 9720   3.708   0.444   5.525
 2941SOL     OW 9721   3.970   1.848   5.140
 2941SOL    HW1 9722   3.876   1.833   5.113
 2941SOL    HW2 9723   4.024   1.766   5.123
 2942SOL     OW 9724   3.313   6.460   4.345
 2942SOL    HW1 9725   3.237   6.395   4.351
 2942SOL    HW2 9726   3.388   6.428   4.404
 2943SOL     OW 9727   5.898   4.917   2.991
 2943SOL    HW1 9728   5.972   4.984   2.988
 2943SOL    HW2 9729   5.919   4.846   3.058
 2944SOL     OW 9730   4.294   5.879   0.057
 2944SOL    HW1 9731   4.299   5.786   0.094
 2944SOL    HW2 9732   4.216   5.886   7.021
 2945SOL     OW 9733   2.937   3.655   4.507
 2945SOL    HW1 9734   3.022   3.633   4.553
 2945SOL    HW2 9735   2.867   3.588   4.533
 2946SOL     OW 9736   0.842   6.301   5.952
 2946SOL    HW1 9737   0.866   6.209   5.984
 2946SOL    HW2 9738   0.822   6.359   6.031
 2947SOL     OW 9739   6.742   5.114   0.353
 2947SOL    HW1 9740   6.706   5.180   0.288
 2947SOL    HW2 9741   6.810   5.158   0.411
 2948SOL     OW 9742   5.663   3.849   5.626
 2948SOL    HW1 9743   5.728   3.807   5.689
 2948SOL    HW2 9744   5.599   3.779   5.593
 2949SOL     OW 9745   0.644   6.088   0.507
 2949SOL    HW1 9746   0.684   6.163   0.560
 2949SOL    HW2 9747   0.584   6.125   0.436
 2950SOL     OW 9748   5.335   3.577   4.656
 2950SOL    HW1 9749   5.435   3.564   4.661
 2950SOL    HW2 9750   5.293   3.537   4.738
 2951SOL     OW 9751   5.887   0.165   0.226
 2951SOL    HW1 9752   5.958   0.127   0.167
 2951SOL    HW2 9753   5.896   0.127   0.318
 2952SOL     OW 9754   0.804   3.458   1.981
 2952SOL    HW1 9755   0.865   3.447   1.902
 2952SOL    HW2 9756   0.770   3.368   2.009
 2953SOL     OW 9757   5.900   1.944   2.345
 2953SOL    HW1 9758   5.971   1.873   2.351
 2953SOL    HW2 9759   5.824   1.920   2.405
 2954SOL     OW 9760   4.868   5.650   1.746
 2954SOL    HW1 9761   4.875   5.566   1.799
 2954SOL    HW2 9762   4.813   5.633   1.664
 2955SOL     OW 9763   5.831   2.197   1.163
 2955SOL    HW1 9764   5.821   2.291   1.131
 2955SOL    HW2 9765   5.757   2.141   1.123
 2956SOL     OW 9766   6.039   5.860   3.556
 2956SOL    HW1 9767   6.005   5.910   3.476
 2956SOL    HW2 9768   5.983   5.778   3.570
 2957SOL     OW 9769   1.538   4.795   1.398
 2957SOL    HW1 9770   1.474   4.784   1.475
 2957SOL    HW2 9771   1.620   4.842   1.429
 2958SOL     OW 9772   2.837   4.994   6.186
 2958SOL    HW1 9773   2.923   4.960   6.223
 2958SOL    HW2 9774   2.816   4.946   6.100
 2959SOL     OW 9775   3.644   5.141   0.213
 2959SOL    HW1 9776   3.675   5.231   0.247
 2959SOL    HW2 9777   3.721   5.092   0.174
 2960SOL     OW 9778   3.008   1.636   6.919
 2960SOL    HW1 9779   3.069   1.559   6.936
 2960SOL    HW2 9780   2.969   1.668   7.006
 2961SOL     OW 9781   5.831   1.380   4.143
 2961SOL    HW1 9782   5.753   1.442   4.131
 2961SOL    HW2 9783   5.880   1.371   4.057
 2962SOL     OW 9784   4.284   0.447   3.126
 2962SOL    HW1 9785   4.222   0.374   3.098
 2962SOL    HW2 9786   4.368   0.407   3.163
 2963SOL     OW 9787   2.167   3.379   4.784
 2963SOL    HW1 9788   2.153   3.384   4.883
 2963SOL    HW2 9789   2.138   3.465   4.742
 2964SOL     OW 9790   3.021   5.993   0.405
 2964SOL    HW1 9791   3.056   5.971   0.314
 2964SOL    HW2 9792   2.947   6.060   0.397
 2965SOL     OW 9793   0.891   2.843   6.309
 2965SOL    HW1 9794   0.869   2.770   6.374
 2965SOL    HW2 9795   0.976   2.886   6.336
 2966SOL     OW 9796   4.983   4.979   3.805
 2966SOL    HW1 9797   5.058   5.045   3.807
 2966SOL    HW2 9798   5.013   4.895   3.759
 2967SOL     OW 9799   5.748   2.824   3.969
 2967SOL    HW1 9800   5.692   2.907   3.975
 2967SOL    HW2 9801   5.845   2.848   3.977
 2968SOL     OW 9802   6.753   3.899   3.366
 2968SOL    HW1 9803   6.839   3.852   3.347
 2968SOL    HW2 9804   6.749   3.985   3.316
 2969SOL     OW 9805   3.819   1.755   4.748
 2969SOL    HW1 9806   3.817   1.790   4.654
 2969SOL    HW2 9807   3.895   1.797   4.797
 2970SOL     OW 9808   1.235   4.018   5.774
 2970SOL    HW1 9809   1.276   4.109   5.782
 2970SOL    HW2 9810   1.167   4.005   5.846
 2971SOL     OW 9811   5.258   3.788   2.463
 2971SOL    HW1 9812   5.263   3.853   2.538
 2971SOL    HW2 9813   5.164   3.781   2.431
 2972SOL     OW 9814   0.600   4.334   5.086
 2972SOL    HW1 9815   0.686   4.334   5.035
 2972SOL    HW2 9816   0.581   4.242   5.121
 2973SOL     OW 9817   5.765   0.023   3.766
 2973SOL    HW1 9818   5.848   7.003   3.800
 2973SOL    HW2 9819   5.777   0.122   3.773
 2974SOL     OW 9820   6.981   4.549   1.572
 2974SOL    HW1 9821   6.993   4.454   1.599
 2974SOL    HW2 9822   0.009   4.609   1.631
 2975SOL     OW 9823   6.586   1.387   3.961
 2975SOL    HW1 9824   6.660   1.336   3.917
 2975SOL    HW2 9825   6.621   1.475   3.994
 2976SOL     OW 9826   2.397   6.148   1.257
 2976SOL    HW1 9827   2.378   6.193   1.345
 2976SOL    HW2 9828   2.438   6.058   1.274
 2977SOL     OW 9829   3.044   6.392   3.766
 2977SOL    HW1 9830   3.014   6.387   3.861
 2977SOL    HW2 9831   2.969   6.427   3.710
 2978SOL     OW 9832   2.869   0.064   6.449
 2978SOL    HW1 9833   2.928   0.079   6.370
 2978SOL    HW2 9834   2.882   6.996   6.482
 2979SOL     OW 9835   2.895   1.167   3.305
 2979SOL    HW1 9836   2.809   1.152   3.255
 2979SOL    HW2 9837   2.906   1.264   3.325
 2980SOL     OW 9838   6.273   6.721   3.431
 2980SOL    HW1 9839   6.176   6.714   3.455
 2980SOL    HW2 9840   6.311   6.630   3.420
 2981SOL     OW 9841   1.892   1.359   6.126
 2981SOL    HW1 9842   1.915   1.291   6.056
 2981SOL    HW2 9843   1.802   1.398   6.105
 2982SOL     OW 9844   4.560   5.722   2.091
 2982SOL    HW1 9845   4.503   5.682   2.020
 2982SOL    HW2 9846   4.605   5.805   2.056
 2983SOL     OW 9847   6.999   0.766   2.568
 2983SOL    HW1 9848   6.911   0.767   2.615
 2983SOL    HW2 9849   0.046   0.788   2.633
 2984SOL     OW 9850   5.710   4.691   1.705
 2984SOL    HW1 9851   5.717   4.746   1.622
 2984SOL    HW2 9852   5.633   4.723   1.760
 2985SOL     OW 9853   6.672   2.652   2.975
 2985SOL    HW1 9854   6.620   2.716   3.033
 2985SOL    HW2 9855   6.608   2.602   2.916
 2986SOL     OW 9856   2.036   3.354   5.045
 2986SOL    HW1 9857   2.097   3.344   5.124
 2986SOL    HW2 9858   1.946   3.386   5.076
 2987SOL     OW 9859   5.098   1.903   4.989
 2987SOL    HW1 9860   5.187   1.887   5.032
 2987SOL    HW2 9861   5.101   1.989   4.938
 2988SOL     OW 9862   1.098   0.012   2.553
 2988SOL    HW1 9863   1.023   0.019   2.487
 2988SOL    HW2 9864   1.175   0.067   2.521
 2989SOL     OW 9865   6.265   5.302   0.871
 2989SOL    HW1 9866   6.297   5.231   0.808
 2989SOL    HW2 9867   6.169   5.286   0.894
 2990SOL     OW 9868   3.052   1.590   1.639
 2990SOL    HW1 9869   3.084   1.667   1.585
 2990SOL    HW2 9870   3.049   1.508   1.581
 2991SOL     OW 9871   6.602   4.899   7.000
 2991SOL    HW1 9872   6.559   4.914   6.911
 2991SOL    HW2 9873   6.546   4.940   0.046
 2992SOL     OW 9874   4.532   4.113   6.612
 2992SOL    HW1 9875   4.491   4.088   6.699
 2992SOL    HW2 9876   4.625   4.075   6.606
 2993SOL     OW 9877   1.614   4.365   6.985
 2993SOL    HW1 9878   1.617   4.267   7.005
 2993SOL    HW2 9879   1.641   4.416   0.040
 2994SOL     OW 9880   4.303   6.036   0.275
 2994SOL    HW1 9881   4.391   6.029   0.322
 2994SOL    HW2 9882   4.305   5.978   0.193
 2995SOL     OW 9883   2.277   0.570   5.608
 2995SOL    HW1 9884   2.358   0.513   5.598
 2995SOL    HW2 9885   2.197   0.511   5.621
 2996SOL     OW 9886   4.382   6.490   5.990
 2996SOL    HW1 9887   4.354   6.537   6.074
 2996SOL    HW2 9888   4.385   6.556   5.915
 2997SOL     OW 9889   3.968   5.758   0.224
 2997SOL    HW1 9890   3.943   5.825   0.155
 2997SOL    HW2 9891   3.911   5.771   0.306
 2998SOL     OW 9892   6.444   4.584   5.716
 2998SOL    HW1 9893   6.443   4.643   5.796
 2998SOL    HW2 9894   6.481   4.495   5.741
 2999SOL     OW 9895   2.460   1.472   1.758
 2999SOL    HW1 9896   2.378   1.474   1.702
 2999SOL    HW2 9897   2.446   1.411   1.836
 3000SOL     OW 9898   1.236   1.990   4.735
 3000SOL    HW1 9899   1.293   2.073   4.738
 3000SOL    HW2 9900   1.215   1.960   4.827
 3001SOL     OW 9901   4.993   6.272   5.735
 3001SOL    HW1 9902   5.075   6.249   5.788
 3001SOL    HW2 9903   4.930   6.194   5.736
 3002SOL     OW 9904   3.233   0.620   5.349
 3002SOL    HW1 9905   3.307   0.579   5.404
 3002SOL    HW2 9906   3.273   0.672   5.273
 3003SOL     OW 9907   1.407   6.953   5.648
 3003SOL    HW1 9908   1.479   6.957   5.579
 3003SOL    HW2 9909   1.356   6.868   5.638
 3004SOL     OW 9910   6.904   2.999   5.763
 3004SOL    HW1 9911   6.945   2.914   5.729
 3004SOL    HW2 9912   6.807   2.985   5.782
 3005SOL     OW 9913   4.841   2.511   0.991
 3005SOL    HW1 9914   4.845   2.413   0.973
 3005SOL    HW2 9915   4.885   2.531   1.078
 3006SOL     OW 9916   4.479   0.054   1.777
 3006SOL    HW1 9917   4.564   0.028   1.730
 3006SOL    HW2 9918   4.499   0.129   1.841
 3007SOL     OW 9919   5.588   5.225   2.028
 3007SOL    HW1 9920   5.528   5.155   2.068
 3007SOL    HW2 9921   5.626   5.281   2.101
 3008SOL     OW 9922   4.651   5.573   5.678
 3008SOL    HW1 9923   4.644   5.653   5.738
 3008SOL    HW2 9924   4.664   5.491   5.734
 3009SOL     OW 9925   1.118   0.743   2.500
 3009SOL    HW1 9926   1.065   0.763   2.582
 3009SOL    HW2 9927   1.161   0.653   2.509
 3010SOL     OW 9928   2.770   6.811   2.847
 3010SOL    HW1 9929   2.844   6.808   2.779
 3010SOL    HW2 9930   2.684   6.784   2.804
 3011SOL     OW 9931   5.390   0.250   0.652
 3011SOL    HW1 9932   5.483   0.281   0.630
 3011SOL    HW2 9933   5.394   0.163   0.700
 3012SOL     OW 9934   0.005   5.090   1.406
 3012SOL    HW1 9935   0.041   5.040   1.327
 3012SOL    HW2 9936   6.995   5.026   1.474
 3013SOL     OW 9937   5.471   4.356   2.208
 3013SOL    HW1 9938   5.508   4.404   2.287
 3013SOL    HW2 9939   5.454   4.421   2.134
 3014SOL     OW 9940   5.246   6.880   5.788
 3014SOL    HW1 9941   5.259   6.974   5.817
 3014SOL    HW2 9942   5.312   6.821   5.836
 3015SOL     OW 9943   2.720   1.086   0.166
 3015SOL    HW1 9944   2.701   1.003   0.114
 3015SOL    HW2 9945   2.748   1.061   0.259
 3016SOL     OW 9946   3.701   6.188   3.531
 3016SOL    HW1 9947   3.712   6.268   3.591
 3016SOL    HW2 9948   3.616   6.197   3.479
 3017SOL     OW 9949   0.332   5.968   1.809
 3017SOL    HW1 9950   0.417   6.004   1.770
 3017SOL    HW2 9951   0.254   6.000   1.756
 3018SOL     OW 9952   4.238   6.924   6.024
 3018SOL    HW1 9953   4.140   6.939   6.039
 3018SOL    HW2 9954   4.270   6.982   5.949
 3019SOL     OW 9955   4.825   0.533   1.949
 3019SOL    HW1 9956   4.759   0.548   1.875
 3019SOL    HW2 9957   4.865   0.442   1.939
 3020SOL     OW 9958   1.837   0.462   1.983
 3020SOL    HW1 9959   1.884   0.382   1.945
 3020SOL    HW2 9960   1.747   0.471   1.941
 3021SOL     OW 9961   4.327   0.689   6.590
 3021SOL    HW1 9962   4.343   0.775   6.638
 3021SOL    HW2 9963   4.232   0.684   6.561
 3022SOL     OW 9964   6.782   0.474   2.796
 3022SOL    HW1 9965   6.758   0.421   2.877
 3022SOL    HW2 9966   6.813   0.413   2.723
 3023SOL     OW 9967   5.924   0.437   1.487
 3023SOL    HW1 9968   5.983   0.403   1.561
 3023SOL    HW2 9969   5.976   0.441   1.402
 3024SOL     OW 9970   2.182   0.085   6.525
 3024SOL    HW1 9971   2.195   0.028   6.606
 3024SOL    HW2 9972   2.259   0.071   6.462
 3025SOL     OW 9973   2.024   2.437   1.819
 3025SOL    HW1 9974   2.092   2.511   1.814
 3025SOL    HW2 9975   1.978   2.428   1.731
 3026SOL     OW 9976   2.727   5.839   0.410
 3026SOL    HW1 9977   2.812   5.788   0.422
 3026SOL    HW2 9978   2.745   5.937   0.417
 3027SOL     OW 9979   1.467   2.195   3.450
 3027SOL    HW1 9980   1.480   2.122   3.382
 3027SOL    HW2 9981   1.396   2.169   3.514
 3028SOL     OW 9982   1.148   0.176   4.717
 3028SOL    HW1 9983   1.101   0.250   4.668
 3028SOL    HW2 9984   1.237   0.209   4.747
 3029SOL     OW 9985   6.234   5.507   5.981
 3029SOL    HW1 9986   6.181   5.476   5.902
 3029SOL    HW2 9987   6.314   5.450   5.992
 3030SOL     OW 9988   1.200   0.525   5.333
 3030SOL    HW1 9989   1.250   0.609   5.311
 3030SOL    HW2 9990   1.194   0.468   5.252
 3031SOL     OW 9991   0.387   5.573   6.189
 3031SOL    HW1 9992   0.314   5.541   6.250
 3031SOL    HW2 9993   0.440   5.644   6.235
 3032SOL     OW 9994   4.106   6.667   5.754
 3032SOL    HW1 9995   4.093   6.614   5.837
 3032SOL    HW2 9996   4.204   6.684   5.741
 3033SOL     OW 9997   5.193   4.508   5.594
 3033SOL    HW1 9998   5.187   4.594   5.543
 3033SOL    HW2 9999   5.189   4.527   5.692
 3034SOL     OW10000   2.676   6.666   4.640
 3034SOL    HW110001   2.727   6.606   4.578
 3034SOL    HW210002   2.626   6.610   4.707
 3035SOL     OW10003   6.181   6.971   0.005
 3035SOL    HW110004   6.191   0.042   0.026
 3035SOL    HW210005   6.174   6.919   0.090
 3036SOL     OW10006   1.181   5.095   5.310
 3036SOL    HW110007   1.140   5.010   5.342
 3036SOL    HW210008   1.191   5.159   5.386
 3037SOL     OW10009   5.427   6.708   5.917
 3037SOL    HW110010   5.514   6.663   5.900
 3037SOL    HW210011   5.427   6.747   6.009
 3038SOL     OW10012   6.175   6.466   6.041
 3038SOL    HW110013   6.096   6.509   6.087
 3038SOL    HW210014   6.143   6.412   5.963
 3039SOL     OW10015   0.417   5.274   0.583
 3039SOL    HW110016   0.512   5.245   0.576
 3039SOL    HW210017   0.389   5.316   0.497
 3040SOL     OW10018   3.169   1.413   7.025
 3040SOL    HW110019   3.122   1.359   6.957
 3040SOL    HW210020   3.264   1.382   0.008
 3041SOL     OW10021   1.771   2.266   6.407
 3041SOL    HW110022   1.859   2.304   6.437
 3041SOL    HW210023   1.770   2.258   6.308
 3042SOL     OW10024   6.479   0.307   1.166
 3042SOL    HW110025   6.392   0.263   1.141
 3042SOL    HW210026   6.555   0.258   1.123
 3043SOL     OW10027   6.896   5.389   6.870
 3043SOL    HW110028   6.829   5.315   6.875
 3043SOL    HW210029   6.988   5.352   6.885
 3044SOL     OW10030   2.448   3.297   6.298
 3044SOL    HW110031   2.544   3.276   6.310
 3044SOL    HW210032   2.425   3.292   6.200
 3045SOL     OW10033   4.999   2.327   3.945
 3045SOL    HW110034   4.982   2.235   3.910
 3045SOL    HW210035   5.079   2.366   3.898
 3046SOL     OW10036   2.149   2.339   6.229
 3046SOL    HW110037   2.242   2.374   6.226
 3046SOL    HW210038   2.093   2.385   6.160
 3047SOL     OW10039   0.208   5.298   1.403
 3047SOL    HW110040   0.130   5.239   1.427
 3047SOL    HW210041   0.205   5.318   1.305
 3048SOL     OW10042   3.423   2.534   1.721
 3048SOL    HW110043   3.407   2.616   1.665
 3048SOL    HW210044   3.521   2.529   1.744
 3049SOL     OW10045   0.642   0.611   1.347
 3049SOL    HW110046   0.571   0.682   1.336
 3049SOL    HW210047   0.603   0.534   1.397
 3050SOL     OW10048   1.765   0.877   3.778
 3050SOL    HW110049   1.828   0.948   3.748
 3050SOL    HW210050   1.780   0.794   3.724
 3051SOL     OW10051   2.736   4.289   6.385
 3051SOL    HW110052   2.752   4.366   6.324
 3051SOL    HW210053   2.689   4.320   6.468
 3052SOL     OW10054   5.300   7.003   2.530
 3052SOL    HW110055   5.314   0.075   2.549
 3052SOL    HW210056   5.301   6.952   2.617
 3053SOL     OW10057   3.856   6.998   2.039
 3053SOL    HW110058   3.905   6.920   1.998
 3053SOL    HW210059   3.762   7.000   2.004
 3054SOL     OW10060   2.416   4.377   5.472
 3054SOL    HW110061   2.452   4.292   5.432
 3054SOL    HW210062   2.416   4.449   5.403
 3055SOL     OW10063   6.442   6.753   3.066
 3055SOL    HW110064   6.369   6.688   3.047
 3055SOL    HW210065   6.418   6.843   3.029
 3056SOL     OW10066   5.609   0.715   1.942
 3056SOL    HW110067   5.680   0.763   1.892
 3056SOL    HW210068   5.635   0.620   1.955
 3057SOL     OW10069   6.116   5.452   2.707
 3057SOL    HW110070   6.041   5.513   2.681
 3057SOL    HW210071   6.085   5.388   2.777
 3058SOL     OW10072   6.109   5.860   1.251
 3058SOL    HW110073   6.198   5.828   1.218
 3058SOL    HW210074   6.084   5.809   1.333
 3059SOL     OW10075   2.512   2.670   5.821
 3059SOL    HW110076   2.489   2.767   5.806
 3059SOL    HW210077   2.487   2.617   5.740
 3060SOL     OW10078   0.646   6.285   6.974
 3060SOL    HW110079   0.672   6.189   6.964
 3060SOL    HW210080   0.712   6.342   6.926
 3061SOL     OW10081   0.675   0.862   5.897
 3061SOL    HW110082   0.623   0.782   5.926
 3061SOL    HW210083   0.768   0.834   5.874
 3062SOL     OW10084   3.057   4.897   6.326
 3062SOL    HW110085   3.046   4.803   6.357
 3062SOL    HW210086   3.001   4.958   6.382
 3063SOL     OW10087   2.755   5.921   0.916
 3063SOL    HW110088   2.811   5.838   0.913
 3063SOL    HW210089   2.801   5.990   0.971
 3064SOL     OW10090   0.107   4.651   3.487
 3064SOL    HW110091   0.134   4.680   3.579
 3064SOL    HW210092   0.027   4.591   3.494
 3065SOL     OW10093   3.121   1.493   1.237
 3065SOL    HW110094   3.113   1.428   1.162
 3065SOL    HW210095   3.154   1.447   1.318
 3066SOL     OW10096   5.361   5.236   0.484
 3066SOL    HW110097   5.397   5.145   0.505
 3066SOL    HW210098   5.265   5.242   0.513
 3067SOL     OW10099   4.396   6.808   2.884
 3067SOL    HW110100   4.487   6.800   2.926
 3067SOL    HW210101   4.334   6.853   2.948
 3068SOL     OW10102   6.479   4.696   6.817
 3068SOL    HW110103   6.483   4.787   6.778
 3068SOL    HW210104   6.533   4.692   6.901
 3069SOL     OW10105   0.772   4.607   3.707
 3069SOL    HW110106   0.781   4.666   3.787
 3069SOL    HW210107   0.696   4.543   3.722
 3070SOL     OW10108   4.238   1.819   4.185
 3070SOL    HW110109   4.234   1.730   4.230
 3070SOL    HW210110   4.255   1.806   4.087
 3071SOL     OW10111   5.565   0.345   3.981
 3071SOL    HW110112   5.661   0.337   4.010
 3071SOL    HW210113   5.560   0.340   3.881
 3072SOL     OW10114   0.417   0.523   1.779
 3072SOL    HW110115   0.410   0.500   1.876
 3072SOL    HW210116   0.514   0.531   1.754
 3073SOL     OW10117   1.938   1.976   4.855
 3073SOL    HW110118   1.891   1.953   4.940
 3073SOL    HW210119   1.989   1.896   4.823
 3074SOL     OW10120   4.996   3.704   6.015
 3074SOL    HW110121   5.046   3.663   5.939
 3074SOL    HW210122   4.973   3.798   5.993
 3075SOL     OW10123   0.053   5.646   0.896
 3075SOL    HW110124   6.998   5.702   0.879
 3075SOL    HW210125   0.026   5.554   0.924
 3076SOL     OW10126   0.406   0.874   5.094
 3076SOL    HW110127   0.463   0.908   5.168
 3076SOL    HW210128   0.358   0.950   5.050
 3077SOL     OW10129   5.282   4.529   3.337
 3077SOL    HW110130   5.317   4.448   3.291
 3077SOL    HW210131   5.307   4.611   3.286
 3078SOL     OW10132   1.738   2.549   7.016
 3078SOL    HW110133   1.735   2.644   0.023
 3078SOL    HW210134   1.732   2.548   6.916
 3079SOL     OW10135   5.880   2.754   6.004
 3079SOL    HW110136   5.785   2.767   5.976
 3079SOL    HW210137   5.923   2.685   5.946
 3080SOL     OW10138   5.996   6.653   1.509
 3080SOL    HW110139   5.908   6.609   1.525
 3080SOL    HW210140   6.054   6.642   1.589
 3081SOL     OW10141   1.220   4.462   5.759
 3081SOL    HW110142   1.179   4.497   5.675
 3081SOL    HW210143   1.270   4.535   5.805
 3082SOL     OW10144   3.227   0.039   2.291
 3082SOL    HW110145   3.224   0.009   2.386
 3082SOL    HW210146   3.139   0.024   2.248
 3083SOL     OW10147   3.660   0.216   2.250
 3083SOL    HW110148   3.613   0.269   2.321
 3083SOL    HW210149   3.615   0.128   2.238
 3084SOL     OW10150   4.125   6.431   3.913
 3084SOL    HW110151   4.206   6.382   3.884
 3084SOL    HW210152   4.043   6.382   3.884
 3085SOL     OW10153   1.146   4.991   2.140
 3085SOL    HW110154   1.068   5.030   2.092
 3085SOL    HW210155   1.201   5.065   2.179
 3086SOL     OW10156   6.491   1.360   4.476
 3086SOL    HW110157   6.439   1.392   4.397
 3086SOL    HW210158   6.438   1.292   4.526
 3087SOL     OW10159   5.823   3.724   1.388
 3087SOL    HW110160   5.774   3.651   1.436
 3087SOL    HW210161   5.877   3.776   1.454
 3088SOL     OW10162   2.977   3.880   6.373
 3088SOL    HW110163   3.064   3.909   6.334
 3088SOL    HW210164   2.937   3.957   6.423
 3089SOL     OW10165   3.609   1.789   1.704
 3089SOL    HW110166   3.669   1.868   1.691
 3089SOL    HW210167   3.515   1.815   1.684
 3090SOL     OW10168   6.244   1.694   0.659
 3090SOL    HW110169   6.335   1.730   0.678
 3090SOL    HW210170   6.214   1.636   0.735
 3091SOL     OW10171   2.217   6.332   0.096
 3091SOL    HW110172   2.255   6.239   0.100
 3091SOL    HW210173   2.220   6.365   0.002
 3092SOL     OW10174   3.571   5.418   0.027
 3092SOL    HW110175   3.477   5.385   0.015
 3092SOL    HW210176   3.633   5.360   6.999
 3093SOL     OW10177   4.752   6.879   3.186
 3093SOL    HW110178   4.841   6.842   3.212
 3093SOL    HW210179   4.738   6.967   3.232
 3094SOL     OW10180   3.480   5.673   4.973
 3094SOL    HW110181   3.512   5.761   5.008
 3094SOL    HW210182   3.396   5.686   4.921
 3095SOL     OW10183   1.963   5.154   5.217
 3095SOL    HW110184   1.960   5.138   5.118
 3095SOL    HW210185   1.903   5.089   5.263
 3096SOL     OW10186   0.575   1.174   5.503
 3096SOL    HW110187   0.654   1.231   5.527
 3096SOL    HW210188   0.583   1.085   5.548
 3097SOL     OW10189   2.028   1.302   0.159
 3097SOL    HW110190   2.004   1.217   0.206
 3097SOL    HW210191   2.090   1.281   0.083
 3098SOL     OW10192   4.311   2.598   0.906
 3098SOL    HW110193   4.350   2.605   0.998
 3098SOL    HW210194   4.381   2.625   0.839
 3099SOL     OW10195   1.600   5.878   5.375
 3099SOL    HW110196   1.564   5.801   5.323
 3099SOL    HW210197   1.699   5.867   5.387
 3100SOL     OW10198   6.469   6.489   5.991
 3100SOL    HW110199   6.374   6.472   6.016
 3100SOL    HW210200   6.498   6.577   6.028
 3101SOL     OW10201   3.659   0.407   1.289
 3101SOL    HW110202   3.572   0.395   1.242
 3101SOL    HW210203   3.733   0.373   1.231
 3102SOL     OW10204   0.670   5.964   0.159
 3102SOL    HW110205   0.614   6.032   0.205
 3102SOL    HW210206   0.728   5.917   0.225
 3103SOL     OW10207   4.253   4.291   1.590
 3103SOL    HW110208   4.296   4.251   1.671
 3103SOL    HW210209   4.185   4.228   1.553
 3104SOL     OW10210   5.769   5.672   3.801
 3104SOL    HW110211   5.710   5.617   3.743
 3104SOL    HW210212   5.714   5.744   3.846
 3105SOL     OW10213   5.964   5.503   3.678
 3105SOL    HW110214   5.971   5.530   3.581
 3105SOL    HW210215   5.893   5.556   3.723
 3106SOL     OW10216   6.652   2.973   4.899
 3106SOL    HW110217   6.562   3.011   4.923
 3106SOL    HW210218   6.723   3.039   4.923
 3107SOL     OW10219   2.732   6.965   4.219
 3107SOL    HW110220   2.773   0.029   4.235
 3107SOL    HW210221   2.691   6.932   4.304
 3108SOL     OW10222   2.007   0.648   2.757
 3108SOL    HW110223   2.049   0.559   2.739
 3108SOL    HW210224   2.012   0.705   2.675
 3109SOL     OW10225   4.847   5.936   3.586
 3109SOL    HW110226   4.837   5.881   3.503
 3109SOL    HW210227   4.943   5.962   3.597
 3110SOL     OW10228   1.478   2.808   1.599
 3110SOL    HW110229   1.567   2.852   1.602
 3110SOL    HW210230   1.407   2.877   1.581
 3111SOL     OW10231   0.298   4.985   2.408
 3111SOL    HW110232   0.395   5.007   2.419
 3111SOL    HW210233   0.243   5.067   2.424
 3112SOL     OW10234   2.792   3.617   5.998
 3112SOL    HW110235   2.783   3.604   5.899
 3112SOL    HW210236   2.888   3.610   6.024
 3113SOL     OW10237   3.984   6.543   4.174
 3113SOL    HW110238   4.065   6.500   4.135
 3113SOL    HW210239   4.012   6.614   4.239
 3114SOL     OW10240   5.122   5.683   0.566
 3114SOL    HW110241   5.082   5.635   0.644
 3114SOL    HW210242   5.055   5.748   0.530
 3115SOL     OW10243   2.916   3.218   2.015
 3115SOL    HW110244   2.857   3.142   1.988
 3115SOL    HW210245   2.975   3.190   2.091
 3116SOL     OW10246   0.279   1.022   6.881
 3116SOL    HW110247   0.364   0.969   6.870
 3116SOL    HW210248   0.213   0.967   6.932
 3117SOL     OW10249   3.761   4.032   5.770
 3117SOL    HW110250   3.778   3.941   5.807
 3117SOL    HW210251   3.666   4.058   5.788
 3118SOL     OW10252   6.073   5.415   6.962
 3118SOL    HW110253   6.016   5.404   6.881
 3118SOL    HW210254   6.148   5.478   6.943
 3119SOL     OW10255   2.332   4.252   0.042
 3119SOL    HW110256   2.333   4.160   0.002
 3119SOL    HW210257   2.265   4.308   7.019
 3120SOL     OW10258   2.703   5.172   6.568
 3120SOL    HW110259   2.651   5.243   6.521
 3120SOL    HW210260   2.684   5.176   6.666
 3121SOL     OW10261   0.340   5.790   3.632
 3121SOL    HW110262   0.320   5.699   3.598
 3121SOL    HW210263   0.259   5.849   3.620
 3122SOL     OW10264   3.667   5.403   1.192
 3122SOL    HW110265   3.586   5.356   1.156
 3122SOL    HW210266   3.646   5.440   1.283
 3123SOL     OW10267   3.405   6.824   4.316
 3123SOL    HW110268   3.416   6.894   4.385
 3123SOL    HW210269   3.309   6.821   4.286
 3124SOL     OW10270   3.684   0.169   5.961
 3124SOL    HW110271   3.728   0.130   5.880
 3124SOL    HW210272   3.603   0.221   5.934
 3125SOL     OW10273   0.256   2.508   6.230
 3125SOL    HW110274   0.211   2.425   6.197
 3125SOL    HW210275   0.320   2.486   6.303
 3126SOL     OW10276   3.946   6.213   6.374
 3126SOL    HW110277   3.881   6.276   6.333
 3126SOL    HW210278   3.913   6.186   6.465
 3127SOL     OW10279   1.193   1.561   4.115
 3127SOL    HW110280   1.186   1.630   4.044
 3127SOL    HW210281   1.147   1.477   4.085
 3128SOL     OW10282   1.790   0.325   1.439
 3128SOL    HW110283   1.712   0.284   1.485
 3128SOL    HW210284   1.843   0.254   1.391
 3129SOL     OW10285   0.987   2.943   3.108
 3129SOL    HW110286   1.000   2.898   3.020
 3129SOL    HW210287   1.063   3.005   3.125
 3130SOL     OW10288   2.664   5.409   3.261
 3130SOL    HW110289   2.649   5.319   3.301
 3130SOL    HW210290   2.619   5.414   3.172
 3131SOL     OW10291   0.776   2.781   4.663
 3131SOL    HW110292   0.833   2.699   4.659
 3131SOL    HW210293   0.791   2.837   4.582
 3132SOL     OW10294   5.085   4.264   5.814
 3132SOL    HW110295   5.121   4.192   5.873
 3132SOL    HW210296   4.985   4.265   5.821
 3133SOL     OW10297   2.287   1.924   3.343
 3133SOL    HW110298   2.353   1.852   3.365
 3133SOL    HW210299   2.296   1.950   3.247
 3134SOL     OW10300   5.744   2.974   1.756
 3134SOL    HW110301   5.768   2.989   1.852
 3134SOL    HW210302   5.652   2.936   1.750
 3135SOL     OW10303   1.424   2.125   2.995
 3135SOL    HW110304   1.345   2.180   2.968
 3135SOL    HW210305   1.405   2.079   3.082
 3136SOL     OW10306   6.273   0.170   5.137
 3136SOL    HW110307   6.368   0.200   5.131
 3136SOL    HW210308   6.269   0.074   5.161
 3137SOL     OW10309   0.582   1.961   4.338
 3137SOL    HW110310   0.639   2.033   4.297
 3137SOL    HW210311   0.488   1.994   4.347
 3138SOL     OW10312   5.991   2.212   4.304
 3138SOL    HW110313   6.012   2.232   4.400
 3138SOL    HW210314   5.921   2.276   4.272
 3139SOL     OW10315   4.808   5.316   5.279
 3139SOL    HW110316   4.836   5.369   5.359
 3139SOL    HW210317   4.878   5.323   5.208
 3140SOL     OW10318   5.814   6.252   6.019
 3140SOL    HW110319   5.849   6.340   5.987
 3140SOL    HW210320   5.761   6.265   6.103
 3141SOL     OW10321   0.917   5.960   2.011
 3141SOL    HW110322   0.832   5.979   1.963
 3141SOL    HW210323   0.940   5.863   2.004
 3142SOL     OW10324   3.773   6.997   0.400
 3142SOL    HW110325   3.713   6.932   0.445
 3142SOL    HW210326   3.759   6.993   0.301
 3143SOL     OW10327   0.412   1.969   0.556
 3143SOL    HW110328   0.449   1.902   0.620
 3143SOL    HW210329   0.325   1.937   0.520
 3144SOL     OW10330   2.417   2.866   6.981
 3144SOL    HW110331   2.317   2.865   6.976
 3144SOL    HW210332   2.453   2.779   6.947
 3145SOL     OW10333   2.959   5.196   3.072
 3145SOL    HW110334   2.903   5.114   3.069
 3145SOL    HW210335   3.044   5.177   3.122
 3146SOL     OW10336   2.476   6.869   4.014
 3146SOL    HW110337   2.387   6.828   4.031
 3146SOL    HW210338   2.544   6.797   3.999
 3147SOL     OW10339   3.684   4.484   0.657
 3147SOL    HW110340   3.713   4.451   0.746
 3147SOL    HW210341   3.591   4.450   0.638
 3148SOL     OW10342   3.258   5.821   4.609
 3148SOL    HW110343   3.290   5.753   4.675
 3148SOL    HW210344   3.316   5.817   4.528
 3149SOL     OW10345   2.685   6.601   5.877
 3149SOL    HW110346   2.694   6.694   5.914
 3149SOL    HW210347   2.592   6.568   5.893
 3150SOL     OW10348   6.820   6.757   4.359
 3150SOL    HW110349   6.778   6.818   4.426
 3150SOL    HW210350   6.822   6.803   4.270
 3151SOL     OW10351   3.667   6.989   1.739
 3151SOL    HW110352   3.587   6.972   1.797
 3151SOL    HW210353   3.697   0.058   1.751
 3152SOL     OW10354   1.808   4.802   6.027
 3152SOL    HW110355   1.729   4.784   5.969
 3152SOL    HW210356   1.778   4.826   6.119
 3153SOL     OW10357   6.685   4.551   3.083
 3153SOL    HW110358   6.644   4.641   3.093
 3153SOL    HW210359   6.641   4.502   3.008
 3154SOL     OW10360   5.784   2.629   6.270
 3154SOL    HW110361   5.872   2.651   6.228
 3154SOL    HW210362   5.722   2.706   6.258
 3155SOL     OW10363   4.252   6.243   0.437
 3155SOL    HW110364   4.268   6.175   0.365
 3155SOL    HW210365   4.332   6.247   0.497
 3156SOL     OW10366   3.569   3.623   3.313
 3156SOL    HW110367   3.611   3.532   3.313
 3156SOL    HW210368   3.608   3.678   3.239
 3157SOL     OW10369   2.319   2.400   4.852
 3157SOL    HW110370   2.247   2.424   4.786
 3157SOL    HW210371   2.290   2.428   4.944
 3158SOL     OW10372   4.790   6.837   1.488
 3158SOL    HW110373   4.767   6.756   1.541
 3158SOL    HW210374   4.888   6.835   1.465
 3159SOL     OW10375   5.041   4.697   0.544
 3159SOL    HW110376   5.107   4.655   0.606
 3159SOL    HW210377   5.075   4.787   0.516
 3160SOL     OW10378   6.372   4.754   0.734
 3160SOL    HW110379   6.287   4.702   0.739
 3160SOL    HW210380   6.429   4.719   0.660
 3161SOL     OW10381   1.147   1.332   4.016
 3161SOL    HW110382   1.230   1.310   3.965
 3161SOL    HW210383   1.071   1.275   3.983
 3162SOL     OW10384   6.957   7.014   5.742
 3162SOL    HW110385   7.013   0.051   5.797
 3162SOL    HW210386   6.915   6.946   5.802
 3163SOL     OW10387   1.875   4.637   5.397
 3163SOL    HW110388   1.917   4.560   5.349
 3163SOL    HW210389   1.947   4.699   5.431
 3164SOL     OW10390   6.425   5.192   5.533
 3164SOL    HW110391   6.354   5.234   5.476
 3164SOL    HW210392   6.490   5.144   5.475
 3165SOL     OW10393   0.596   2.896   1.849
 3165SOL    HW110394   0.598   2.796   1.845
 3165SOL    HW210395   0.502   2.926   1.865
 3166SOL     OW10396   4.157   3.020   6.379
 3166SOL    HW110397   4.172   2.929   6.340
 3166SOL    HW210398   4.149   3.086   6.305
 3167SOL     OW10399   0.208   4.821   2.116
 3167SOL    HW110400   0.146   4.802   2.192
 3167SOL    HW210401   0.261   4.903   2.136
 3168SOL     OW10402   6.246   2.749   1.004
 3168SOL    HW110403   6.287   2.750   1.095
 3168SOL    HW210404   6.272   2.664   0.957
 3169SOL     OW10405   2.745   2.266   5.708
 3169SOL    HW110406   2.845   2.263   5.704
 3169SOL    HW210407   2.707   2.267   5.616
 3170SOL     OW10408   3.798   6.928   5.096
 3170SOL    HW110409   3.704   6.935   5.129
 3170SOL    HW210410   3.802   6.862   5.020
 3171SOL     OW10411   5.786   5.902   2.777
 3171SOL    HW110412   5.870   5.869   2.732
 3171SOL    HW210413   5.727   5.825   2.798
 3172SOL     OW10414   5.851   6.892   5.590
 3172SOL    HW110415   5.776   6.917   5.652
 3172SOL    HW210416   5.849   6.794   5.574
 3173SOL     OW10417   1.931   0.976   1.672
 3173SOL    HW110418   1.920   0.879   1.693
 3173SOL    HW210419   1.939   1.028   1.757
 3174SOL     OW10420   2.372   3.214   6.623
 3174SOL    HW110421   2.393   3.183   6.530
 3174SOL    HW210422   2.451   3.200   6.682
 3175SOL     OW10423   0.119   6.553   0.472
 3175SOL    HW110424   0.152   6.635   0.426
 3175SOL    HW210425   0.184   6.478   0.457
 3176SOL     OW10426   1.123   5.368   0.065
 3176SOL    HW110427   1.037   5.403   0.028
 3176SOL    HW210428   1.128   5.269   0.050
 3177SOL     OW10429   0.931   0.132   4.193
 3177SOL    HW110430   0.917   0.189   4.113
 3177SOL    HW210431   1.028   0.132   4.217
 3178SOL     OW10432   3.343   2.972   0.012
 3178SOL    HW110433   3.282   3.018   6.973
 3178SOL    HW210434   3.290   2.921   0.079
 3179SOL     OW10435   1.144   2.499   3.946
 3179SOL    HW110436   1.045   2.518   3.946
 3179SOL    HW210437   1.159   2.401   3.951
 3180SOL     OW10438   6.491   1.190   6.458
 3180SOL    HW110439   6.556   1.133   6.509
 3180SOL    HW210440   6.405   1.141   6.446
 3181SOL     OW10441   0.830   1.774   2.779
 3181SOL    HW110442   0.850   1.835   2.856
 3181SOL    HW210443   0.758   1.815   2.723
 3182SOL     OW10444   1.921   4.893   5.732
 3182SOL    HW110445   1.989   4.954   5.774
 3182SOL    HW210446   1.834   4.902   5.781
 3183SOL     OW10447   4.494   3.706   1.231
 3183SOL    HW110448   4.521   3.621   1.277
 3183SOL    HW210449   4.565   3.775   1.245
 3184SOL     OW10450   0.608   2.168   3.235
 3184SOL    HW110451   0.682   2.231   3.258
 3184SOL    HW210452   0.630   2.077   3.270
 3185SOL     OW10453   0.256   6.463   6.791
 3185SOL    HW110454   0.274   6.439   6.886
 3185SOL    HW210455   0.308   6.403   6.731
 3186SOL     OW10456   3.223   0.089   1.531
 3186SOL    HW110457   3.162   0.167   1.517
 3186SOL    HW210458   3.313   0.111   1.494
 3187SOL     OW10459   3.007   4.171   0.180
 3187SOL    HW110460   3.033   4.099   0.116
 3187SOL    HW210461   3.085   4.231   0.198
 3188SOL     OW10462   3.803   6.836   3.092
 3188SOL    HW110463   3.862   6.833   3.173
 3188SOL    HW210464   3.842   6.780   3.020
 3189SOL     OW10465   6.174   6.499   2.429
 3189SOL    HW110466   6.079   6.531   2.423
 3189SOL    HW210467   6.210   6.485   2.337
 3190SOL     OW10468   1.546   0.232   2.095
 3190SOL    HW110469   1.515   0.241   2.001
 3190SOL    HW210470   1.514   0.145   2.133
 3191SOL     OW10471   3.732   1.289   0.410
 3191SOL    HW110472   3.733   1.348   0.329
 3191SOL    HW210473   3.639   1.281   0.445
 3192SOL     OW10474   5.364   2.847   4.035
 3192SOL    HW110475   5.380   2.777   3.965
 3192SOL    HW210476   5.373   2.807   4.126
 3193SOL     OW10477   5.333   4.363   1.245
 3193SOL    HW110478   5.391   4.420   1.303
 3193SOL    HW210479   5.245   4.347   1.291
 3194SOL     OW10480   2.937   5.547   4.759
 3194SOL    HW110481   3.024   5.545   4.808
 3194SOL    HW210482   2.915   5.455   4.726
 3195SOL     OW10483   6.882   4.401   3.799
 3195SOL    HW110484   6.893   4.306   3.829
 3195SOL    HW210485   6.966   4.432   3.756
 3196SOL     OW10486   6.946   6.423   5.949
 3196SOL    HW110487   6.910   6.375   6.029
 3196SOL    HW210488   7.021   6.483   5.977
 3197SOL     OW10489   1.164   4.471   5.446
 3197SOL    HW110490   1.140   4.374   5.446
 3197SOL    HW210491   1.080   4.525   5.448
 3198SOL     OW10492   5.987   0.054   0.742
 3198SOL    HW110493   5.989   0.078   0.645
 3198SOL    HW210494   6.056   7.010   0.760
 3199SOL     OW10495   3.076   1.455   3.033
 3199SOL    HW110496   3.097   1.368   3.078
 3199SOL    HW210497   3.085   1.529   3.100
 3200SOL     OW10498   6.132   2.091   0.404
 3200SOL    HW110499   6.056   2.128   0.352
 3200SOL    HW210500   6.098   2.030   0.475
 3201SOL     OW10501   4.065   4.810   3.077
 3201SOL    HW110502   3.968   4.837   3.078
 3201SOL    HW210503   4.113   4.858   3.150
 3202SOL     OW10504   1.588   5.117   1.646
 3202SOL    HW110505   1.652   5.169   1.589
 3202SOL    HW210506   1.639   5.048   1.698
 3203SOL     OW10507   4.565   0.209   0.269
 3203SOL    HW110508   4.589   0.156   0.187
 3203SOL    HW210509   4.610   0.169   0.349
 3204SOL     OW10510   6.495   6.560   1.965
 3204SOL    HW110511   6.541   6.648   1.966
 3204SOL    HW210512   6.496   6.522   1.872
 3205SOL     OW10513   1.020   3.842   4.575
 3205SOL    HW110514   1.083   3.773   4.608
 3205SOL    HW210515   1.049   3.872   4.483
 3206SOL     OW10516   1.800   6.765   7.016
 3206SOL    HW110517   1.897   6.749   0.008
 3206SOL    HW210518   1.761   6.684   6.971
 3207SOL     OW10519   1.404   1.786   3.061
 3207SOL    HW110520   1.335   1.731   3.108
 3207SOL    HW210521   1.482   1.728   3.038
 3208SOL     OW10522   6.275   6.782   5.444
 3208SOL    HW110523   6.328   6.727   5.380
 3208SOL    HW210524   6.180   6.788   5.412
 3209SOL     OW10525   0.783   6.644   3.765
 3209SOL    HW110526   0.728   6.562   3.782
 3209SOL    HW210527   0.767   6.676   3.672
 3210SOL     OW10528   0.636   5.904   2.019
 3210SOL    HW110529   0.621   5.817   1.973
 3210SOL    HW210530   0.636   5.978   1.952
 3211SOL     OW10531   0.305   4.367   3.581
 3211SOL    HW110532   0.246   4.405   3.652
 3211SOL    HW210533   0.271   4.276   3.556
 3212SOL     OW10534   4.618   2.726   5.015
 3212SOL    HW110535   4.626   2.667   4.935
 3212SOL    HW210536   4.528   2.711   5.058
 3213SOL     OW10537   5.406   0.176   1.271
 3213SOL    HW110538   5.502   0.202   1.277
 3213SOL    HW210539   5.352   0.236   1.330
 3214SOL     OW10540   4.557   3.967   0.096
 3214SOL    HW110541   4.547   3.934   0.002
 3214SOL    HW210542   4.623   3.910   0.144
 3215SOL     OW10543   6.159   1.519   0.077
 3215SOL    HW110544   6.148   1.614   0.105
 3215SOL    HW210545   6.238   1.511   0.016
 3216SOL     OW10546   5.323   6.477   5.084
 3216SOL    HW110547   5.412   6.440   5.111
 3216SOL    HW210548   5.251   6.426   5.130
 3217SOL     OW10549   6.787   4.693   6.725
 3217SOL    HW110550   6.848   4.684   6.804
 3217SOL    HW210551   6.723   4.616   6.723
 3218SOL     OW10552   4.013   2.307   1.470
 3218SOL    HW110553   3.958   2.347   1.543
 3218SOL    HW210554   3.954   2.250   1.412
 3219SOL     OW10555   0.416   1.410   3.091
 3219SOL    HW110556   0.461   1.454   3.169
 3219SOL    HW210557   0.459   1.440   3.006
 3220SOL     OW10558   6.608   3.224   6.802
 3220SOL    HW110559   6.676   3.258   6.736
 3220SOL    HW210560   6.537   3.292   6.815
 3221SOL     OW10561   3.738   0.726   1.759
 3221SOL    HW110562   3.656   0.670   1.774
 3221SOL    HW210563   3.723   0.816   1.799
 3222SOL     OW10564   6.360   4.196   2.266
 3222SOL    HW110565   6.445   4.198   2.319
 3222SOL    HW210566   6.297   4.265   2.303
 3223SOL     OW10567   1.713   4.305   4.708
 3223SOL    HW110568   1.735   4.208   4.702
 3223SOL    HW210569   1.689   4.328   4.803
 3224SOL     OW10570   3.102   6.065   1.158
 3224SOL    HW110571   3.131   6.002   1.086
 3224SOL    HW210572   3.016   6.109   1.133
 3225SOL     OW10573   1.646   2.620   0.890
 3225SOL    HW110574   1.710   2.658   0.956
 3225SOL    HW210575   1.641   2.680   0.810
 3226SOL     OW10576   6.334   1.396   3.876
 3226SOL    HW110577   6.428   1.401   3.910
 3226SOL    HW210578   6.285   1.323   3.923
 3227SOL     OW10579   2.806   1.777   5.425
 3227SOL    HW110580   2.823   1.805   5.331
 3227SOL    HW210581   2.735   1.836   5.465
 3228SOL     OW10582   4.915   3.412   4.942
 3228SOL    HW110583   4.884   3.507   4.940
 3228SOL    HW210584   4.898   3.374   5.032
 3229SOL     OW10585   4.658   1.651   4.901
 3229SOL    HW110586   4.604   1.720   4.854
 3229SOL    HW210587   4.750   1.687   4.919
 3230SOL     OW10588   1.457   0.069   4.104
 3230SOL    HW110589   1.501   0.052   4.193
 3230SOL    HW210590   1.522   0.111   4.042
 3231SOL     OW10591   4.384   4.353   0.457
 3231SOL    HW110592   4.462   4.378   0.399
 3231SOL    HW210593   4.318   4.427   0.456
 3232SOL     OW10594   1.201   3.744   3.309
 3232SOL    HW110595   1.238   3.661   3.266
 3232SOL    HW210596   1.105   3.730   3.332
 3233SOL     OW10597   2.318   4.220   0.753
 3233SOL    HW110598   2.384   4.148   0.730
 3233SOL    HW210599   2.276   4.255   0.670
 3234SOL     OW10600   6.716   1.757   4.485
 3234SOL    HW110601   6.724   1.658   4.492
 3234SOL    HW210602   6.620   1.783   4.476
 3235SOL     OW10603   6.412   0.886   2.391
 3235SOL    HW110604   6.509   0.864   2.403
 3235SOL    HW210605   6.389   0.967   2.445
 3236SOL     OW10606   0.128   1.982   1.322
 3236SOL    HW110607   0.089   1.957   1.234
 3236SOL    HW210608   0.188   1.909   1.354
 3237SOL     OW10609   2.713   6.112   4.668
 3237SOL    HW110610   2.669   6.193   4.629
 3237SOL    HW210611   2.741   6.050   4.595
 3238SOL     OW10612   6.564   6.619   6.933
 3238SOL    HW110613   6.614   6.534   6.913
 3238SOL    HW210614   6.470   6.610   6.901
 3239SOL     OW10615   1.895   6.112   6.190
 3239SOL    HW110616   1.816   6.174   6.194
 3239SOL    HW210617   1.979   6.163   6.209
 3240SOL     OW10618   1.392   2.240   4.729
 3240SOL    HW110619   1.473   2.194   4.764
 3240SOL    HW210620   1.352   2.297   4.801
 3241SOL     OW10621   3.555   6.561   5.173
 3241SOL    HW110622   3.625   6.550   5.243
 3241SOL    HW210623   3.567   6.491   5.103
 3242SOL     OW10624   2.837   0.516   0.854
 3242SOL    HW110625   2.825   0.597   0.912
 3242SOL    HW210626   2.751   0.495   0.808
 3243SOL     OW10627   4.029   5.414   2.144
 3243SOL    HW110628   3.994   5.355   2.217
 3243SOL    HW210629   4.125   5.391   2.127
 3244SOL     OW10630   1.089   0.117   5.026
 3244SOL    HW110631   1.073   0.040   5.088
 3244SOL    HW210632   1.154   0.090   4.955
 3245SOL     OW10633   3.587   1.642   5.768
 3245SOL    HW110634   3.637   1.589   5.836
 3245SOL    HW210635   3.530   1.711   5.814
 3246SOL     OW10636   5.979   6.532   2.748
 3246SOL    HW110637   5.949   6.458   2.688
 3246SOL    HW210638   5.905   6.598   2.760
 3247SOL     OW10639   6.108   3.181   5.346
 3247SOL    HW110640   6.082   3.256   5.286
 3247SOL    HW210641   6.205   3.159   5.334
 3248SOL     OW10642   5.127   4.141   3.445
 3248SOL    HW110643   5.118   4.230   3.490
 3248SOL    HW210644   5.041   4.090   3.454
 3249SOL     OW10645   3.258   5.405   5.617
 3249SOL    HW110646   3.238   5.352   5.534
 3249SOL    HW210647   3.173   5.427   5.664
 3250SOL     OW10648   4.139   4.635   0.816
 3250SOL    HW110649   4.188   4.717   0.788
 3250SOL    HW210650   4.166   4.558   0.757
 3251SOL     OW10651   2.448   1.280   3.398
 3251SOL    HW110652   2.376   1.349   3.389
 3251SOL    HW210653   2.538   1.325   3.396
 3252SOL     OW10654   3.212   2.053   2.952
 3252SOL    HW110655   3.235   1.959   2.926
 3252SOL    HW210656   3.190   2.106   2.870
 3253SOL     OW10657   5.124   4.372   1.436
 3253SOL    HW110658   5.150   4.310   1.510
 3253SOL    HW210659   5.099   4.461   1.473
 3254SOL     OW10660   6.500   4.142   2.811
 3254SOL    HW110661   6.487   4.204   2.733
 3254SOL    HW210662   6.414   4.132   2.860
 3255SOL     OW10663   3.530   4.958   0.677
 3255SOL    HW110664   3.445   4.959   0.623
 3255SOL    HW210665   3.573   5.048   0.672
 3256SOL     OW10666   6.570   0.534   5.222
 3256SOL    HW110667   6.539   0.454   5.273
 3256SOL    HW210668   6.568   0.614   5.281
 3257SOL     OW10669   2.671   1.182   1.458
 3257SOL    HW110670   2.753   1.128   1.437
 3257SOL    HW210671   2.698   1.275   1.482
 3258SOL     OW10672   5.255   6.584   2.337
 3258SOL    HW110673   5.301   6.669   2.313
 3258SOL    HW210674   5.293   6.509   2.282
 3259SOL     OW10675   5.684   5.536   3.053
 3259SOL    HW110676   5.745   5.615   3.056
 3259SOL    HW210677   5.610   5.549   3.120
 3260SOL     OW10678   2.202   1.480   1.231
 3260SOL    HW110679   2.117   1.453   1.185
 3260SOL    HW210680   2.255   1.539   1.171
 3261SOL     OW10681   4.880   6.740   3.996
 3261SOL    HW110682   4.929   6.781   4.073
 3261SOL    HW210683   4.905   6.643   3.989
 3262SOL     OW10684   4.789   2.096   3.666
 3262SOL    HW110685   4.697   2.124   3.638
 3262SOL    HW210686   4.793   1.996   3.669
 3263SOL     OW10687   3.279   4.901   3.268
 3263SOL    HW110688   3.234   4.843   3.335
 3263SOL    HW210689   3.321   4.843   3.197
 3264SOL     OW10690   5.439   4.316   6.599
 3264SOL    HW110691   5.490   4.386   6.548
 3264SOL    HW210692   5.481   4.302   6.688
 3265SOL     OW10693   5.331   6.898   5.524
 3265SOL    HW110694   5.390   6.819   5.507
 3265SOL    HW210695   5.283   6.885   5.611
 3266SOL     OW10696   1.319   2.471   6.770
 3266SOL    HW110697   1.252   2.468   6.845
 3266SOL    HW210698   1.322   2.563   6.732
 3267SOL     OW10699   5.108   4.135   1.953
 3267SOL    HW110700   5.116   4.224   2.000
 3267SOL    HW210701   5.189   4.080   1.973
 3268SOL     OW10702   1.844   5.288   0.539
 3268SOL    HW110703   1.824   5.190   0.536
 3268SOL    HW210704   1.824   5.329   0.450
 3269SOL     OW10705   4.484   3.001   1.075
 3269SOL    HW110706   4.410   3.058   1.110
 3269SOL    HW210707   4.570   3.027   1.118
 3270SOL     OW10708   6.696   5.573   3.640
 3270SOL    HW110709   6.734   5.535   3.556
 3270SOL    HW210710   6.626   5.641   3.618
 3271SOL     OW10711   4.889   6.694   0.913
 3271SOL    HW110712   4.866   6.784   0.951
 3271SOL    HW210713   4.888   6.698   0.813
 3272SOL     OW10714   4.632   5.773   6.068
 3272SOL    HW110715   4.587   5.688   6.042
 3272SOL    HW210716   4.589   5.810   6.151
 3273SOL     OW10717   0.210   0.329   3.287
 3273SOL    HW110718   0.277   0.278   3.234
 3273SOL    HW210719   0.182   0.275   3.367
 3274SOL     OW10720   2.867   0.791   0.976
 3274SOL    HW110721   2.965   0.813   0.985
 3274SOL    HW210722   2.814   0.876   0.983
 3275SOL     OW10723   4.254   6.942   6.925
 3275SOL    HW110724   4.188   6.932   6.850
 3275SOL    HW210725   4.346   6.945   6.887
 3276SOL     OW10726   1.256   5.727   1.270
 3276SOL    HW110727   1.326   5.729   1.198
 3276SOL    HW210728   1.273   5.802   1.334
 3277SOL     OW10729   0.377   6.041   6.947
 3277SOL    HW110730   0.306   6.057   7.015
 3277SOL    HW210731   0.342   6.063   6.856
 3278SOL     OW10732   1.288   0.271   0.038
 3278SOL    HW110733   1.307   0.176   0.063
 3278SOL    HW210734   1.350   0.300   6.992
 3279SOL     OW10735   2.122   6.489   1.460
 3279SOL    HW110736   2.095   6.541   1.379
 3279SOL    HW210737   2.161   6.551   1.528
 3280SOL     OW10738   2.657   5.918   3.504
 3280SOL    HW110739   2.608   5.854   3.562
 3280SOL    HW210740   2.733   5.871   3.459
 3281SOL     OW10741   1.153   6.318   1.125
 3281SOL    HW110742   1.207   6.292   1.205
 3281SOL    HW210743   1.163   6.416   1.108
 3282SOL     OW10744   1.871   4.926   2.566
 3282SOL    HW110745   1.942   4.996   2.555
 3282SOL    HW210746   1.888   4.851   2.502
 3283SOL     OW10747   1.795   0.609   3.675
 3283SOL    HW110748   1.703   0.609   3.714
 3283SOL    HW210749   1.863   0.606   3.748
 3284SOL     OW10750   1.863   6.098   5.726
 3284SOL    HW110751   1.782   6.127   5.777
 3284SOL    HW210752   1.839   6.085   5.630
 3285SOL     OW10753   0.611   3.069   4.587
 3285SOL    HW110754   0.684   3.082   4.520
 3285SOL    HW210755   0.607   2.973   4.614
 3286SOL     OW10756   5.314   4.617   6.447
 3286SOL    HW110757   5.386   4.550   6.465
 3286SOL    HW210758   5.242   4.606   6.515
 3287SOL     OW10759   0.242   2.643   1.534
 3287SOL    HW110760   0.148   2.648   1.567
 3287SOL    HW210761   0.281   2.735   1.529
 3288SOL     OW10762   0.581   0.185   0.797
 3288SOL    HW110763   0.657   0.196   0.860
 3288SOL    HW210764   0.567   0.269   0.745
 3289SOL     OW10765   1.680   0.203   3.910
 3289SOL    HW110766   1.777   0.184   3.898
 3289SOL    HW210767   1.649   0.266   3.839
 3290SOL     OW10768   6.981   4.801   3.998
 3290SOL    HW110769   6.972   4.822   3.900
 3290SOL    HW210770   6.928   4.719   4.020
 3291SOL     OW10771   0.913   1.999   2.080
 3291SOL    HW110772   0.939   1.904   2.059
 3291SOL    HW210773   0.996   2.055   2.084
 3292SOL     OW10774   0.776   6.083   4.310
 3292SOL    HW110775   0.771   6.059   4.406
 3292SOL    HW210776   0.857   6.141   4.294
 3293SOL     OW10777   6.093   0.411   2.888
 3293SOL    HW110778   6.133   0.332   2.936
 3293SOL    HW210779   6.125   0.411   2.793
 3294SOL     OW10780   6.509   0.061   0.956
 3294SOL    HW110781   6.464   0.026   1.039
 3294SOL    HW210782   6.489   0.000   0.880
 3295SOL     OW10783   3.064   3.283   5.950
 3295SOL    HW110784   2.986   3.345   5.944
 3295SOL    HW210785   3.070   3.228   5.866
 3296SOL     OW10786   0.533   6.601   1.759
 3296SOL    HW110787   0.537   6.544   1.841
 3296SOL    HW210788   0.574   6.551   1.682
 3297SOL     OW10789   3.261   1.021   5.581
 3297SOL    HW110790   3.248   1.102   5.638
 3297SOL    HW210791   3.181   1.008   5.522
 3298SOL     OW10792   0.418   5.177   3.246
 3298SOL    HW110793   0.399   5.198   3.150
 3298SOL    HW210794   0.501   5.224   3.275
 3299SOL     OW10795   1.519   1.330   4.584
 3299SOL    HW110796   1.470   1.368   4.506
 3299SOL    HW210797   1.598   1.278   4.551
 3300SOL     OW10798   0.317   6.896   4.895
 3300SOL    HW110799   0.319   6.836   4.815
 3300SOL    HW210800   0.276   6.984   4.870
 3301SOL     OW10801   6.383   4.421   2.012
 3301SOL    HW110802   6.372   4.469   2.099
 3301SOL    HW210803   6.343   4.329   2.019
 3302SOL     OW10804   1.641   6.185   5.847
 3302SOL    HW110805   1.546   6.215   5.846
 3302SOL    HW210806   1.696   6.249   5.900
 3303SOL     OW10807   3.310   3.387   4.889
 3303SOL    HW110808   3.382   3.374   4.820
 3303SOL    HW210809   3.269   3.477   4.877
 3304SOL     OW10810   1.587   0.943   3.956
 3304SOL    HW110811   1.654   0.913   3.888
 3304SOL    HW210812   1.495   0.915   3.927
 3305SOL     OW10813   0.790   2.318   0.451
 3305SOL    HW110814   0.815   2.309   0.547
 3305SOL    HW210815   0.695   2.289   0.439
 3306SOL     OW10816   1.628   1.596   1.176
 3306SOL    HW110817   1.713   1.551   1.204
 3306SOL    HW210818   1.633   1.618   1.079
 3307SOL     OW10819   0.426   6.974   0.008
 3307SOL    HW110820   0.502   0.002   6.997
 3307SOL    HW210821   0.403   6.901   6.969
 3308SOL     OW10822   5.339   5.951   0.742
 3308SOL    HW110823   5.425   5.993   0.715
 3308SOL    HW210824   5.294   6.008   0.811
 3309SOL     OW10825   0.934   4.503   1.899
 3309SOL    HW110826   1.004   4.513   1.828
 3309SOL    HW210827   0.924   4.406   1.921
 3310SOL     OW10828   2.052   5.994   1.767
 3310SOL    HW110829   2.018   6.086   1.785
 3310SOL    HW210830   2.118   5.998   1.691
 3311SOL     OW10831   4.093   5.409   0.983
 3311SOL    HW110832   4.165   5.401   1.052
 3311SOL    HW210833   4.121   5.475   0.913
 3312SOL     OW10834   2.019   2.371   6.454
 3312SOL    HW110835   2.053   2.353   6.362
 3312SOL    HW210836   2.062   2.453   6.491
 3313SOL     OW10837   5.804   6.644   5.242
 3313SOL    HW110838   5.767   6.570   5.297
 3313SOL    HW210839   5.744   6.724   5.247
 3314SOL     OW10840   0.777   4.230   6.080
 3314SOL    HW110841   0.728   4.231   5.993
 3314SOL    HW210842   0.734   4.164   6.142
 3315SOL     OW10843   5.858   3.048   2.915
 3315SOL    HW110844   5.924   3.124   2.918
 3315SOL    HW210845   5.893   2.972   2.969
 3316SOL     OW10846   3.618   0.271   6.938
 3316SOL    HW110847   3.707   0.229   6.923
 3316SOL    HW210848   3.604   0.286   0.010
 3317SOL     OW10849   5.177   3.062   1.132
 3317SOL    HW110850   5.146   2.969   1.116
 3317SOL    HW210851   5.270   3.060   1.169
 3318SOL     OW10852   2.316   4.918   6.523
 3318SOL    HW110853   2.395   4.886   6.574
 3318SOL    HW210854   2.235   4.867   6.551
 3319SOL     OW10855   0.855   5.971   6.298
 3319SOL    HW110856   0.756   5.981   6.292
 3319SOL    HW210857   0.886   5.998   6.389
 3320SOL     OW10858   1.254   0.832   1.424
 3320SOL    HW110859   1.216   0.887   1.498
 3320SOL    HW210860   1.348   0.861   1.406
 3321SOL     OW10861   3.690   3.647   4.398
 3321SOL    HW110862   3.672   3.681   4.306
 3321SOL    HW210863   3.621   3.579   4.422
 3322SOL     OW10864   4.919   3.446   2.709
 3322SOL    HW110865   4.947   3.418   2.617
 3322SOL    HW210866   4.910   3.545   2.712
 3323SOL     OW10867   1.345   4.665   0.540
 3323SOL    HW110868   1.249   4.657   0.570
 3323SOL    HW210869   1.349   4.717   0.455
 3324SOL     OW10870   6.638   3.563   1.737
 3324SOL    HW110871   6.641   3.465   1.720
 3324SOL    HW210872   6.621   3.612   1.652
 3325SOL     OW10873   1.081   5.045   5.025
 3325SOL    HW110874   1.004   5.018   5.083
 3325SOL    HW210875   1.141   5.107   5.076
 3326SOL     OW10876   4.867   6.888   2.240
 3326SOL    HW110877   4.797   6.900   2.310
 3326SOL    HW210878   4.957   6.910   2.278
 3327SOL     OW10879   4.759   6.171   1.396
 3327SOL    HW110880   4.796   6.238   1.332
 3327SOL    HW210881   4.716   6.218   1.473
 3328SOL     OW10882   6.068   6.558   3.806
 3328SOL    HW110883   6.165   6.576   3.785
 3328SOL    HW210884   6.011   6.628   3.763
 3329SOL     OW10885   5.650   0.238   6.300
 3329SOL    HW110886   5.563   0.198   6.272
 3329SOL    HW210887   5.668   0.215   6.396
 3330SOL     OW10888   6.102   0.109   2.892
 3330SOL    HW110889   6.101   0.016   2.857
 3330SOL    HW210890   6.142   0.110   2.983
 3331SOL     OW10891   0.873   3.382   2.457
 3331SOL    HW110892   0.834   3.469   2.486
 3331SOL    HW210893   0.876   3.319   2.534
 3332SOL     OW10894   4.130   5.085   0.828
 3332SOL    HW110895   4.041   5.048   0.853
 3332SOL    HW210896   4.118   5.175   0.785
 3333SOL     OW10897   2.464   4.092   1.033
 3333SOL    HW110898   2.547   4.118   1.083
 3333SOL    HW210899   2.409   4.174   1.016
 3334SOL     OW10900   1.781   2.712   2.440
 3334SOL    HW110901   1.835   2.670   2.513
 3334SOL    HW210902   1.835   2.782   2.395
 3335SOL     OW10903   4.743   3.944   6.194
 3335SOL    HW110904   4.686   3.882   6.248
 3335SOL    HW210905   4.704   4.036   6.196
 3336SOL     OW10906   3.672   5.643   5.779
 3336SOL    HW110907   3.658   5.555   5.824
 3336SOL    HW210908   3.601   5.657   5.711
 3337SOL     OW10909   3.058   3.945   4.080
 3337SOL    HW110910   3.098   4.002   4.152
 3337SOL    HW210911   3.002   3.874   4.121
 3338SOL     OW10912   3.301   2.765   1.598
 3338SOL    HW110913   3.202   2.762   1.612
 3338SOL    HW210914   3.321   2.761   1.500
 3339SOL     OW10915   1.001   6.964   6.061
 3339SOL    HW110916   1.013   6.985   6.158
 3339SOL    HW210917   0.966   0.019   6.013
 3340SOL     OW10918   4.713   1.446   6.388
 3340SOL    HW110919   4.652   1.434   6.466
 3340SOL    HW210920   4.659   1.457   6.305
 3341SOL     OW10921   1.176   4.354   1.366
 3341SOL    HW110922   1.180   4.331   1.268
 3341SOL    HW210923   1.257   4.319   1.412
 3342SOL     OW10924   5.679   0.433   2.447
 3342SOL    HW110925   5.678   0.398   2.353
 3342SOL    HW210926   5.774   0.445   2.477
 3343SOL     OW10927   3.645   4.995   1.020
 3343SOL    HW110928   3.707   5.037   1.087
 3343SOL    HW210929   3.574   4.944   1.068
 3344SOL     OW10930   1.210   3.332   1.532
 3344SOL    HW110931   1.233   3.405   1.596
 3344SOL    HW210932   1.293   3.283   1.506
 3345SOL     OW10933   4.932   4.938   0.893
 3345SOL    HW110934   4.975   4.851   0.917
 3345SOL    HW210935   5.002   5.004   0.868
 3346SOL     OW10936   1.312   0.952   6.805
 3346SOL    HW110937   1.376   0.930   6.731
 3346SOL    HW210938   1.230   0.994   6.766
 3347SOL     OW10939   0.951   3.318   5.624
 3347SOL    HW110940   0.892   3.238   5.620
 3347SOL    HW210941   0.895   3.401   5.622
 3348SOL     OW10942   3.367   3.953   5.996
 3348SOL    HW110943   3.330   3.872   5.950
 3348SOL    HW210944   3.446   3.927   6.051
 3349SOL     OW10945   2.181   5.140   2.076
 3349SOL    HW110946   2.237   5.076   2.128
 3349SOL    HW210947   2.149   5.096   1.992
 3350SOL     OW10948   3.248   5.709   4.023
 3350SOL    HW110949   3.220   5.669   4.110
 3350SOL    HW210950   3.318   5.651   3.981
 3351SOL     OW10951   5.539   6.982   1.617
 3351SOL    HW110952   5.628   6.938   1.632
 3351SOL    HW210953   5.474   6.951   1.686
 3352SOL     OW10954   5.815   1.006   0.282
 3352SOL    HW110955   5.889   0.939   0.280
 3352SOL    HW210956   5.742   0.977   0.220
 3353SOL     OW10957   4.049   0.763   5.957
 3353SOL    HW110958   3.972   0.771   6.021
 3353SOL    HW210959   4.135   0.770   6.007
 3354SOL     OW10960   2.625   1.926   0.202
 3354SOL    HW110961   2.692   1.885   0.140
 3354SOL    HW210962   2.651   1.904   0.296
 3355SOL     OW10963   1.062   1.844   5.424
 3355SOL    HW110964   1.144   1.899   5.441
 3355SOL    HW210965   0.981   1.901   5.430
 3356SOL     OW10966   2.998   0.488   5.343
 3356SOL    HW110967   3.084   0.529   5.315
 3356SOL    HW210968   2.982   0.506   5.440
 3357SOL     OW10969   3.070   3.950   4.398
 3357SOL    HW110970   3.028   3.878   4.343
 3357SOL    HW210971   3.005   3.981   4.468
 3358SOL     OW10972   6.764   1.868   1.609
 3358SOL    HW110973   6.859   1.895   1.626
 3358SOL    HW210974   6.722   1.933   1.545
 3359SOL     OW10975   1.311   6.873   3.979
 3359SOL    HW110976   1.216   6.884   3.948
 3359SOL    HW210977   1.341   6.956   4.025
 3360SOL     OW10978   1.024   5.316   4.741
 3360SOL    HW110979   1.041   5.372   4.660
 3360SOL    HW210980   1.105   5.317   4.800
 3361SOL     OW10981   0.462   6.959   4.470
 3361SOL    HW110982   0.441   6.862   4.482
 3361SOL    HW210983   0.409   6.996   4.394
 3362SOL     OW10984   3.160   0.919   5.151
 3362SOL    HW110985   3.114   0.840   5.108
 3362SOL    HW210986   3.239   0.944   5.096
 3363SOL     OW10987   5.115   3.450   0.630
 3363SOL    HW110988   5.021   3.462   0.660
 3363SOL    HW210989   5.162   3.538   0.630
 3364SOL     OW10990   1.672   3.143   1.232
 3364SOL    HW110991   1.573   3.131   1.230
 3364SOL    HW210992   1.700   3.200   1.155
 3365SOL     OW10993   0.691   2.666   2.858
 3365SOL    HW110994   0.666   2.587   2.914
 3365SOL    HW210995   0.780   2.701   2.887
 3366SOL     OW10996   5.776   3.669   3.435
 3366SOL    HW110997   5.722   3.745   3.470
 3366SOL    HW210998   5.717   3.608   3.382
 3367SOL     OW10999   3.250   4.101   3.817
 3367SOL    HW111000   3.245   4.001   3.815
 3367SOL    HW211001   3.322   4.129   3.882
 3368SOL     OW11002   1.376   1.061   3.677
 3368SOL    HW111003   1.455   1.017   3.634
 3368SOL    HW211004   1.338   1.129   3.614
 3369SOL     OW11005   5.524   2.807   0.654
 3369SOL    HW111006   5.462   2.809   0.575
 3369SOL    HW211007   5.474   2.833   0.736
 3370SOL     OW11008   0.601   5.716   3.425
 3370SOL    HW111009   0.595   5.770   3.342
 3370SOL    HW211010   0.512   5.675   3.445
 3371SOL     OW11011   2.511   2.899   1.119
 3371SOL    HW111012   2.609   2.884   1.112
 3371SOL    HW211013   2.481   2.961   1.047
 3372SOL     OW11014   5.209   3.064   2.951
 3372SOL    HW111015   5.269   3.112   3.015
 3372SOL    HW211016   5.205   3.115   2.865
 3373SOL     OW11017   0.465   4.781   1.114
 3373SOL    HW111018   0.493   4.824   1.028
 3373SOL    HW211019   0.412   4.846   1.168
 3374SOL     OW11020   1.194   5.626   3.894
 3374SOL    HW111021   1.098   5.656   3.893
 3374SOL    HW211022   1.204   5.547   3.833
 3375SOL     OW11023   6.954   6.912   5.459
 3375SOL    HW111024   6.957   6.960   5.547
 3375SOL    HW211025   0.014   6.862   5.445
 3376SOL     OW11026   3.501   3.764   4.851
 3376SOL    HW111027   3.511   3.842   4.912
 3376SOL    HW211028   3.576   3.763   4.785
 3377SOL     OW11029   6.778   5.621   4.426
 3377SOL    HW111030   6.684   5.589   4.433
 3377SOL    HW211031   6.825   5.571   4.355
 3378SOL     OW11032   1.311   5.771   0.480
 3378SOL    HW111033   1.232   5.828   0.454
 3378SOL    HW211034   1.362   5.746   0.398
 3379SOL     OW11035   6.146   4.740   3.691
 3379SOL    HW111036   6.121   4.702   3.780
 3379SOL    HW211037   6.213   4.813   3.704
 3380SOL     OW11038   1.585   4.490   1.879
 3380SOL    HW111039   1.658   4.557   1.895
 3380SOL    HW211040   1.518   4.495   1.953
 3381SOL     OW11041   2.894   4.113   6.523
 3381SOL    HW111042   2.904   4.146   6.617
 3381SOL    HW211043   2.835   4.176   6.472
 3382SOL     OW11044   0.262   4.170   6.443
 3382SOL    HW111045   0.187   4.224   6.480
 3382SOL    HW211046   0.240   4.072   6.449
 3383SOL     OW11047   3.494   6.099   0.245
 3383SOL    HW111048   3.515   6.150   0.329
 3383SOL    HW211049   3.507   6.159   0.166
 3384SOL     OW11050   3.691   2.587   6.118
 3384SOL    HW111051   3.599   2.552   6.097
 3384SOL    HW211052   3.707   2.579   6.216
 3385SOL     OW11053   6.011   2.247   4.570
 3385SOL    HW111054   5.935   2.275   4.628
 3385SOL    HW211055   6.044   2.157   4.598
 3386SOL     OW11056   0.292   4.960   5.724
 3386SOL    HW111057   0.311   5.057   5.734
 3386SOL    HW211058   0.195   4.943   5.738
 3387SOL     OW11059   5.905   0.607   2.738
 3387SOL    HW111060   5.984   0.661   2.769
 3387SOL    HW211061   5.892   0.530   2.800
 3388SOL     OW11062   1.025   3.917   0.746
 3388SOL    HW111063   1.018   4.013   0.719
 3388SOL    HW211064   0.958   3.863   0.695
 3389SOL     OW11065   6.346   5.650   5.742
 3389SOL    HW111066   6.424   5.586   5.746
 3389SOL    HW211067   6.264   5.605   5.777
 3390SOL     OW11068   2.880   4.670   0.833
 3390SOL    HW111069   2.840   4.614   0.760
 3390SOL    HW211070   2.808   4.701   0.895
 3391SOL     OW11071   5.296   3.913   5.686
 3391SOL    HW111072   5.367   3.966   5.732
 3391SOL    HW211073   5.319   3.904   5.589
 3392SOL     OW11074   4.967   5.751   5.707
 3392SOL    HW111075   5.014   5.663   5.715
 3392SOL    HW211076   4.984   5.790   5.617
 3393SOL     OW11077   3.429   0.829   0.681
 3393SOL    HW111078   3.350   0.778   0.716
 3393SOL    HW211079   3.464   0.783   0.599
 3394SOL     OW11080   2.919   5.872   1.797
 3394SOL    HW111081   2.998   5.924   1.831
 3394SOL    HW211082   2.867   5.835   1.874
 3395SOL     OW11083   1.734   6.102   3.374
 3395SOL    HW111084   1.715   6.006   3.353
 3395SOL    HW211085   1.684   6.128   3.457
 3396SOL     OW11086   3.839   0.413   4.062
 3396SOL    HW111087   3.938   0.411   4.051
 3396SOL    HW211088   3.816   0.432   4.158
 3397SOL     OW11089   2.835   6.091   1.630
 3397SOL    HW111090   2.866   6.000   1.657
 3397SOL    HW211091   2.893   6.125   1.556
 3398SOL     OW11092   6.907   0.495   0.475
 3398SOL    HW111093   6.929   0.572   0.535
 3398SOL    HW211094   6.985   0.433   0.470
 3399SOL     OW11095   6.474   6.295   2.182
 3399SOL    HW111096   6.442   6.368   2.120
 3399SOL    HW211097   6.416   6.215   2.171
 3400SOL     OW11098   3.463   3.414   5.404
 3400SOL    HW111099   3.531   3.390   5.474
 3400SOL    HW211100   3.422   3.502   5.427
 3401SOL     OW11101   6.497   3.738   3.833
 3401SOL    HW111102   6.555   3.787   3.768
 3401SOL    HW211103   6.485   3.793   3.916
 3402SOL     OW11104   6.284   3.931   0.457
 3402SOL    HW111105   6.209   3.941   0.522
 3402SOL    HW211106   6.364   3.893   0.504
 3403SOL     OW11107   5.547   6.874   3.825
 3403SOL    HW111108   5.473   6.941   3.816
 3403SOL    HW211109   5.634   6.922   3.834
 3404SOL     OW11110   5.342   4.971   2.705
 3404SOL    HW111111   5.283   5.035   2.655
 3404SOL    HW211112   5.382   5.018   2.784
 3405SOL     OW11113   4.415   0.128   1.388
 3405SOL    HW111114   4.374   0.101   1.475
 3405SOL    HW211115   4.495   0.069   1.369
 3406SOL     OW11116   4.331   5.417   1.091
 3406SOL    HW111117   4.397   5.362   1.040
 3406SOL    HW211118   4.376   5.499   1.127
 3407SOL     OW11119   2.027   1.511   0.823
 3407SOL    HW111120   1.969   1.578   0.777
 3407SOL    HW211121   1.989   1.419   0.810
 3408SOL     OW11122   3.299   0.057   3.599
 3408SOL    HW111123   3.214   0.036   3.551
 3408SOL    HW211124   3.285   0.136   3.658
 3409SOL     OW11125   4.474   2.432   6.783
 3409SOL    HW111126   4.395   2.437   6.721
 3409SOL    HW211127   4.462   2.354   6.846
 3410SOL     OW11128   6.487   1.339   2.740
 3410SOL    HW111129   6.422   1.266   2.719
 3410SOL    HW211130   6.438   1.415   2.782
 3411SOL     OW11131   5.695   3.007   6.419
 3411SOL    HW111132   5.640   3.083   6.453
 3411SOL    HW211133   5.645   2.958   6.347
 3412SOL     OW11134   5.165   3.481   3.356
 3412SOL    HW111135   5.100   3.432   3.297
 3412SOL    HW211136   5.116   3.549   3.410
 3413SOL     OW11137   1.127   2.873   0.612
 3413SOL    HW111138   1.106   2.886   0.709
 3413SOL    HW211139   1.042   2.866   0.560
 3414SOL     OW11140   3.800   3.131   2.041
 3414SOL    HW111141   3.701   3.129   2.033
 3414SOL    HW211142   3.832   3.225   2.029
 3415SOL     OW11143   2.593   0.489   6.687
 3415SOL    HW111144   2.516   0.530   6.638
 3415SOL    HW211145   2.676   0.500   6.633
 3416SOL     OW11146   5.420   6.422   6.004
 3416SOL    HW111147   5.367   6.507   6.004
 3416SOL    HW211148   5.382   6.359   5.936
 3417SOL     OW11149   6.097   0.984   2.111
 3417SOL    HW111150   6.005   0.977   2.149
 3417SOL    HW211151   6.120   1.080   2.097
 3418SOL     OW11152   4.269   5.008   1.429
 3418SOL    HW111153   4.260   4.949   1.348
 3418SOL    HW211154   4.301   4.953   1.506
 3419SOL     OW11155   3.069   4.805   5.197
 3419SOL    HW111156   3.050   4.709   5.172
 3419SOL    HW211157   2.996   4.863   5.160
 3420SOL     OW11158   5.127   0.869   1.892
 3420SOL    HW111159   5.102   0.964   1.872
 3420SOL    HW211160   5.080   0.840   1.975
 3421SOL     OW11161   0.528   1.753   4.180
 3421SOL    HW111162   0.477   1.818   4.125
 3421SOL    HW211163   0.582   1.802   4.248
 3422SOL     OW11164   3.068   4.740   1.361
 3422SOL    HW111165   2.989   4.776   1.311
 3422SOL    HW211166   3.084   4.796   1.442
 3423SOL     OW11167   1.690   4.964   5.550
 3423SOL    HW111168   1.788   4.946   5.560
 3423SOL    HW211169   1.673   5.063   5.559
 3424SOL     OW11170   5.423   6.054   2.423
 3424SOL    HW111171   5.376   6.038   2.337
 3424SOL    HW211172   5.378   6.127   2.473
 3425SOL     OW11173   5.458   2.540   6.182
 3425SOL    HW111174   5.410   2.616   6.225
 3425SOL    HW211175   5.500   2.483   6.253
 3426SOL     OW11176   6.541   5.514   6.325
 3426SOL    HW111177   6.619   5.560   6.283
 3426SOL    HW211178   6.480   5.583   6.364
 3427SOL     OW11179   1.672   1.477   6.750
 3427SOL    HW111180   1.576   1.478   6.720
 3427SOL    HW211181   1.714   1.564   6.726
 3428SOL     OW11182   4.228   0.921   4.215
 3428SOL    HW111183   4.228   1.020   4.199
 3428SOL    HW211184   4.299   0.898   4.281
 3429SOL     OW11185   4.991   5.464   0.421
 3429SOL    HW111186   5.028   5.541   0.473
 3429SOL    HW211187   5.026   5.378   0.459
 3430SOL     OW11188   2.659   4.067   6.965
 3430SOL    HW111189   2.729   4.031   6.904
 3430SOL    HW211190   2.569   4.054   6.924
 3431SOL     OW11191   1.461   3.882   2.136
 3431SOL    HW111192   1.504   3.926   2.057
 3431SOL    HW211193   1.453   3.949   2.210
 3432SOL     OW11194   0.208   5.380   6.313
 3432SOL    HW111195   0.141   5.402   6.384
 3432SOL    HW211196   0.242   5.287   6.327
 3433SOL     OW11197   0.669   1.542   0.071
 3433SOL    HW111198   0.628   1.566   7.009
 3433SOL    HW211199   0.612   1.577   0.145
 3434SOL     OW11200   4.165   2.201   1.933
 3434SOL    HW111201   4.230   2.131   1.906
 3434SOL    HW211202   4.086   2.158   1.978
 3435SOL     OW11203   3.025   2.650   1.130
 3435SOL    HW111204   2.953   2.615   1.069
 3435SOL    HW211205   3.085   2.575   1.158
 3436SOL     OW11206   4.351   5.553   5.465
 3436SOL    HW111207   4.443   5.552   5.504
 3436SOL    HW211208   4.285   5.525   5.534
 3437SOL     OW11209   2.713   6.081   0.690
 3437SOL    HW111210   2.622   6.121   0.690
 3437SOL    HW211211   2.726   6.027   0.774
 3438SOL     OW11212   2.827   4.209   0.377
 3438SOL    HW111213   2.743   4.173   0.336
 3438SOL    HW211214   2.900   4.211   0.308
 3439SOL     OW11215   3.185   5.871   0.975
 3439SOL    HW111216   3.215   5.874   0.879
 3439SOL    HW211217   3.180   5.775   1.005
 3440SOL     OW11218   4.103   4.782   5.573
 3440SOL    HW111219   4.020   4.836   5.586
 3440SOL    HW211220   4.134   4.748   5.662
 3441SOL     OW11221   0.140   5.758   5.644
 3441SOL    HW111222   0.207   5.831   5.654
 3441SOL    HW211223   0.150   5.716   5.554
 3442SOL     OW11224   1.604   1.958   0.647
 3442SOL    HW111225   1.574   2.053   0.646
 3442SOL    HW211226   1.702   1.954   0.629
 3443SOL     OW11227   6.633   5.569   2.507
 3443SOL    HW111228   6.647   5.546   2.411
 3443SOL    HW211229   6.545   5.616   2.517
 3444SOL     OW11230   1.125   3.936   6.197
 3444SOL    HW111231   1.148   4.000   6.271
 3444SOL    HW211232   1.187   3.950   6.120
 3445SOL     OW11233   5.876   5.220   4.656
 3445SOL    HW111234   5.889   5.196   4.752
 3445SOL    HW211235   5.916   5.150   4.597
 3446SOL     OW11236   5.189   1.456   6.977
 3446SOL    HW111237   5.101   1.498   6.999
 3446SOL    HW211238   5.262   1.522   6.992
 3447SOL     OW11239   4.940   1.605   6.060
 3447SOL    HW111240   4.919   1.595   5.963
 3447SOL    HW211241   4.871   1.664   6.103
 3448SOL     OW11242   0.715   5.400   4.655
 3448SOL    HW111243   0.689   5.350   4.738
 3448SOL    HW211244   0.770   5.480   4.680
 3449SOL     OW11245   1.262   4.165   4.610
 3449SOL    HW111246   1.340   4.214   4.571
 3449SOL    HW211247   1.227   4.216   4.689
 3450SOL     OW11248   1.866   6.356   3.547
 3450SOL    HW111249   1.867   6.264   3.588
 3450SOL    HW211250   1.772   6.390   3.543
 3451SOL     OW11251   2.212   1.932   1.165
 3451SOL    HW111252   2.137   1.963   1.106
 3451SOL    HW211253   2.298   1.972   1.134
 3452SOL     OW11254   4.390   1.105   5.206
 3452SOL    HW111255   4.478   1.118   5.251
 3452SOL    HW211256   4.402   1.050   5.124
 3453SOL     OW11257   4.311   6.254   5.454
 3453SOL    HW111258   4.378   6.272   5.526
 3453SOL    HW211259   4.359   6.228   5.370
 3454SOL     OW11260   1.447   3.300   4.353
 3454SOL    HW111261   1.465   3.395   4.328
 3454SOL    HW211262   1.381   3.297   4.429
 3455SOL     OW11263   1.699   3.915   5.833
 3455SOL    HW111264   1.656   3.855   5.766
 3455SOL    HW211265   1.759   3.980   5.786
 3456SOL     OW11266   4.245   5.656   2.694
 3456SOL    HW111267   4.223   5.573   2.643
 3456SOL    HW211268   4.172   5.678   2.758
 3457SOL     OW11269   3.744   3.855   0.305
 3457SOL    HW111270   3.722   3.835   0.401
 3457SOL    HW211271   3.764   3.769   0.258
 3458SOL     OW11272   3.607   1.857   0.985
 3458SOL    HW111273   3.523   1.912   0.977
 3458SOL    HW211274   3.685   1.912   0.954
 3459SOL     OW11275   6.494   0.574   2.816
 3459SOL    HW111276   6.430   0.520   2.761
 3459SOL    HW211277   6.584   0.530   2.815
 3460SOL     OW11278   4.878   1.454   5.094
 3460SOL    HW111279   4.883   1.535   5.036
 3460SOL    HW211280   4.875   1.481   5.190
 3461SOL     OW11281   4.389   4.631   3.864
 3461SOL    HW111282   4.438   4.717   3.882
 3461SOL    HW211283   4.453   4.555   3.865
 3462SOL     OW11284   1.421   4.335   6.787
 3462SOL    HW111285   1.423   4.236   6.782
 3462SOL    HW211286   1.494   4.367   6.848
 3463SOL     OW11287   6.303   4.095   0.018
 3463SOL    HW111288   6.294   3.996   0.008
 3463SOL    HW211289   6.285   4.121   0.112
 3464SOL     OW11290   6.928   5.179   4.515
 3464SOL    HW111291   6.845   5.227   4.544
 3464SOL    HW211292   6.935   5.092   4.564
 3465SOL     OW11293   0.909   2.730   1.420
 3465SOL    HW111294   0.863   2.811   1.456
 3465SOL    HW211295   0.863   2.701   1.336
 3466SOL     OW11296   5.851   3.847   3.233
 3466SOL    HW111297   5.864   3.782   3.308
 3466SOL    HW211298   5.881   3.805   3.147
 3467SOL     OW11299   2.047   1.607   5.924
 3467SOL    HW111300   2.095   1.519   5.928
 3467SOL    HW211301   1.996   1.621   6.009
 3468SOL     OW11302   5.472   4.851   1.850
 3468SOL    HW111303   5.439   4.945   1.845
 3468SOL    HW211304   5.397   4.788   1.833
 3469SOL     OW11305   5.719   3.644   0.760
 3469SOL    HW111306   5.814   3.671   0.778
 3469SOL    HW211307   5.684   3.592   0.837
 3470SOL     OW11308   6.542   5.960   6.968
 3470SOL    HW111309   6.520   5.981   0.037
 3470SOL    HW211310   6.479   5.890   6.934
 3471SOL     OW11311   4.337   0.201   4.375
 3471SOL    HW111312   4.328   0.198   4.276
 3471SOL    HW211313   4.315   0.111   4.413
 3472SOL     OW11314   3.388   1.023   4.653
 3472SOL    HW111315   3.297   1.056   4.625
 3472SOL    HW211316   3.400   0.928   4.622
 3473SOL     OW11317   4.762   0.420   3.983
 3473SOL    HW111318   4.669   0.436   4.018
 3473SOL    HW211319   4.816   0.374   4.053
 3474SOL     OW11320   5.478   4.914   0.398
 3474SOL    HW111321   5.435   4.859   0.327
 3474SOL    HW211322   5.577   4.902   0.394
 3475SOL     OW11323   2.007   5.924   5.181
 3475SOL    HW111324   1.951   6.006   5.170
 3475SOL    HW211325   2.067   5.914   5.101
 3476SOL     OW11326   3.141   1.634   3.208
 3476SOL    HW111327   3.230   1.673   3.233
 3476SOL    HW211328   3.078   1.645   3.285
 3477SOL     OW11329   4.564   5.570   2.978
 3477SOL    HW111330   4.515   5.606   2.898
 3477SOL    HW211331   4.645   5.519   2.948
 3478SOL     OW11332   3.708   4.643   0.188
 3478SOL    HW111333   3.682   4.555   0.227
 3478SOL    HW211334   3.695   4.715   0.256
 3479SOL     OW11335   1.812   0.353   0.244
 3479SOL    HW111336   1.831   0.447   0.271
 3479SOL    HW211337   1.892   0.296   0.263
 3480SOL     OW11338   1.237   6.308   4.385
 3480SOL    HW111339   1.139   6.294   4.403
 3480SOL    HW211340   1.269   6.386   4.437
 3481SOL     OW11341   2.311   4.564   0.318
 3481SOL    HW111342   2.223   4.594   0.355
 3481SOL    HW211343   2.358   4.507   0.386
 3482SOL     OW11344   0.152   1.975   2.107
 3482SOL    HW111345   0.148   2.065   2.063
 3482SOL    HW211346   0.089   1.973   2.185
 3483SOL     OW11347   3.947   1.544   1.177
 3483SOL    HW111348   3.901   1.542   1.266
 3483SOL    HW211349   3.951   1.451   1.140
 3484SOL     OW11350   3.442   4.195   3.659
 3484SOL    HW111351   3.356   4.168   3.701
 3484SOL    HW211352   3.425   4.258   3.583
 3485SOL     OW11353   6.407   2.335   3.945
 3485SOL    HW111354   6.400   2.401   4.020
 3485SOL    HW211355   6.327   2.343   3.885
 3486SOL     OW11356   6.262   1.580   2.721
 3486SOL    HW111357   6.309   1.665   2.745
 3486SOL    HW211358   6.184   1.567   2.782
 3487SOL     OW11359   1.521   6.356   1.265
 3487SOL    HW111360   1.527   6.324   1.170
 3487SOL    HW211361   1.612   6.355   1.306
 3488SOL     OW11362   6.347   3.481   5.171
 3488SOL    HW111363   6.370   3.404   5.230
 3488SOL    HW211364   6.307   3.554   5.226
 3489SOL     OW11365   2.951   5.485   6.804
 3489SOL    HW111366   2.929   5.465   6.708
 3489SOL    HW211367   2.896   5.427   6.864
 3490SOL     OW11368   5.627   3.568   0.137
 3490SOL    HW111369   5.537   3.536   0.106
 3490SOL    HW211370   5.688   3.489   0.149
 3491SOL     OW11371   5.887   2.606   5.209
 3491SOL    HW111372   5.944   2.631   5.132
 3491SOL    HW211373   5.917   2.655   5.291
 3492SOL     OW11374   0.510   4.744   6.418
 3492SOL    HW111375   0.550   4.653   6.409
 3492SOL    HW211376   0.581   4.809   6.442
 3493SOL     OW11377   6.714   4.829   1.192
 3493SOL    HW111378   6.754   4.742   1.222
 3493SOL    HW211379   6.700   4.826   1.093
 3494SOL     OW11380   3.308   0.171   0.829
 3494SOL    HW111381   3.292   0.133   0.919
 3494SOL    HW211382   3.234   0.234   0.805
 3495SOL     OW11383   5.915   4.429   5.763
 3495SOL    HW111384   5.829   4.387   5.792
 3495SOL    HW211385   5.990   4.392   5.817
 3496SOL     OW11386   0.590   6.241   1.492
 3496SOL    HW111387   0.524   6.239   1.417
 3496SOL    HW211388   0.678   6.205   1.461
 3497SOL     OW11389   2.825   0.306   5.243
 3497SOL    HW111390   2.904   0.362   5.270
 3497SOL    HW211391   2.848   0.251   5.164
 3498SOL     OW11392   1.159   2.096   0.219
 3498SOL    HW111393   1.060   2.111   0.221
 3498SOL    HW211394   1.188   2.076   0.126
 3499SOL     OW11395   6.669   4.147   3.038
 3499SOL    HW111396   6.609   4.118   2.963
 3499SOL    HW211397   6.761   4.165   3.003
 3500SOL     OW11398   6.586   2.450   0.959
 3500SOL    HW111399   6.671   2.491   0.992
 3500SOL    HW211400   6.600   2.417   0.865
 3501SOL     OW11401   6.881   5.310   3.106
 3501SOL    HW111402   6.786   5.313   3.077
 3501SOL    HW211403   6.933   5.380   3.057
 3502SOL     OW11404   0.637   6.569   1.489
 3502SOL    HW111405   0.609   6.473   1.501
 3502SOL    HW211406   0.645   6.589   1.392
 3503SOL     OW11407   2.715   0.772   3.638
 3503SOL    HW111408   2.763   0.695   3.596
 3503SOL    HW211409   2.757   0.858   3.609
 3504SOL     OW11410   2.205   2.994   2.547
 3504SOL    HW111411   2.184   3.039   2.460
 3504SOL    HW211412   2.249   3.060   2.609
 3505SOL     OW11413   3.954   6.619   4.585
 3505SOL    HW111414   3.886   6.552   4.555
 3505SOL    HW211415   4.019   6.635   4.510
 3506SOL     OW11416   6.743   3.909   2.693
 3506SOL    HW111417   6.813   3.970   2.655
 3506SOL    HW211418   6.653   3.953   2.683
 3507SOL     OW11419   6.840   0.257   5.458
 3507SOL    HW111420   6.824   0.355   5.447
 3507SOL    HW211421   6.752   0.210   5.471
 3508SOL     OW11422   0.414   4.825   6.707
 3508SOL    HW111423   0.391   4.820   6.610
 3508SOL    HW211424   0.427   4.733   6.743
 3509SOL     OW11425   4.400   6.530   6.512
 3509SOL    HW111426   4.428   6.457   6.450
 3509SOL    HW211427   4.381   6.613   6.460
 3510SOL     OW11428   1.837   0.965   2.362
 3510SOL    HW111429   1.870   1.056   2.387
 3510SOL    HW211430   1.738   0.968   2.346
 3511SOL     OW11431   1.022   0.721   4.228
 3511SOL    HW111432   1.088   0.738   4.302
 3511SOL    HW211433   0.996   0.808   4.186
 3512SOL     OW11434   3.278   3.332   2.005
 3512SOL    HW111435   3.274   3.239   1.969
 3512SOL    HW211436   3.204   3.346   2.070
 3513SOL     OW11437   6.762   4.809   0.899
 3513SOL    HW111438   6.759   4.713   0.925
 3513SOL    HW211439   6.857   4.838   0.887
 3514SOL     OW11440   3.341   5.919   3.630
 3514SOL    HW111441   3.298   5.990   3.684
 3514SOL    HW211442   3.439   5.937   3.624
 3515SOL     OW11443   4.215   5.608   3.847
 3515SOL    HW111444   4.255   5.623   3.756
 3515SOL    HW211445   4.162   5.523   3.846
 3516SOL     OW11446   1.275   1.173   0.468
 3516SOL    HW111447   1.253   1.259   0.422
 3516SOL    HW211448   1.287   1.189   0.566
 3517SOL     OW11449   0.345   0.371   0.094
 3517SOL    HW111450   0.441   0.354   0.114
 3517SOL    HW211451   0.295   0.284   0.091
 3518SOL     OW11452   4.131   3.651   6.151
 3518SOL    HW111453   4.187   3.685   6.076
 3518SOL    HW211454   4.179   3.577   6.198
 3519SOL     OW11455   4.253   0.082   0.122
 3519SOL    HW111456   4.302   0.169   0.113
 3519SOL    HW211457   4.251   0.037   0.033
 3520SOL     OW11458   3.968   4.744   1.272
 3520SOL    HW111459   4.063   4.716   1.258
 3520SOL    HW211460   3.911   4.702   1.202
 3521SOL     OW11461   0.425   1.930   5.624
 3521SOL    HW111462   0.519   1.965   5.626
 3521SOL    HW211463   0.376   1.959   5.706
 3522SOL     OW11464   2.318   0.126   0.855
 3522SOL    HW111465   2.248   0.055   0.848
 3522SOL    HW211466   2.275   0.216   0.843
 3523SOL     OW11467   2.163   4.236   5.099
 3523SOL    HW111468   2.203   4.146   5.083
 3523SOL    HW211469   2.226   4.291   5.154
 3524SOL     OW11470   2.483   1.541   3.728
 3524SOL    HW111471   2.580   1.556   3.711
 3524SOL    HW211472   2.471   1.483   3.809
 3525SOL     OW11473   1.728   3.115   3.826
 3525SOL    HW111474   1.722   3.027   3.873
 3525SOL    HW211475   1.693   3.105   3.733
 3526SOL     OW11476   3.608   5.950   3.598
 3526SOL    HW111477   3.660   5.882   3.547
 3526SOL    HW211478   3.625   6.041   3.560
 3527SOL     OW11479   6.737   4.439   6.290
 3527SOL    HW111480   6.801   4.443   6.213
 3527SOL    HW211481   6.725   4.344   6.319
 3528SOL     OW11482   0.887   6.680   4.172
 3528SOL    HW111483   0.812   6.674   4.239
 3528SOL    HW211484   0.966   6.725   4.215
 3529SOL     OW11485   3.334   5.977   0.490
 3529SOL    HW111486   3.356   6.074   0.486
 3529SOL    HW211487   3.302   5.946   0.401
 3530SOL     OW11488   2.191   5.908   2.604
 3530SOL    HW111489   2.145   5.967   2.537
 3530SOL    HW211490   2.180   5.947   2.696
 3531SOL     OW11491   5.154   4.566   6.653
 3531SOL    HW111492   5.111   4.657   6.652
 3531SOL    HW211493   5.154   4.530   6.746
 3532SOL     OW11494   2.279   6.799   7.024
 3532SOL    HW111495   2.316   6.802   0.091
 3532SOL    HW211496   2.331   6.861   6.965
 3533SOL     OW11497   1.161   1.208   3.565
 3533SOL    HW111498   1.172   1.288   3.507
 3533SOL    HW211499   1.110   1.234   3.647
 3534SOL     OW11500   4.479   6.880   4.179
 3534SOL    HW111501   4.559   6.820   4.177
 3534SOL    HW211502   4.509   6.975   4.188
 3535SOL     OW11503   4.252   4.894   6.955
 3535SOL    HW111504   4.341   4.921   6.991
 3535SOL    HW211505   4.203   4.838   7.022
 3536SOL     OW11506   2.108   3.126   2.322
 3536SOL    HW111507   2.136   3.168   2.235
 3536SOL    HW211508   2.044   3.186   2.369
 3537SOL     OW11509   3.220   4.864   1.963
 3537SOL    HW111510   3.151   4.920   1.917
 3537SOL    HW211511   3.193   4.850   2.059
 3538SOL     OW11512   2.985   0.252   3.380
 3538SOL    HW111513   3.013   0.275   3.473
 3538SOL    HW211514   3.066   0.236   3.324
 3539SOL     OW11515   5.623   5.434   5.780
 3539SOL    HW111516   5.676   5.428   5.865
 3539SOL    HW211517   5.628   5.347   5.731
 3540SOL     OW11518   4.761   4.071   6.767
 3540SOL    HW111519   4.859   4.054   6.779
 3540SOL    HW211520   4.710   3.989   6.795
 3541SOL     OW11521   0.860   2.953   2.389
 3541SOL    HW111522   0.830   2.903   2.308
 3541SOL    HW211523   0.959   2.969   2.384
 3542SOL     OW11524   5.775   1.237   7.013
 3542SOL    HW111525   5.676   1.254   7.018
 3542SOL    HW211526   5.791   1.138   7.005
 3543SOL     OW11527   0.033   2.805   4.956
 3543SOL    HW111528   0.105   2.869   4.984
 3543SOL    HW211529   7.006   2.778   5.037
 3544SOL     OW11530   3.721   4.783   5.845
 3544SOL    HW111531   3.686   4.722   5.774
 3544SOL    HW211532   3.684   4.756   5.934
 3545SOL     OW11533   2.915   6.511   1.121
 3545SOL    HW111534   2.961   6.462   1.047
 3545SOL    HW211535   2.839   6.564   1.084
 3546SOL     OW11536   0.328   4.985   1.287
 3546SOL    HW111537   0.229   4.991   1.275
 3546SOL    HW211538   0.349   4.978   1.385
 3547SOL     OW11539   1.874   3.788   4.494
 3547SOL    HW111540   1.967   3.825   4.494
 3547SOL    HW211541   1.844   3.777   4.399
 3548SOL     OW11542   6.327   0.326   5.546
 3548SOL    HW111543   6.283   0.379   5.618
 3548SOL    HW211544   6.289   0.233   5.544
 3549SOL     OW11545   1.893   0.093   6.570
 3549SOL    HW111546   1.836   0.111   6.650
 3549SOL    HW211547   1.989   0.089   6.598
 3550SOL     OW11548   6.726   2.085   4.801
 3550SOL    HW111549   6.688   2.163   4.750
 3550SOL    HW211550   6.826   2.086   4.794
 3551SOL     OW11551   6.127   1.299   5.057
 3551SOL    HW111552   6.156   1.383   5.012
 3551SOL    HW211553   6.175   1.288   5.144
 3552SOL     OW11554   6.092   0.862   3.622
 3552SOL    HW111555   6.105   0.910   3.536
 3552SOL    HW211556   6.142   0.909   3.695
 3553SOL     OW11557   5.521   6.289   6.446
 3553SOL    HW111558   5.471   6.312   6.530
 3553SOL    HW211559   5.572   6.204   6.460
 3554SOL     OW11560   6.155   4.067   6.484
 3554SOL    HW111561   6.165   4.059   6.583
 3554SOL    HW211562   6.204   3.994   6.439
 3555SOL     OW11563   3.560   1.152   5.213
 3555SOL    HW111564   3.580   1.249   5.228
 3555SOL    HW211565   3.468   1.132   5.247
 3556SOL     OW11566   5.561   1.029   0.966
 3556SOL    HW111567   5.524   1.081   1.043
 3556SOL    HW211568   5.546   0.931   0.982
 3557SOL     OW11569   4.893   0.242   1.668
 3557SOL    HW111570   4.992   0.250   1.664
 3557SOL    HW211571   4.852   0.288   1.590
 3558SOL     OW11572   4.029   5.576   2.869
 3558SOL    HW111573   3.948   5.613   2.914
 3558SOL    HW211574   4.084   5.524   2.934
 3559SOL     OW11575   4.263   6.170   6.460
 3559SOL    HW111576   4.302   6.232   6.393
 3559SOL    HW211577   4.164   6.183   6.464
 3560SOL     OW11578   2.125   6.072   4.330
 3560SOL    HW111579   2.070   6.126   4.394
 3560SOL    HW211580   2.115   5.975   4.351
 3561SOL     OW11581   3.941   2.602   6.025
 3561SOL    HW111582   3.996   2.518   6.024
 3561SOL    HW211583   3.846   2.580   6.048
 3562SOL     OW11584   3.092   1.120   0.419
 3562SOL    HW111585   3.138   1.204   0.390
 3562SOL    HW211586   3.161   1.049   0.437
 3563SOL     OW11587   0.105   2.335   6.100
 3563SOL    HW111588   0.046   2.276   6.156
 3563SOL    HW211589   0.061   2.350   6.011
 3564SOL     OW11590   5.991   2.829   3.066
 3564SOL    HW111591   6.070   2.879   3.099
 3564SOL    HW211592   6.007   2.799   2.972
 3565SOL     OW11593   4.684   6.532   4.635
 3565SOL    HW111594   4.781   6.511   4.643
 3565SOL    HW211595   4.633   6.481   4.704
 3566SOL     OW11596   0.777   1.066   4.835
 3566SOL    HW111597   0.710   1.139   4.821
 3566SOL    HW211598   0.760   0.993   4.768
 3567SOL     OW11599   0.937   4.511   6.500
 3567SOL    HW111600   0.860   4.452   6.525
 3567SOL    HW211601   0.909   4.572   6.425
 3568SOL     OW11602   2.308   4.475   5.750
 3568SOL    HW111603   2.333   4.530   5.670
 3568SOL    HW211604   2.210   4.488   5.769
 3569SOL     OW11605   0.652   0.353   3.373
 3569SOL    HW111606   0.730   0.382   3.319
 3569SOL    HW211607   0.625   0.261   3.345
 3570SOL     OW11608   0.376   2.156   4.836
 3570SOL    HW111609   0.282   2.172   4.806
 3570SOL    HW211610   0.417   2.084   4.780
 3571SOL     OW11611   6.395   5.485   5.071
 3571SOL    HW111612   6.441   5.407   5.031
 3571SOL    HW211613   6.298   5.484   5.045
 3572SOL     OW11614   5.630   6.174   5.522
 3572SOL    HW111615   5.719   6.133   5.542
 3572SOL    HW211616   5.558   6.119   5.563
 3573SOL     OW11617   0.613   2.626   1.802
 3573SOL    HW111618   0.699   2.628   1.752
 3573SOL    HW211619   0.546   2.572   1.751
 3574SOL     OW11620   6.860   3.734   0.444
 3574SOL    HW111621   6.790   3.663   0.451
 3574SOL    HW211622   6.938   3.699   0.393
 3575SOL     OW11623   6.568   0.576   2.527
 3575SOL    HW111624   6.622   0.492   2.523
 3575SOL    HW211625   6.591   0.626   2.610
 3576SOL     OW11626   0.495   0.972   0.490
 3576SOL    HW111627   0.429   1.003   0.422
 3576SOL    HW211628   0.562   1.045   0.506
 3577SOL     OW11629   2.076   4.631   0.474
 3577SOL    HW111630   2.102   4.613   0.568
 3577SOL    HW211631   2.059   4.729   0.462
 3578SOL     OW11632   3.349   4.565   1.630
 3578SOL    HW111633   3.406   4.625   1.685
 3578SOL    HW211634   3.253   4.579   1.655
 3579SOL     OW11635   2.472   2.895   6.293
 3579SOL    HW111636   2.423   2.846   6.366
 3579SOL    HW211637   2.559   2.928   6.329
 3580SOL     OW11638   5.469   1.333   1.663
 3580SOL    HW111639   5.559   1.358   1.699
 3580SOL    HW211640   5.480   1.262   1.594
 3581SOL     OW11641   6.981   1.081   2.712
 3581SOL    HW111642   6.891   1.088   2.755
 3581SOL    HW211643   0.012   1.019   2.766
 3582SOL     OW11644   0.772   0.753   5.382
 3582SOL    HW111645   0.772   0.655   5.402
 3582SOL    HW211646   0.805   0.768   5.289
 3583SOL     OW11647   1.294   6.970   1.692
 3583SOL    HW111648   1.204   6.947   1.729
 3583SOL    HW211649   1.283   0.001   1.610
 3584SOL     OW11650   5.295   0.695   4.841
 3584SOL    HW111651   5.319   0.605   4.877
 3584SOL    HW211652   5.377   0.751   4.832
 3585SOL     OW11653   2.518   4.505   3.786
 3585SOL    HW111654   2.552   4.412   3.778
 3585SOL    HW211655   2.464   4.515   3.869
 3586SOL     OW11656   1.336   1.110   7.022
 3586SOL    HW111657   1.359   1.052   6.944
 3586SOL    HW211658   1.411   1.174   0.015
 3587SOL     OW11659   3.391   6.898   5.915
 3587SOL    HW111660   3.401   6.894   6.015
 3587SOL    HW211661   3.452   6.830   5.874
 3588SOL     OW11662   2.433   2.553   5.327
 3588SOL    HW111663   2.455   2.651   5.324
 3588SOL    HW211664   2.457   2.511   5.240
 3589SOL     OW11665   2.923   6.172   4.823
 3589SOL    HW111666   3.004   6.114   4.812
 3589SOL    HW211667   2.849   6.137   4.766
 3590SOL     OW11668   1.274   5.601   6.806
 3590SOL    HW111669   1.195   5.540   6.804
 3590SOL    HW211670   1.262   5.674   6.738
 3591SOL     OW11671   5.367   1.643   4.997
 3591SOL    HW111672   5.365   1.739   5.024
 3591SOL    HW211673   5.274   1.606   4.996
 3592SOL     OW11674   5.610   1.560   2.224
 3592SOL    HW111675   5.600   1.634   2.157
 3592SOL    HW211676   5.640   1.477   2.177
 3593SOL     OW11677   0.803   5.141   4.072
 3593SOL    HW111678   0.848   5.228   4.091
 3593SOL    HW211679   0.726   5.129   4.134
 3594SOL     OW11680   4.240   1.531   4.283
 3594SOL    HW111681   4.205   1.439   4.269
 3594SOL    HW211682   4.235   1.554   4.381
 3595SOL     OW11683   2.337   6.378   6.489
 3595SOL    HW111684   2.322   6.406   6.394
 3595SOL    HW211685   2.335   6.278   6.495
 3596SOL     OW11686   6.452   3.625   2.926
 3596SOL    HW111687   6.356   3.645   2.949
 3596SOL    HW211688   6.479   3.538   2.967
 3597SOL     OW11689   4.125   0.438   4.099
 3597SOL    HW111690   4.144   0.376   4.023
 3597SOL    HW211691   4.211   0.465   4.142
 3598SOL     OW11692   1.975   0.026   0.163
 3598SOL    HW111693   1.991   6.957   0.189
 3598SOL    HW211694   1.976   0.033   0.063
 3599SOL     OW11695   0.281   2.341   3.992
 3599SOL    HW111696   0.262   2.438   3.974
 3599SOL    HW211697   0.378   2.329   4.011
 3600SOL     OW11698   6.352   6.692   1.596
 3600SOL    HW111699   6.351   6.787   1.627
 3600SOL    HW211700   6.314   6.633   1.668
 3601SOL     OW11701   7.010   3.700   5.822
 3601SOL    HW111702   6.978   3.736   5.735
 3601SOL    HW211703   7.009   3.600   5.820
 3602SOL     OW11704   3.231   2.507   1.227
 3602SOL    HW111705   3.282   2.563   1.292
 3602SOL    HW211706   3.228   2.412   1.259
 3603SOL     OW11707   4.014   5.252   4.926
 3603SOL    HW111708   3.996   5.165   4.881
 3603SOL    HW211709   3.928   5.291   4.959
 3604SOL     OW11710   6.114   4.431   3.160
 3604SOL    HW111711   6.058   4.386   3.230
 3604SOL    HW211712   6.210   4.405   3.173
 3605SOL     OW11713   5.497   1.482   6.455
 3605SOL    HW111714   5.543   1.422   6.389
 3605SOL    HW211715   5.398   1.477   6.443
 3606SOL     OW11716   1.734   3.684   2.797
 3606SOL    HW111717   1.779   3.668   2.709
 3606SOL    HW211718   1.800   3.724   2.861
 3607SOL     OW11719   4.102   0.000   5.606
 3607SOL    HW111720   4.145   7.010   5.517
 3607SOL    HW211721   4.003   0.009   5.594
 3608SOL     OW11722   7.010   3.094   3.045
 3608SOL    HW111723   0.005   2.999   3.071
 3608SOL    HW211724   0.056   3.154   3.081
 3609SOL     OW11725   0.089   0.773   3.635
 3609SOL    HW111726   0.121   0.794   3.542
 3609SOL    HW211727   7.022   0.736   3.630
 3610SOL     OW11728   2.056   5.087   5.551
 3610SOL    HW111729   2.056   4.989   5.534
 3610SOL    HW211730   1.962   5.122   5.550
 3611SOL     OW11731   4.847   4.389   6.088
 3611SOL    HW111732   4.914   4.331   6.134
 3611SOL    HW211733   4.894   4.453   6.027
 3612SOL     OW11734   2.128   5.978   1.191
 3612SOL    HW111735   2.171   6.045   1.131
 3612SOL    HW211736   2.153   5.886   1.162
 3613SOL     OW11737   5.672   4.665   6.277
 3613SOL    HW111738   5.596   4.677   6.213
 3613SOL    HW211739   5.735   4.742   6.267
 3614SOL     OW11740   3.768   2.931   4.672
 3614SOL    HW111741   3.678   2.905   4.707
 3614SOL    HW211742   3.839   2.894   4.731
 3615SOL     OW11743   5.787   6.473   6.440
 3615SOL    HW111744   5.725   6.549   6.423
 3615SOL    HW211745   5.734   6.390   6.457
 3616SOL     OW11746   6.760   1.477   4.494
 3616SOL    HW111747   6.830   1.435   4.553
 3616SOL    HW211748   6.674   1.429   4.505
 3617SOL     OW11749   0.204   0.596   0.901
 3617SOL    HW111750   0.140   0.558   0.835
 3617SOL    HW211751   0.219   0.530   0.975
 3618SOL     OW11752   4.055   5.447   6.079
 3618SOL    HW111753   3.977   5.387   6.096
 3618SOL    HW211754   4.028   5.519   6.016
 3619SOL     OW11755   4.903   3.487   3.723
 3619SOL    HW111756   4.932   3.402   3.680
 3619SOL    HW211757   4.851   3.467   3.806
 3620SOL     OW11758   6.045   2.004   5.279
 3620SOL    HW111759   5.968   2.065   5.295
 3620SOL    HW211760   6.016   1.925   5.226
 3621SOL     OW11761   1.609   2.842   6.349
 3621SOL    HW111762   1.678   2.782   6.308
 3621SOL    HW211763   1.525   2.791   6.367
 3622SOL     OW11764   1.257   3.797   0.788
 3622SOL    HW111765   1.303   3.843   0.864
 3622SOL    HW211766   1.168   3.839   0.773
 3623SOL     OW11767   6.548   4.677   5.181
 3623SOL    HW111768   6.451   4.661   5.161
 3623SOL    HW211769   6.558   4.707   5.276
 3624SOL     OW11770   1.614   0.502   1.840
 3624SOL    HW111771   1.616   0.557   1.756
 3624SOL    HW211772   1.528   0.516   1.887
 3625SOL     OW11773   1.373   2.341   5.249
 3625SOL    HW111774   1.290   2.320   5.301
 3625SOL    HW211775   1.350   2.347   5.152
 3626SOL     OW11776   2.026   3.510   5.479
 3626SOL    HW111777   1.979   3.567   5.546
 3626SOL    HW211778   2.090   3.566   5.427
 3627SOL     OW11779   3.579   3.205   4.376
 3627SOL    HW111780   3.517   3.150   4.319
 3627SOL    HW211781   3.650   3.146   4.414
 3628SOL     OW11782   2.840   5.432   3.871
 3628SOL    HW111783   2.817   5.364   3.801
 3628SOL    HW211784   2.901   5.392   3.938
 3629SOL     OW11785   5.619   3.554   4.728
 3629SOL    HW111786   5.612   3.551   4.827
 3629SOL    HW211787   5.702   3.506   4.699
 3630SOL     OW11788   6.458   2.084   4.916
 3630SOL    HW111789   6.405   2.111   4.997
 3630SOL    HW211790   6.527   2.016   4.942
 3631SOL     OW11791   1.865   1.112   4.257
 3631SOL    HW111792   1.924   1.106   4.177
 3631SOL    HW211793   1.770   1.093   4.231
 3632SOL     OW11794   5.004   6.388   6.065
 3632SOL    HW111795   5.100   6.415   6.072
 3632SOL    HW211796   4.998   6.289   6.056
 3633SOL     OW11797   0.762   2.601   5.815
 3633SOL    HW111798   0.703   2.577   5.738
 3633SOL    HW211799   0.710   2.656   5.881
 3634SOL     OW11800   2.737   4.638   6.474
 3634SOL    HW111801   2.744   4.571   6.548
 3634SOL    HW211802   2.654   4.622   6.422
 3635SOL     OW11803   1.891   1.971   4.226
 3635SOL    HW111804   1.921   1.927   4.311
 3635SOL    HW211805   1.965   1.966   4.158
 3636SOL     OW11806   0.746   6.935   1.477
 3636SOL    HW111807   0.662   6.901   1.434
 3636SOL    HW211808   0.810   6.859   1.489
 3637SOL     OW11809   5.103   1.214   2.653
 3637SOL    HW111810   5.004   1.201   2.650
 3637SOL    HW211811   5.130   1.240   2.746
 3638SOL     OW11812   6.860   4.792   3.391
 3638SOL    HW111813   6.860   4.780   3.292
 3638SOL    HW211814   6.849   4.703   3.435
 3639SOL     OW11815   2.844   6.348   6.937
 3639SOL    HW111816   2.782   6.425   6.954
 3639SOL    HW211817   2.815   6.300   6.854
 3640SOL     OW11818   2.259   6.600   2.095
 3640SOL    HW111819   2.277   6.671   2.163
 3640SOL    HW211820   2.279   6.636   2.004
 3641SOL     OW11821   1.957   1.320   5.218
 3641SOL    HW111822   1.912   1.307   5.306
 3641SOL    HW211823   2.004   1.235   5.192
 3642SOL     OW11824   6.142   0.189   2.425
 3642SOL    HW111825   6.091   0.165   2.507
 3642SOL    HW211826   6.240   0.188   2.445
 3643SOL     OW11827   3.726   0.016   3.920
 3643SOL    HW111828   3.811   0.025   3.973
 3643SOL    HW211829   3.650   0.002   3.983
 3644SOL     OW11830   6.031   0.207   1.890
 3644SOL    HW111831   6.057   0.110   1.897
 3644SOL    HW211832   5.993   0.238   1.977
 3645SOL     OW11833   4.560   5.962   3.884
 3645SOL    HW111834   4.658   5.965   3.865
 3645SOL    HW211835   4.526   5.869   3.871
 3646SOL     OW11836   0.671   5.269   5.281
 3646SOL    HW111837   0.666   5.182   5.232
 3646SOL    HW211838   0.738   5.328   5.237
 3647SOL     OW11839   3.241   2.753   0.774
 3647SOL    HW111840   3.306   2.825   0.799
 3647SOL    HW211841   3.152   2.794   0.753
 3648SOL     OW11842   2.753   6.423   3.367
 3648SOL    HW111843   2.786   6.507   3.323
 3648SOL    HW211844   2.777   6.344   3.310
 3649SOL     OW11845   3.306   2.905   2.957
 3649SOL    HW111846   3.256   2.860   3.031
 3649SOL    HW211847   3.244   2.964   2.906
 3650SOL     OW11848   5.568   6.314   1.595
 3650SOL    HW111849   5.612   6.234   1.554
 3650SOL    HW211850   5.546   6.380   1.523
 3651SOL     OW11851   1.708   5.298   1.457
 3651SOL    HW111852   1.764   5.322   1.378
 3651SOL    HW211853   1.640   5.370   1.473
 3652SOL     OW11854   4.226   6.456   3.494
 3652SOL    HW111855   4.205   6.549   3.525
 3652SOL    HW211856   4.163   6.392   3.537
 3653SOL     OW11857   0.073   3.196   3.595
 3653SOL    HW111858   0.118   3.282   3.622
 3653SOL    HW211859   0.121   3.119   3.637
 3654SOL     OW11860   2.141   6.894   2.041
 3654SOL    HW111861   2.042   6.900   2.027
 3654SOL    HW211862   2.187   6.966   1.988
 3655SOL     OW11863   6.408   1.144   3.583
 3655SOL    HW111864   6.444   1.237   3.579
 3655SOL    HW211865   6.475   1.085   3.628
 3656SOL     OW11866   2.431   1.898   2.854
 3656SOL    HW111867   2.376   1.818   2.829
 3656SOL    HW211868   2.495   1.918   2.779
 3657SOL     OW11869   5.423   5.108   1.375
 3657SOL    HW111870   5.331   5.148   1.375
 3657SOL    HW211871   5.434   5.051   1.456
 3658SOL     OW11872   2.976   4.619   5.533
 3658SOL    HW111873   2.920   4.700   5.520
 3658SOL    HW211874   3.063   4.630   5.484
 3659SOL     OW11875   1.710   4.052   6.495
 3659SOL    HW111876   1.720   4.139   6.446
 3659SOL    HW211877   1.613   4.034   6.510
 3660SOL     OW11878   4.682   3.754   0.670
 3660SOL    HW111879   4.708   3.815   0.597
 3660SOL    HW211880   4.594   3.710   0.648
 3661SOL     OW11881   5.561   1.168   1.466
 3661SOL    HW111882   5.653   1.206   1.477
 3661SOL    HW211883   5.568   1.069   1.450
 3662SOL     OW11884   1.144   6.858   4.244
 3662SOL    HW111885   1.123   6.883   4.149
 3662SOL    HW211886   1.231   6.808   4.247
 3663SOL     OW11887   2.581   2.241   6.108
 3663SOL    HW111888   2.539   2.297   6.036
 3663SOL    HW211889   2.627   2.163   6.068
 3664SOL     OW11890   3.695   0.587   2.434
 3664SOL    HW111891   3.683   0.656   2.505
 3664SOL    HW211892   3.645   0.615   2.352
 3665SOL     OW11893   2.318   1.452   5.231
 3665SOL    HW111894   2.314   1.475   5.134
 3665SOL    HW211895   2.344   1.533   5.283
 3666SOL     OW11896   0.649   4.522   3.030
 3666SOL    HW111897   0.649   4.517   3.130
 3666SOL    HW211898   0.622   4.434   2.992
 3667SOL     OW11899   0.043   1.178   0.106
 3667SOL    HW111900   6.987   1.200   0.159
 3667SOL    HW211901   0.081   1.091   0.138
 3668SOL     OW11902   1.907   6.521   1.713
 3668SOL    HW111903   2.004   6.538   1.692
 3668SOL    HW211904   1.865   6.607   1.743
 3669SOL     OW11905   5.560   1.542   4.155
 3669SOL    HW111906   5.522   1.570   4.244
 3669SOL    HW211907   5.490   1.548   4.085
 3670SOL     OW11908   3.143   5.007   6.016
 3670SOL    HW111909   3.156   4.951   6.098
 3670SOL    HW211910   3.174   5.100   6.035
 3671SOL     OW11911   1.952   1.387   3.155
 3671SOL    HW111912   1.994   1.391   3.245
 3671SOL    HW211913   1.872   1.328   3.158
 3672SOL     OW11914   6.444   6.381   0.095
 3672SOL    HW111915   6.539   6.351   0.106
 3672SOL    HW211916   6.428   6.462   0.151
 3673SOL     OW11917   4.255   7.018   6.311
 3673SOL    HW111918   4.187   0.064   6.322
 3673SOL    HW211919   4.281   7.010   6.215
 3674SOL     OW11920   0.912   6.166   1.010
 3674SOL    HW111921   1.000   6.166   1.057
 3674SOL    HW211922   0.901   6.251   0.958
 3675SOL     OW11923   2.072   2.286   4.043
 3675SOL    HW111924   2.085   2.373   4.090
 3675SOL    HW211925   2.134   2.280   3.965
 3676SOL     OW11926   1.727   5.422   2.624
 3676SOL    HW111927   1.693   5.359   2.554
 3676SOL    HW211928   1.656   5.489   2.645
 3677SOL     OW11929   5.773   0.558   3.723
 3677SOL    HW111930   5.862   0.602   3.709
 3677SOL    HW211931   5.700   0.626   3.713
 3678SOL     OW11932   0.873   2.572   4.321
 3678SOL    HW111933   0.851   2.636   4.248
 3678SOL    HW211934   0.970   2.581   4.345
 3679SOL     OW11935   6.348   1.505   1.986
 3679SOL    HW111936   6.309   1.570   2.051
 3679SOL    HW211937   6.448   1.506   1.995
 3680SOL     OW11938   6.175   4.593   4.702
 3680SOL    HW111939   6.193   4.498   4.729
 3680SOL    HW211940   6.138   4.595   4.610
 3681SOL     OW11941   5.500   0.339   5.240
 3681SOL    HW111942   5.413   0.347   5.289
 3681SOL    HW211943   5.487   0.282   5.159
 3682SOL     OW11944   6.996   1.901   0.305
 3682SOL    HW111945   7.005   1.817   0.358
 3682SOL    HW211946   0.041   1.903   0.234
 3683SOL     OW11947   5.133   6.430   3.198
 3683SOL    HW111948   5.047   6.480   3.195
 3683SOL    HW211949   5.183   6.455   3.281
 3684SOL     OW11950   2.389   4.001   1.839
 3684SOL    HW111951   2.452   4.078   1.837
 3684SOL    HW211952   2.308   4.026   1.892
 3685SOL     OW11953   5.493   5.976   5.659
 3685SOL    HW111954   5.587   5.946   5.674
 3685SOL    HW211955   5.435   5.945   5.734
 3686SOL     OW11956   0.104   4.125   0.577
 3686SOL    HW111957   0.105   4.029   0.606
 3686SOL    HW211958   0.028   4.172   0.622
 3687SOL     OW11959   4.267   0.951   0.512
 3687SOL    HW111960   4.275   0.974   0.415
 3687SOL    HW211961   4.355   0.967   0.557
 3688SOL     OW11962   0.261   3.430   0.464
 3688SOL    HW111963   0.220   3.403   0.376
 3688SOL    HW211964   0.188   3.460   0.526
 3689SOL     OW11965   1.978   6.400   3.801
 3689SOL    HW111966   1.950   6.311   3.765
 3689SOL    HW211967   1.915   6.471   3.769
 3690SOL     OW11968   4.837   4.657   5.649
 3690SOL    HW111969   4.845   4.749   5.608
 3690SOL    HW211970   4.927   4.624   5.674
 3691SOL     OW11971   3.386   3.027   6.007
 3691SOL    HW111972   3.353   3.090   5.937
 3691SOL    HW211973   3.325   3.030   6.087
 3692SOL     OW11974   0.252   0.145   5.380
 3692SOL    HW111975   0.312   0.224   5.389
 3692SOL    HW211976   0.169   0.159   5.434
 3693SOL     OW11977   1.186   1.521   3.765
 3693SOL    HW111978   1.235   1.437   3.785
 3693SOL    HW211979   1.207   1.589   3.835
 3694SOL     OW11980   1.894   5.082   3.791
 3694SOL    HW111981   1.840   5.041   3.865
 3694SOL    HW211982   1.984   5.108   3.825
 3695SOL     OW11983   2.208   2.456   0.280
 3695SOL    HW111984   2.110   2.439   0.270
 3695SOL    HW211985   2.228   2.552   0.261
 3696SOL     OW11986   2.970   6.205   5.420
 3696SOL    HW111987   2.985   6.163   5.509
 3696SOL    HW211988   3.013   6.148   5.349
 3697SOL     OW11989   4.990   1.153   3.794
 3697SOL    HW111990   4.983   1.137   3.696
 3697SOL    HW211991   5.086   1.145   3.822
 3698SOL     OW11992   3.166   6.837   6.196
 3698SOL    HW111993   3.265   6.837   6.200
 3698SOL    HW211994   3.130   6.765   6.255
 3699SOL     OW11995   1.031   5.347   2.397
 3699SOL    HW111996   1.034   5.346   2.297
 3699SOL    HW211997   1.124   5.355   2.433
 3700SOL     OW11998   6.256   0.632   3.329
 3700SOL    HW111999   6.260   0.638   3.229
 3700SOL    HW212000   6.334   0.680   3.368
 3701SOL     OW12001   4.569   1.269   3.976
 3701SOL    HW112002   4.541   1.202   3.907
 3701SOL    HW212003   4.566   1.226   4.067
 3702SOL     OW12004   4.933   1.098   6.470
 3702SOL    HW112005   5.016   1.151   6.488
 3702SOL    HW212006   4.925   1.082   6.372
 3703SOL     OW12007   3.890   4.678   0.936
 3703SOL    HW112008   3.979   4.659   0.896
 3703SOL    HW212009   3.872   4.776   0.934
 3704SOL     OW12010   3.259   6.312   1.154
 3704SOL    HW112011   3.211   6.229   1.127
 3704SOL    HW212012   3.276   6.369   1.074
 3705SOL     OW12013   0.012   0.925   4.100
 3705SOL    HW112014   6.955   0.970   4.135
 3705SOL    HW212015   0.001   0.826   4.105
 3706SOL     OW12016   2.928   2.141   3.219
 3706SOL    HW112017   2.837   2.181   3.212
 3706SOL    HW212018   2.926   2.048   3.183
 3707SOL     OW12019   4.345   2.399   5.540
 3707SOL    HW112020   4.319   2.400   5.637
 3707SOL    HW212021   4.391   2.313   5.519
 3708SOL     OW12022   6.707   0.584   0.301
 3708SOL    HW112023   6.783   0.548   0.355
 3708SOL    HW212024   6.724   0.567   0.204
 3709SOL     OW12025   6.874   6.588   6.638
 3709SOL    HW112026   6.817   6.641   6.575
 3709SOL    HW212027   6.869   6.491   6.613
 3710SOL     OW12028   0.693   5.167   6.570
 3710SOL    HW112029   0.619   5.185   6.635
 3710SOL    HW212030   0.718   5.253   6.525
 3711SOL     OW12031   6.706   5.657   1.815
 3711SOL    HW112032   6.748   5.647   1.906
 3711SOL    HW212033   6.631   5.592   1.806
 3712SOL     OW12034   1.538   6.817   6.744
 3712SOL    HW112035   1.604   6.744   6.727
 3712SOL    HW212036   1.487   6.797   6.828
 3713SOL     OW12037   3.671   5.074   6.027
 3713SOL    HW112038   3.593   5.081   6.090
 3713SOL    HW212039   3.706   4.981   6.027
 3714SOL     OW12040   4.780   1.930   5.020
 3714SOL    HW112041   4.776   1.983   5.105
 3714SOL    HW212042   4.845   1.855   5.030
 3715SOL     OW12043   4.899   4.038   3.552
 3715SOL    HW112044   4.885   4.026   3.651
 3715SOL    HW212045   4.822   4.091   3.514
 3716SOL     OW12046   1.009   1.111   4.393
 3716SOL    HW112047   1.056   1.067   4.469
 3716SOL    HW212048   0.956   1.189   4.426
 3717SOL     OW12049   6.033   0.718   6.927
 3717SOL    HW112050   6.108   0.768   6.883
 3717SOL    HW212051   6.014   0.635   6.875
 3718SOL     OW12052   0.919   6.519   6.598
 3718SOL    HW112053   1.005   6.535   6.549
 3718SOL    HW212054   0.863   6.454   6.547
 3719SOL     OW12055   3.204   4.252   0.539
 3719SOL    HW112056   3.152   4.297   0.467
 3719SOL    HW212057   3.294   4.295   0.546
 3720SOL     OW12058   6.988   0.921   6.398
 3720SOL    HW112059   6.957   0.890   6.487
 3720SOL    HW212060   0.043   0.979   6.409
 3721SOL     OW12061   4.939   2.923   0.372
 3721SOL    HW112062   4.848   2.882   0.363
 3721SOL    HW212063   4.929   3.017   0.407
 3722SOL     OW12064   4.635   5.936   0.929
 3722SOL    HW112065   4.614   5.951   1.025
 3722SOL    HW212066   4.551   5.910   0.880
 3723SOL     OW12067   4.748   1.039   0.691
 3723SOL    HW112068   4.811   1.009   0.762
 3723SOL    HW212069   4.773   1.131   0.660
 3724SOL     OW12070   0.652   4.605   6.093
 3724SOL    HW112071   0.674   4.665   6.017
 3724SOL    HW212072   0.577   4.543   6.067
 3725SOL     OW12073   5.257   6.140   1.551
 3725SOL    HW112074   5.254   6.234   1.518
 3725SOL    HW212075   5.347   6.120   1.590
 3726SOL     OW12076   6.347   3.017   1.481
 3726SOL    HW112077   6.303   3.100   1.447
 3726SOL    HW212078   6.284   2.967   1.541
 3727SOL     OW12079   2.745   2.870   5.537
 3727SOL    HW112080   2.743   2.776   5.571
 3727SOL    HW212081   2.836   2.889   5.500
 3728SOL     OW12082   0.701   4.343   6.485
 3728SOL    HW112083   0.709   4.251   6.447
 3728SOL    HW212084   0.610   4.379   6.466
 3729SOL     OW12085   0.977   3.310   4.057
 3729SOL    HW112086   1.046   3.249   4.018
 3729SOL    HW212087   0.888   3.264   4.056
 3730SOL     OW12088   2.138   7.005   1.294
 3730SOL    HW112089   2.126   6.920   1.243
 3730SOL    HW212090   2.213   0.031   1.254
 3731SOL     OW12091   2.514   5.905   0.248
 3731SOL    HW112092   2.578   5.881   0.320
 3731SOL    HW212093   2.484   5.999   0.260
 3732SOL     OW12094   2.081   3.605   4.657
 3732SOL    HW112095   2.074   3.700   4.627
 3732SOL    HW212096   2.082   3.545   4.576
 3733SOL     OW12097   3.154   3.260   1.693
 3733SOL    HW112098   3.202   3.216   1.769
 3733SOL    HW212099   3.215   3.264   1.614
 3734SOL     OW12100   4.025   1.165   3.259
 3734SOL    HW112101   4.001   1.071   3.279
 3734SOL    HW212102   3.956   1.226   3.297
 3735SOL     OW12103   3.919   2.091   1.955
 3735SOL    HW112104   3.928   2.007   2.008
 3735SOL    HW212105   3.844   2.146   1.992
 3736SOL     OW12106   4.826   1.009   5.957
 3736SOL    HW112107   4.738   0.973   5.989
 3736SOL    HW212108   4.819   1.034   5.861
 3737SOL     OW12109   3.068   6.931   3.573
 3737SOL    HW112110   3.014   6.985   3.638
 3737SOL    HW212111   3.128   6.869   3.623
 3738SOL     OW12112   0.078   0.823   4.429
 3738SOL    HW112113   0.079   0.844   4.527
 3738SOL    HW212114   0.170   0.796   4.401
 3739SOL     OW12115   0.388   3.178   0.986
 3739SOL    HW112116   0.373   3.182   0.887
 3739SOL    HW212117   0.315   3.124   1.028
 3740SOL     OW12118   5.817   6.703   0.127
 3740SOL    HW112119   5.734   6.759   0.132
 3740SOL    HW212120   5.881   6.733   0.198
 3741SOL     OW12121   3.910   1.551   0.226
 3741SOL    HW112122   3.828   1.495   0.221
 3741SOL    HW212123   3.979   1.515   0.163
 3742SOL     OW12124   3.873   3.451   6.046
 3742SOL    HW112125   3.879   3.547   6.075
 3742SOL    HW212126   3.783   3.433   6.007
 3743SOL     OW12127   0.799   5.893   5.980
 3743SOL    HW112128   0.873   5.953   6.013
 3743SOL    HW212129   0.712   5.941   5.988
 3744SOL     OW12130   6.594   4.806   3.050
 3744SOL    HW112131   6.501   4.839   3.066
 3744SOL    HW212132   6.613   4.806   2.952
 3745SOL     OW12133   5.203   4.920   1.137
 3745SOL    HW112134   5.222   5.016   1.119
 3745SOL    HW212135   5.114   4.911   1.180
 3746SOL     OW12136   3.882   1.674   1.441
 3746SOL    HW112137   3.893   1.766   1.478
 3746SOL    HW212138   3.786   1.648   1.442
 3747SOL     OW12139   2.389   6.780   1.069
 3747SOL    HW112140   2.408   6.702   1.010
 3747SOL    HW212141   2.449   6.856   1.044
 3748SOL     OW12142   6.117   0.366   1.667
 3748SOL    HW112143   6.174   0.446   1.682
 3748SOL    HW212144   6.102   0.319   1.754
 3749SOL     OW12145   0.855   0.510   4.115
 3749SOL    HW112146   0.763   0.498   4.152
 3749SOL    HW212147   0.900   0.586   4.161
 3750SOL     OW12148   0.609   4.028   6.783
 3750SOL    HW112149   0.571   4.028   6.875
 3750SOL    HW212150   0.692   4.084   6.781
 3751SOL     OW12151   1.890   5.124   1.555
 3751SOL    HW112152   1.972   5.128   1.497
 3751SOL    HW212153   1.845   5.214   1.554
 3752SOL     OW12154   5.352   5.747   6.770
 3752SOL    HW112155   5.358   5.788   6.861
 3752SOL    HW212156   5.276   5.787   6.720
 3753SOL     OW12157   7.015   0.728   3.338
 3753SOL    HW112158   0.078   0.775   3.338
 3753SOL    HW212159   6.971   0.741   3.249
 3754SOL     OW12160   3.726   1.958   1.361
 3754SOL    HW112161   3.762   2.044   1.323
 3754SOL    HW212162   3.669   1.979   1.441
 3755SOL     OW12163   2.489   5.658   4.051
 3755SOL    HW112164   2.392   5.679   4.069
 3755SOL    HW212165   2.546   5.713   4.111
 3756SOL     OW12166   1.227   6.288   0.821
 3756SOL    HW112167   1.209   6.194   0.792
 3756SOL    HW212168   1.246   6.290   0.919
 3757SOL     OW12169   0.759   5.125   0.131
 3757SOL    HW112170   0.765   5.095   0.036
 3757SOL    HW212171   0.760   5.045   0.191
 3758SOL     OW12172   0.284   5.948   4.185
 3758SOL    HW112173   0.218   5.990   4.248
 3758SOL    HW212174   0.235   5.904   4.110
 3759SOL     OW12175   4.454   0.774   3.771
 3759SOL    HW112176   4.373   0.795   3.826
 3759SOL    HW212177   4.536   0.788   3.827
 3760SOL     OW12178   0.690   0.892   3.287
 3760SOL    HW112179   0.749   0.972   3.295
 3760SOL    HW212180   0.746   0.809   3.289
 3761SOL     OW12181   4.664   1.180   4.945
 3761SOL    HW112182   4.643   1.200   4.850
 3761SOL    HW212183   4.611   1.240   5.004
 3762SOL     OW12184   0.390   2.630   3.835
 3762SOL    HW112185   0.469   2.627   3.775
 3762SOL    HW212186   0.311   2.664   3.784
 3763SOL     OW12187   1.045   6.573   6.918
 3763SOL    HW112188   1.118   6.507   6.934
 3763SOL    HW212189   1.047   6.644   6.988
 3764SOL     OW12190   3.630   1.640   2.602
 3764SOL    HW112191   3.544   1.606   2.640
 3764SOL    HW212192   3.649   1.593   2.516
 3765SOL     OW12193   5.573   3.837   2.669
 3765SOL    HW112194   5.569   3.811   2.572
 3765SOL    HW212195   5.602   3.932   2.676
 3766SOL     OW12196   2.253   2.982   2.034
 3766SOL    HW112197   2.209   3.055   2.086
 3766SOL    HW212198   2.281   2.909   2.096
 3767SOL     OW12199   1.690   5.982   6.108
 3767SOL    HW112200   1.694   5.918   6.031
 3767SOL    HW212201   1.781   6.022   6.122
 3768SOL     OW12202   1.920   6.863   3.511
 3768SOL    HW112203   1.893   6.934   3.576
 3768SOL    HW212204   2.001   6.815   3.546
 3769SOL     OW12205   5.257   4.907   5.722
 3769SOL    HW112206   5.183   4.955   5.768
 3769SOL    HW212207   5.343   4.956   5.738
 3770SOL     OW12208   2.726   6.492   0.755
 3770SOL    HW112209   2.812   6.517   0.709
 3770SOL    HW212210   2.744   6.424   0.826
 3771SOL     OW12211   6.579   6.261   6.128
 3771SOL    HW112212   6.624   6.210   6.055
 3771SOL    HW212213   6.529   6.338   6.088
 3772SOL     OW12214   3.128   6.033   1.890
 3772SOL    HW112215   3.200   5.973   1.856
 3772SOL    HW212216   3.170   6.109   1.941
 3773SOL     OW12217   4.953   4.438   6.486
 3773SOL    HW112218   4.860   4.428   6.521
 3773SOL    HW212219   5.015   4.458   6.561
 3774SOL     OW12220   6.762   4.533   0.981
 3774SOL    HW112221   6.840   4.473   1.000
 3774SOL    HW212222   6.696   4.526   1.057
 3775SOL     OW12223   5.422   6.615   4.832
 3775SOL    HW112224   5.342   6.582   4.882
 3775SOL    HW212225   5.498   6.629   4.896
 3776SOL     OW12226   4.684   2.584   6.548
 3776SOL    HW112227   4.641   2.552   6.464
 3776SOL    HW212228   4.745   2.513   6.584
 3777SOL     OW12229   3.405   5.150   3.392
 3777SOL    HW112230   3.381   5.102   3.476
 3777SOL    HW212231   3.323   5.165   3.337
 3778SOL     OW12232   3.056   5.514   6.504
 3778SOL    HW112233   2.970   5.552   6.470
 3778SOL    HW212234   3.117   5.589   6.529
 3779SOL     OW12235   0.091   4.777   6.050
 3779SOL    HW112236   0.172   4.719   6.062
 3779SOL    HW212237   0.081   4.837   6.130
 3780SOL     OW12238   6.044   2.146   2.202
 3780SOL    HW112239   6.108   2.103   2.139
 3780SOL    HW212240   5.982   2.078   2.240
 3781SOL     OW12241   1.380   7.021   5.927
 3781SOL    HW112242   1.396   6.996   5.831
 3781SOL    HW212243   1.348   0.090   5.932
 3782SOL     OW12244   3.664   5.176   6.662
 3782SOL    HW112245   3.743   5.220   6.704
 3782SOL    HW212246   3.692   5.134   6.575
 3783SOL     OW12247   4.659   5.082   5.457
 3783SOL    HW112248   4.584   5.102   5.521
 3783SOL    HW212249   4.641   5.128   5.370
 3784SOL     OW12250   5.529   3.423   4.351
 3784SOL    HW112251   5.475   3.455   4.274
 3784SOL    HW212252   5.608   3.484   4.364
 3785SOL     OW12253   0.701   3.274   2.660
 3785SOL    HW112254   0.720   3.230   2.748
 3785SOL    HW212255   0.726   3.371   2.666
 3786SOL     OW12256   2.742   3.115   5.999
 3786SOL    HW112257   2.712   3.191   5.942
 3786SOL    HW212258   2.715   3.029   5.957
 3787SOL     OW12259   4.752   5.981   5.233
 3787SOL    HW112260   4.717   6.037   5.308
 3787SOL    HW212261   4.780   6.040   5.157
 3788SOL     OW12262   5.945   2.939   6.178
 3788SOL    HW112263   5.930   2.871   6.106
 3788SOL    HW212264   5.963   2.892   6.264
 3789SOL     OW12265   2.173   4.212   1.028
 3789SOL    HW112266   2.198   4.185   0.935
 3789SOL    HW212267   2.215   4.150   1.094
 3790SOL     OW12268   2.060   6.888   1.568
 3790SOL    HW112269   2.098   6.896   1.476
 3790SOL    HW212270   1.961   6.874   1.562
 3791SOL     OW12271   5.041   0.741   4.433
 3791SOL    HW112272   5.080   0.686   4.359
 3791SOL    HW212273   5.070   0.836   4.422
 3792SOL     OW12274   6.251   0.361   3.143
 3792SOL    HW112275   6.198   0.375   3.226
 3792SOL    HW212276   6.282   0.449   3.107
 3793SOL     OW12277   4.729   3.453   0.182
 3793SOL    HW112278   4.812   3.464   0.126
 3793SOL    HW212279   4.649   3.456   0.122
 3794SOL     OW12280   1.516   5.140   5.832
 3794SOL    HW112281   1.543   5.159   5.737
 3794SOL    HW212282   1.430   5.089   5.832
 3795SOL     OW12283   3.173   5.887   0.698
 3795SOL    HW112284   3.220   5.915   0.615
 3795SOL    HW212285   3.177   5.787   0.706
 3796SOL     OW12286   5.177   0.466   7.008
 3796SOL    HW112287   5.161   0.509   0.071
 3796SOL    HW212288   5.103   0.489   6.945
 3797SOL     OW12289   6.950   2.697   1.294
 3797SOL    HW112290   6.936   2.689   1.393
 3797SOL    HW212291   6.893   2.770   1.257
 3798SOL     OW12292   0.525   4.699   3.882
 3798SOL    HW112293   0.431   4.687   3.915
 3798SOL    HW212294   0.586   4.641   3.936
 3799SOL     OW12295   6.530   1.646   2.381
 3799SOL    HW112296   6.565   1.619   2.471
 3799SOL    HW212297   6.607   1.675   2.323
 3800SOL     OW12298   5.228   3.275   2.204
 3800SOL    HW112299   5.145   3.320   2.170
 3800SOL    HW212300   5.305   3.339   2.200
 3801SOL     OW12301   5.865   1.449   1.063
 3801SOL    HW112302   5.929   1.526   1.060
 3801SOL    HW212303   5.847   1.425   1.158
 3802SOL     OW12304   6.207   3.724   2.993
 3802SOL    HW112305   6.117   3.740   3.033
 3802SOL    HW212306   6.251   3.812   2.975
 3803SOL     OW12307   3.945   4.152   6.007
 3803SOL    HW112308   3.878   4.223   6.026
 3803SOL    HW212309   3.975   4.160   5.912
 3804SOL     OW12310   3.009   5.899   3.001
 3804SOL    HW112311   3.007   5.824   3.068
 3804SOL    HW212312   3.103   5.922   2.980
 3805SOL     OW12313   2.532   1.559   6.772
 3805SOL    HW112314   2.582   1.485   6.727
 3805SOL    HW212315   2.568   1.647   6.740
 3806SOL     OW12316   1.741   3.641   2.059
 3806SOL    HW112317   1.676   3.571   2.088
 3806SOL    HW212318   1.834   3.612   2.079
 3807SOL     OW12319   0.498   4.229   3.874
 3807SOL    HW112320   0.563   4.287   3.826
 3807SOL    HW212321   0.537   4.138   3.886
 3808SOL     OW12322   2.687   6.294   5.819
 3808SOL    HW112323   2.667   6.271   5.724
 3808SOL    HW212324   2.605   6.328   5.864
 3809SOL     OW12325   5.080   1.221   1.445
 3809SOL    HW112326   5.059   1.124   1.456
 3809SOL    HW212327   5.177   1.231   1.424
 3810SOL     OW12328   5.050   2.222   3.626
 3810SOL    HW112329   5.122   2.160   3.659
 3810SOL    HW212330   4.961   2.184   3.649
 3811SOL     OW12331   0.189   6.024   5.048
 3811SOL    HW112332   0.184   5.924   5.042
 3811SOL    HW212333   0.268   6.050   5.102
 3812SOL     OW12334   4.217   5.625   0.139
 3812SOL    HW112335   4.160   5.675   0.204
 3812SOL    HW212336   4.162   5.552   0.097
 3813SOL     OW12337   6.374   3.087   6.983
 3813SOL    HW112338   6.460   3.051   6.947
 3813SOL    HW212339   6.366   3.184   6.961
 3814SOL     OW12340   7.000   0.391   5.135
 3814SOL    HW112341   6.993   0.482   5.096
 3814SOL    HW212342   6.959   0.390   5.226
 3815SOL     OW12343   4.817   2.132   5.233
 3815SOL    HW112344   4.799   2.204   5.166
 3815SOL    HW212345   4.763   2.149   5.315
 3816SOL     OW12346   6.808   6.588   1.545
 3816SOL    HW112347   6.820   6.504   1.598
 3816SOL    HW212348   6.851   6.664   1.592
 3817SOL     OW12349   3.909   3.734   2.447
 3817SOL    HW112350   3.915   3.819   2.396
 3817SOL    HW212351   3.975   3.737   2.523
 3818SOL     OW12352   4.344   5.411   2.511
 3818SOL    HW112353   4.408   5.369   2.575
 3818SOL    HW212354   4.394   5.473   2.450
 3819SOL     OW12355   6.238   3.466   3.219
 3819SOL    HW112356   6.273   3.513   3.137
 3819SOL    HW212357   6.165   3.519   3.260
 3820SOL     OW12358   2.841   6.586   6.133
 3820SOL    HW112359   2.821   6.572   6.036
 3820SOL    HW212360   2.911   6.522   6.163
 3821SOL     OW12361   1.725   6.612   1.218
 3821SOL    HW112362   1.662   6.688   1.235
 3821SOL    HW212363   1.716   6.545   1.291
 3822SOL     OW12364   5.985   6.938   1.652
 3822SOL    HW112365   5.887   6.926   1.667
 3822SOL    HW212366   6.017   6.873   1.583
 3823SOL     OW12367   5.413   6.250   4.717
 3823SOL    HW112368   5.505   6.212   4.728
 3823SOL    HW212369   5.401   6.278   4.622
 3824SOL     OW12370   1.741   2.582   0.470
 3824SOL    HW112371   1.692   2.528   0.400
 3824SOL    HW212372   1.675   2.640   0.518
 3825SOL     OW12373   0.527   4.804   5.662
 3825SOL    HW112374   0.455   4.871   5.648
 3825SOL    HW212375   0.594   4.840   5.726
 3826SOL     OW12376   4.863   4.005   3.827
 3826SOL    HW112377   4.822   4.028   3.915
 3826SOL    HW212378   4.883   3.907   3.824
 3827SOL     OW12379   0.531   1.204   7.007
 3827SOL    HW112380   0.558   1.220   0.076
 3827SOL    HW212381   0.551   1.109   6.983
 3828SOL     OW12382   3.381   4.012   5.325
 3828SOL    HW112383   3.299   4.065   5.304
 3828SOL    HW212384   3.382   3.988   5.422
 3829SOL     OW12385   6.840   3.012   1.715
 3829SOL    HW112386   6.744   2.987   1.705
 3829SOL    HW212387   6.895   2.930   1.730
 3830SOL     OW12388   5.357   6.806   3.581
 3830SOL    HW112389   5.317   6.867   3.650
 3830SOL    HW212390   5.371   6.856   3.496
 3831SOL     OW12391   5.288   2.385   3.974
 3831SOL    HW112392   5.366   2.330   4.004
 3831SOL    HW212393   5.308   2.424   3.884
 3832SOL     OW12394   6.273   1.008   3.780
 3832SOL    HW112395   6.354   1.020   3.723
 3832SOL    HW212396   6.243   1.096   3.816
 3833SOL     OW12397   1.749   2.953   5.950
 3833SOL    HW112398   1.654   2.954   5.981
 3833SOL    HW212399   1.794   2.871   5.983
 3834SOL     OW12400   5.130   5.054   0.763
 3834SOL    HW112401   5.203   5.120   0.782
 3834SOL    HW212402   5.150   5.005   0.679
 3835SOL     OW12403   4.526   5.369   4.705
 3835SOL    HW112404   4.515   5.377   4.606
 3835SOL    HW212405   4.523   5.460   4.746
 3836SOL     OW12406   0.253   6.991   4.280
 3836SOL    HW112407   0.190   6.937   4.335
 3836SOL    HW212408   0.225   0.061   4.281
 3837SOL     OW12409   4.947   4.166   5.317
 3837SOL    HW112410   4.893   4.126   5.391
 3837SOL    HW212411   4.939   4.109   5.235
 3838SOL     OW12412   6.831   1.290   3.869
 3838SOL    HW112413   6.877   1.277   3.957
 3838SOL    HW212414   6.869   1.371   3.824
 3839SOL     OW12415   4.297   1.589   3.735
 3839SOL    HW112416   4.390   1.564   3.710
 3839SOL    HW212417   4.243   1.603   3.652
 3840SOL     OW12418   3.807   1.336   6.384
 3840SOL    HW112419   3.840   1.430   6.387
 3840SOL    HW212420   3.821   1.293   6.474
 3841SOL     OW12421   5.608   4.439   3.342
 3841SOL    HW112422   5.574   4.484   3.424
 3841SOL    HW212423   5.586   4.341   3.346
 3842SOL     OW12424   1.681   3.891   5.133
 3842SOL    HW112425   1.656   3.797   5.155
 3842SOL    HW212426   1.768   3.892   5.083
 3843SOL     OW12427   5.927   2.278   6.289
 3843SOL    HW112428   5.988   2.356   6.302
 3843SOL    HW212429   5.834   2.304   6.317
 3844SOL     OW12430   6.424   6.562   0.307
 3844SOL    HW112431   6.522   6.542   0.314
 3844SOL    HW212432   6.384   6.560   0.398
 3845SOL     OW12433   2.175   5.288   0.063
 3845SOL    HW112434   2.142   5.364   0.119
 3845SOL    HW212435   2.181   5.318   6.993
 3846SOL     OW12436   6.587   3.276   2.754
 3846SOL    HW112437   6.572   3.188   2.709
 3846SOL    HW212438   6.683   3.283   2.782
 3847SOL     OW12439   1.047   0.983   6.747
 3847SOL    HW112440   1.041   0.886   6.721
 3847SOL    HW212441   0.999   0.997   6.834
 3848SOL     OW12442   6.306   4.972   2.157
 3848SOL    HW112443   6.373   4.914   2.203
 3848SOL    HW212444   6.271   4.925   2.076
 3849SOL     OW12445   0.461   3.292   5.706
 3849SOL    HW112446   0.433   3.206   5.750
 3849SOL    HW212447   0.397   3.364   5.732
 3850SOL     OW12448   3.100   2.725   1.394
 3850SOL    HW112449   3.047   2.666   1.454
 3850SOL    HW212450   3.084   2.699   1.299
 3851SOL     OW12451   0.206   5.602   2.658
 3851SOL    HW112452   0.137   5.673   2.641
 3851SOL    HW212453   0.297   5.643   2.660
 3852SOL     OW12454   2.677   0.783   4.989
 3852SOL    HW112455   2.735   0.739   4.921
 3852SOL    HW212456   2.717   0.770   5.080
 3853SOL     OW12457   2.422   1.003   3.018
 3853SOL    HW112458   2.331   1.007   3.058
 3853SOL    HW212459   2.488   0.974   3.087
 3854SOL     OW12460   0.341   1.864   1.647
 3854SOL    HW112461   0.332   1.960   1.673
 3854SOL    HW212462   0.314   1.805   1.723
 3855SOL     OW12463   3.065   6.204   6.595
 3855SOL    HW112464   3.076   6.197   6.496
 3855SOL    HW212465   2.967   6.202   6.617
 3856SOL     OW12466   6.709   2.660   6.563
 3856SOL    HW112467   6.767   2.628   6.488
 3856SOL    HW212468   6.703   2.759   6.561
 3857SOL     OW12469   1.542   0.345   6.563
 3857SOL    HW112470   1.480   0.377   6.492
 3857SOL    HW212471   1.586   0.260   6.534
 3858SOL     OW12472   4.051   1.437   5.279
 3858SOL    HW112473   4.089   1.345   5.277
 3858SOL    HW212474   4.041   1.467   5.374
 3859SOL     OW12475   5.801   0.014   2.159
 3859SOL    HW112476   5.874   0.082   2.149
 3859SOL    HW212477   5.720   0.059   2.197
 3860SOL     OW12478   1.508   6.541   4.568
 3860SOL    HW112479   1.427   6.598   4.582
 3860SOL    HW212480   1.566   6.582   4.497
 3861SOL     OW12481   3.166   5.660   2.482
 3861SOL    HW112482   3.248   5.666   2.424
 3861SOL    HW212483   3.169   5.575   2.534
 3862SOL     OW12484   1.684   0.487   4.237
 3862SOL    HW112485   1.628   0.568   4.220
 3862SOL    HW212486   1.745   0.473   4.159
 3863SOL     OW12487   4.404   0.838   1.127
 3863SOL    HW112488   4.366   0.788   1.204
 3863SOL    HW212489   4.482   0.893   1.157
 3864SOL     OW12490   0.733   6.988   4.253
 3864SOL    HW112491   0.726   6.926   4.175
 3864SOL    HW212492   0.803   0.031   4.235
 3865SOL     OW12493   5.189   0.698   0.643
 3865SOL    HW112494   5.146   0.681   0.732
 3865SOL    HW212495   5.144   0.775   0.598
 3866SOL     OW12496   3.337   0.582   6.745
 3866SOL    HW112497   3.385   0.598   6.831
 3866SOL    HW212498   3.270   0.655   6.730
 3867SOL     OW12499   6.311   3.504   2.147
 3867SOL    HW112500   6.344   3.578   2.206
 3867SOL    HW212501   6.297   3.421   2.201
 3868SOL     OW12502   3.870   0.312   0.260
 3868SOL    HW112503   3.882   0.272   0.169
 3868SOL    HW212504   3.945   0.284   0.320
 3869SOL     OW12505   3.836   0.982   4.240
 3869SOL    HW112506   3.799   0.921   4.309
 3869SOL    HW212507   3.844   1.075   4.277
 3870SOL     OW12508   0.313   1.542   5.598
 3870SOL    HW112509   0.280   1.625   5.553
 3870SOL    HW212510   0.302   1.464   5.536
 3871SOL     OW12511   2.893   5.113   3.779
 3871SOL    HW112512   2.942   5.124   3.866
 3871SOL    HW212513   2.803   5.156   3.786
 3872SOL     OW12514   2.981   3.993   5.222
 3872SOL    HW112515   2.989   3.995   5.122
 3872SOL    HW212516   2.890   3.960   5.246
 3873SOL     OW12517   4.878   1.788   6.829
 3873SOL    HW112518   4.974   1.762   6.838
 3873SOL    HW212519   4.865   1.880   6.866
 3874SOL     OW12520   2.252   1.266   1.415
 3874SOL    HW112521   2.226   1.322   1.337
 3874SOL    HW212522   2.245   1.320   1.499
 3875SOL     OW12523   1.092   1.417   6.662
 3875SOL    HW112524   1.144   1.367   6.592
 3875SOL    HW212525   1.024   1.356   6.702
 3876SOL     OW12526   3.439   5.430   2.606
 3876SOL    HW112527   3.519   5.373   2.585
 3876SOL    HW212528   3.462   5.492   2.682
 3877SOL     OW12529   0.701   1.552   5.484
 3877SOL    HW112530   0.705   1.618   5.408
 3877SOL    HW212531   0.642   1.589   5.556
 3878SOL     OW12532   4.937   1.412   4.797
 3878SOL    HW112533   4.924   1.336   4.734
 3878SOL    HW212534   4.896   1.390   4.885
 3879SOL     OW12535   5.165   5.463   0.129
 3879SOL    HW112536   5.072   5.468   0.165
 3879SOL    HW212537   5.218   5.541   0.161
 3880SOL     OW12538   4.876   4.662   4.060
 3880SOL    HW112539   4.780   4.666   4.087
 3880SOL    HW212540   4.934   4.670   4.140
 3881SOL     OW12541   1.093   3.064   6.931
 3881SOL    HW112542   1.170   3.002   6.916
 3881SOL    HW212543   1.114   3.154   6.892
 3882SOL     OW12544   0.296   1.921   5.881
 3882SOL    HW112545   0.298   2.015   5.916
 3882SOL    HW212546   0.299   1.857   5.957
 3883SOL     OW12547   4.328   6.261   4.143
 3883SOL    HW112548   4.329   6.177   4.197
 3883SOL    HW212549   4.353   6.240   4.048
 3884SOL     OW12550   0.245   3.505   2.152
 3884SOL    HW112551   0.148   3.493   2.173
 3884SOL    HW212552   0.290   3.551   2.229
 3885SOL     OW12553   4.406   5.699   1.864
 3885SOL    HW112554   4.339   5.745   1.922
 3885SOL    HW212555   4.359   5.640   1.798
 3886SOL     OW12556   2.906   5.518   5.943
 3886SOL    HW112557   2.846   5.560   5.874
 3886SOL    HW212558   2.854   5.452   5.997
 3887SOL     OW12559   1.930   5.312   2.051
 3887SOL    HW112560   1.980   5.360   1.978
 3887SOL    HW212561   1.972   5.222   2.066
 3888SOL     OW12562   5.371   4.971   4.061
 3888SOL    HW112563   5.357   4.923   3.975
 3888SOL    HW212564   5.416   4.909   4.126
 3889SOL     OW12565   5.321   4.116   0.162
 3889SOL    HW112566   5.354   4.190   0.221
 3889SOL    HW212567   5.394   4.089   0.099
 3890SOL     OW12568   5.381   3.682   3.844
 3890SOL    HW112569   5.330   3.743   3.783
 3890SOL    HW212570   5.324   3.603   3.867
 3891SOL     OW12571   4.824   5.324   4.070
 3891SOL    HW112572   4.793   5.417   4.048
 3891SOL    HW212573   4.895   5.297   4.005
 3892SOL     OW12574   6.727   2.028   1.393
 3892SOL    HW112575   6.706   1.970   1.314
 3892SOL    HW212576   6.734   2.123   1.363
 3893SOL     OW12577   4.116   3.282   3.691
 3893SOL    HW112578   4.210   3.247   3.685
 3893SOL    HW212579   4.070   3.272   3.603
 3894SOL     OW12580   4.370   0.689   5.864
 3894SOL    HW112581   4.313   0.725   5.939
 3894SOL    HW212582   4.314   0.681   5.781
 3895SOL     OW12583   0.124   0.113   3.974
 3895SOL    HW112584   0.121   0.014   3.992
 3895SOL    HW212585   0.059   0.159   4.034
 3896SOL     OW12586   2.081   1.335   6.312
 3896SOL    HW112587   2.008   1.320   6.245
 3896SOL    HW212588   2.109   1.431   6.312
 3897SOL     OW12589   3.713   5.948   1.081
 3897SOL    HW112590   3.748   5.905   1.164
 3897SOL    HW212591   3.783   6.008   1.042
 3898SOL     OW12592   3.453   2.940   1.727
 3898SOL    HW112593   3.396   2.886   1.664
 3898SOL    HW212594   3.521   2.880   1.769
 3899SOL     OW12595   2.843   0.007   5.712
 3899SOL    HW112596   2.931   6.989   5.698
 3899SOL    HW212597   2.770   6.973   5.677
 3900SOL     OW12598   4.557   4.717   3.056
 3900SOL    HW112599   4.628   4.646   3.057
 3900SOL    HW212600   4.467   4.674   3.052
 3901SOL     OW12601   3.006   1.089   0.084
 3901SOL    HW112602   3.075   1.041   0.139
 3901SOL    HW212603   2.928   1.112   0.142
 3902SOL     OW12604   5.400   2.886   2.784
 3902SOL    HW112605   5.345   2.802   2.789
 3902SOL    HW212606   5.355   2.958   2.837
 3903SOL     OW12607   3.428   4.499   6.191
 3903SOL    HW112608   3.338   4.537   6.214
 3903SOL    HW212609   3.471   4.463   6.273
 3904SOL     OW12610   1.764   6.650   0.762
 3904SOL    HW112611   1.668   6.629   0.744
 3904SOL    HW212612   1.771   6.723   0.830
 3905SOL     OW12613   0.011   6.224   5.157
 3905SOL    HW112614   0.007   6.307   5.102
 3905SOL    HW212615   0.017   6.144   5.098
 3906SOL     OW12616   0.046   5.993   5.432
 3906SOL    HW112617   0.083   6.086   5.424
 3906SOL    HW212618   0.010   5.980   5.524
 3907SOL     OW12619   5.710   2.316   3.740
 3907SOL    HW112620   5.793   2.262   3.729
 3907SOL    HW212621   5.672   2.338   3.650
 3908SOL     OW12622   2.813   4.052   5.946
 3908SOL    HW112623   2.790   4.016   5.855
 3908SOL    HW212624   2.867   3.984   5.996
 3909SOL     OW12625   5.455   5.905   3.548
 3909SOL    HW112626   5.413   5.981   3.498
 3909SOL    HW212627   5.554   5.919   3.552
 3910SOL     OW12628   3.750   3.369   2.653
 3910SOL    HW112629   3.700   3.308   2.592
 3910SOL    HW212630   3.721   3.464   2.637
 3911SOL     OW12631   6.149   2.326   6.029
 3911SOL    HW112632   6.073   2.281   6.076
 3911SOL    HW212633   6.233   2.312   6.082
 3912SOL     OW12634   5.347   2.446   5.942
 3912SOL    HW112635   5.321   2.512   5.872
 3912SOL    HW212636   5.365   2.494   6.028
 3913SOL     OW12637   1.548   6.812   1.292
 3913SOL    HW112638   1.545   6.816   1.392
 3913SOL    HW212639   1.456   6.831   1.256
 3914SOL     OW12640   3.096   5.687   5.468
 3914SOL    HW112641   3.007   5.687   5.421
 3914SOL    HW212642   3.159   5.627   5.419
 3915SOL     OW12643   6.714   5.923   1.744
 3915SOL    HW112644   6.718   5.984   1.823
 3915SOL    HW212645   6.724   5.828   1.775
 3916SOL     OW12646   0.420   0.230   3.722
 3916SOL    HW112647   0.446   0.297   3.651
 3916SOL    HW212648   0.421   0.275   3.811
 3917SOL     OW12649   2.698   6.908   6.669
 3917SOL    HW112650   2.741   6.996   6.691
 3917SOL    HW212651   2.754   6.834   6.705
 3918SOL     OW12652   5.900   3.364   6.687
 3918SOL    HW112653   5.901   3.385   6.589
 3918SOL    HW212654   5.807   3.342   6.716
 3919SOL     OW12655   3.268   6.504   0.923
 3919SOL    HW112656   3.356   6.547   0.940
 3919SOL    HW212657   3.253   6.496   0.824
 3920SOL     OW12658   2.216   0.965   6.792
 3920SOL    HW112659   2.249   0.872   6.810
 3920SOL    HW212660   2.137   0.961   6.731
 3921SOL     OW12661   0.900   3.515   1.454
 3921SOL    HW112662   0.943   3.490   1.367
 3921SOL    HW212663   0.862   3.608   1.446
 3922SOL     OW12664   1.152   4.951   1.139
 3922SOL    HW112665   1.226   4.965   1.073
 3922SOL    HW212666   1.191   4.920   1.225
 3923SOL     OW12667   6.777   7.023   1.000
 3923SOL    HW112668   6.678   7.009   0.997
 3923SOL    HW212669   6.816   6.969   1.074
 3924SOL     OW12670   6.719   4.821   5.035
 3924SOL    HW112671   6.646   4.777   5.088
 3924SOL    HW212672   6.739   4.766   4.954
 3925SOL     OW12673   1.329   5.249   1.668
 3925SOL    HW112674   1.247   5.191   1.668
 3925SOL    HW212675   1.411   5.190   1.663
 3926SOL     OW12676   3.416   5.297   3.043
 3926SOL    HW112677   3.360   5.370   3.082
 3926SOL    HW212678   3.485   5.269   3.110
 3927SOL     OW12679   2.039   3.301   6.537
 3927SOL    HW112680   2.089   3.318   6.622
 3927SOL    HW212681   2.104   3.282   6.464
 3928SOL     OW12682   6.065   6.741   6.184
 3928SOL    HW112683   6.142   6.746   6.120
 3928SOL    HW212684   6.004   6.819   6.168
 3929SOL     OW12685   1.023   1.596   4.600
 3929SOL    HW112686   1.056   1.681   4.558
 3929SOL    HW212687   0.997   1.531   4.528
 3930SOL     OW12688   2.693   1.762   3.868
 3930SOL    HW112689   2.784   1.792   3.895
 3930SOL    HW212690   2.700   1.697   3.792
 3931SOL     OW12691   4.213   0.058   1.976
 3931SOL    HW112692   4.288   0.061   1.910
 3931SOL    HW212693   4.130   0.095   1.935
 3932SOL     OW12694   1.788   2.766   3.643
 3932SOL    HW112695   1.777   2.864   3.658
 3932SOL    HW212696   1.740   2.715   3.714
 3933SOL     OW12697   2.181   0.719   5.909
 3933SOL    HW112698   2.088   0.730   5.875
 3933SOL    HW212699   2.246   0.742   5.836
 3934SOL     OW12700   5.304   6.207   0.390
 3934SOL    HW112701   5.382   6.264   0.364
 3934SOL    HW212702   5.225   6.232   0.334
 3935SOL     OW12703   5.048   6.909   1.753
 3935SOL    HW112704   4.999   6.922   1.667
 3935SOL    HW212705   5.126   6.971   1.757
 3936SOL     OW12706   0.337   4.520   2.697
 3936SOL    HW112707   0.330   4.532   2.796
 3936SOL    HW212708   0.344   4.610   2.653
 3937SOL     OW12709   0.274   2.311   2.222
 3937SOL    HW112710   0.312   2.394   2.180
 3937SOL    HW212711   0.337   2.277   2.292
 3938SOL     OW12712   6.500   2.711   3.292
 3938SOL    HW112713   6.476   2.755   3.205
 3938SOL    HW212714   6.417   2.674   3.334
 3939SOL     OW12715   1.978   1.799   1.682
 3939SOL    HW112716   1.934   1.739   1.615
 3939SOL    HW212717   2.064   1.834   1.644
 3940SOL     OW12718   4.419   4.259   1.110
 3940SOL    HW112719   4.457   4.341   1.068
 3940SOL    HW212720   4.397   4.278   1.205
 3941SOL     OW12721   5.407   3.195   6.924
 3941SOL    HW112722   5.325   3.206   6.867
 3941SOL    HW212723   5.405   3.107   6.970
 3942SOL     OW12724   6.930   0.509   0.778
 3942SOL    HW112725   6.943   0.458   0.863
 3942SOL    HW212726   6.839   0.550   0.777
 3943SOL     OW12727   6.396   3.142   5.304
 3943SOL    HW112728   6.467   3.211   5.291
 3943SOL    HW212729   6.438   3.057   5.336
 3944SOL     OW12730   5.616   1.488   4.552
 3944SOL    HW112731   5.530   1.514   4.595
 3944SOL    HW212732   5.631   1.390   4.564
 3945SOL     OW12733   0.282   0.392   1.080
 3945SOL    HW112734   0.306   0.301   1.046
 3945SOL    HW212735   0.302   0.397   1.178
 3946SOL     OW12736   3.561   5.530   3.360
 3946SOL    HW112737   3.561   5.443   3.310
 3946SOL    HW212738   3.654   5.554   3.385
 3947SOL     OW12739   6.503   4.226   6.021
 3947SOL    HW112740   6.472   4.228   6.116
 3947SOL    HW212741   6.566   4.149   6.008
 3948SOL     OW12742   6.684   3.618   0.696
 3948SOL    HW112743   6.727   3.687   0.755
 3948SOL    HW212744   6.751   3.547   0.675
 3949SOL     OW12745   5.567   6.309   3.429
 3949SOL    HW112746   5.535   6.398   3.460
 3949SOL    HW212747   5.490   6.245   3.426
 3950SOL     OW12748   1.518   6.443   0.780
 3950SOL    HW112749   1.551   6.396   0.698
 3950SOL    HW212750   1.432   6.490   0.759
 3951SOL     OW12751   5.755   5.964   1.753
 3951SOL    HW112752   5.692   6.038   1.727
 3951SOL    HW212753   5.751   5.892   1.684
 3952SOL     OW12754   6.294   1.485   6.355
 3952SOL    HW112755   6.230   1.410   6.336
 3952SOL    HW212756   6.265   1.532   6.439
 3953SOL     OW12757   3.253   4.099   2.501
 3953SOL    HW112758   3.225   4.190   2.471
 3953SOL    HW212759   3.174   4.049   2.536
 3954SOL     OW12760   3.886   4.929   5.656
 3954SOL    HW112761   3.886   5.009   5.596
 3954SOL    HW212762   3.855   4.955   5.747
 3955SOL     OW12763   3.890   1.487   4.874
 3955SOL    HW112764   3.859   1.557   4.810
 3955SOL    HW212765   3.851   1.505   4.964
 3956SOL     OW12766   1.835   1.402   1.294
 3956SOL    HW112767   1.891   1.387   1.213
 3956SOL    HW212768   1.879   1.470   1.353
 3957SOL     OW12769   3.651   0.992   3.997
 3957SOL    HW112770   3.699   0.961   4.079
 3957SOL    HW212771   3.561   1.028   4.023
 3958SOL     OW12772   5.746   6.607   5.748
 3958SOL    HW112773   5.777   6.659   5.828
 3958SOL    HW212774   5.757   6.509   5.764
 3959SOL     OW12775   5.605   5.386   6.597
 3959SOL    HW112776   5.632   5.290   6.588
 3959SOL    HW212777   5.505   5.392   6.607
 3960SOL     OW12778   6.226   2.207   5.057
 3960SOL    HW112779   6.165   2.132   5.030
 3960SOL    HW212780   6.182   2.261   5.129
 3961SOL     OW12781   5.373   0.126   4.456
 3961SOL    HW112782   5.287   0.100   4.413
 3961SOL    HW212783   5.438   0.155   4.386
 3962SOL     OW12784   6.330   5.052   5.161
 3962SOL    HW112785   6.283   5.118   5.102
 3962SOL    HW212786   6.266   5.012   5.226
 3963SOL     OW12787   4.705   0.087   2.448
 3963SOL    HW112788   4.766   0.089   2.528
 3963SOL    HW212789   4.721   0.169   2.392
 3964SOL     OW12790   5.179   2.913   3.592
 3964SOL    HW112791   5.113   2.959   3.532
 3964SOL    HW212792   5.176   2.815   3.575
 3965SOL     OW12793   4.769   4.034   4.373
 3965SOL    HW112794   4.700   4.095   4.335
 3965SOL    HW212795   4.821   3.991   4.299
 3966SOL     OW12796   2.523   6.731   6.511
 3966SOL    HW112797   2.535   6.635   6.534
 3966SOL    HW212798   2.548   6.788   6.589
 3967SOL     OW12799   1.630   4.077   3.885
 3967SOL    HW112800   1.706   4.046   3.829
 3967SOL    HW212801   1.567   4.131   3.829
 3968SOL     OW12802   3.734   0.351   0.504
 3968SOL    HW112803   3.666   0.299   0.557
 3968SOL    HW212804   3.748   0.306   0.416
 3969SOL     OW12805   0.114   4.930   3.411
 3969SOL    HW112806   0.035   4.990   3.403
 3969SOL    HW212807   0.084   4.837   3.430
 3970SOL     OW12808   4.663   5.813   1.844
 3970SOL    HW112809   4.579   5.759   1.843
 3970SOL    HW212810   4.738   5.757   1.808
 3971SOL     OW12811   1.359   6.103   3.874
 3971SOL    HW112812   1.289   6.073   3.810
 3971SOL    HW212813   1.320   6.108   3.966
 3972SOL     OW12814   1.450   3.409   7.024
 3972SOL    HW112815   1.526   3.457   0.044
 3972SOL    HW212816   1.477   3.315   7.005
 3973SOL     OW12817   1.763   4.517   0.590
 3973SOL    HW112818   1.665   4.506   0.575
 3973SOL    HW212819   1.813   4.497   0.505
 3974SOL     OW12820   2.564   1.149   5.448
 3974SOL    HW112821   2.563   1.156   5.348
 3974SOL    HW212822   2.516   1.227   5.487
 3975SOL     OW12823   6.404   3.207   6.546
 3975SOL    HW112824   6.379   3.155   6.465
 3975SOL    HW212825   6.464   3.151   6.604
 3976SOL     OW12826   1.744   4.289   2.705
 3976SOL    HW112827   1.826   4.272   2.759
 3976SOL    HW212828   1.699   4.202   2.683
 3977SOL     OW12829   0.600   2.891   6.926
 3977SOL    HW112830   0.576   2.823   6.995
 3977SOL    HW212831   0.699   2.889   6.911
 3978SOL     OW12832   6.351   4.886   4.056
 3978SOL    HW112833   6.399   4.872   3.970
 3978SOL    HW212834   6.414   4.872   4.132
 3979SOL     OW12835   4.900   5.824   6.359
 3979SOL    HW112836   4.992   5.855   6.333
 3979SOL    HW212837   4.853   5.897   6.408
 3980SOL     OW12838   5.868   5.075   6.055
 3980SOL    HW112839   5.944   5.140   6.043
 3980SOL    HW212840   5.863   5.015   5.976
 3981SOL     OW12841   4.651   5.720   6.894
 3981SOL    HW112842   4.607   5.716   6.984
 3981SOL    HW212843   4.582   5.710   6.822
 3982SOL     OW12844   2.697   5.803   3.162
 3982SOL    HW112845   2.775   5.801   3.224
 3982SOL    HW212846   2.684   5.896   3.127
 3983SOL     OW12847   3.748   5.879   4.178
 3983SOL    HW112848   3.652   5.893   4.154
 3983SOL    HW212849   3.805   5.943   4.125
 3984SOL     OW12850   6.714   3.087   3.172
 3984SOL    HW112851   6.680   3.159   3.232
 3984SOL    HW212852   6.813   3.098   3.160
 3985SOL     OW12853   4.060   5.202   6.382
 3985SOL    HW112854   4.116   5.146   6.444
 3985SOL    HW212855   4.103   5.292   6.372
 3986SOL     OW12856   5.378   0.518   3.029
 3986SOL    HW112857   5.474   0.533   3.052
 3986SOL    HW212858   5.323   0.591   3.068
 3987SOL     OW12859   3.821   5.615   5.094
 3987SOL    HW112860   3.914   5.581   5.108
 3987SOL    HW212861   3.756   5.544   5.120
 3988SOL     OW12862   4.650   5.441   0.683
 3988SOL    HW112863   4.703   5.400   0.608
 3988SOL    HW212864   4.565   5.390   0.696
 3989SOL     OW12865   6.393   2.994   1.191
 3989SOL    HW112866   6.394   2.952   1.282
 3989SOL    HW212867   6.299   3.022   1.168
 3990SOL     OW12868   6.951   1.301   1.741
 3990SOL    HW112869   6.960   1.202   1.756
 3990SOL    HW212870   7.023   1.348   1.792
 3991SOL     OW12871   5.641   1.163   3.109
 3991SOL    HW112872   5.718   1.156   3.172
 3991SOL    HW212873   5.656   1.102   3.031
 3992SOL     OW12874   4.236   1.895   1.567
 3992SOL    HW112875   4.145   1.936   1.556
 3992SOL    HW212876   4.238   1.806   1.522
 3993SOL     OW12877   0.966   3.557   1.760
 3993SOL    HW112878   0.909   3.505   1.696
 3993SOL    HW212879   0.926   3.648   1.772
 3994SOL     OW12880   2.455   5.856   4.465
 3994SOL    HW112881   2.380   5.789   4.468
 3994SOL    HW212882   2.509   5.841   4.383
 3995SOL     OW12883   2.026   2.149   4.450
 3995SOL    HW112884   2.025   2.178   4.545
 3995SOL    HW212885   1.969   2.068   4.439
 3996SOL     OW12886   0.229   5.920   4.468
 3996SOL    HW112887   0.326   5.898   4.480
 3996SOL    HW212888   0.220   6.009   4.425
 3997SOL     OW12889   2.919   1.433   3.404
 3997SOL    HW112890   2.940   1.377   3.484
 3997SOL    HW212891   2.953   1.526   3.418
 3998SOL     OW12892   4.547   2.576   3.269
 3998SOL    HW112893   4.584   2.506   3.331
 3998SOL    HW212894   4.487   2.532   3.202
 3999SOL     OW12895   4.875   1.784   4.441
 3999SOL    HW112896   4.800   1.803   4.505
 3999SOL    HW212897   4.895   1.867   4.388
 4000SOL     OW12898   4.054   6.224   4.189
 4000SOL    HW112899   4.120   6.150   4.200
 4000SOL    HW212900   4.090   6.292   4.125
 4001SOL     OW12901   0.808   1.596   4.239
 4001SOL    HW112902   0.723   1.543   4.242
 4001SOL    HW212903   0.885   1.538   4.267
 4002SOL     OW12904   1.945   4.197   1.185
 4002SOL    HW112905   1.968   4.261   1.259
 4002SOL    HW212906   2.017   4.200   1.116
 4003SOL     OW12907   4.062   2.197   4.989
 4003SOL    HW112908   4.111   2.282   5.006
 4003SOL    HW212909   4.006   2.175   5.069
 4004SOL     OW12910   6.793   1.996   6.394
 4004SOL    HW112911   6.733   1.917   6.379
 4004SOL    HW212912   6.873   1.990   6.335
 4005SOL     OW12913   6.095   4.644   5.107
 4005SOL    HW112914   6.098   4.681   5.200
 4005SOL    HW212915   6.188   4.638   5.070
 4006SOL     OW12916   3.363   6.272   2.881
 4006SOL    HW112917   3.428   6.262   2.806
 4006SOL    HW212918   3.402   6.233   2.964
 4007SOL     OW12919   0.398   1.388   6.011
 4007SOL    HW112920   0.447   1.376   6.098
 4007SOL    HW212921   0.415   1.481   5.977
 4008SOL     OW12922   3.352   1.394   5.454
 4008SOL    HW112923   3.320   1.316   5.400
 4008SOL    HW212924   3.273   1.450   5.480
 4009SOL     OW12925   3.783   3.727   2.920
 4009SOL    HW112926   3.796   3.638   2.964
 4009SOL    HW212927   3.686   3.743   2.905
 4010SOL     OW12928   1.169   3.283   6.802
 4010SOL    HW112929   1.222   3.241   6.728
 4010SOL    HW212930   1.217   3.364   6.835
 4011SOL     OW12931   0.401   2.480   1.023
 4011SOL    HW112932   0.486   2.428   1.018
 4011SOL    HW212933   0.375   2.494   1.119
 4012SOL     OW12934   5.550   3.227   3.535
 4012SOL    HW112935   5.492   3.282   3.596
 4012SOL    HW212936   5.493   3.162   3.485
 4013SOL     OW12937   5.023   2.869   2.939
 4013SOL    HW112938   5.053   2.800   2.873
 4013SOL    HW212939   5.087   2.946   2.940
 4014SOL     OW12940   5.359   5.518   2.068
 4014SOL    HW112941   5.292   5.583   2.030
 4014SOL    HW212942   5.311   5.450   2.123
 4015SOL     OW12943   4.566   3.603   6.928
 4015SOL    HW112944   4.541   3.525   6.985
 4015SOL    HW212945   4.623   3.572   6.851
 4016SOL     OW12946   2.938   6.066   4.313
 4016SOL    HW112947   2.870   6.043   4.383
 4016SOL    HW212948   2.956   5.986   4.256
 4017SOL     OW12949   6.264   6.776   5.993
 4017SOL    HW112950   6.254   6.689   5.944
 4017SOL    HW212951   6.361   6.795   6.007
 4018SOL     OW12952   2.136   0.288   6.941
 4018SOL    HW112953   2.073   0.215   6.967
 4018SOL    HW212954   2.142   0.293   6.841
 4019SOL     OW12955   5.078   5.906   3.901
 4019SOL    HW112956   5.131   5.915   3.985
 4019SOL    HW212957   5.092   5.815   3.862
 4020SOL     OW12958   5.571   2.026   5.029
 4020SOL    HW112959   5.580   2.123   5.051
 4020SOL    HW212960   5.513   2.016   4.949
 4021SOL     OW12961   4.935   3.528   0.013
 4021SOL    HW112962   4.966   3.601   0.074
 4021SOL    HW212963   4.981   3.538   6.950
 4022SOL     OW12964   5.600   0.530   0.805
 4022SOL    HW112965   5.686   0.563   0.844
 4022SOL    HW212966   5.544   0.608   0.777
 4023SOL     OW12967   6.343   6.448   5.643
 4023SOL    HW112968   6.338   6.532   5.697
 4023SOL    HW212969   6.358   6.370   5.704
 4024SOL     OW12970   4.600   4.467   4.897
 4024SOL    HW112971   4.637   4.409   4.970
 4024SOL    HW212972   4.510   4.501   4.925
 4025SOL     OW12973   0.831   3.768   4.150
 4025SOL    HW112974   0.759   3.821   4.106
 4025SOL    HW212975   0.854   3.689   4.093
 4026SOL     OW12976   5.357   0.596   5.803
 4026SOL    HW112977   5.452   0.598   5.835
 4026SOL    HW212978   5.336   0.681   5.754
 4027SOL     OW12979   3.403   5.111   2.163
 4027SOL    HW112980   3.444   5.055   2.235
 4027SOL    HW212981   3.432   5.076   2.073
 4028SOL     OW12982   1.992   5.383   3.024
 4028SOL    HW112983   2.088   5.382   2.996
 4028SOL    HW212984   1.971   5.299   3.074
 4029SOL     OW12985   1.889   4.029   3.519
 4029SOL    HW112986   1.866   3.932   3.520
 4029SOL    HW212987   1.827   4.078   3.458
 4030SOL     OW12988   1.793   1.705   6.659
 4030SOL    HW112989   1.784   1.686   6.561
 4030SOL    HW212990   1.883   1.744   6.678
 4031SOL     OW12991   6.295   5.709   4.547
 4031SOL    HW112992   6.367   5.640   4.535
 4031SOL    HW212993   6.219   5.690   4.484
 4032SOL     OW12994   3.642   0.158   4.929
 4032SOL    HW112995   3.598   0.218   4.996
 4032SOL    HW212996   3.588   0.075   4.917
 4033SOL     OW12997   3.874   3.707   6.183
 4033SOL    HW112998   3.971   3.701   6.163
 4033SOL    HW212999   3.841   3.800   6.168
 4034SOL     OW13000   5.866   3.423   4.650
 4034SOL    HW113001   5.858   3.390   4.744
 4034SOL    HW213002   5.935   3.370   4.601
 4035SOL     OW13003   0.104   6.402   1.944
 4035SOL    HW113004   0.150   6.433   2.027
 4035SOL    HW213005   0.129   6.461   1.868
 4036SOL     OW13006   6.163   5.914   1.755
 4036SOL    HW113007   6.260   5.928   1.734
 4036SOL    HW213008   6.111   5.993   1.725
 4037SOL     OW13009   0.397   3.759   6.394
 4037SOL    HW113010   0.437   3.672   6.424
 4037SOL    HW213011   0.420   3.830   6.461
 4038SOL     OW13012   5.962   5.222   3.219
 4038SOL    HW113013   5.872   5.236   3.261
 4038SOL    HW213014   6.032   5.219   3.291
 4039SOL     OW13015   2.633   5.526   1.109
 4039SOL    HW113016   2.584   5.566   1.187
 4039SOL    HW213017   2.603   5.432   1.097
 4040SOL     OW13018   3.295   6.828   6.989
 4040SOL    HW113019   3.218   6.877   6.949
 4040SOL    HW213020   3.343   6.776   6.918
 4041SOL     OW13021   0.839   5.912   2.959
 4041SOL    HW113022   0.882   5.859   3.032
 4041SOL    HW213023   0.845   6.010   2.981
 4042SOL     OW13024   6.115   6.185   2.021
 4042SOL    HW113025   6.042   6.130   1.981
 4042SOL    HW213026   6.199   6.131   2.025
 4043SOL     OW13027   6.624   3.516   0.982
 4043SOL    HW113028   6.565   3.436   0.993
 4043SOL    HW213029   6.641   3.532   0.885
 4044SOL     OW13030   5.846   5.173   2.366
 4044SOL    HW113031   5.846   5.243   2.295
 4044SOL    HW213032   5.928   5.116   2.357
 4045SOL     OW13033   2.656   4.722   5.854
 4045SOL    HW113034   2.753   4.734   5.872
 4045SOL    HW213035   2.631   4.626   5.867
 4046SOL     OW13036   0.500   3.337   0.542
 4046SOL    HW113037   0.415   3.372   0.503
 4046SOL    HW213038   0.578   3.386   0.502
 4047SOL     OW13039   2.959   3.524   3.014
 4047SOL    HW113040   2.898   3.476   3.077
 4047SOL    HW213041   2.942   3.493   2.920
 4048SOL     OW13042   4.678   2.406   0.690
 4048SOL    HW113043   4.661   2.441   0.599
 4048SOL    HW213044   4.721   2.315   0.684
 4049SOL     OW13045   6.715   0.007   0.181
 4049SOL    HW113046   6.636   6.974   0.161
 4049SOL    HW213047   6.738   7.025   0.278
 4050SOL     OW13048   2.322   0.719   2.667
 4050SOL    HW113049   2.231   0.759   2.675
 4050SOL    HW213050   2.377   0.743   2.748
 4051SOL     OW13051   2.622   3.771   0.998
 4051SOL    HW113052   2.689   3.735   0.933
 4051SOL    HW213053   2.532   3.730   0.978
 4052SOL     OW13054   1.527   0.136   1.106
 4052SOL    HW113055   1.455   0.200   1.131
 4052SOL    HW213056   1.539   0.069   1.180
 4053SOL     OW13057   2.744   5.144   2.705
 4053SOL    HW113058   2.697   5.232   2.694
 4053SOL    HW213059   2.743   5.096   2.617
 4054SOL     OW13060   5.599   1.335   6.684
 4054SOL    HW113061   5.559   1.377   6.603
 4054SOL    HW213062   5.674   1.274   6.657
 4055SOL     OW13063   4.603   3.468   0.430
 4055SOL    HW113064   4.503   3.466   0.433
 4055SOL    HW213065   4.635   3.453   0.337
 4056SOL     OW13066   4.749   2.928   6.786
 4056SOL    HW113067   4.691   2.989   6.839
 4056SOL    HW213068   4.766   2.844   6.838
 4057SOL     OW13069   5.827   2.510   0.850
 4057SOL    HW113070   5.904   2.453   0.823
 4057SOL    HW213071   5.812   2.502   0.948
 4058SOL     OW13072   1.149   2.990   3.929
 4058SOL    HW113073   1.088   3.007   4.006
 4058SOL    HW213074   1.149   2.892   3.908
 4059SOL     OW13075   0.133   1.779   4.713
 4059SOL    HW113076   0.100   1.814   4.800
 4059SOL    HW213077   0.080   1.699   4.687
 4060SOL     OW13078   2.908   6.736   5.710
 4060SOL    HW113079   2.963   6.779   5.781
 4060SOL    HW213080   2.905   6.637   5.726
 4061SOL     OW13081   2.164   2.905   0.941
 4061SOL    HW113082   2.145   2.848   1.021
 4061SOL    HW213083   2.132   2.859   0.858
 4062SOL     OW13084   2.862   0.078   2.686
 4062SOL    HW113085   2.900   0.145   2.622
 4062SOL    HW213086   2.934   0.015   2.715
 4063SOL     OW13087   3.113   5.872   6.278
 4063SOL    HW113088   3.039   5.812   6.246
 4063SOL    HW213089   3.184   5.878   6.208
 4064SOL     OW13090   6.560   6.657   4.440
 4064SOL    HW113091   6.655   6.683   4.421
 4064SOL    HW213092   6.558   6.575   4.496
 4065SOL     OW13093   1.658   4.446   5.474
 4065SOL    HW113094   1.726   4.519   5.461
 4065SOL    HW213095   1.698   4.373   5.530
 4066SOL     OW13096   4.540   5.391   1.569
 4066SOL    HW113097   4.480   5.388   1.649
 4066SOL    HW213098   4.635   5.380   1.598
 4067SOL     OW13099   5.504   0.768   1.021
 4067SOL    HW113100   5.532   0.675   1.044
 4067SOL    HW213101   5.435   0.765   0.948
 4068SOL     OW13102   5.053   0.704   4.741
 4068SOL    HW113103   5.069   0.706   4.642
 4068SOL    HW213104   5.141   0.706   4.789
 4069SOL     OW13105   6.678   6.130   0.801
 4069SOL    HW113106   6.638   6.196   0.738
 4069SOL    HW213107   6.710   6.050   0.750
 4070SOL     OW13108   6.513   3.694   2.675
 4070SOL    HW113109   6.522   3.659   2.768
 4070SOL    HW213110   6.447   3.769   2.673
 4071SOL     OW13111   2.548   0.562   4.719
 4071SOL    HW113112   2.453   0.593   4.710
 4071SOL    HW213113   2.610   0.636   4.692
 4072SOL     OW13114   0.608   0.202   4.284
 4072SOL    HW113115   0.587   0.107   4.260
 4072SOL    HW213116   0.676   0.205   4.357
 4073SOL     OW13117   2.612   4.579   2.213
 4073SOL    HW113118   2.551   4.500   2.209
 4073SOL    HW213119   2.664   4.586   2.128
 4074SOL     OW13120   7.025   3.048   0.910
 4074SOL    HW113121   0.069   3.006   0.967
 4074SOL    HW213122   6.965   2.977   0.872
 4075SOL     OW13123   6.166   0.385   3.409
 4075SOL    HW113124   6.182   0.482   3.431
 4075SOL    HW213125   6.070   0.363   3.422
 4076SOL     OW13126   1.681   3.064   3.571
 4076SOL    HW113127   1.592   3.085   3.531
 4076SOL    HW213128   1.750   3.062   3.498
 4077SOL     OW13129   3.434   0.890   1.361
 4077SOL    HW113130   3.521   0.869   1.406
 4077SOL    HW213131   3.398   0.807   1.319
 4078SOL     OW13132   4.790   4.699   3.259
 4078SOL    HW113133   4.805   4.685   3.161
 4078SOL    HW213134   4.704   4.749   3.272
 4079SOL     OW13135   4.817   1.083   4.001
 4079SOL    HW113136   4.868   1.083   3.914
 4079SOL    HW213137   4.845   1.163   4.055
 4080SOL     OW13138   3.344   4.190   4.546
 4080SOL    HW113139   3.396   4.258   4.597
 4080SOL    HW213140   3.338   4.105   4.598
 4081SOL     OW13141   2.420   0.447   0.033
 4081SOL    HW113142   2.347   0.391   7.019
 4081SOL    HW213143   2.503   0.392   0.042
 4082SOL     OW13144   1.586   1.234   5.687
 4082SOL    HW113145   1.630   1.171   5.752
 4082SOL    HW213146   1.495   1.259   5.721
 4083SOL     OW13147   6.101   5.328   2.458
 4083SOL    HW113148   6.127   5.356   2.550
 4083SOL    HW213149   6.178   5.341   2.396
 4084SOL     OW13150   4.589   6.707   2.358
 4084SOL    HW113151   4.565   6.639   2.428
 4084SOL    HW213152   4.559   6.797   2.387
 4085SOL     OW13153   1.971   4.335   2.917
 4085SOL    HW113154   1.970   4.422   2.868
 4085SOL    HW213155   1.893   4.332   2.980
 4086SOL     OW13156   5.494   5.167   4.958
 4086SOL    HW113157   5.489   5.082   4.906
 4086SOL    HW213158   5.471   5.245   4.899
 4087SOL     OW13159   1.681   1.050   1.571
 4087SOL    HW113160   1.775   1.025   1.593
 4087SOL    HW213161   1.654   1.006   1.485
 4088SOL     OW13162   0.144   2.321   5.477
 4088SOL    HW113163   0.143   2.221   5.473
 4088SOL    HW213164   0.097   2.358   5.397
 4089SOL     OW13165   7.021   6.842   2.546
 4089SOL    HW113166   0.028   6.936   2.560
 4089SOL    HW213167   0.024   6.810   2.455
 4090SOL     OW13168   3.373   2.429   5.416
 4090SOL    HW113169   3.421   2.343   5.433
 4090SOL    HW213170   3.324   2.423   5.329
 4091SOL     OW13171   3.754   6.634   2.581
 4091SOL    HW113172   3.663   6.672   2.591
 4091SOL    HW213173   3.808   6.692   2.521
 4092SOL     OW13174   5.225   1.594   6.411
 4092SOL    HW113175   5.193   1.505   6.379
 4092SOL    HW213176   5.199   1.605   6.507
 4093SOL     OW13177   5.616   4.122   2.667
 4093SOL    HW113178   5.625   4.131   2.568
 4093SOL    HW213179   5.597   4.212   2.707
 4094SOL     OW13180   6.738   6.390   0.166
 4094SOL    HW113181   6.797   6.401   0.086
 4094SOL    HW213182   6.747   6.296   0.201
 4095SOL     OW13183   0.951   5.195   0.676
 4095SOL    HW113184   0.944   5.172   0.773
 4095SOL    HW213185   1.011   5.274   0.665
 4096SOL     OW13186   0.745   6.617   6.026
 4096SOL    HW113187   0.804   6.677   5.973
 4096SOL    HW213188   0.655   6.612   5.982
 4097SOL     OW13189   1.209   4.129   5.430
 4097SOL    HW113190   1.308   4.123   5.421
 4097SOL    HW213191   1.177   4.063   5.498
 4098SOL     OW13192   1.325   6.043   2.047
 4098SOL    HW113193   1.266   6.023   1.969
 4098SOL    HW213194   1.388   5.967   2.063
 4099SOL     OW13195   7.019   2.693   5.793
 4099SOL    HW113196   6.940   2.661   5.845
 4099SOL    HW213197   0.071   2.707   5.855
 4100SOL     OW13198   2.571   0.795   3.916
 4100SOL    HW113199   2.608   0.779   3.825
 4100SOL    HW213200   2.543   0.707   3.956
 4101SOL     OW13201   6.304   6.365   6.256
 4101SOL    HW113202   6.403   6.357   6.261
 4101SOL    HW213203   6.278   6.414   6.173
 4102SOL     OW13204   2.632   5.195   0.693
 4102SOL    HW113205   2.708   5.154   0.744
 4102SOL    HW213206   2.646   5.182   0.595
 4103SOL     OW13207   2.702   5.003   3.077
 4103SOL    HW113208   2.644   5.077   3.044
 4103SOL    HW213209   2.720   5.016   3.175
 4104SOL     OW13210   2.417   6.000   5.748
 4104SOL    HW113211   2.319   6.014   5.732
 4104SOL    HW213212   2.443   6.040   5.836
 4105SOL     OW13213   3.691   0.003   1.462
 4105SOL    HW113214   3.789   7.019   1.449
 4105SOL    HW213215   3.665   6.989   1.550
 4106SOL     OW13216   1.521   6.734   2.970
 4106SOL    HW113217   1.545   6.706   3.063
 4106SOL    HW213218   1.603   6.769   2.924
 4107SOL     OW13219   1.947   1.792   0.728
 4107SOL    HW113220   2.041   1.786   0.694
 4107SOL    HW213221   1.886   1.821   0.654
 4108SOL     OW13222   0.811   5.995   4.807
 4108SOL    HW113223   0.746   5.976   4.880
 4108SOL    HW213224   0.899   6.021   4.846
 4109SOL     OW13225   5.080   6.937   5.074
 4109SOL    HW113226   5.130   6.981   4.999
 4109SOL    HW213227   5.009   7.000   5.107
 4110SOL     OW13228   4.706   2.775   0.453
 4110SOL    HW113229   4.732   2.698   0.396
 4110SOL    HW213230   4.631   2.825   0.409
 4111SOL     OW13231   6.505   5.130   3.511
 4111SOL    HW113232   6.482   5.110   3.416
 4111SOL    HW213233   6.580   5.072   3.540
 4112SOL     OW13234   3.937   5.616   5.811
 4112SOL    HW113235   3.972   5.584   5.723
 4112SOL    HW213236   3.837   5.614   5.810
 4113SOL     OW13237   4.976   5.486   5.473
 4113SOL    HW113238   5.074   5.492   5.491
 4113SOL    HW213239   4.944   5.572   5.433
 4114SOL     OW13240   6.533   1.520   3.106
 4114SOL    HW113241   6.447   1.544   3.150
 4114SOL    HW213242   6.591   1.601   3.099
 4115SOL     OW13243   3.959   6.557   4.903
 4115SOL    HW113244   3.997   6.466   4.918
 4115SOL    HW213245   3.956   6.576   4.804
 4116SOL     OW13246   6.622   3.877   3.649
 4116SOL    HW113247   6.646   3.973   3.659
 4116SOL    HW213248   6.612   3.855   3.552
 4117SOL     OW13249   0.228   2.464   2.763
 4117SOL    HW113250   0.135   2.483   2.732
 4117SOL    HW213251   0.240   2.365   2.772
 4118SOL     OW13252   1.484   0.503   2.122
 4118SOL    HW113253   1.487   0.404   2.108
 4118SOL    HW213254   1.390   0.535   2.109
 4119SOL     OW13255   6.866   1.024   4.766
 4119SOL    HW113256   6.868   1.061   4.859
 4119SOL    HW213257   6.812   0.939   4.765
 4120SOL     OW13258   1.277   0.765   6.464
 4120SOL    HW113259   1.251   0.689   6.523
 4120SOL    HW213260   1.367   0.746   6.423
 4121SOL     OW13261   6.681   0.771   1.013
 4121SOL    HW113262   6.714   0.789   1.106
 4121SOL    HW213263   6.581   0.760   1.015
 4122SOL     OW13264   1.024   4.503   3.616
 4122SOL    HW113265   1.010   4.411   3.580
 4122SOL    HW213266   0.941   4.534   3.662
 4123SOL     OW13267   5.837   4.183   1.890
 4123SOL    HW113268   5.804   4.217   1.802
 4123SOL    HW213269   5.762   4.184   1.957
 4124SOL     OW13270   6.243   6.595   6.985
 4124SOL    HW113271   6.243   6.516   0.022
 4124SOL    HW213272   6.240   6.679   0.012
 4125SOL     OW13273   0.145   3.015   0.066
 4125SOL    HW113274   0.062   2.973   0.104
 4125SOL    HW213275   0.120   3.096   0.014
 4126SOL     OW13276   1.333   4.434   3.509
 4126SOL    HW113277   1.329   4.429   3.609
 4126SOL    HW213278   1.334   4.530   3.481
 4127SOL     OW13279   4.565   2.525   4.071
 4127SOL    HW113280   4.663   2.508   4.081
 4127SOL    HW213281   4.540   2.518   3.974
 4128SOL     OW13282   6.122   2.468   6.308
 4128SOL    HW113283   6.129   2.550   6.251
 4128SOL    HW213284   6.127   2.494   6.405
 4129SOL     OW13285   3.390   0.167   2.070
 4129SOL    HW113286   3.358   0.095   2.009
 4129SOL    HW213287   3.352   0.153   2.161
 4130SOL     OW13288   5.263   1.543   0.463
 4130SOL    HW113289   5.320   1.579   0.537
 4130SOL    HW213290   5.284   1.592   0.379
 4131SOL     OW13291   5.023   6.603   3.620
 4131SOL    HW113292   4.949   6.670   3.610
 4131SOL    HW213293   4.990   6.526   3.675
 4132SOL     OW13294   6.271   3.858   2.670
 4132SOL    HW113295   6.197   3.808   2.715
 4132SOL    HW213296   6.260   3.956   2.687
 4133SOL     OW13297   5.827   6.358   3.508
 4133SOL    HW113298   5.883   6.364   3.426
 4133SOL    HW213299   5.733   6.335   3.483
 4134SOL     OW13300   1.400   3.051   1.203
 4134SOL    HW113301   1.361   3.080   1.116
 4134SOL    HW213302   1.425   2.954   1.198
 4135SOL     OW13303   5.994   1.346   0.694
 4135SOL    HW113304   5.949   1.291   0.764
 4135SOL    HW213305   5.985   1.301   0.605
 4136SOL     OW13306   0.623   4.524   0.262
 4136SOL    HW113307   0.634   4.441   0.317
 4136SOL    HW213308   0.619   4.604   0.322
 4137SOL     OW13309   0.341   2.510   5.504
 4137SOL    HW113310   0.295   2.421   5.501
 4137SOL    HW213311   0.294   2.573   5.441
 4138SOL     OW13312   6.021   6.858   5.789
 4138SOL    HW113313   6.073   6.934   5.829
 4138SOL    HW213314   5.960   6.893   5.718
 4139SOL     OW13315   1.685   3.804   2.416
 4139SOL    HW113316   1.730   3.872   2.358
 4139SOL    HW213317   1.595   3.837   2.443
 4140SOL     OW13318   2.305   6.546   6.920
 4140SOL    HW113319   2.256   6.532   6.834
 4140SOL    HW213320   2.286   6.638   6.955
 4141SOL     OW13321   5.247   0.439   6.105
 4141SOL    HW113322   5.224   0.489   6.022
 4141SOL    HW213323   5.163   0.412   6.152
 4142SOL     OW13324   6.832   6.955   1.719
 4142SOL    HW113325   6.811   6.879   1.780
 4142SOL    HW213326   6.850   0.012   1.773
 4143SOL     OW13327   6.485   3.440   6.392
 4143SOL    HW113328   6.511   3.350   6.427
 4143SOL    HW213329   6.395   3.464   6.427
 4144SOL     OW13330   4.381   0.952   1.817
 4144SOL    HW113331   4.381   0.901   1.904
 4144SOL    HW213332   4.419   1.043   1.833
 4145SOL     OW13333   4.923   0.901   1.318
 4145SOL    HW113334   4.872   0.818   1.297
 4145SOL    HW213335   4.974   0.888   1.403
 4146SOL     OW13336   3.354   0.488   2.883
 4146SOL    HW113337   3.261   0.453   2.870
 4146SOL    HW213338   3.417   0.411   2.895
 4147SOL     OW13339   4.671   3.859   6.563
 4147SOL    HW113340   4.623   3.827   6.482
 4147SOL    HW213341   4.743   3.922   6.536
 4148SOL     OW13342   3.351   1.000   5.945
 4148SOL    HW113343   3.262   0.958   5.930
 4148SOL    HW213344   3.411   0.935   5.993
 4149SOL     OW13345   1.303   2.868   6.911
 4149SOL    HW113346   1.372   2.895   6.977
 4149SOL    HW213347   1.347   2.839   6.826
 4150SOL     OW13348   6.821   1.222   0.550
 4150SOL    HW113349   6.872   1.223   0.636
 4150SOL    HW213350   6.882   1.199   0.475
 4151SOL     OW13351   2.942   5.689   4.515
 4151SOL    HW113352   2.930   5.645   4.603
 4151SOL    HW213353   3.031   5.735   4.513
 4152SOL     OW13354   2.377   3.970   1.543
 4152SOL    HW113355   2.311   3.977   1.618
 4152SOL    HW213356   2.434   4.052   1.542
 4153SOL     OW13357   6.490   6.024   0.961
 4153SOL    HW113358   6.449   6.086   1.028
 4153SOL    HW213359   6.559   6.074   0.908
 4154SOL     OW13360   0.291   6.567   3.868
 4154SOL    HW113361   0.206   6.610   3.901
 4154SOL    HW213362   0.305   6.480   3.916
 4155SOL     OW13363   5.800   1.335   2.055
 4155SOL    HW113364   5.858   1.407   2.018
 4155SOL    HW213365   5.856   1.269   2.104
 4156SOL     OW13366   1.087   5.187   5.884
 4156SOL    HW113367   1.158   5.119   5.904
 4156SOL    HW213368   1.126   5.261   5.829
 4157SOL     OW13369   5.176   6.048   0.928
 4157SOL    HW113370   5.241   6.103   0.980
 4157SOL    HW213371   5.086   6.092   0.931
 4158SOL     OW13372   6.300   1.470   6.872
 4158SOL    HW113373   6.395   1.487   6.847
 4158SOL    HW213374   6.250   1.434   6.793
 4159SOL     OW13375   2.950   0.389   4.928
 4159SOL    HW113376   2.955   0.306   4.984
 4159SOL    HW213377   3.031   0.396   4.871
 4160SOL     OW13378   1.611   7.022   6.071
 4160SOL    HW113379   1.624   0.095   6.066
 4160SOL    HW213380   1.529   6.996   6.019
 4161SOL     OW13381   3.533   2.842   4.795
 4161SOL    HW113382   3.515   2.745   4.780
 4161SOL    HW213383   3.582   2.854   4.881
 4162SOL     OW13384   4.659   5.968   1.214
 4162SOL    HW113385   4.712   6.037   1.264
 4162SOL    HW213386   4.626   5.900   1.279
 4163SOL     OW13387   3.888   5.586   0.815
 4163SOL    HW113388   3.801   5.580   0.766
 4163SOL    HW213389   3.899   5.507   0.874
 4164SOL     OW13390   5.504   1.313   0.114
 4164SOL    HW113391   5.450   1.281   0.036
 4164SOL    HW213392   5.480   1.261   0.196
 4165SOL     OW13393   3.270   2.158   4.220
 4165SOL    HW113394   3.284   2.084   4.285
 4165SOL    HW213395   3.331   2.145   4.141
 4166SOL     OW13396   5.821   2.401   2.796
 4166SOL    HW113397   5.740   2.357   2.834
 4166SOL    HW213398   5.847   2.356   2.711
 4167SOL     OW13399   3.786   6.374   4.636
 4167SOL    HW113400   3.763   6.280   4.611
 4167SOL    HW213401   3.704   6.430   4.633
 4168SOL     OW13402   5.073   3.593   6.738
 4168SOL    HW113403   5.114   3.665   6.793
 4168SOL    HW213404   5.035   3.633   6.654
 4169SOL     OW13405   4.856   4.006   6.475
 4169SOL    HW113406   4.919   4.070   6.519
 4169SOL    HW213407   4.866   4.012   6.375
 4170SOL     OW13408   1.407   2.973   5.139
 4170SOL    HW113409   1.465   3.033   5.193
 4170SOL    HW213410   1.337   3.028   5.092
 4171SOL     OW13411   0.129   0.814   6.145
 4171SOL    HW113412   0.037   0.853   6.148
 4171SOL    HW213413   0.180   0.853   6.068
 4172SOL     OW13414   3.070   2.886   6.966
 4172SOL    HW113415   3.015   2.805   6.987
 4172SOL    HW213416   3.048   2.959   0.005
 4173SOL     OW13417   5.293   1.298   5.676
 4173SOL    HW113418   5.348   1.216   5.688
 4173SOL    HW213419   5.199   1.273   5.654
 4174SOL     OW13420   2.858   6.528   3.616
 4174SOL    HW113421   2.853   6.626   3.597
 4174SOL    HW213422   2.830   6.476   3.535
 4175SOL     OW13423   1.168   4.684   6.475
 4175SOL    HW113424   1.120   4.771   6.468
 4175SOL    HW213425   1.104   4.609   6.456
 4176SOL     OW13426   4.130   6.859   5.341
 4176SOL    HW113427   4.046   6.911   5.359
 4176SOL    HW213428   4.109   6.761   5.341
 4177SOL     OW13429   4.475   6.211   3.471
 4177SOL    HW113430   4.449   6.198   3.375
 4177SOL    HW213431   4.418   6.152   3.529
 4178SOL     OW13432   4.040   6.811   1.060
 4178SOL    HW113433   3.955   6.846   1.099
 4178SOL    HW213434   4.116   6.873   1.082
 4179SOL     OW13435   4.063   2.006   0.163
 4179SOL    HW113436   4.033   1.968   0.076
 4179SOL    HW213437   4.006   1.971   0.237
 4180SOL     OW13438   3.684   4.202   0.009
 4180SOL    HW113439   3.659   4.192   0.106
 4180SOL    HW213440   3.710   4.112   6.999
 4181SOL     OW13441   5.401   6.142   5.307
 4181SOL    HW113442   5.467   6.193   5.253
 4181SOL    HW213443   5.440   6.053   5.333
 4182SOL     OW13444   6.760   5.264   5.562
 4182SOL    HW113445   6.716   5.260   5.652
 4182SOL    HW213446   6.714   5.202   5.499
 4183SOL     OW13447   5.128   2.361   6.876
 4183SOL    HW113448   5.182   2.331   6.955
 4183SOL    HW213449   5.049   2.412   6.908
 4184SOL     OW13450   3.607   5.852   3.194
 4184SOL    HW113451   3.630   5.949   3.179
 4184SOL    HW213452   3.608   5.803   3.107
 4185SOL     OW13453   4.572   4.419   3.145
 4185SOL    HW113454   4.547   4.429   3.049
 4185SOL    HW213455   4.646   4.353   3.154
 4186SOL     OW13456   1.600   4.984   0.338
 4186SOL    HW113457   1.675   4.944   0.391
 4186SOL    HW213458   1.583   5.078   0.370
 4187SOL     OW13459   2.031   4.310   6.668
 4187SOL    HW113460   2.101   4.344   6.605
 4187SOL    HW213461   2.027   4.211   6.663
 4188SOL     OW13462   4.964   0.554   6.562
 4188SOL    HW113463   5.019   0.615   6.506
 4188SOL    HW213464   4.982   0.459   6.537
 4189SOL     OW13465   4.366   5.898   3.335
 4189SOL    HW113466   4.446   5.838   3.343
 4189SOL    HW213467   4.390   5.979   3.283
 4190SOL     OW13468   6.421   5.882   1.627
 4190SOL    HW113469   6.433   5.934   1.542
 4190SOL    HW213470   6.480   5.801   1.625
 4191SOL     OW13471   4.538   2.582   5.752
 4191SOL    HW113472   4.612   2.581   5.685
 4191SOL    HW213473   4.571   2.623   5.837
 4192SOL     OW13474   1.805   3.663   6.219
 4192SOL    HW113475   1.795   3.724   6.298
 4192SOL    HW213476   1.853   3.711   6.146
 4193SOL     OW13477   5.824   6.781   1.336
 4193SOL    HW113478   5.759   6.818   1.403
 4193SOL    HW213479   5.895   6.730   1.383
 4194SOL     OW13480   5.311   0.257   6.871
 4194SOL    HW113481   5.304   0.258   6.771
 4194SOL    HW213482   5.259   0.333   6.909
 4195SOL     OW13483   2.158   6.027   0.718
 4195SOL    HW113484   2.118   5.981   0.798
 4195SOL    HW213485   2.233   5.971   0.682
 4196SOL     OW13486   6.758   2.994   3.789
 4196SOL    HW113487   6.759   2.896   3.771
 4196SOL    HW213488   6.677   3.018   3.844
 4197SOL     OW13489   4.481   0.579   0.150
 4197SOL    HW113490   4.527   0.662   0.118
 4197SOL    HW213491   4.474   0.582   0.250
 4198SOL     OW13492   6.543   2.513   1.376
 4198SOL    HW113493   6.616   2.446   1.392
 4198SOL    HW213494   6.573   2.603   1.405
 4199SOL     OW13495   1.035   3.963   6.615
 4199SOL    HW113496   1.075   3.928   6.700
 4199SOL    HW213497   0.936   3.970   6.626
 4200SOL     OW13498   5.578   1.641   2.509
 4200SOL    HW113499   5.600   1.611   2.416
 4200SOL    HW213500   5.523   1.570   2.554
 4201SOL     OW13501   4.975   0.046   4.563
 4201SOL    HW113502   4.951   0.012   4.472
 4201SOL    HW213503   5.023   0.133   4.555
 4202SOL     OW13504   4.561   4.070   1.677
 4202SOL    HW113505   4.495   4.120   1.732
 4202SOL    HW213506   4.570   4.113   1.587
 4203SOL     OW13507   6.156   4.359   4.828
 4203SOL    HW113508   6.122   4.400   4.912
 4203SOL    HW213509   6.135   4.261   4.827
 4204SOL     OW13510   2.361   4.094   5.814
 4204SOL    HW113511   2.398   4.141   5.894
 4204SOL    HW213512   2.429   4.094   5.741
 4205SOL     OW13513   5.737   5.858   5.724
 4205SOL    HW113514   5.831   5.868   5.693
 4205SOL    HW213515   5.735   5.856   5.824
 4206SOL     OW13516   2.543   2.574   5.063
 4206SOL    HW113517   2.559   2.664   5.024
 4206SOL    HW213518   2.486   2.520   5.000
 4207SOL     OW13519   2.142   2.759   1.166
 4207SOL    HW113520   2.097   2.682   1.212
 4207SOL    HW213521   2.189   2.815   1.234
 4208SOL     OW13522   2.154   2.206   3.084
 4208SOL    HW113523   2.055   2.215   3.072
 4208SOL    HW213524   2.201   2.270   3.024
 4209SOL     OW13525   6.256   5.694   2.287
 4209SOL    HW113526   6.292   5.665   2.377
 4209SOL    HW213527   6.157   5.681   2.285
 4210SOL     OW13528   3.082   5.206   5.497
 4210SOL    HW113529   3.102   5.118   5.454
 4210SOL    HW213530   3.065   5.192   5.595
 4211SOL     OW13531   4.681   2.277   5.716
 4211SOL    HW113532   4.617   2.234   5.779
 4211SOL    HW213533   4.752   2.325   5.769
 4212SOL     OW13534   1.125   2.594   2.960
 4212SOL    HW113535   1.185   2.631   3.032
 4212SOL    HW213536   1.074   2.516   2.996
 4213SOL     OW13537   3.110   0.760   3.534
 4213SOL    HW113538   3.079   0.845   3.490
 4213SOL    HW213539   3.193   0.727   3.489
 4214SOL     OW13540   5.945   6.687   4.264
 4214SOL    HW113541   6.005   6.757   4.226
 4214SOL    HW213542   5.883   6.654   4.192
 4215SOL     OW13543   5.846   0.248   5.421
 4215SOL    HW113544   5.762   0.280   5.463
 4215SOL    HW213545   5.826   0.172   5.359
 4216SOL     OW13546   2.181   5.675   2.464
 4216SOL    HW113547   2.097   5.634   2.499
 4216SOL    HW213548   2.188   5.769   2.498
 4217SOL     OW13549   0.541   0.361   2.984
 4217SOL    HW113550   0.533   0.453   3.022
 4217SOL    HW213551   0.617   0.358   2.919
 4218SOL     OW13552   2.802   0.390   1.735
 4218SOL    HW113553   2.743   0.350   1.664
 4218SOL    HW213554   2.766   0.367   1.825
 4219SOL     OW13555   2.986   5.273   2.712
 4219SOL    HW113556   3.060   5.265   2.779
 4219SOL    HW213557   2.909   5.216   2.741
 4220SOL     OW13558   5.923   1.938   1.222
 4220SOL    HW113559   5.881   2.027   1.205
 4220SOL    HW213560   5.908   1.879   1.142
 4221SOL     OW13561   0.597   6.667   1.207
 4221SOL    HW113562   0.519   6.616   1.172
 4221SOL    HW213563   0.638   6.721   1.133
 4222SOL     OW13564   4.908   3.537   4.214
 4222SOL    HW113565   4.892   3.613   4.277
 4222SOL    HW213566   4.923   3.453   4.265
 4223SOL     OW13567   3.551   4.106   3.054
 4223SOL    HW113568   3.463   4.064   3.033
 4223SOL    HW213569   3.553   4.200   3.019
 4224SOL     OW13570   4.804   4.035   4.633
 4224SOL    HW113571   4.798   4.018   4.534
 4224SOL    HW213572   4.763   4.124   4.653
 4225SOL     OW13573   0.636   1.527   6.402
 4225SOL    HW113574   0.573   1.600   6.373
 4225SOL    HW213575   0.730   1.559   6.392
 4226SOL     OW13576   5.321   4.825   4.430
 4226SOL    HW113577   5.281   4.898   4.485
 4226SOL    HW213578   5.293   4.736   4.468
 4227SOL     OW13579   5.851   5.572   1.206
 4227SOL    HW113580   5.765   5.556   1.158
 4227SOL    HW213581   5.859   5.509   1.283
 4228SOL     OW13582   1.911   3.858   3.814
 4228SOL    HW113583   1.949   3.935   3.865
 4228SOL    HW213584   1.981   3.788   3.802
 4229SOL     OW13585   6.128   6.304   5.503
 4229SOL    HW113586   6.131   6.323   5.405
 4229SOL    HW213587   6.179   6.374   5.553
 4230SOL     OW13588   0.449   0.880   2.472
 4230SOL    HW113589   0.469   0.836   2.385
 4230SOL    HW213590   0.534   0.897   2.521
 4231SOL     OW13591   0.524   0.631   6.022
 4231SOL    HW113592   0.426   0.646   6.009
 4231SOL    HW213593   0.542   0.532   6.023
 4232SOL     OW13594   1.390   4.435   2.910
 4232SOL    HW113595   1.466   4.494   2.882
 4232SOL    HW213596   1.308   4.460   2.858
 4233SOL     OW13597   3.892   5.361   2.366
 4233SOL    HW113598   3.968   5.322   2.418
 4233SOL    HW213599   3.853   5.438   2.417
 4234SOL     OW13600   3.635   5.139   6.332
 4234SOL    HW113601   3.550   5.095   6.362
 4234SOL    HW213602   3.713   5.082   6.357
 4235SOL     OW13603   6.988   6.199   6.878
 4235SOL    HW113604   6.952   6.139   6.949
 4235SOL    HW213605   0.028   6.263   6.918
 4236SOL     OW13606   6.935   5.080   3.327
 4236SOL    HW113607   6.902   5.162   3.281
 4236SOL    HW213608   6.922   5.000   3.268
 4237SOL     OW13609   6.712   4.621   3.779
 4237SOL    HW113610   6.625   4.610   3.731
 4237SOL    HW213611   6.755   4.532   3.792
 4238SOL     OW13612   2.466   5.590   2.800
 4238SOL    HW113613   2.468   5.684   2.834
 4238SOL    HW213614   2.471   5.591   2.700
 4239SOL     OW13615   4.026   1.076   3.020
 4239SOL    HW113616   4.069   0.986   3.027
 4239SOL    HW213617   4.024   1.119   3.111
 4240SOL     OW13618   5.233   0.065   1.839
 4240SOL    HW113619   5.175   0.103   1.911
 4240SOL    HW213620   5.326   0.101   1.850
 4241SOL     OW13621   0.275   4.619   6.990
 4241SOL    HW113622   0.252   4.530   6.951
 4241SOL    HW213623   0.194   4.677   6.990
 4242SOL     OW13624   3.621   2.076   2.854
 4242SOL    HW113625   3.606   1.977   2.852
 4242SOL    HW213626   3.556   2.120   2.792
 4243SOL     OW13627   3.433   2.095   2.641
 4243SOL    HW113628   3.432   1.999   2.668
 4243SOL    HW213629   3.437   2.101   2.541
 4244SOL     OW13630   3.003   3.501   4.891
 4244SOL    HW113631   2.917   3.545   4.920
 4244SOL    HW213632   3.028   3.534   4.800
 4245SOL     OW13633   6.882   0.778   5.528
 4245SOL    HW113634   6.863   0.855   5.466
 4245SOL    HW213635   6.981   0.767   5.538
 4246SOL     OW13636   1.041   4.857   6.031
 4246SOL    HW113637   1.005   4.903   6.113
 4246SOL    HW213638   1.067   4.763   6.054
 4247SOL     OW13639   0.524   4.902   4.939
 4247SOL    HW113640   0.442   4.844   4.946
 4247SOL    HW213641   0.514   4.962   4.860
 4248SOL     OW13642   2.216   3.367   6.788
 4248SOL    HW113643   2.222   3.317   6.874
 4248SOL    HW213644   2.281   3.329   6.722
 4249SOL     OW13645   5.334   2.772   6.246
 4249SOL    HW113646   5.329   2.810   6.154
 4249SOL    HW213647   5.286   2.832   6.310
 4250SOL     OW13648   6.916   4.229   3.490
 4250SOL    HW113649   7.010   4.197   3.476
 4250SOL    HW213650   6.862   4.213   3.407
 4251SOL     OW13651   6.184   4.909   5.968
 4251SOL    HW113652   6.196   4.943   6.061
 4251SOL    HW213653   6.269   4.867   5.936
 4252SOL     OW13654   6.998   4.980   5.373
 4252SOL    HW113655   7.019   5.048   5.303
 4252SOL    HW213656   0.050   4.972   5.436
 4253SOL     OW13657   3.256   6.552   3.024
 4253SOL    HW113658   3.226   6.510   3.110
 4253SOL    HW213659   3.213   6.504   2.947
 4254SOL     OW13660   3.228   2.881   2.226
 4254SOL    HW113661   3.187   2.790   2.222
 4254SOL    HW213662   3.321   2.876   2.189
 4255SOL     OW13663   0.552   2.390   4.067
 4255SOL    HW113664   0.586   2.310   4.116
 4255SOL    HW213665   0.612   2.410   3.989
 4256SOL     OW13666   1.275   1.114   1.937
 4256SOL    HW113667   1.353   1.118   1.876
 4256SOL    HW213668   1.278   1.190   2.001
 4257SOL     OW13669   4.237   2.241   5.277
 4257SOL    HW113670   4.243   2.142   5.269
 4257SOL    HW213671   4.210   2.280   5.189
 4258SOL     OW13672   5.368   6.028   2.158
 4258SOL    HW113673   5.446   6.033   2.095
 4258SOL    HW213674   5.293   6.083   2.122
 4259SOL     OW13675   2.897   3.478   1.429
 4259SOL    HW113676   2.927   3.465   1.523
 4259SOL    HW213677   2.909   3.574   1.403
 4260SOL     OW13678   4.032   6.327   5.007
 4260SOL    HW113679   4.050   6.303   4.912
 4260SOL    HW213680   4.022   6.244   5.061
 4261SOL     OW13681   1.296   1.263   3.086
 4261SOL    HW113682   1.241   1.180   3.075
 4261SOL    HW213683   1.296   1.291   3.182
 4262SOL     OW13684   0.889   6.550   5.707
 4262SOL    HW113685   0.886   6.646   5.736
 4262SOL    HW213686   0.804   6.527   5.661
 4263SOL     OW13687   4.591   4.966   6.519
 4263SOL    HW113688   4.556   5.048   6.564
 4263SOL    HW213689   4.656   4.992   6.448
 4264SOL     OW13690   0.919   0.139   1.531
 4264SOL    HW113691   0.851   0.065   1.527
 4264SOL    HW213692   1.007   0.105   1.499
 4265SOL     OW13693   1.882   1.135   0.529
 4265SOL    HW113694   1.973   1.151   0.489
 4265SOL    HW213695   1.826   1.082   0.465
 4266SOL     OW13696   3.154   4.691   0.575
 4266SOL    HW113697   3.090   4.648   0.510
 4266SOL    HW213698   3.247   4.663   0.553
 4267SOL     OW13699   1.874   3.996   5.592
 4267SOL    HW113700   1.962   4.010   5.637
 4267SOL    HW213701   1.872   4.047   5.506
 4268SOL     OW13702   1.222   1.392   1.390
 4268SOL    HW113703   1.172   1.468   1.431
 4268SOL    HW213704   1.268   1.422   1.307
 4269SOL     OW13705   2.931   3.568   0.460
 4269SOL    HW113706   2.919   3.537   0.365
 4269SOL    HW213707   2.922   3.491   0.522
 4270SOL     OW13708   3.849   2.878   6.826
 4270SOL    HW113709   3.838   2.943   6.901
 4270SOL    HW213710   3.902   2.921   6.753
 4271SOL     OW13711   1.578   0.171   1.567
 4271SOL    HW113712   1.610   0.116   1.490
 4271SOL    HW213713   1.500   0.125   1.610
 4272SOL     OW13714   0.620   3.982   3.820
 4272SOL    HW113715   0.570   3.914   3.875
 4272SOL    HW213716   0.694   3.937   3.771
 4273SOL     OW13717   5.972   6.776   3.508
 4273SOL    HW113718   5.911   6.711   3.553
 4273SOL    HW213719   5.918   6.848   3.465
 4274SOL     OW13720   2.299   0.264   3.784
 4274SOL    HW113721   2.270   0.172   3.812
 4274SOL    HW213722   2.371   0.257   3.716
 4275SOL     OW13723   0.766   0.321   5.332
 4275SOL    HW113724   0.835   0.394   5.337
 4275SOL    HW213725   0.695   0.347   5.267
 4276SOL     OW13726   2.134   3.934   3.152
 4276SOL    HW113727   2.172   3.929   3.060
 4276SOL    HW213728   2.124   4.030   3.178
 4277SOL     OW13729   1.121   5.515   5.394
 4277SOL    HW113730   1.135   5.613   5.401
 4277SOL    HW213731   1.027   5.492   5.417
 4278SOL     OW13732   1.332   6.292   6.680
 4278SOL    HW113733   1.233   6.300   6.690
 4278SOL    HW213734   1.358   6.196   6.680
 4279SOL     OW13735   3.325   5.894   3.328
 4279SOL    HW113736   3.409   5.857   3.286
 4279SOL    HW213737   3.327   5.876   3.426
 4280SOL     OW13738   5.204   2.648   3.480
 4280SOL    HW113739   5.283   2.653   3.419
 4280SOL    HW213740   5.120   2.647   3.425
 4281SOL     OW13741   1.795   4.065   5.313
 4281SOL    HW113742   1.737   4.000   5.264
 4281SOL    HW213743   1.882   4.075   5.264
 4282SOL     OW13744   0.750   1.941   0.382
 4282SOL    HW113745   0.768   1.925   0.480
 4282SOL    HW213746   0.660   1.982   0.371
 4283SOL     OW13747   2.810   1.229   4.091
 4283SOL    HW113748   2.853   1.140   4.100
 4283SOL    HW213749   2.839   1.288   4.167
 4284SOL     OW13750   6.891   1.927   3.210
 4284SOL    HW113751   6.799   1.958   3.236
 4284SOL    HW213752   6.899   1.930   3.110
 4285SOL     OW13753   0.947   6.353   4.310
 4285SOL    HW113754   0.904   6.363   4.220
 4285SOL    HW213755   1.005   6.432   4.328
 4286SOL     OW13756   4.463   5.723   6.654
 4286SOL    HW113757   4.528   5.705   6.581
 4286SOL    HW213758   4.399   5.794   6.626
 4287SOL     OW13759   3.763   5.510   5.385
 4287SOL    HW113760   3.801   5.481   5.473
 4287SOL    HW213761   3.679   5.562   5.401
 4288SOL     OW13762   1.142   6.189   3.692
 4288SOL    HW113763   1.073   6.127   3.657
 4288SOL    HW213764   1.099   6.257   3.752
 4289SOL     OW13765   0.118   4.053   6.700
 4289SOL    HW113766   0.101   4.045   6.798
 4289SOL    HW213767   0.111   4.150   6.674
 4290SOL     OW13768   1.929   1.582   2.906
 4290SOL    HW113769   2.000   1.609   2.840
 4290SOL    HW213770   1.944   1.630   2.993
 4291SOL     OW13771   0.340   4.156   1.105
 4291SOL    HW113772   0.361   4.134   1.200
 4291SOL    HW213773   0.426   4.170   1.055
 4292SOL     OW13774   5.651   5.342   5.118
 4292SOL    HW113775   5.591   5.291   5.057
 4292SOL    HW213776   5.598   5.381   5.193
 4293SOL     OW13777   0.498   2.168   0.180
 4293SOL    HW113778   0.495   2.196   0.276
 4293SOL    HW213779   0.404   2.159   0.146
 4294SOL     OW13780   4.965   1.384   6.266
 4294SOL    HW113781   4.874   1.396   6.306
 4294SOL    HW213782   4.987   1.465   6.211
 4295SOL     OW13783   3.752   5.879   5.641
 4295SOL    HW113784   3.763   5.809   5.713
 4295SOL    HW213785   3.712   5.961   5.681
 4296SOL     OW13786   2.339   1.336   2.635
 4296SOL    HW113787   2.345   1.255   2.693
 4296SOL    HW213788   2.426   1.385   2.636
 4297SOL     OW13789   6.177   0.367   0.409
 4297SOL    HW113790   6.214   0.447   0.456
 4297SOL    HW213791   6.240   0.290   0.421
 4298SOL     OW13792   1.824   4.698   1.976
 4298SOL    HW113793   1.796   4.790   1.952
 4298SOL    HW213794   1.790   4.675   2.067
 4299SOL     OW13795   1.531   5.612   5.290
 4299SOL    HW113796   1.577   5.558   5.360
 4299SOL    HW213797   1.462   5.555   5.244
 4300SOL     OW13798   6.133   0.095   5.821
 4300SOL    HW113799   6.075   0.081   5.741
 4300SOL    HW213800   6.173   0.187   5.817
 4301SOL     OW13801   3.142   1.337   0.983
 4301SOL    HW113802   3.047   1.312   0.969
 4301SOL    HW213803   3.201   1.271   0.936
 4302SOL     OW13804   0.624   0.480   6.837
 4302SOL    HW113805   0.537   0.521   6.863
 4302SOL    HW213806   0.675   0.456   6.920
 4303SOL     OW13807   0.662   3.944   1.414
 4303SOL    HW113808   0.601   3.982   1.484
 4303SOL    HW213809   0.731   4.011   1.389
 4304SOL     OW13810   3.079   3.649   5.707
 4304SOL    HW113811   3.052   3.721   5.643
 4304SOL    HW213812   3.131   3.579   5.658
 4305SOL     OW13813   0.283   1.544   5.021
 4305SOL    HW113814   0.192   1.514   5.050
 4305SOL    HW213815   0.304   1.504   4.931
 4306SOL     OW13816   6.417   5.768   5.513
 4306SOL    HW113817   6.449   5.858   5.543
 4306SOL    HW213818   6.371   5.722   5.588
 4307SOL     OW13819   5.727   3.544   0.518
 4307SOL    HW113820   5.820   3.553   0.484
 4307SOL    HW213821   5.724   3.568   0.616
 4308SOL     OW13822   3.201   0.014   5.077
 4308SOL    HW113823   3.262   6.966   5.047
 4308SOL    HW213824   3.228   0.100   5.033
 4309SOL     OW13825   1.026   6.956   1.742
 4309SOL    HW113826   1.042   6.907   1.828
 4309SOL    HW213827   0.967   0.009   1.759
 4310SOL     OW13828   1.809   6.743   2.845
 4310SOL    HW113829   1.905   6.769   2.836
 4310SOL    HW213830   1.803   6.644   2.860
 4311SOL     OW13831   1.151   5.180   3.984
 4311SOL    HW113832   1.227   5.165   3.922
 4311SOL    HW213833   1.147   5.106   4.051
 4312SOL     OW13834   1.229   5.552   1.890
 4312SOL    HW113835   1.247   5.455   1.874
 4312SOL    HW213836   1.314   5.603   1.882
 4313SOL     OW13837   5.012   0.899   1.608
 4313SOL    HW113838   4.992   0.804   1.584
 4313SOL    HW213839   5.026   0.906   1.707
 4314SOL     OW13840   6.020   3.290   0.914
 4314SOL    HW113841   6.038   3.307   0.817
 4314SOL    HW213842   5.994   3.376   0.958
 4315SOL     OW13843   2.135   1.153   2.592
 4315SOL    HW113844   2.054   1.177   2.539
 4315SOL    HW213845   2.205   1.223   2.580
 4316SOL     OW13846   0.445   1.185   2.545
 4316SOL    HW113847   0.427   1.102   2.491
 4316SOL    HW213848   0.438   1.164   2.642
 4317SOL     OW13849   4.155   0.653   3.275
 4317SOL    HW113850   4.171   0.694   3.365
 4317SOL    HW213851   4.223   0.581   3.259
 4318SOL     OW13852   6.705   2.377   5.292
 4318SOL    HW113853   6.671   2.393   5.199
 4318SOL    HW213854   6.802   2.352   5.289
 4319SOL     OW13855   3.812   2.267   6.386
 4319SOL    HW113856   3.909   2.259   6.362
 4319SOL    HW213857   3.782   2.361   6.372
 4320SOL     OW13858   6.747   6.519   3.163
 4320SOL    HW113859   6.703   6.609   3.161
 4320SOL    HW213860   6.837   6.526   3.120
 4321SOL     OW13861   0.715   0.313   4.743
 4321SOL    HW113862   0.745   0.303   4.648
 4321SOL    HW213863   0.795   0.317   4.803
 4322SOL     OW13864   6.378   1.286   1.276
 4322SOL    HW113865   6.422   1.307   1.189
 4322SOL    HW213866   6.362   1.371   1.327
 4323SOL     OW13867   6.958   1.839   3.718
 4323SOL    HW113868   6.900   1.825   3.638
 4323SOL    HW213869   6.904   1.829   3.801
 4324SOL     OW13870   5.561   2.686   5.689
 4324SOL    HW113871   5.626   2.737   5.633
 4324SOL    HW213872   5.468   2.703   5.655
 4325SOL     OW13873   1.755   2.649   6.745
 4325SOL    HW113874   1.851   2.634   6.770
 4325SOL    HW213875   1.737   2.608   6.656
 4326SOL     OW13876   6.656   2.431   5.017
 4326SOL    HW113877   6.694   2.521   4.995
 4326SOL    HW213878   6.571   2.417   4.966
 4327SOL     OW13879   4.598   0.898   3.188
 4327SOL    HW113880   4.599   0.995   3.209
 4327SOL    HW213881   4.554   0.883   3.099
 4328SOL     OW13882   5.977   5.012   0.426
 4328SOL    HW113883   6.004   4.995   0.331
 4328SOL    HW213884   6.050   4.982   0.487
 4329SOL     OW13885   5.220   1.176   6.951
 4329SOL    HW113886   5.152   1.131   7.008
 4329SOL    HW213887   5.214   1.275   6.964
 4330SOL     OW13888   1.159   1.014   6.479
 4330SOL    HW113889   1.220   0.935   6.468
 4330SOL    HW213890   1.105   1.003   6.563
 4331SOL     OW13891   5.085   2.388   6.512
 4331SOL    HW113892   5.008   2.395   6.575
 4331SOL    HW213893   5.117   2.479   6.487
 4332SOL     OW13894   5.630   3.879   1.609
 4332SOL    HW113895   5.624   3.928   1.696
 4332SOL    HW213896   5.719   3.836   1.600
 4333SOL     OW13897   6.577   1.368   4.834
 4333SOL    HW113898   6.574   1.464   4.808
 4333SOL    HW213899   6.672   1.338   4.843
 4334SOL     OW13900   3.863   0.453   1.851
 4334SOL    HW113901   3.853   0.529   1.787
 4334SOL    HW213902   3.783   0.451   1.912
 4335SOL     OW13903   3.944   4.345   5.732
 4335SOL    HW113904   3.862   4.302   5.693
 4335SOL    HW213905   3.918   4.425   5.784
 4336SOL     OW13906   0.986   0.128   5.867
 4336SOL    HW113907   1.013   0.083   5.781
 4336SOL    HW213908   1.063   0.179   5.904
 4337SOL     OW13909   0.778   5.753   6.567
 4337SOL    HW113910   0.722   5.757   6.484
 4337SOL    HW213911   0.817   5.844   6.584
 4338SOL     OW13912   5.543   6.586   3.248
 4338SOL    HW113913   5.578   6.674   3.217
 4338SOL    HW213914   5.486   6.599   3.329
 4339SOL     OW13915   6.675   1.062   6.654
 4339SOL    HW113916   6.703   1.138   6.712
 4339SOL    HW213917   6.750   0.996   6.645
 4340SOL     OW13918   4.580   3.798   1.687
 4340SOL    HW113919   4.658   3.782   1.626
 4340SOL    HW213920   4.563   3.896   1.695
 4341SOL     OW13921   1.202   3.347   0.819
 4341SOL    HW113922   1.125   3.397   0.860
 4341SOL    HW213923   1.259   3.410   0.767
 4342SOL     OW13924   6.966   2.221   2.969
 4342SOL    HW113925   6.906   2.216   3.049
 4342SOL    HW213926   0.033   2.246   2.997
 4343SOL     OW13927   3.136   2.256   0.767
 4343SOL    HW113928   3.181   2.338   0.802
 4343SOL    HW213929   3.199   2.207   0.707
 4344SOL     OW13930   2.065   3.314   1.719
 4344SOL    HW113931   2.007   3.329   1.638
 4344SOL    HW213932   2.077   3.216   1.734
 4345SOL     OW13933   3.183   1.238   5.762
 4345SOL    HW113934   3.098   1.270   5.720
 4345SOL    HW213935   3.241   1.316   5.786
 4346SOL     OW13936   6.907   4.049   1.228
 4346SOL    HW113937   6.910   3.981   1.155
 4346SOL    HW213938   6.842   4.121   1.204
 4347SOL     OW13939   4.595   5.626   2.679
 4347SOL    HW113940   4.557   5.713   2.649
 4347SOL    HW213941   4.636   5.579   2.601
 4348SOL     OW13942   1.329   3.609   0.438
 4348SOL    HW113943   1.365   3.516   0.430
 4348SOL    HW213944   1.397   3.674   0.405
 4349SOL     OW13945   6.568   0.949   1.413
 4349SOL    HW113946   6.541   0.884   1.484
 4349SOL    HW213947   6.644   0.911   1.360
 4350SOL     OW13948   3.988   0.604   2.800
 4350SOL    HW113949   3.890   0.602   2.777
 4350SOL    HW213950   4.022   0.511   2.807
 4351SOL     OW13951   3.120   6.614   6.716
 4351SOL    HW113952   3.212   6.653   6.711
 4351SOL    HW213953   3.121   6.522   6.677
 4352SOL     OW13954   6.416   2.170   2.436
 4352SOL    HW113955   6.373   2.138   2.351
 4352SOL    HW213956   6.429   2.092   2.498
 4353SOL     OW13957   3.587   5.390   1.456
 4353SOL    HW113958   3.538   5.468   1.495
 4353SOL    HW213959   3.522   5.325   1.419
 4354SOL     OW13960   2.892   0.752   1.264
 4354SOL    HW113961   2.858   0.736   1.172
 4354SOL    HW213962   2.815   0.767   1.326
 4355SOL     OW13963   4.878   6.796   6.931
 4355SOL    HW113964   4.904   6.887   6.965
 4355SOL    HW213965   4.860   6.802   6.833
 4356SOL     OW13966   3.451   3.660   0.853
 4356SOL    HW113967   3.363   3.614   0.839
 4356SOL    HW213968   3.519   3.594   0.882
 4357SOL     OW13969   5.973   0.485   0.205
 4357SOL    HW113970   5.933   0.398   0.235
 4357SOL    HW213971   5.903   0.540   0.160
 4358SOL     OW13972   6.154   0.575   1.035
 4358SOL    HW113973   6.239   0.598   1.082
 4358SOL    HW213974   6.111   0.659   1.001
 4359SOL     OW13975   0.394   4.012   4.612
 4359SOL    HW113976   0.343   4.083   4.662
 4359SOL    HW213977   0.448   3.959   4.677
 4360SOL     OW13978   2.340   3.372   1.172
 4360SOL    HW113979   2.302   3.304   1.235
 4360SOL    HW213980   2.408   3.427   1.220
 4361SOL     OW13981   5.687   2.597   2.583
 4361SOL    HW113982   5.742   2.595   2.499
 4361SOL    HW213983   5.731   2.541   2.653
 4362SOL     OW13984   5.032   4.142   2.819
 4362SOL    HW113985   4.942   4.117   2.782
 4362SOL    HW213986   5.099   4.144   2.744
 4363SOL     OW13987   4.758   0.727   6.674
 4363SOL    HW113988   4.793   0.790   6.743
 4363SOL    HW213989   4.826   0.655   6.658
 4364SOL     OW13990   3.864   4.025   4.704
 4364SOL    HW113991   3.934   3.955   4.719
 4364SOL    HW213992   3.828   4.015   4.611
 4365SOL     OW13993   4.540   2.246   0.217
 4365SOL    HW113994   4.528   2.332   0.266
 4365SOL    HW213995   4.452   2.200   0.208
 4366SOL     OW13996   4.542   5.049   0.305
 4366SOL    HW113997   4.495   4.979   0.358
 4366SOL    HW213998   4.640   5.040   0.316
 4367SOL     OW13999   6.537   6.840   0.806
 4367SOL    HW114000   6.484   6.822   0.889
 4367SOL    HW214001   6.619   6.782   0.807
 4368SOL     OW14002   4.183   5.021   1.857
 4368SOL    HW114003   4.282   5.005   1.850
 4368SOL    HW214004   4.146   4.967   1.933
 4369SOL     OW14005   3.378   5.356   1.771
 4369SOL    HW114006   3.284   5.359   1.737
 4369SOL    HW214007   3.380   5.384   1.867
 4370SOL     OW14008   5.028   4.466   1.729
 4370SOL    HW114009   4.952   4.437   1.671
 4370SOL    HW214010   5.102   4.399   1.722
 4371SOL     OW14011   1.263   1.661   2.588
 4371SOL    HW114012   1.322   1.734   2.555
 4371SOL    HW214013   1.262   1.662   2.688
 4372SOL     OW14014   4.726   6.988   3.924
 4372SOL    HW114015   4.691   0.019   3.998
 4372SOL    HW214016   4.776   6.910   3.963
 4373SOL     OW14017   6.948   1.706   5.939
 4373SOL    HW114018   6.876   1.642   5.964
 4373SOL    HW214019   7.007   1.723   6.017
 4374SOL     OW14020   3.652   1.397   0.181
 4374SOL    HW114021   3.632   1.398   0.083
 4374SOL    HW214022   3.571   1.367   0.231
 4375SOL     OW14023   3.707   5.602   4.089
 4375SOL    HW114024   3.770   5.679   4.094
 4375SOL    HW214025   3.744   5.525   4.141
 4376SOL     OW14026   6.934   2.455   3.480
 4376SOL    HW114027   6.875   2.434   3.402
 4376SOL    HW214028   6.998   2.527   3.456
 4377SOL     OW14029   6.757   4.860   6.162
 4377SOL    HW114030   6.825   4.934   6.161
 4377SOL    HW214031   6.801   4.774   6.134
 4378SOL     OW14032   3.330   1.810   3.830
 4378SOL    HW114033   3.266   1.823   3.906
 4378SOL    HW214034   3.377   1.897   3.812
 4379SOL     OW14035   3.769   1.806   5.965
 4379SOL    HW114036   3.788   1.710   5.983
 4379SOL    HW214037   3.805   1.862   6.040
 4380SOL     OW14038   0.461   2.565   3.193
 4380SOL    HW114039   0.391   2.529   3.254
 4380SOL    HW214040   0.418   2.619   3.121
 4381SOL     OW14041   1.542   5.131   6.815
 4381SOL    HW114042   1.517   5.103   6.908
 4381SOL    HW214043   1.530   5.229   6.806
 4382SOL     OW14044   1.189   5.053   4.506
 4382SOL    HW114045   1.197   5.134   4.448
 4382SOL    HW214046   1.196   4.970   4.450
 4383SOL     OW14047   7.020   4.591   0.449
 4383SOL    HW114048   0.046   4.677   0.446
 4383SOL    HW214049   7.022   4.556   0.543
 4384SOL     OW14050   4.936   6.956   3.474
 4384SOL    HW114051   4.923   7.024   3.403
 4384SOL    HW214052   4.865   6.967   3.545
 4385SOL     OW14053   4.801   0.429   5.595
 4385SOL    HW114054   4.862   0.499   5.559
 4385SOL    HW214055   4.727   0.473   5.648
 4386SOL     OW14056   2.085   3.387   4.465
 4386SOL    HW114057   2.010   3.327   4.493
 4386SOL    HW214058   2.171   3.335   4.466
 4387SOL     OW14059   5.435   2.294   1.292
 4387SOL    HW114060   5.509   2.300   1.359
 4387SOL    HW214061   5.418   2.197   1.271
 4388SOL     OW14062   5.457   3.469   0.461
 4388SOL    HW114063   5.550   3.505   0.464
 4388SOL    HW214064   5.450   3.389   0.521
 4389SOL     OW14065   2.735   1.261   7.008
 4389SOL    HW114066   2.740   1.193   0.056
 4389SOL    HW214067   2.644   1.304   7.009
 4390SOL     OW14068   0.015   1.933   0.645
 4390SOL    HW114069   6.941   1.942   0.644
 4390SOL    HW214070   0.051   1.959   0.734
 4391SOL     OW14071   0.196   6.091   1.602
 4391SOL    HW114072   0.233   6.096   1.509
 4391SOL    HW214073   0.097   6.076   1.598
 4392SOL     OW14074   1.110   2.849   5.823
 4392SOL    HW114075   1.052   2.884   5.896
 4392SOL    HW214076   1.202   2.832   5.859
 4393SOL     OW14077   6.302   0.442   2.125
 4393SOL    HW114078   6.316   0.442   2.224
 4393SOL    HW214079   6.372   0.385   2.081
 4394SOL     OW14080   6.875   0.469   2.520
 4394SOL    HW114081   6.922   0.516   2.445
 4394SOL    HW214082   6.850   0.376   2.491
 4395SOL     OW14083   1.349   3.671   1.962
 4395SOL    HW114084   1.428   3.730   1.977
 4395SOL    HW214085   1.282   3.686   2.034
 4396SOL     OW14086   2.655   1.260   2.791
 4396SOL    HW114087   2.615   1.309   2.868
 4396SOL    HW214088   2.657   1.320   2.710
 4397SOL     OW14089   3.844   0.698   5.408
 4397SOL    HW114090   3.794   0.612   5.397
 4397SOL    HW214091   3.786   0.774   5.377
 4398SOL     OW14092   2.426   3.518   5.836
 4398SOL    HW114093   2.506   3.536   5.893
 4398SOL    HW214094   2.392   3.604   5.798
 4399SOL     OW14095   3.114   5.904   1.450
 4399SOL    HW114096   3.097   5.844   1.528
 4399SOL    HW214097   3.180   5.975   1.476
 4400SOL     OW14098   1.599   6.044   5.107
 4400SOL    HW114099   1.591   6.014   5.202
 4400SOL    HW214100   1.653   5.978   5.055
 4401SOL     OW14101   2.995   6.879   6.531
 4401SOL    HW114102   3.002   6.794   6.478
 4401SOL    HW214103   3.001   6.858   6.628
 4402SOL     OW14104   1.199   0.999   2.642
 4402SOL    HW114105   1.150   0.917   2.615
 4402SOL    HW214106   1.291   0.975   2.673
 4403SOL     OW14107   6.275   6.149   3.273
 4403SOL    HW114108   6.228   6.094   3.204
 4403SOL    HW214109   6.336   6.214   3.227
 4404SOL     OW14110   0.707   6.486   5.512
 4404SOL    HW114111   0.745   6.461   5.422
 4404SOL    HW214112   0.647   6.412   5.543
 4405SOL     OW14113   1.509   5.118   2.689
 4405SOL    HW114114   1.579   5.099   2.621
 4405SOL    HW214115   1.550   5.166   2.767
 4406SOL     OW14116   6.165   4.711   2.467
 4406SOL    HW114117   6.147   4.777   2.395
 4406SOL    HW214118   6.090   4.712   2.533
 4407SOL     OW14119   5.735   6.631   1.108
 4407SOL    HW114120   5.765   6.699   1.176
 4407SOL    HW214121   5.636   6.621   1.112
 4408SOL     OW14122   4.692   0.759   0.934
 4408SOL    HW114123   4.729   0.751   0.842
 4408SOL    HW214124   4.594   0.741   0.934
 4409SOL     OW14125   3.302   0.832   3.785
 4409SOL    HW114126   3.300   0.794   3.693
 4409SOL    HW214127   3.332   0.927   3.781
 4410SOL     OW14128   0.959   0.253   1.217
 4410SOL    HW114129   1.002   0.278   1.130
 4410SOL    HW214130   0.939   0.155   1.217
 4411SOL     OW14131   4.489   4.879   5.141
 4411SOL    HW114132   4.543   4.838   5.067
 4411SOL    HW214133   4.475   4.976   5.122
 4412SOL     OW14134   4.489   6.071   1.647
 4412SOL    HW114135   4.438   6.085   1.731
 4412SOL    HW214136   4.586   6.060   1.668
 4413SOL     OW14137   4.985   6.304   4.461
 4413SOL    HW114138   5.044   6.231   4.427
 4413SOL    HW214139   4.950   6.358   4.384
 4414SOL     OW14140   5.873   4.224   1.215
 4414SOL    HW114141   5.790   4.170   1.201
 4414SOL    HW214142   5.867   4.308   1.162
 4415SOL     OW14143   1.724   3.952   1.524
 4415SOL    HW114144   1.761   4.019   1.589
 4415SOL    HW214145   1.769   3.963   1.435
 4416SOL     OW14146   4.972   3.308   4.350
 4416SOL    HW114147   4.927   3.277   4.434
 4416SOL    HW214148   5.062   3.345   4.372
 4417SOL     OW14149   0.683   4.336   2.063
 4417SOL    HW114150   0.698   4.251   2.112
 4417SOL    HW214151   0.750   4.405   2.093
 4418SOL     OW14152   6.405   1.611   5.176
 4418SOL    HW114153   6.330   1.657   5.222
 4418SOL    HW214154   6.469   1.679   5.140
 4419SOL     OW14155   6.576   6.501   6.471
 4419SOL    HW114156   6.488   6.547   6.471
 4419SOL    HW214157   6.605   6.484   6.565
 4420SOL     OW14158   3.839   1.095   0.874
 4420SOL    HW114159   3.927   1.091   0.828
 4420SOL    HW214160   3.800   1.187   0.864
 4421SOL     OW14161   2.814   2.845   0.161
 4421SOL    HW114162   2.813   2.775   0.090
 4421SOL    HW214163   2.731   2.900   0.154
 4422SOL     OW14164   0.691   3.041   6.345
 4422SOL    HW114165   0.707   3.125   6.397
 4422SOL    HW214166   0.778   2.993   6.332
 4423SOL     OW14167   5.567   4.736   4.582
 4423SOL    HW114168   5.523   4.690   4.659
 4423SOL    HW214169   5.503   4.740   4.505
 4424SOL     OW14170   4.114   5.936   2.836
 4424SOL    HW114171   4.170   6.001   2.886
 4424SOL    HW214172   4.153   5.921   2.745
 4425SOL     OW14173   0.078   6.529   1.682
 4425SOL    HW114174   0.012   6.454   1.671
 4425SOL    HW214175   0.034   6.616   1.661
 4426SOL     OW14176   0.416   0.577   4.492
 4426SOL    HW114177   0.410   0.478   4.479
 4426SOL    HW214178   0.357   0.604   4.568
 4427SOL     OW14179   3.183   5.731   2.025
 4427SOL    HW114180   3.222   5.747   1.934
 4427SOL    HW214181   3.128   5.810   2.053
 4428SOL     OW14182   6.057   6.199   3.568
 4428SOL    HW114183   6.071   6.283   3.516
 4428SOL    HW214184   6.072   6.216   3.665
 4429SOL     OW14185   2.723   5.992   2.718
 4429SOL    HW114186   2.725   6.085   2.756
 4429SOL    HW214187   2.749   5.927   2.788
 4430SOL     OW14188   6.104   4.038   4.436
 4430SOL    HW114189   6.169   3.963   4.444
 4430SOL    HW214190   6.017   4.013   4.479
 4431SOL     OW14191   4.064   6.785   5.008
 4431SOL    HW114192   4.021   6.812   5.093
 4431SOL    HW214193   4.002   6.729   4.954
 4432SOL     OW14194   1.636   3.530   6.395
 4432SOL    HW114195   1.639   3.615   6.448
 4432SOL    HW214196   1.678   3.545   6.305
 4433SOL     OW14197   0.813   0.254   4.482
 4433SOL    HW114198   0.885   0.215   4.424
 4433SOL    HW214199   0.829   0.351   4.494
 4434SOL     OW14200   6.735   1.382   1.909
 4434SOL    HW114201   6.759   1.298   1.956
 4434SOL    HW214202   6.811   1.410   1.849
 4435SOL     OW14203   2.567   4.570   1.107
 4435SOL    HW114204   2.647   4.549   1.164
 4435SOL    HW214205   2.531   4.485   1.068
 4436SOL     OW14206   4.641   2.241   1.533
 4436SOL    HW114207   4.694   2.319   1.565
 4436SOL    HW214208   4.589   2.203   1.609
 4437SOL     OW14209   6.528   4.965   6.749
 4437SOL    HW114210   6.573   4.976   6.660
 4437SOL    HW214211   6.445   5.021   6.751
 4438SOL     OW14212   4.422   1.331   4.646
 4438SOL    HW114213   4.426   1.428   4.623
 4438SOL    HW214214   4.392   1.279   4.566
 4439SOL     OW14215   2.581   4.798   1.978
 4439SOL    HW114216   2.616   4.872   1.921
 4439SOL    HW214217   2.638   4.716   1.966
 4440SOL     OW14218   2.209   5.636   5.709
 4440SOL    HW114219   2.150   5.573   5.761
 4440SOL    HW214220   2.225   5.598   5.618
 4441SOL     OW14221   6.755   1.501   1.104
 4441SOL    HW114222   6.820   1.569   1.139
 4441SOL    HW214223   6.719   1.447   1.180
 4442SOL     OW14224   1.581   4.872   0.890
 4442SOL    HW114225   1.603   4.795   0.951
 4442SOL    HW214226   1.614   4.852   0.798
 4443SOL     OW14227   1.060   5.788   5.400
 4443SOL    HW114228   1.104   5.874   5.425
 4443SOL    HW214229   0.970   5.783   5.443
 4444SOL     OW14230   5.102   5.963   6.910
 4444SOL    HW114231   5.188   5.921   6.939
 4444SOL    HW214232   5.058   5.906   6.841
 4445SOL     OW14233   1.933   3.693   0.364
 4445SOL    HW114234   1.898   3.713   0.456
 4445SOL    HW214235   1.866   3.640   0.313
 4446SOL     OW14236   5.368   1.983   2.085
 4446SOL    HW114237   5.362   1.939   2.175
 4446SOL    HW214238   5.390   2.080   2.097
 4447SOL     OW14239   4.887   5.753   5.395
 4447SOL    HW114240   4.791   5.729   5.413
 4447SOL    HW214241   4.892   5.847   5.363
 4448SOL     OW14242   2.850   6.466   2.481
 4448SOL    HW114243   2.757   6.498   2.467
 4448SOL    HW214244   2.853   6.366   2.475
 4449SOL     OW14245   4.189   1.744   5.664
 4449SOL    HW114246   4.103   1.781   5.699
 4449SOL    HW214247   4.171   1.693   5.580
 4450SOL     OW14248   2.056   5.841   0.937
 4450SOL    HW114249   2.091   5.759   0.892
 4450SOL    HW214250   1.968   5.820   0.980
 4451SOL     OW14251   4.863   6.067   3.848
 4451SOL    HW114252   4.849   6.044   3.752
 4451SOL    HW214253   4.948   6.027   3.879
 4452SOL     OW14254   5.124   4.287   3.830
 4452SOL    HW114255   5.025   4.274   3.831
 4452SOL    HW214256   5.152   4.327   3.743
 4453SOL     OW14257   0.231   5.711   1.575
 4453SOL    HW114258   0.206   5.615   1.586
 4453SOL    HW214259   0.156   5.769   1.607
 4454SOL     OW14260   0.789   1.408   0.392
 4454SOL    HW114261   0.727   1.447   0.323
 4454SOL    HW214262   0.846   1.337   0.350
 4455SOL     OW14263   1.206   0.433   4.177
 4455SOL    HW114264   1.137   0.490   4.133
 4455SOL    HW214265   1.291   0.484   4.185
 4456SOL     OW14266   1.378   5.884   4.193
 4456SOL    HW114267   1.371   5.869   4.292
 4456SOL    HW214268   1.308   5.950   4.165
 4457SOL     OW14269   1.554   2.009   4.487
 4457SOL    HW114270   1.586   1.972   4.400
 4457SOL    HW214271   1.501   2.092   4.470
 4458SOL     OW14272   2.249   1.971   6.099
 4458SOL    HW114273   2.301   1.907   6.155
 4458SOL    HW214274   2.192   2.029   6.158
 4459SOL     OW14275   0.598   4.330   2.817
 4459SOL    HW114276   0.506   4.350   2.851
 4459SOL    HW214277   0.611   4.376   2.729
 4460SOL     OW14278   6.831   3.149   4.972
 4460SOL    HW114279   6.896   3.183   4.904
 4460SOL    HW214280   6.875   3.148   5.062
 4461SOL     OW14281   1.891   6.991   0.638
 4461SOL    HW114282   1.913   0.017   0.555
 4461SOL    HW214283   1.794   6.967   0.638
 4462SOL     OW14284   6.693   4.448   2.023
 4462SOL    HW114285   6.623   4.377   2.033
 4462SOL    HW214286   6.660   4.517   1.959
 4463SOL     OW14287   5.733   2.188   0.095
 4463SOL    HW114288   5.784   2.164   0.013
 4463SOL    HW214289   5.703   2.283   0.090
 4464SOL     OW14290   0.590   3.527   1.226
 4464SOL    HW114291   0.615   3.441   1.270
 4464SOL    HW214292   0.591   3.516   1.127
 4465SOL     OW14293   4.456   4.980   1.861
 4465SOL    HW114294   4.492   4.902   1.912
 4465SOL    HW214295   4.440   4.954   1.766
 4466SOL     OW14296   0.645   3.067   2.481
 4466SOL    HW114297   0.736   3.043   2.449
 4466SOL    HW214298   0.651   3.147   2.541
 4467SOL     OW14299   5.288   4.713   1.341
 4467SOL    HW114300   5.214   4.694   1.404
 4467SOL    HW214301   5.262   4.789   1.281
 4468SOL     OW14302   1.771   2.993   0.317
 4468SOL    HW114303   1.729   3.082   0.296
 4468SOL    HW214304   1.707   2.937   0.369
 4469SOL     OW14305   1.827   5.833   1.699
 4469SOL    HW114306   1.837   5.830   1.599
 4469SOL    HW214307   1.905   5.881   1.739
 4470SOL     OW14308   0.796   0.069   2.947
 4470SOL    HW114309   0.785   7.017   3.008
 4470SOL    HW214310   0.882   0.062   2.898
 4471SOL     OW14311   0.976   0.568   6.926
 4471SOL    HW114312   0.946   0.520   6.843
 4471SOL    HW214313   0.918   0.648   6.941
 4472SOL     OW14314   1.574   2.745   0.618
 4472SOL    HW114315   1.549   2.814   0.551
 4472SOL    HW214316   1.493   2.720   0.671
 4473SOL     OW14317   0.375   2.569   5.102
 4473SOL    HW114318   0.315   2.491   5.086
 4473SOL    HW214319   0.338   2.624   5.178
 4474SOL     OW14320   2.456   6.530   0.953
 4474SOL    HW114321   2.527   6.484   0.900
 4474SOL    HW214322   2.403   6.462   1.003
 4475SOL     OW14323   0.713   3.498   0.416
 4475SOL    HW114324   0.672   3.576   0.464
 4475SOL    HW214325   0.805   3.482   0.452
 4476SOL     OW14326   4.841   0.691   3.595
 4476SOL    HW114327   4.836   0.600   3.556
 4476SOL    HW214328   4.873   0.686   3.690
 4477SOL     OW14329   0.313   1.588   4.203
 4477SOL    HW114330   0.237   1.636   4.157
 4477SOL    HW214331   0.395   1.645   4.199
 4478SOL     OW14332   1.212   0.952   2.336
 4478SOL    HW114333   1.226   1.031   2.397
 4478SOL    HW214334   1.194   0.871   2.391
 4479SOL     OW14335   2.541   2.957   0.175
 4479SOL    HW114336   2.492   3.041   0.198
 4479SOL    HW214337   2.499   2.914   0.096
 4480SOL     OW14338   6.823   6.901   2.930
 4480SOL    HW114339   6.815   6.834   2.856
 4480SOL    HW214340   6.915   6.896   2.970
 4481SOL     OW14341   2.365   3.841   6.056
 4481SOL    HW114342   2.390   3.753   6.095
 4481SOL    HW214343   2.417   3.914   6.100
 4482SOL     OW14344   2.922   6.866   1.573
 4482SOL    HW114345   2.932   6.769   1.552
 4482SOL    HW214346   3.008   6.913   1.551
 4483SOL     OW14347   0.858   3.375   0.930
 4483SOL    HW114348   0.919   3.448   0.963
 4483SOL    HW214349   0.769   3.414   0.907
 4484SOL     OW14350   3.796   0.645   0.660
 4484SOL    HW114351   3.766   0.732   0.700
 4484SOL    HW214352   3.727   0.575   0.677
 4485SOL     OW14353   0.339   2.979   5.318
 4485SOL    HW114354   0.421   2.953   5.369
 4485SOL    HW214355   0.315   3.074   5.340
 4486SOL     OW14356   5.079   4.711   3.760
 4486SOL    HW114357   5.059   4.692   3.664
 4486SOL    HW214358   5.004   4.676   3.817
 4487SOL     OW14359   0.595   2.649   6.432
 4487SOL    HW114360   0.564   2.739   6.403
 4487SOL    HW214361   0.694   2.648   6.441
 4488SOL     OW14362   5.751   4.563   4.013
 4488SOL    HW114363   5.746   4.658   3.983
 4488SOL    HW214364   5.695   4.551   4.095
 4489SOL     OW14365   3.494   6.081   6.292
 4489SOL    HW114366   3.443   6.077   6.206
 4489SOL    HW214367   3.517   5.989   6.322
 4490SOL     OW14368   5.537   1.765   2.038
 4490SOL    HW114369   5.478   1.845   2.046
 4490SOL    HW214370   5.483   1.687   2.005
 4491SOL     OW14371   0.140   4.138   2.718
 4491SOL    HW114372   0.218   4.178   2.672
 4491SOL    HW214373   0.162   4.123   2.815
 4492SOL     OW14374   6.988   1.362   2.111
 4492SOL    HW114375   0.047   1.310   2.104
 4492SOL    HW214376   6.991   1.439   2.047
 4493SOL     OW14377   5.349   1.107   6.285
 4493SOL    HW114378   5.444   1.095   6.313
 4493SOL    HW214379   5.345   1.175   6.212
 4494SOL     OW14380   1.749   1.700   2.500
 4494SOL    HW114381   1.657   1.741   2.505
 4494SOL    HW214382   1.803   1.749   2.432
 4495SOL     OW14383   3.969   6.071   1.132
 4495SOL    HW114384   3.948   6.129   1.212
 4495SOL    HW214385   4.007   5.984   1.163
 4496SOL     OW14386   2.431   5.356   5.816
 4496SOL    HW114387   2.372   5.328   5.740
 4496SOL    HW214388   2.473   5.443   5.794
 4497SOL     OW14389   4.552   6.978   5.778
 4497SOL    HW114390   4.594   6.989   5.868
 4497SOL    HW214391   4.469   0.009   5.773
 4498SOL     OW14392   1.554   4.701   4.296
 4498SOL    HW114393   1.564   4.618   4.242
 4498SOL    HW214394   1.461   4.736   4.286
 4499SOL     OW14395   5.687   2.152   2.068
 4499SOL    HW114396   5.739   2.070   2.043
 4499SOL    HW214397   5.645   2.138   2.158
 4500SOL     OW14398   3.395   6.703   6.758
 4500SOL    HW114399   3.487   6.731   6.730
 4500SOL    HW214400   3.400   6.619   6.811
 4501SOL     OW14401   6.272   0.091   3.095
 4501SOL    HW114402   6.281   0.186   3.124
 4501SOL    HW214403   6.277   0.031   3.176
 4502SOL     OW14404   1.274   4.256   0.000
 4502SOL    HW114405   1.296   4.159   7.021
 4502SOL    HW214406   1.328   4.306   6.957
 4503SOL     OW14407   3.840   1.353   2.674
 4503SOL    HW114408   3.893   1.268   2.673
 4503SOL    HW214409   3.864   1.407   2.593
 4504SOL     OW14410   1.501   2.513   3.755
 4504SOL    HW114411   1.566   2.525   3.830
 4504SOL    HW214412   1.424   2.457   3.787
 4505SOL     OW14413   6.824   3.223   3.482
 4505SOL    HW114414   6.920   3.242   3.503
 4505SOL    HW214415   6.813   3.126   3.461
 4506SOL     OW14416   4.301   3.823   0.241
 4506SOL    HW114417   4.320   3.920   0.254
 4506SOL    HW214418   4.225   3.796   0.301
 4507SOL     OW14419   6.183   2.520   3.096
 4507SOL    HW114420   6.090   2.493   3.068
 4507SOL    HW214421   6.177   2.575   3.179
 4508SOL     OW14422   5.718   5.138   0.125
 4508SOL    HW114423   5.809   5.142   0.166
 4508SOL    HW214424   5.703   5.048   0.086
 4509SOL     OW14425   4.604   2.172   2.739
 4509SOL    HW114426   4.536   2.242   2.716
 4509SOL    HW214427   4.583   2.088   2.689
 4510SOL     OW14428   4.810   1.825   3.704
 4510SOL    HW114429   4.726   1.816   3.651
 4510SOL    HW214430   4.794   1.798   3.799
 4511SOL     OW14431   0.878   4.519   6.769
 4511SOL    HW114432   0.911   4.528   6.675
 4511SOL    HW214433   0.955   4.499   6.830
 4512SOL     OW14434   2.806   3.552   5.737
 4512SOL    HW114435   2.763   3.582   5.651
 4512SOL    HW214436   2.897   3.592   5.744
 4513SOL     OW14437   0.752   1.229   1.342
 4513SOL    HW114438   0.691   1.284   1.400
 4513SOL    HW214439   0.720   1.232   1.248
 4514SOL     OW14440   4.743   4.351   6.658
 4514SOL    HW114441   4.708   4.258   6.672
 4514SOL    HW214442   4.822   4.366   6.717
 4515SOL     OW14443   4.301   0.071   5.798
 4515SOL    HW114444   4.226   0.029   5.748
 4515SOL    HW214445   4.295   0.170   5.791
 4516SOL     OW14446   3.230   1.570   5.139
 4516SOL    HW114447   3.183   1.613   5.217
 4516SOL    HW214448   3.280   1.640   5.089
 4517SOL     OW14449   3.605   0.494   4.276
 4517SOL    HW114450   3.670   0.570   4.276
 4517SOL    HW214451   3.631   0.428   4.346
 4518SOL     OW14452   0.008   0.178   0.792
 4518SOL    HW114453   0.009   0.243   0.868
 4518SOL    HW214454   7.024   0.085   0.828
 4519SOL     OW14455   5.038   0.302   6.469
 4519SOL    HW114456   5.107   0.306   6.541
 4519SOL    HW214457   5.012   0.207   6.452
 4520SOL     OW14458   4.749   5.204   4.834
 4520SOL    HW114459   4.685   5.280   4.824
 4520SOL    HW214460   4.734   5.139   4.759
 4521SOL     OW14461   4.442   2.505   4.302
 4521SOL    HW114462   4.363   2.447   4.280
 4521SOL    HW214463   4.475   2.549   4.218
 4522SOL     OW14464   5.608   3.949   3.130
 4522SOL    HW114465   5.681   3.919   3.192
 4522SOL    HW214466   5.555   3.871   3.100
 4523SOL     OW14467   0.353   2.639   6.858
 4523SOL    HW114468   0.436   2.650   6.912
 4523SOL    HW214469   0.276   2.681   6.906
 4524SOL     OW14470   2.054   3.840   1.911
 4524SOL    HW114471   2.090   3.916   1.966
 4524SOL    HW214472   2.129   3.797   1.861
 4525SOL     OW14473   3.691   1.390   5.845
 4525SOL    HW114474   3.635   1.320   5.890
 4525SOL    HW214475   3.761   1.423   5.908
 4526SOL     OW14476   1.040   6.965   5.647
 4526SOL    HW114477   1.059   6.909   5.566
 4526SOL    HW214478   0.964   0.001   5.627
 4527SOL     OW14479   0.848   2.546   2.504
 4527SOL    HW114480   0.773   2.495   2.462
 4527SOL    HW214481   0.920   2.561   2.436
 4528SOL     OW14482   5.735   2.014   4.644
 4528SOL    HW114483   5.733   1.935   4.705
 4528SOL    HW214484   5.642   2.043   4.624
 4529SOL     OW14485   1.680   2.561   3.955
 4529SOL    HW114486   1.646   2.512   4.035
 4529SOL    HW214487   1.779   2.571   3.961
 4530SOL     OW14488   3.904   4.569   5.869
 4530SOL    HW114489   3.826   4.627   5.843
 4530SOL    HW214490   3.982   4.627   5.891
 4531SOL     OW14491   1.513   6.699   5.452
 4531SOL    HW114492   1.524   6.663   5.359
 4531SOL    HW214493   1.549   6.792   5.456
 4532SOL     OW14494   5.505   0.901   2.127
 4532SOL    HW114495   5.499   0.987   2.077
 4532SOL    HW214496   5.539   0.829   2.066
 4533SOL     OW14497   3.021   5.552   1.336
 4533SOL    HW114498   2.999   5.576   1.242
 4533SOL    HW214499   3.107   5.596   1.363
 4534SOL     OW14500   5.871   1.509   4.483
 4534SOL    HW114501   5.926   1.426   4.479
 4534SOL    HW214502   5.778   1.486   4.514
 4535SOL     OW14503   1.433   0.093   0.346
 4535SOL    HW114504   1.530   0.084   0.322
 4535SOL    HW214505   1.425   0.129   0.439
 4536SOL     OW14506   3.812   0.814   5.697
 4536SOL    HW114507   3.715   0.822   5.678
 4536SOL    HW214508   3.847   0.728   5.660
 4537SOL     OW14509   3.338   3.613   3.538
 4537SOL    HW114510   3.267   3.624   3.607
 4537SOL    HW214511   3.354   3.700   3.491
 4538SOL     OW14512   1.176   3.167   0.299
 4538SOL    HW114513   1.187   3.174   0.200
 4538SOL    HW214514   1.080   3.181   0.323
 4539SOL     OW14515   0.976   4.776   4.652
 4539SOL    HW114516   0.898   4.826   4.688
 4539SOL    HW214517   1.061   4.813   4.691
 4540SOL     OW14518   1.894   1.971   0.527
 4540SOL    HW114519   1.887   2.065   0.560
 4540SOL    HW214520   1.969   1.965   0.460
 4541SOL     OW14521   4.109   3.002   0.088
 4541SOL    HW114522   4.021   2.984   0.045
 4541SOL    HW214523   4.183   2.985   0.023
 4542SOL     OW14524   6.909   1.626   0.212
 4542SOL    HW114525   6.864   1.550   0.259
 4542SOL    HW214526   6.841   1.675   0.157
 4543SOL     OW14527   4.241   1.150   1.006
 4543SOL    HW114528   4.240   1.106   1.096
 4543SOL    HW214529   4.290   1.092   0.941
 4544SOL     OW14530   4.995   5.887   0.384
 4544SOL    HW114531   4.998   5.927   0.293
 4544SOL    HW214532   5.084   5.897   0.428
 4545SOL     OW14533   3.126   3.407   5.487
 4545SOL    HW114534   3.208   3.377   5.439
 4545SOL    HW214535   3.045   3.379   5.436
 4546SOL     OW14536   4.820   6.895   5.753
 4546SOL    HW114537   4.832   6.962   5.826
 4546SOL    HW214538   4.736   6.914   5.703
 4547SOL     OW14539   6.757   1.079   0.133
 4547SOL    HW114540   6.709   1.070   0.220
 4547SOL    HW214541   6.704   1.138   0.071
 4548SOL     OW14542   3.143   1.274   1.968
 4548SOL    HW114543   3.135   1.347   1.900
 4548SOL    HW214544   3.106   1.305   2.055
 4549SOL     OW14545   6.565   5.076   3.889
 4549SOL    HW114546   6.600   5.149   3.831
 4549SOL    HW214547   6.524   5.115   3.972
 4550SOL     OW14548   2.567   5.223   6.840
 4550SOL    HW114549   2.501   5.276   6.787
 4550SOL    HW214550   2.520   5.153   6.893
 4551SOL     OW14551   3.619   3.241   5.931
 4551SOL    HW114552   3.564   3.233   6.015
 4551SOL    HW214553   3.656   3.151   5.907
 4552SOL     OW14554   4.733   0.544   6.928
 4552SOL    HW114555   4.650   0.488   6.936
 4552SOL    HW214556   4.713   0.636   6.961
 4553SOL     OW14557   0.467   0.052   0.520
 4553SOL    HW114558   0.452   6.979   0.525
 4553SOL    HW214559   0.394   0.099   0.570
 4554SOL     OW14560   5.760   6.338   2.663
 4554SOL    HW114561   5.733   6.250   2.625
 4554SOL    HW214562   5.703   6.410   2.623
 4555SOL     OW14563   0.352   0.211   3.121
 4555SOL    HW114564   0.409   0.251   3.049
 4555SOL    HW214565   0.352   0.112   3.112
 4556SOL     OW14566   5.130   4.520   4.789
 4556SOL    HW114567   5.049   4.465   4.770
 4556SOL    HW214568   5.108   4.592   4.853
 4557SOL     OW14569   0.068   5.352   4.796
 4557SOL    HW114570   0.006   5.277   4.818
 4557SOL    HW214571   0.123   5.375   4.876
 4558SOL     OW14572   0.848   4.204   3.848
 4558SOL    HW114573   0.879   4.268   3.918
 4558SOL    HW214574   0.804   4.126   3.892
 4559SOL     OW14575   0.215   3.721   4.398
 4559SOL    HW114576   0.155   3.744   4.475
 4559SOL    HW214577   0.309   3.711   4.431
 4560SOL     OW14578   6.656   4.169   3.309
 4560SOL    HW114579   6.642   4.158   3.210
 4560SOL    HW214580   6.568   4.159   3.356
 4561SOL     OW14581   4.906   3.177   4.113
 4561SOL    HW114582   4.971   3.101   4.114
 4561SOL    HW214583   4.922   3.235   4.193
 4562SOL     OW14584   4.803   1.238   0.973
 4562SOL    HW114585   4.809   1.295   1.055
 4562SOL    HW214586   4.871   1.269   0.906
 4563SOL     OW14587   0.873   4.175   1.684
 4563SOL    HW114588   0.909   4.207   1.772
 4563SOL    HW214589   0.880   4.249   1.617
 4564SOL     OW14590   2.007   3.613   2.091
 4564SOL    HW114591   2.089   3.562   2.064
 4564SOL    HW214592   2.013   3.707   2.056
 4565SOL     OW14593   2.285   6.630   4.843
 4565SOL    HW114594   2.211   6.665   4.900
 4565SOL    HW214595   2.362   6.602   4.901
 4566SOL     OW14596   6.834   4.896   3.118
 4566SOL    HW114597   6.750   4.849   3.095
 4566SOL    HW214598   6.884   4.919   3.035
 4567SOL     OW14599   1.047   0.143   0.550
 4567SOL    HW114600   1.041   0.121   0.452
 4567SOL    HW214601   1.068   0.240   0.561
 4568SOL     OW14602   0.128   4.487   3.780
 4568SOL    HW114603   0.158   4.580   3.757
 4568SOL    HW214604   0.176   4.456   3.862
 4569SOL     OW14605   0.644   2.881   3.823
 4569SOL    HW114606   0.626   2.784   3.838
 4569SOL    HW214607   0.627   2.904   3.727
 4570SOL     OW14608   4.935   5.971   1.420
 4570SOL    HW114609   4.910   5.885   1.464
 4570SOL    HW214610   4.867   6.041   1.441
 4571SOL     OW14611   1.884   2.396   5.135
 4571SOL    HW114612   1.873   2.299   5.112
 4571SOL    HW214613   1.869   2.409   5.233
 4572SOL     OW14614   4.499   3.218   1.683
 4572SOL    HW114615   4.508   3.317   1.693
 4572SOL    HW214616   4.561   3.173   1.748
 4573SOL     OW14617   2.047   5.191   1.008
 4573SOL    HW114618   2.133   5.220   1.050
 4573SOL    HW214619   2.060   5.103   0.961
 4574SOL     OW14620   5.188   0.636   1.686
 4574SOL    HW114621   5.245   0.647   1.605
 4574SOL    HW214622   5.196   0.716   1.745
 4575SOL     OW14623   0.222   1.809   5.199
 4575SOL    HW114624   0.281   1.882   5.165
 4575SOL    HW214625   0.274   1.723   5.204
 4576SOL     OW14626   3.023   3.825   6.657
 4576SOL    HW114627   3.027   3.818   6.557
 4576SOL    HW214628   3.109   3.863   6.691
 4577SOL     OW14629   0.429   1.993   2.079
 4577SOL    HW114630   0.336   1.972   2.107
 4577SOL    HW214631   0.494   1.956   2.146
 4578SOL     OW14632   1.448   0.598   3.071
 4578SOL    HW114633   1.356   0.629   3.047
 4578SOL    HW214634   1.450   0.498   3.071
 4579SOL     OW14635   4.451   0.848   2.946
 4579SOL    HW114636   4.437   0.762   2.897
 4579SOL    HW214637   4.362   0.888   2.970
 4580SOL     OW14638   0.780   0.442   1.689
 4580SOL    HW114639   0.698   0.391   1.664
 4580SOL    HW214640   0.771   0.537   1.658
 4581SOL     OW14641   3.098   0.612   1.412
 4581SOL    HW114642   3.025   0.669   1.374
 4581SOL    HW214643   3.093   0.613   1.511
 4582SOL     OW14644   6.098   0.951   4.527
 4582SOL    HW114645   6.033   0.935   4.454
 4582SOL    HW214646   6.149   0.866   4.545
 4583SOL     OW14647   2.152   6.293   6.732
 4583SOL    HW114648   2.186   6.204   6.703
 4583SOL    HW214649   2.169   6.361   6.660
 4584SOL     OW14650   0.110   1.292   4.555
 4584SOL    HW114651   0.133   1.216   4.494
 4584SOL    HW214652   0.144   1.377   4.516
 4585SOL     OW14653   0.944   2.807   2.889
 4585SOL    HW114654   0.947   2.830   2.791
 4585SOL    HW214655   0.980   2.714   2.902
 4586SOL     OW14656   0.051   4.929   5.817
 4586SOL    HW114657   6.987   4.930   5.774
 4586SOL    HW214658   0.052   4.863   5.892
 4587SOL     OW14659   4.488   3.117   6.304
 4587SOL    HW114660   4.412   3.146   6.363
 4587SOL    HW214661   4.570   3.103   6.359
 4588SOL     OW14662   2.303   4.575   6.659
 4588SOL    HW114663   2.337   4.486   6.627
 4588SOL    HW214664   2.373   4.619   6.714
 4589SOL     OW14665   4.743   5.955   2.105
 4589SOL    HW114666   4.691   6.040   2.111
 4589SOL    HW214667   4.803   5.957   2.025
 4590SOL     OW14668   2.192   4.762   1.713
 4590SOL    HW114669   2.227   4.776   1.806
 4590SOL    HW214670   2.124   4.689   1.714
 4591SOL     OW14671   2.220   1.716   4.778
 4591SOL    HW114672   2.206   1.625   4.739
 4591SOL    HW214673   2.287   1.766   4.723
 4592SOL     OW14674   2.570   2.537   3.370
 4592SOL    HW114675   2.497   2.491   3.320
 4592SOL    HW214676   2.595   2.483   3.450
 4593SOL     OW14677   1.712   5.873   4.711
 4593SOL    HW114678   1.653   5.886   4.791
 4593SOL    HW214679   1.690   5.786   4.667
 4594SOL     OW14680   0.840   6.419   4.015
 4594SOL    HW114681   0.850   6.510   4.055
 4594SOL    HW214682   0.743   6.396   4.006
 4595SOL     OW14683   5.966   2.040   6.639
 4595SOL    HW114684   5.951   1.981   6.718
 4595SOL    HW214685   5.990   1.983   6.559
 4596SOL     OW14686   0.592   1.615   2.979
 4596SOL    HW114687   0.522   1.587   2.913
 4596SOL    HW214688   0.572   1.707   3.012
 4597SOL     OW14689   2.050   5.451   0.686
 4597SOL    HW114690   2.093   5.527   0.637
 4597SOL    HW214691   1.994   5.398   0.622
 4598SOL     OW14692   0.259   2.810   0.250
 4598SOL    HW114693   0.216   2.863   0.176
 4598SOL    HW214694   0.254   2.713   0.228
 4599SOL     OW14695   3.124   6.395   3.207
 4599SOL    HW114696   3.139   6.375   3.303
 4599SOL    HW214697   3.110   6.310   3.157
 4600SOL     OW14698   0.464   6.642   6.227
 4600SOL    HW114699   0.539   6.592   6.184
 4600SOL    HW214700   0.399   6.577   6.267
 4601SOL     OW14701   1.928   0.587   5.029
 4601SOL    HW114702   1.863   0.586   4.953
 4601SOL    HW214703   1.998   0.656   5.013
 4602SOL     OW14704   4.061   0.506   6.325
 4602SOL    HW114705   4.109   0.518   6.238
 4602SOL    HW214706   4.068   0.410   6.354
 4603SOL     OW14707   4.192   0.012   1.089
 4603SOL    HW114708   4.180   0.095   1.034
 4603SOL    HW214709   4.270   0.023   1.150
 4604SOL     OW14710   0.655   6.223   3.374
 4604SOL    HW114711   0.686   6.208   3.467
 4604SOL    HW214712   0.657   6.320   3.352
 4605SOL     OW14713   4.804   1.425   1.968
 4605SOL    HW114714   4.775   1.429   1.872
 4605SOL    HW214715   4.897   1.459   1.976
 4606SOL     OW14716   6.671   6.903   4.544
 4606SOL    HW114717   6.577   6.877   4.566
 4606SOL    HW214718   6.670   6.973   4.472
 4607SOL     OW14719   2.572   1.878   1.019
 4607SOL    HW114720   2.580   1.819   0.939
 4607SOL    HW214721   2.608   1.969   0.997
 4608SOL     OW14722   0.685   2.105   5.668
 4608SOL    HW114723   0.771   2.115   5.719
 4608SOL    HW214724   0.614   2.158   5.713
 4609SOL     OW14725   6.275   5.262   6.308
 4609SOL    HW114726   6.371   5.276   6.285
 4609SOL    HW214727   6.244   5.338   6.365
 4610SOL     OW14728   5.378   4.089   6.475
 4610SOL    HW114729   5.471   4.054   6.464
 4610SOL    HW214730   5.381   4.180   6.517
 4611SOL     OW14731   6.990   0.220   6.534
 4611SOL    HW114732   0.038   0.272   6.576
 4611SOL    HW214733   6.911   0.279   6.520
 4612SOL     OW14734   1.805   0.727   2.574
 4612SOL    HW114735   1.827   0.823   2.562
 4612SOL    HW214736   1.875   0.671   2.528
 4613SOL     OW14737   1.660   5.004   3.346
 4613SOL    HW114738   1.695   5.065   3.417
 4613SOL    HW214739   1.578   4.958   3.379
 4614SOL     OW14740   0.090   4.961   2.625
 4614SOL    HW114741   0.189   4.967   2.608
 4614SOL    HW214742   0.057   4.871   2.597
 4615SOL     OW14743   1.094   4.499   6.909
 4615SOL    HW114744   1.113   4.567   6.980
 4615SOL    HW214745   1.159   4.511   6.834
 4616SOL     OW14746   1.505   4.177   6.134
 4616SOL    HW114747   1.569   4.121   6.081
 4616SOL    HW214748   1.553   4.217   6.212
 4617SOL     OW14749   0.564   4.229   4.219
 4617SOL    HW114750   0.630   4.179   4.275
 4617SOL    HW214751   0.574   4.201   4.123
 4618SOL     OW14752   1.962   4.388   5.308
 4618SOL    HW114753   2.016   4.377   5.392
 4618SOL    HW214754   1.966   4.303   5.255
 4619SOL     OW14755   4.095   5.825   6.887
 4619SOL    HW114756   4.016   5.816   6.948
 4619SOL    HW214757   4.089   5.756   6.815
 4620SOL     OW14758   1.457   4.302   1.456
 4620SOL    HW114759   1.542   4.267   1.417
 4620SOL    HW214760   1.474   4.386   1.506
 4621SOL     OW14761   2.843   0.200   3.050
 4621SOL    HW114762   2.817   0.104   3.057
 4621SOL    HW214763   2.761   0.256   3.042
 4622SOL     OW14764   6.243   0.200   0.087
 4622SOL    HW114765   6.339   0.174   0.096
 4622SOL    HW214766   6.210   0.237   0.174
 4623SOL     OW14767   3.003   4.826   3.099
 4623SOL    HW114768   3.010   4.851   3.196
 4623SOL    HW214769   2.908   4.829   3.071
 4624SOL     OW14770   5.439   1.646   0.639
 4624SOL    HW114771   5.530   1.627   0.603
 4624SOL    HW214772   5.442   1.653   0.738
 4625SOL     OW14773   0.520   6.417   1.945
 4625SOL    HW114774   0.504   6.329   1.900
 4625SOL    HW214775   0.618   6.437   1.945
 4626SOL     OW14776   4.083   3.751   2.022
 4626SOL    HW114777   4.112   3.707   2.107
 4626SOL    HW214778   4.153   3.815   1.992
 4627SOL     OW14779   5.636   6.720   4.375
 4627SOL    HW114780   5.561   6.666   4.336
 4627SOL    HW214781   5.625   6.726   4.474
 4628SOL     OW14782   6.416   4.555   2.912
 4628SOL    HW114783   6.376   4.633   2.864
 4628SOL    HW214784   6.509   4.539   2.876
 4629SOL     OW14785   1.308   5.336   1.069
 4629SOL    HW114786   1.390   5.384   1.100
 4629SOL    HW214787   1.336   5.250   1.024
 4630SOL     OW14788   1.828   3.969   1.292
 4630SOL    HW114789   1.848   3.876   1.263
 4630SOL    HW214790   1.882   4.034   1.238
 4631SOL     OW14791   6.295   1.771   2.477
 4631SOL    HW114792   6.219   1.709   2.496
 4631SOL    HW214793   6.290   1.804   2.383
 4632SOL     OW14794   2.969   4.842   3.825
 4632SOL    HW114795   2.924   4.831   3.914
 4632SOL    HW214796   2.938   4.927   3.782
 4633SOL     OW14797   5.401   3.337   3.973
 4633SOL    HW114798   5.417   3.271   4.046
 4633SOL    HW214799   5.485   3.347   3.919
 4634SOL     OW14800   3.644   3.107   5.102
 4634SOL    HW114801   3.568   3.060   5.147
 4634SOL    HW214802   3.641   3.204   5.123
 4635SOL     OW14803   4.387   0.321   2.479
 4635SOL    HW114804   4.425   0.342   2.389
 4635SOL    HW214805   4.292   0.290   2.469
 4636SOL     OW14806   1.917   5.586   6.641
 4636SOL    HW114807   1.939   5.678   6.673
 4636SOL    HW214808   1.824   5.584   6.604
 4637SOL     OW14809   2.092   2.467   3.130
 4637SOL    HW114810   2.093   2.482   3.229
 4637SOL    HW214811   1.997   2.455   3.099
 4638SOL     OW14812   4.304   4.271   6.843
 4638SOL    HW114813   4.279   4.189   6.791
 4638SOL    HW214814   4.401   4.265   6.869
 4639SOL     OW14815   4.271   2.381   1.626
 4639SOL    HW114816   4.176   2.351   1.628
 4639SOL    HW214817   4.302   2.388   1.531
 4640SOL     OW14818   0.176   2.549   0.456
 4640SOL    HW114819   0.177   2.572   0.359
 4640SOL    HW214820   0.246   2.480   0.475
 4641SOL     OW14821   1.245   5.876   4.814
 4641SOL    HW114822   1.276   5.899   4.907
 4641SOL    HW214823   1.240   5.776   4.805
 4642SOL     OW14824   5.888   1.475   6.521
 4642SOL    HW114825   5.915   1.502   6.614
 4642SOL    HW214826   5.873   1.557   6.466
 4643SOL     OW14827   0.497   1.758   6.897
 4643SOL    HW114828   0.460   1.844   6.863
 4643SOL    HW214829   0.530   1.703   6.820
 4644SOL     OW14830   1.005   1.399   1.171
 4644SOL    HW114831   1.019   1.418   1.268
 4644SOL    HW214832   0.932   1.330   1.161
 4645SOL     OW14833   5.845   2.257   5.866
 4645SOL    HW114834   5.774   2.326   5.880
 4645SOL    HW214835   5.852   2.199   5.947
 4646SOL     OW14836   1.395   4.051   2.364
 4646SOL    HW114837   1.435   4.013   2.447
 4646SOL    HW214838   1.354   4.140   2.384
 4647SOL     OW14839   2.110   6.047   2.852
 4647SOL    HW114840   2.014   6.048   2.880
 4647SOL    HW214841   2.167   6.042   2.934
 4648SOL     OW14842   2.548   0.609   4.153
 4648SOL    HW114843   2.510   0.695   4.186
 4648SOL    HW214844   2.526   0.535   4.217
 4649SOL     OW14845   4.763   3.116   0.694
 4649SOL    HW114846   4.681   3.119   0.751
 4649SOL    HW214847   4.843   3.136   0.750
 4650SOL     OW14848   3.473   5.357   0.741
 4650SOL    HW114849   3.467   5.405   0.653
 4650SOL    HW214850   3.545   5.287   0.736
 4651SOL     OW14851   1.180   3.534   6.985
 4651SOL    HW114852   1.115   3.497   0.025
 4651SOL    HW214853   1.268   3.487   6.995
 4652SOL     OW14854   0.414   0.402   5.442
 4652SOL    HW114855   0.432   0.432   5.348
 4652SOL    HW214856   0.459   0.464   5.506
 4653SOL     OW14857   0.211   6.600   0.718
 4653SOL    HW114858   0.161   6.614   0.632
 4653SOL    HW214859   0.298   6.555   0.699
 4654SOL     OW14860   0.682   1.323   5.230
 4654SOL    HW114861   0.732   1.378   5.163
 4654SOL    HW214862   0.690   1.365   5.320
 4655SOL     OW14863   5.461   5.051   2.929
 4655SOL    HW114864   5.528   4.977   2.935
 4655SOL    HW214865   5.502   5.137   2.957
 4656SOL     OW14866   5.800   0.843   1.767
 4656SOL    HW114867   5.790   0.935   1.730
 4656SOL    HW214868   5.799   0.777   1.692
 4657SOL     OW14869   3.884   1.743   2.662
 4657SOL    HW114870   3.803   1.687   2.681
 4657SOL    HW214871   3.855   1.829   2.620
 4658SOL     OW14872   1.616   1.758   0.219
 4658SOL    HW114873   1.670   1.774   0.137
 4658SOL    HW214874   1.613   1.842   0.274
 4659SOL     OW14875   2.084   4.937   0.572
 4659SOL    HW114876   2.130   4.980   0.495
 4659SOL    HW214877   2.116   4.979   0.657
 4660SOL     OW14878   0.275   5.122   4.326
 4660SOL    HW114879   0.306   5.213   4.356
 4660SOL    HW214880   0.323   5.052   4.379
 4661SOL     OW14881   0.908   0.692   5.926
 4661SOL    HW114882   0.985   0.747   5.959
 4661SOL    HW214883   0.936   0.596   5.917
 4662SOL     OW14884   3.017   0.730   6.164
 4662SOL    HW114885   2.920   0.757   6.165
 4662SOL    HW214886   3.049   0.724   6.069
 4663SOL     OW14887   0.411   0.982   1.199
 4663SOL    HW114888   0.477   0.917   1.161
 4663SOL    HW214889   0.400   0.964   1.297
 4664SOL     OW14890   5.723   6.216   4.977
 4664SOL    HW114891   5.724   6.192   4.879
 4664SOL    HW214892   5.817   6.218   5.011
 4665SOL     OW14893   0.050   0.836   2.831
 4665SOL    HW114894   0.149   0.849   2.832
 4665SOL    HW214895   0.027   0.752   2.880
 4666SOL     OW14896   1.693   2.303   6.152
 4666SOL    HW114897   1.638   2.373   6.197
 4666SOL    HW214898   1.633   2.230   6.118
 4667SOL     OW14899   6.702   2.806   1.210
 4667SOL    HW114900   6.680   2.796   1.113
 4667SOL    HW214901   6.707   2.903   1.234
 4668SOL     OW14902   4.749   1.275   5.532
 4668SOL    HW114903   4.711   1.367   5.525
 4668SOL    HW214904   4.842   1.280   5.568
 4669SOL     OW14905   5.326   6.759   6.156
 4669SOL    HW114906   5.319   6.697   6.235
 4669SOL    HW214907   5.247   6.744   6.096
 4670SOL     OW14908   0.697   3.046   0.238
 4670SOL    HW114909   0.775   3.071   0.181
 4670SOL    HW214910   0.621   3.108   0.220
 4671SOL     OW14911   6.702   1.917   1.944
 4671SOL    HW114912   6.603   1.925   1.931
 4671SOL    HW214913   6.738   2.003   1.981
 4672SOL     OW14914   3.430   2.912   0.886
 4672SOL    HW114915   3.439   2.918   0.985
 4672SOL    HW214916   3.520   2.899   0.844
 4673SOL     OW14917   5.271   0.881   1.197
 4673SOL    HW114918   5.325   0.816   1.144
 4673SOL    HW214919   5.177   0.849   1.205
 4674SOL     OW14920   0.901   3.249   0.377
 4674SOL    HW114921   0.942   3.264   0.467
 4674SOL    HW214922   0.805   3.224   0.388
 4675SOL     OW14923   1.944   6.071   0.559
 4675SOL    HW114924   1.965   6.153   0.506
 4675SOL    HW214925   2.022   6.050   0.619
 4676SOL     OW14926   1.262   5.606   4.735
 4676SOL    HW114927   1.242   5.546   4.658
 4676SOL    HW214928   1.191   5.597   4.804
 4677SOL     OW14929   4.455   6.884   6.705
 4677SOL    HW114930   4.532   6.941   6.737
 4677SOL    HW214931   4.487   6.791   6.690
 4678SOL     OW14932   2.474   4.443   0.517
 4678SOL    HW114933   2.428   4.487   0.594
 4678SOL    HW214934   2.526   4.364   0.550
 4679SOL     OW14935   2.483   6.717   5.307
 4679SOL    HW114936   2.460   6.655   5.232
 4679SOL    HW214937   2.521   6.665   5.383
 4680SOL     OW14938   1.168   5.436   6.224
 4680SOL    HW114939   1.123   5.489   6.152
 4680SOL    HW214940   1.219   5.360   6.182
 4681SOL     OW14941   6.922   5.679   5.036
 4681SOL    HW114942   6.939   5.731   5.120
 4681SOL    HW214943   6.852   5.609   5.054
 4682SOL     OW14944   3.210   0.721   0.778
 4682SOL    HW114945   3.215   0.661   0.857
 4682SOL    HW214946   3.124   0.703   0.728
 4683SOL     OW14947   0.793   4.656   3.447
 4683SOL    HW114948   0.754   4.644   3.538
 4683SOL    HW214949   0.749   4.594   3.383
 4684SOL     OW14950   1.895   1.446   4.999
 4684SOL    HW114951   1.901   1.394   5.085
 4684SOL    HW214952   1.942   1.534   5.010
 4685SOL     OW14953   5.537   4.172   4.138
 4685SOL    HW114954   5.586   4.189   4.053
 4685SOL    HW214955   5.485   4.087   4.131
 4686SOL     OW14956   5.261   5.341   6.546
 4686SOL    HW114957   5.223   5.400   6.475
 4686SOL    HW214958   5.288   5.397   6.625
 4687SOL     OW14959   4.736   0.417   4.677
 4687SOL    HW114960   4.819   0.419   4.733
 4687SOL    HW214961   4.760   0.389   4.584
 4688SOL     OW14962   6.881   1.129   0.946
 4688SOL    HW114963   6.949   1.100   1.014
 4688SOL    HW214964   6.870   1.058   0.878
 4689SOL     OW14965   1.977   5.776   4.191
 4689SOL    HW114966   1.906   5.840   4.160
 4689SOL    HW214967   1.979   5.774   4.291
 4690SOL     OW14968   2.331   1.459   0.817
 4690SOL    HW114969   2.286   1.373   0.838
 4690SOL    HW214970   2.270   1.535   0.839
 4691SOL     OW14971   3.162   4.393   0.172
 4691SOL    HW114972   3.104   4.453   0.227
 4691SOL    HW214973   3.256   4.426   0.175
 4692SOL     OW14974   1.202   4.971   3.632
 4692SOL    HW114975   1.189   5.070   3.629
 4692SOL    HW214976   1.114   4.925   3.626
 4693SOL     OW14977   0.423   1.809   2.362
 4693SOL    HW114978   0.419   1.721   2.409
 4693SOL    HW214979   0.518   1.842   2.361
 4694SOL     OW14980   1.586   0.976   5.099
 4694SOL    HW114981   1.647   1.007   5.172
 4694SOL    HW214982   1.510   1.040   5.089
 4695SOL     OW14983   3.307   3.850   3.139
 4695SOL    HW114984   3.281   3.925   3.078
 4695SOL    HW214985   3.236   3.780   3.137
 4696SOL     OW14986   6.646   3.090   0.832
 4696SOL    HW114987   6.675   2.996   0.851
 4696SOL    HW214988   6.682   3.151   0.903
 4697SOL     OW14989   1.213   5.846   6.691
 4697SOL    HW114990   1.188   5.868   6.597
 4697SOL    HW214991   1.130   5.840   6.746
 4698SOL     OW14992   5.940   3.269   2.249
 4698SOL    HW114993   5.862   3.230   2.200
 4698SOL    HW214994   5.974   3.349   2.198
 4699SOL     OW14995   6.881   0.182   3.372
 4699SOL    HW114996   6.797   0.232   3.350
 4699SOL    HW214997   6.859   0.086   3.390
 4700SOL     OW14998   4.941   0.004   6.115
 4700SOL    HW114999   5.004   0.025   6.040
 4700SOL    HW215000   4.847   0.018   6.084
 4701SOL     OW15001   1.907   0.626   6.832
 4701SOL    HW115002   1.946   0.698   6.775
 4701SOL    HW215003   1.833   0.580   6.783
 4702SOL     OW15004   3.185   2.866   1.133
 4702SOL    HW115005   3.112   2.798   1.138
 4702SOL    HW215006   3.268   2.822   1.099
 4703SOL     OW15007   0.772   6.621   2.517
 4703SOL    HW115008   0.771   6.538   2.573
 4703SOL    HW215009   0.693   6.678   2.540
 4704SOL     OW15010   4.742   6.546   6.359
 4704SOL    HW115011   4.834   6.506   6.366
 4704SOL    HW215012   4.718   6.590   6.445
 4705SOL     OW15013   3.672   2.856   5.030
 4705SOL    HW115014   3.643   2.952   5.037
 4705SOL    HW215015   3.771   2.850   5.045
 4706SOL     OW15016   5.667   3.829   0.179
 4706SOL    HW115017   5.765   3.830   0.159
 4706SOL    HW215018   5.630   3.737   0.164
 4707SOL     OW15019   2.646   5.145   0.407
 4707SOL    HW115020   2.546   5.141   0.408
 4707SOL    HW215021   2.681   5.077   0.342
 4708SOL     OW15022   1.579   3.169   2.481
 4708SOL    HW115023   1.501   3.132   2.430
 4708SOL    HW215024   1.641   3.215   2.418
 4709SOL     OW15025   2.851   3.951   0.824
 4709SOL    HW115026   2.834   3.853   0.808
 4709SOL    HW215027   2.904   3.988   0.748
 4710SOL     OW15028   4.722   3.053   1.250
 4710SOL    HW115029   4.672   3.031   1.334
 4710SOL    HW215030   4.821   3.047   1.268
 4711SOL     OW15031   2.617   6.827   3.586
 4711SOL    HW115032   2.648   6.915   3.622
 4711SOL    HW215033   2.684   6.792   3.520
 4712SOL     OW15034   1.707   3.507   0.020
 4712SOL    HW115035   1.752   3.425   7.009
 4712SOL    HW215036   1.719   3.583   6.981
 4713SOL     OW15037   0.639   5.302   0.935
 4713SOL    HW115038   0.593   5.381   0.894
 4713SOL    HW215039   0.585   5.269   1.013
 4714SOL     OW15040   4.189   2.635   1.248
 4714SOL    HW115041   4.149   2.544   1.236
 4714SOL    HW215042   4.287   2.626   1.265
 4715SOL     OW15043   4.989   3.696   4.818
 4715SOL    HW115044   5.005   3.795   4.810
 4715SOL    HW215045   4.915   3.679   4.883
 4716SOL     OW15046   2.590   5.427   6.487
 4716SOL    HW115047   2.520   5.426   6.559
 4716SOL    HW215048   2.546   5.411   6.398
 4717SOL     OW15049   2.342   5.415   4.868
 4717SOL    HW115050   2.399   5.343   4.909
 4717SOL    HW215051   2.259   5.426   4.922
 4718SOL     OW15052   4.947   6.867   0.193
 4718SOL    HW115053   4.998   6.793   0.238
 4718SOL    HW215054   4.857   6.833   0.165
 4719SOL     OW15055   4.569   3.493   1.672
 4719SOL    HW115056   4.539   3.587   1.686
 4719SOL    HW215057   4.658   3.479   1.716
 4720SOL     OW15058   2.332   1.606   2.847
 4720SOL    HW115059   2.416   1.556   2.865
 4720SOL    HW215060   2.261   1.577   2.912
 4721SOL     OW15061   1.583   1.299   1.568
 4721SOL    HW115062   1.649   1.340   1.631
 4721SOL    HW215063   1.617   1.209   1.539
 4722SOL     OW15064   2.686   0.509   2.768
 4722SOL    HW115065   2.655   0.602   2.748
 4722SOL    HW215066   2.785   0.509   2.778
 4723SOL     OW15067   3.128   0.047   5.420
 4723SOL    HW115068   3.108   0.024   5.515
 4723SOL    HW215069   3.070   7.018   5.360
 4724SOL     OW15070   4.720   5.254   1.108
 4724SOL    HW115071   4.696   5.322   1.177
 4724SOL    HW215072   4.641   5.234   1.051
 4725SOL     OW15073   6.039   5.458   3.100
 4725SOL    HW115074   5.994   5.384   3.149
 4725SOL    HW215075   5.986   5.481   3.018
 4726SOL     OW15076   0.095   6.486   4.523
 4726SOL    HW115077   0.024   6.476   4.454
 4726SOL    HW215078   0.085   6.575   4.569
 4727SOL     OW15079   5.731   6.825   1.987
 4727SOL    HW115080   5.657   6.770   2.025
 4727SOL    HW215081   5.741   6.909   2.041
 4728SOL     OW15082   6.719   0.332   6.592
 4728SOL    HW115083   6.637   0.331   6.535
 4728SOL    HW215084   6.699   0.288   6.680
 4729SOL     OW15085   3.089   0.939   1.055
 4729SOL    HW115086   3.136   0.878   1.119
 4729SOL    HW215087   3.020   0.992   1.104
 4730SOL     OW15088   1.860   0.504   6.128
 4730SOL    HW115089   1.940   0.449   6.103
 4730SOL    HW215090   1.876   0.548   6.216
 4731SOL     OW15091   4.679   1.062   5.727
 4731SOL    HW115092   4.691   1.146   5.673
 4731SOL    HW215093   4.598   1.013   5.694
 4732SOL     OW15094   0.809   6.930   0.364
 4732SOL    HW115095   0.876   6.979   0.308
 4732SOL    HW215096   0.747   6.879   0.305
 4733SOL     OW15097   6.136   3.818   3.274
 4733SOL    HW115098   6.222   3.814   3.325
 4733SOL    HW215099   6.128   3.907   3.228
 4734SOL     OW15100   6.474   3.983   5.495
 4734SOL    HW115101   6.405   3.920   5.458
 4734SOL    HW215102   6.559   3.972   5.444
 4735SOL     OW15103   0.845   4.338   3.391
 4735SOL    HW115104   0.748   4.318   3.404
 4735SOL    HW215105   0.889   4.262   3.343
 4736SOL     OW15106   1.946   6.930   2.498
 4736SOL    HW115107   2.034   6.922   2.451
 4736SOL    HW215108   1.872   6.934   2.430
 4737SOL     OW15109   3.469   4.983   1.931
 4737SOL    HW115110   3.548   4.924   1.922
 4737SOL    HW215111   3.386   4.928   1.942
 4738SOL     OW15112   1.041   0.008   2.846
 4738SOL    HW115113   1.054   6.941   2.880
 4738SOL    HW215114   1.089   0.018   2.758
 4739SOL     OW15115   3.801   0.349   1.530
 4739SOL    HW115116   3.746   0.320   1.608
 4739SOL    HW215117   3.741   0.381   1.457
 4740SOL     OW15118   0.844   1.875   4.157
 4740SOL    HW115119   0.837   1.777   4.173
 4740SOL    HW215120   0.938   1.898   4.130
 4741SOL     OW15121   4.112   3.603   2.975
 4741SOL    HW115122   4.168   3.618   3.056
 4741SOL    HW215123   4.015   3.601   3.001
 4742SOL     OW15124   5.393   1.182   2.110
 4742SOL    HW115125   5.402   1.227   2.199
 4742SOL    HW215126   5.364   1.250   2.042
 4743SOL     OW15127   0.978   5.085   0.949
 4743SOL    HW115128   1.048   5.043   1.006
 4743SOL    HW215129   0.946   5.169   0.993
 4744SOL     OW15130   1.777   5.623   1.370
 4744SOL    HW115131   1.845   5.562   1.410
 4744SOL    HW215132   1.811   5.717   1.372
 4745SOL     OW15133   1.532   3.144   0.003
 4745SOL    HW115134   1.534   3.047   0.027
 4745SOL    HW215135   1.586   3.159   6.946
 4746SOL     OW15136   5.311   5.480   4.565
 4746SOL    HW115137   5.301   5.424   4.647
 4746SOL    HW215138   5.231   5.468   4.506
 4747SOL     OW15139   4.295   0.594   0.827
 4747SOL    HW115140   4.196   0.607   0.828
 4747SOL    HW215141   4.326   0.582   0.732
 4748SOL     OW15142   2.010   6.627   3.159
 4748SOL    HW115143   2.041   6.587   3.245
 4748SOL    HW215144   2.088   6.638   3.097
 4749SOL     OW15145   2.205   1.127   1.102
 4749SOL    HW115146   2.179   1.031   1.094
 4749SOL    HW215147   2.170   1.164   1.187
 4750SOL     OW15148   4.986   3.336   6.672
 4750SOL    HW115149   5.023   3.421   6.709
 4750SOL    HW215150   4.994   3.337   6.572
 4751SOL     OW15151   4.494   1.308   2.526
 4751SOL    HW115152   4.427   1.377   2.498
 4751SOL    HW215153   4.462   1.218   2.499
 4752SOL     OW15154   5.709   0.516   0.091
 4752SOL    HW115155   5.729   0.508   7.019
 4752SOL    HW215156   5.671   0.430   0.125
 4753SOL     OW15157   2.846   5.632   5.267
 4753SOL    HW115158   2.789   5.594   5.340
 4753SOL    HW215159   2.866   5.560   5.200
 4754SOL     OW15160   5.207   4.722   7.016
 4754SOL    HW115161   5.229   4.632   6.979
 4754SOL    HW215162   5.247   4.793   6.958
 4755SOL     OW15163   0.171   1.085   1.110
 4755SOL    HW115164   0.267   1.071   1.133
 4755SOL    HW215165   0.162   1.165   1.052
 4756SOL     OW15166   7.009   3.831   5.331
 4756SOL    HW115167   0.059   3.800   5.273
 4756SOL    HW215168   6.940   3.876   5.274
 4757SOL     OW15169   2.186   2.975   0.587
 4757SOL    HW115170   2.106   3.035   0.581
 4757SOL    HW215171   2.264   3.020   0.542
 4758SOL     OW15172   2.079   4.871   2.163
 4758SOL    HW115173   2.153   4.919   2.210
 4758SOL    HW215174   2.113   4.834   2.076
 4759SOL     OW15175   0.473   6.785   2.837
 4759SOL    HW115176   0.475   6.878   2.801
 4759SOL    HW215177   0.558   6.765   2.885
 4760SOL     OW15178   1.162   6.783   1.946
 4760SOL    HW115179   1.175   6.711   1.878
 4760SOL    HW215180   1.179   6.747   2.037
 4761SOL     OW15181   4.789   6.494   1.905
 4761SOL    HW115182   4.782   6.555   1.984
 4761SOL    HW215183   4.869   6.519   1.850
 4762SOL     OW15184   0.890   1.353   2.322
 4762SOL    HW115185   0.982   1.347   2.361
 4762SOL    HW215186   0.823   1.322   2.390
 4763SOL     OW15187   5.252   5.255   1.642
 4763SOL    HW115188   5.162   5.219   1.619
 4763SOL    HW215189   5.255   5.353   1.622
 4764SOL     OW15190   4.942   2.695   6.544
 4764SOL    HW115191   4.941   2.739   6.634
 4764SOL    HW215192   4.850   2.662   6.522
 4765SOL     OW15193   3.995   1.286   6.160
 4765SOL    HW115194   4.094   1.273   6.170
 4765SOL    HW215195   3.953   1.294   6.251
 4766SOL     OW15196   1.018   1.009   4.133
 4766SOL    HW115197   1.013   1.048   4.225
 4766SOL    HW215198   1.108   1.028   4.094
 4767SOL     OW15199   2.499   4.731   3.604
 4767SOL    HW115200   2.571   4.702   3.541
 4767SOL    HW215201   2.476   4.655   3.665
 4768SOL     OW15202   4.814   1.681   6.466
 4768SOL    HW115203   4.894   1.692   6.525
 4768SOL    HW215204   4.799   1.584   6.449
 4769SOL     OW15205   2.693   3.337   0.497
 4769SOL    HW115206   2.616   3.393   0.465
 4769SOL    HW215207   2.762   3.331   0.425
 4770SOL     OW15208   6.652   1.608   3.718
 4770SOL    HW115209   6.566   1.657   3.727
 4770SOL    HW215210   6.701   1.609   3.805
 4771SOL     OW15211   3.011   0.709   4.216
 4771SOL    HW115212   2.978   0.628   4.167
 4771SOL    HW215213   3.103   0.732   4.184
 4772SOL     OW15214   2.760   4.739   3.023
 4772SOL    HW115215   2.725   4.829   2.999
 4772SOL    HW215216   2.801   4.696   2.943
 4773SOL     OW15217   3.046   5.405   4.090
 4773SOL    HW115218   3.145   5.411   4.106
 4773SOL    HW215219   3.000   5.478   4.141
 4774SOL     OW15220   1.098   4.759   0.665
 4774SOL    HW115221   1.076   4.831   0.599
 4774SOL    HW215222   1.159   4.796   0.735
 4775SOL     OW15223   5.714   4.957   4.518
 4775SOL    HW115224   5.680   4.867   4.543
 4775SOL    HW215225   5.792   4.948   4.456
 4776SOL     OW15226   6.898   1.711   5.221
 4776SOL    HW115227   6.916   1.724   5.124
 4776SOL    HW215228   6.874   1.615   5.238
 4777SOL     OW15229   1.464   6.896   3.741
 4777SOL    HW115230   1.529   6.821   3.755
 4777SOL    HW215231   1.412   6.910   3.825
 4778SOL     OW15232   1.598   6.978   0.636
 4778SOL    HW115233   1.528   0.021   0.616
 4778SOL    HW215234   1.616   6.977   0.734
 4779SOL     OW15235   4.707   1.489   4.631
 4779SOL    HW115236   4.644   1.544   4.686
 4779SOL    HW215237   4.800   1.497   4.668
 4780SOL     OW15238   4.890   2.751   4.946
 4780SOL    HW115239   4.902   2.838   4.899
 4780SOL    HW215240   4.796   2.745   4.981
 4781SOL     OW15241   1.896   5.186   2.398
 4781SOL    HW115242   1.903   5.274   2.351
 4781SOL    HW215243   1.980   5.168   2.449
 4782SOL     OW15244   1.084   6.105   3.260
 4782SOL    HW115245   1.121   6.153   3.181
 4782SOL    HW215246   1.149   6.034   3.289
 4783SOL     OW15247   0.906   3.983   6.875
 4783SOL    HW115248   0.967   4.057   6.846
 4783SOL    HW215249   0.917   3.968   6.973
 4784SOL     OW15250   6.001   2.954   0.214
 4784SOL    HW115251   6.016   2.925   0.308
 4784SOL    HW215252   5.969   3.049   0.212
 4785SOL     OW15253   6.808   0.700   3.995
 4785SOL    HW115254   6.787   0.763   3.920
 4785SOL    HW215255   6.878   0.636   3.966
 4786SOL     OW15256   1.801   5.856   0.454
 4786SOL    HW115257   1.845   5.945   0.445
 4786SOL    HW215258   1.734   5.844   0.380
 4787SOL     OW15259   5.292   1.248   5.114
 4787SOL    HW115260   5.389   1.273   5.116
 4787SOL    HW215261   5.278   1.171   5.053
 4788SOL     OW15262   6.650   6.003   1.238
 4788SOL    HW115263   6.584   5.928   1.246
 4788SOL    HW215264   6.601   6.088   1.218
 4789SOL     OW15265   6.274   1.483   2.445
 4789SOL    HW115266   6.347   1.429   2.404
 4789SOL    HW215267   6.306   1.521   2.532
 4790SOL     OW15268   0.033   2.591   5.523
 4790SOL    HW115269   0.009   2.602   5.620
 4790SOL    HW215270   0.081   2.504   5.511
 4791SOL     OW15271   0.379   0.597   6.876
 4791SOL    HW115272   0.367   0.655   6.796
 4791SOL    HW215273   0.293   0.553   6.899
 4792SOL     OW15274   0.287   3.595   1.272
 4792SOL    HW115275   0.386   3.604   1.273
 4792SOL    HW215276   0.249   3.627   1.359
 4793SOL     OW15277   0.973   3.025   5.236
 4793SOL    HW115278   0.945   3.015   5.140
 4793SOL    HW215279   1.041   3.098   5.243
 4794SOL     OW15280   5.473   0.949   6.607
 4794SOL    HW115281   5.476   0.849   6.602
 4794SOL    HW215282   5.436   0.976   6.696
 4795SOL     OW15283   6.951   0.412   6.730
 4795SOL    HW115284   6.919   0.426   6.824
 4795SOL    HW215285   6.878   0.435   6.667
 4796SOL     OW15286   6.001   1.213   5.493
 4796SOL    HW115287   6.017   1.312   5.494
 4796SOL    HW215288   5.981   1.183   5.399
 4797SOL     OW15289   2.920   4.879   5.466
 4797SOL    HW115290   3.019   4.891   5.467
 4797SOL    HW215291   2.876   4.954   5.516
 4798SOL     OW15292   3.131   5.889   6.817
 4798SOL    HW115293   3.190   5.850   6.888
 4798SOL    HW215294   3.036   5.860   6.833
 4799SOL     OW15295   4.326   3.813   1.009
 4799SOL    HW115296   4.271   3.753   0.951
 4799SOL    HW215297   4.383   3.758   1.070
 4800SOL     OW15298   0.735   4.911   0.575
 4800SOL    HW115299   0.779   4.933   0.488
 4800SOL    HW215300   0.702   4.996   0.618
 4801SOL     OW15301   4.851   2.981   3.563
 4801SOL    HW115302   4.843   2.985   3.662
 4801SOL    HW215303   4.830   3.071   3.524
 4802SOL     OW15304   0.043   0.989   5.255
 4802SOL    HW115305   0.103   0.909   5.263
 4802SOL    HW215306   0.067   1.056   5.325
 4803SOL     OW15307   5.296   3.278   5.409
 4803SOL    HW115308   5.340   3.227   5.336
 4803SOL    HW215309   5.216   3.227   5.442
 4804SOL     OW15310   5.627   3.190   0.981
 4804SOL    HW115311   5.619   3.290   0.973
 4804SOL    HW215312   5.706   3.159   0.929
 4805SOL     OW15313   5.673   0.679   6.691
 4805SOL    HW115314   5.703   0.584   6.680
 4805SOL    HW215315   5.717   0.736   6.622
 4806SOL     OW15316   1.225   2.925   3.548
 4806SOL    HW115317   1.277   2.958   3.627
 4806SOL    HW215318   1.179   3.002   3.504
 4807SOL     OW15319   1.263   3.962   0.027
 4807SOL    HW115320   1.174   3.956   0.073
 4807SOL    HW215321   1.268   3.894   6.980
 4808SOL     OW15322   3.147   6.405   2.785
 4808SOL    HW115323   3.140   6.403   2.685
 4808SOL    HW215324   3.227   6.352   2.814
 4809SOL     OW15325   2.694   3.841   0.335
 4809SOL    HW115326   2.704   3.759   0.278
 4809SOL    HW215327   2.635   3.907   0.287
 4810SOL     OW15328   1.816   4.826   4.726
 4810SOL    HW115329   1.883   4.900   4.726
 4810SOL    HW215330   1.819   4.778   4.638
 4811SOL     OW15331   3.190   3.405   4.476
 4811SOL    HW115332   3.205   3.399   4.378
 4811SOL    HW215333   3.275   3.431   4.522
 4812SOL     OW15334   2.577   6.438   1.675
 4812SOL    HW115335   2.489   6.392   1.675
 4812SOL    HW215336   2.585   6.496   1.594
 4813SOL     OW15337   1.081   2.305   4.474
 4813SOL    HW115338   0.990   2.272   4.502
 4813SOL    HW215339   1.149   2.234   4.490
 4814SOL     OW15340   5.287   1.083   1.027
 4814SOL    HW115341   5.207   1.104   0.970
 4814SOL    HW215342   5.264   1.009   1.091
 4815SOL     OW15343   6.397   4.432   3.157
 4815SOL    HW115344   6.459   4.355   3.163
 4815SOL    HW215345   6.399   4.470   3.064
 4816SOL     OW15346   2.153   0.438   2.641
 4816SOL    HW115347   2.072   0.386   2.616
 4816SOL    HW215348   2.216   0.380   2.692
 4817SOL     OW15349   3.479   2.637   0.392
 4817SOL    HW115350   3.432   2.593   0.469
 4817SOL    HW215351   3.418   2.637   0.313
 4818SOL     OW15352   4.758   6.395   5.118
 4818SOL    HW115353   4.675   6.449   5.127
 4818SOL    HW215354   4.805   6.391   5.206
 4819SOL     OW15355   3.690   0.836   0.204
 4819SOL    HW115356   3.748   0.766   0.245
 4819SOL    HW215357   3.719   0.927   0.236
 4820SOL     OW15358   7.025   4.917   1.943
 4820SOL    HW115359   0.083   4.886   1.987
 4820SOL    HW215360   0.020   4.991   1.880
 4821SOL     OW15361   6.879   6.352   1.643
 4821SOL    HW115362   6.826   6.299   1.709
 4821SOL    HW215363   6.907   6.293   1.567
 4822SOL     OW15364   0.331   3.976   1.355
 4822SOL    HW115365   0.292   4.047   1.413
 4822SOL    HW215366   0.374   3.906   1.411
 4823SOL     OW15367   6.852   1.966   2.892
 4823SOL    HW115368   6.846   1.965   2.792
 4823SOL    HW215369   6.884   2.056   2.922
 4824SOL     OW15370   4.959   2.198   2.439
 4824SOL    HW115371   5.055   2.200   2.410
 4824SOL    HW215372   4.920   2.108   2.419
 4825SOL     OW15373   1.554   3.037   4.554
 4825SOL    HW115374   1.579   3.133   4.536
 4825SOL    HW215375   1.455   3.027   4.547
 4826SOL     OW15376   0.302   6.563   0.178
 4826SOL    HW115377   0.354   6.497   0.124
 4826SOL    HW215378   0.361   6.605   0.246
 4827SOL     OW15379   4.980   1.118   0.083
 4827SOL    HW115380   4.897   1.171   0.062
 4827SOL    HW215381   4.975   1.085   0.177
 4828SOL     OW15382   6.128   3.248   6.786
 4828SOL    HW115383   6.052   3.294   6.740
 4828SOL    HW215384   6.154   3.167   6.735
 4829SOL     OW15385   2.513   0.432   5.669
 4829SOL    HW115386   2.532   0.341   5.631
 4829SOL    HW215387   2.451   0.422   5.747
 4830SOL     OW15388   4.928   4.758   4.595
 4830SOL    HW115389   5.017   4.783   4.559
 4830SOL    HW215390   4.879   4.703   4.528
 4831SOL     OW15391   6.381   2.338   6.380
 4831SOL    HW115392   6.433   2.368   6.460
 4831SOL    HW215393   6.287   2.371   6.387
 4832SOL     OW15394   1.365   2.701   6.394
 4832SOL    HW115395   1.411   2.612   6.390
 4832SOL    HW215396   1.298   2.707   6.320
 4833SOL     OW15397   6.524   2.888   3.073
 4833SOL    HW115398   6.579   2.953   3.124
 4833SOL    HW215399   6.525   2.912   2.976
 4834SOL     OW15400   5.630   0.849   3.134
 4834SOL    HW115401   5.548   0.884   3.090
 4834SOL    HW215402   5.711   0.877   3.082
 4835SOL     OW15403   2.156   1.634   6.277
 4835SOL    HW115404   2.208   1.642   6.193
 4835SOL    HW215405   2.219   1.636   6.355
 4836SOL     OW15406   5.823   4.193   2.912
 4836SOL    HW115407   5.768   4.186   2.828
 4836SOL    HW215408   5.838   4.101   2.949
 4837SOL     OW15409   0.073   5.131   1.767
 4837SOL    HW115410   0.060   5.205   1.834
 4837SOL    HW215411   0.000   5.135   1.699
 4838SOL     OW15412   2.675   5.869   2.469
 4838SOL    HW115413   2.665   5.936   2.542
 4838SOL    HW215414   2.692   5.778   2.508
 4839SOL     OW15415   0.887   0.104   6.599
 4839SOL    HW115416   0.903   0.179   6.535
 4839SOL    HW215417   0.966   0.042   6.598
 4840SOL     OW15418   6.502   5.796   6.117
 4840SOL    HW115419   6.531   5.881   6.161
 4840SOL    HW215420   6.558   5.720   6.151
 4841SOL     OW15421   1.875   5.876   1.417
 4841SOL    HW115422   1.826   5.931   1.350
 4841SOL    HW215423   1.967   5.912   1.429
 4842SOL     OW15424   3.393   6.448   0.519
 4842SOL    HW115425   3.399   6.441   0.420
 4842SOL    HW215426   3.461   6.514   0.552
 4843SOL     OW15427   1.526   3.773   0.308
 4843SOL    HW115428   1.562   3.833   0.379
 4843SOL    HW215429   1.514   3.824   0.223
 4844SOL     OW15430   0.447   1.520   5.215
 4844SOL    HW115431   0.400   1.524   5.127
 4844SOL    HW215432   0.484   1.610   5.238
 4845SOL     OW15433   5.234   6.506   3.460
 4845SOL    HW115434   5.324   6.508   3.504
 4845SOL    HW215435   5.172   6.568   3.508
 4846SOL     OW15436   6.472   4.907   6.316
 4846SOL    HW115437   6.560   4.950   6.339
 4846SOL    HW215438   6.469   4.815   6.354
 4847SOL     OW15439   4.943   3.325   4.684
 4847SOL    HW115440   5.031   3.280   4.669
 4847SOL    HW215441   4.935   3.353   4.780
 4848SOL     OW15442   2.869   3.088   1.497
 4848SOL    HW115443   2.822   3.170   1.464
 4848SOL    HW215444   2.839   3.009   1.444
 4849SOL     OW15445   2.248   6.105   6.441
 4849SOL    HW115446   2.346   6.099   6.421
 4849SOL    HW215447   2.233   6.086   6.538
 4850SOL     OW15448   3.279   6.996   2.559
 4850SOL    HW115449   3.338   6.965   2.633
 4850SOL    HW215450   3.194   6.944   2.560
 4851SOL     OW15451   5.020   1.258   5.607
 4851SOL    HW115452   5.072   1.316   5.545
 4851SOL    HW215453   5.004   1.169   5.564
 4852SOL     OW15454   1.486   1.987   1.482
 4852SOL    HW115455   1.433   2.046   1.420
 4852SOL    HW215456   1.557   2.040   1.527
 4853SOL     OW15457   3.892   1.339   1.452
 4853SOL    HW115458   3.884   1.243   1.477
 4853SOL    HW215459   3.895   1.395   1.535
 4854SOL     OW15460   3.812   0.014   5.757
 4854SOL    HW115461   3.739   0.031   5.691
 4854SOL    HW215462   3.804   6.947   5.792
 4855SOL     OW15463   0.480   2.565   2.652
 4855SOL    HW115464   0.560   2.597   2.704
 4855SOL    HW215465   0.398   2.610   2.687
 4856SOL     OW15466   0.358   4.713   2.520
 4856SOL    HW115467   0.272   4.667   2.496
 4856SOL    HW215468   0.368   4.796   2.466
 4857SOL     OW15469   0.192   0.757   5.204
 4857SOL    HW115470   0.239   0.757   5.293
 4857SOL    HW215471   0.253   0.793   5.134
 4858SOL     OW15472   1.553   0.576   3.797
 4858SOL    HW115473   1.544   0.477   3.787
 4858SOL    HW215474   1.488   0.608   3.866
 4859SOL     OW15475   3.476   6.047   5.904
 4859SOL    HW115476   3.515   6.136   5.883
 4859SOL    HW215477   3.549   5.983   5.926
 4860SOL     OW15478   3.145   5.162   0.206
 4860SOL    HW115479   3.102   5.242   0.165
 4860SOL    HW215480   3.091   5.080   0.186
 4861SOL     OW15481   4.160   4.101   6.192
 4861SOL    HW115482   4.087   4.117   6.127
 4861SOL    HW215483   4.130   4.129   6.284
 4862SOL     OW15484   2.023   0.158   0.479
 4862SOL    HW115485   2.045   0.255   0.486
 4862SOL    HW215486   2.101   0.103   0.508
 4863SOL     OW15487   5.547   3.842   6.017
 4863SOL    HW115488   5.554   3.914   5.948
 4863SOL    HW215489   5.462   3.855   6.069
 4864SOL     OW15490   3.246   1.102   4.295
 4864SOL    HW115491   3.242   1.202   4.288
 4864SOL    HW215492   3.303   1.066   4.221
 4865SOL     OW15493   1.502   6.442   5.623
 4865SOL    HW115494   1.420   6.489   5.590
 4865SOL    HW215495   1.500   6.435   5.722
 4866SOL     OW15496   0.443   4.423   6.010
 4866SOL    HW115497   0.422   4.386   5.919
 4866SOL    HW215498   0.398   4.367   6.080
 4867SOL     OW15499   3.673   1.141   3.290
 4867SOL    HW115500   3.603   1.077   3.259
 4867SOL    HW215501   3.679   1.138   3.389
 4868SOL     OW15502   0.259   5.125   0.760
 4868SOL    HW115503   0.243   5.181   0.841
 4868SOL    HW215504   0.314   5.177   0.694
 4869SOL     OW15505   0.158   1.519   0.842
 4869SOL    HW115506   0.059   1.524   0.829
 4869SOL    HW215507   0.184   1.578   0.918
 4870SOL     OW15508   0.082   6.992   1.344
 4870SOL    HW115509   0.099   6.894   1.348
 4870SOL    HW215510   0.163   0.013   1.308
 4871SOL     OW15511   0.654   1.866   3.355
 4871SOL    HW115512   0.615   1.874   3.447
 4871SOL    HW215513   0.750   1.894   3.358
 4872SOL     OW15514   5.750   0.270   3.189
 4872SOL    HW115515   5.746   0.357   3.140
 4872SOL    HW215516   5.844   0.236   3.187
 4873SOL     OW15517   6.990   5.644   3.599
 4873SOL    HW115518   7.007   5.558   3.551
 4873SOL    HW215519   6.897   5.644   3.636
 4874SOL     OW15520   5.843   4.521   2.188
 4874SOL    HW115521   5.838   4.443   2.126
 4874SOL    HW215522   5.768   4.516   2.253
 4875SOL     OW15523   5.947   6.861   4.570
 4875SOL    HW115524   5.936   6.788   4.637
 4875SOL    HW215525   5.966   6.821   4.480
 4876SOL     OW15526   6.607   1.590   1.994
 4876SOL    HW115527   6.656   1.625   2.073
 4876SOL    HW215528   6.650   1.505   1.963
 4877SOL     OW15529   0.222   1.430   6.792
 4877SOL    HW115530   0.213   1.516   6.741
 4877SOL    HW215531   0.285   1.442   6.868
 4878SOL     OW15532   6.342   4.399   3.697
 4878SOL    HW115533   6.433   4.392   3.736
 4878SOL    HW215534   6.323   4.494   3.674
 4879SOL     OW15535   5.591   0.589   3.217
 4879SOL    HW115536   5.690   0.580   3.232
 4879SOL    HW215537   5.569   0.684   3.196
 4880SOL     OW15538   6.949   3.035   6.532
 4880SOL    HW115539   0.021   3.048   6.516
 4880SOL    HW215540   6.933   3.025   6.630
 4881SOL     OW15541   0.259   3.850   1.888
 4881SOL    HW115542   0.310   3.764   1.885
 4881SOL    HW215543   0.245   3.877   1.984
 4882SOL     OW15544   5.403   2.336   4.400
 4882SOL    HW115545   5.440   2.425   4.429
 4882SOL    HW215546   5.303   2.339   4.401
 4883SOL     OW15547   0.249   4.342   6.877
 4883SOL    HW115548   0.230   4.275   6.806
 4883SOL    HW215549   0.327   4.310   6.932
 4884SOL     OW15550   2.051   1.895   2.214
 4884SOL    HW115551   2.054   1.800   2.245
 4884SOL    HW215552   2.014   1.899   2.121
 4885SOL     OW15553   1.330   5.238   6.568
 4885SOL    HW115554   1.343   5.264   6.664
 4885SOL    HW215555   1.240   5.269   6.537
 4886SOL     OW15556   2.878   0.745   2.493
 4886SOL    HW115557   2.930   0.765   2.576
 4886SOL    HW215558   2.783   0.771   2.506
 4887SOL     OW15559   4.725   5.372   0.421
 4887SOL    HW115560   4.735   5.286   0.371
 4887SOL    HW215561   4.815   5.405   0.449
 4888SOL     OW15562   4.339   0.455   2.859
 4888SOL    HW115563   4.333   0.445   2.958
 4888SOL    HW215564   4.342   0.364   2.816
 4889SOL     OW15565   5.742   3.667   3.782
 4889SOL    HW115566   5.822   3.726   3.765
 4889SOL    HW215567   5.701   3.641   3.695
 4890SOL     OW15568   6.341   2.062   4.669
 4890SOL    HW115569   6.344   2.148   4.619
 4890SOL    HW215570   6.377   2.076   4.762
 4891SOL     OW15571   2.180   5.892   0.238
 4891SOL    HW115572   2.232   5.891   0.323
 4891SOL    HW215573   2.106   5.825   0.243
 4892SOL     OW15574   5.175   5.015   2.245
 4892SOL    HW115575   5.174   5.054   2.337
 4892SOL    HW215576   5.269   5.012   2.211
 4893SOL     OW15577   1.775   2.474   1.387
 4893SOL    HW115578   1.868   2.463   1.352
 4893SOL    HW215579   1.742   2.387   1.424
 4894SOL     OW15580   4.882   6.168   0.574
 4894SOL    HW115581   4.913   6.075   0.596
 4894SOL    HW215582   4.842   6.209   0.655
 4895SOL     OW15583   6.267   3.382   4.926
 4895SOL    HW115584   6.301   3.430   5.007
 4895SOL    HW215585   6.256   3.447   4.850
 4896SOL     OW15586   2.645   5.270   4.472
 4896SOL    HW115587   2.637   5.354   4.418
 4896SOL    HW215588   2.617   5.192   4.417
 4897SOL     OW15589   2.238   1.772   5.372
 4897SOL    HW115590   2.278   1.812   5.289
 4897SOL    HW215591   2.289   1.803   5.452
 4898SOL     OW15592   4.101   1.983   3.787
 4898SOL    HW115593   4.044   2.035   3.851
 4898SOL    HW215594   4.135   1.901   3.831
 4899SOL     OW15595   6.633   6.987   1.531
 4899SOL    HW115596   6.721   6.968   1.575
 4899SOL    HW215597   6.613   6.917   1.463
 4900SOL     OW15598   3.585   5.778   6.320
 4900SOL    HW115599   3.548   5.717   6.250
 4900SOL    HW215600   3.679   5.803   6.296
 4901SOL     OW15601   1.804   0.625   0.361
 4901SOL    HW115602   1.856   0.653   0.442
 4901SOL    HW215603   1.793   0.704   0.300
 4902SOL     OW15604   2.087   0.155   5.676
 4902SOL    HW115605   2.140   0.077   5.707
 4902SOL    HW215606   2.126   0.191   5.591
 4903SOL     OW15607   4.783   4.027   2.334
 4903SOL    HW115608   4.760   4.119   2.304
 4903SOL    HW215609   4.809   3.971   2.254
 4904SOL     OW15610   1.931   0.881   1.988
 4904SOL    HW115611   1.852   0.866   1.929
 4904SOL    HW215612   1.923   0.824   2.070
 4905SOL     OW15613   2.462   1.314   2.165
 4905SOL    HW115614   2.410   1.248   2.220
 4905SOL    HW215615   2.560   1.307   2.188
 4906SOL     OW15616   5.184   3.126   4.694
 4906SOL    HW115617   5.199   3.094   4.787
 4906SOL    HW215618   5.267   3.169   4.659
 4907SOL     OW15619   3.545   2.518   0.817
 4907SOL    HW115620   3.640   2.515   0.787
 4907SOL    HW215621   3.540   2.499   0.915
 4908SOL     OW15622   2.544   6.509   6.211
 4908SOL    HW115623   2.525   6.498   6.113
 4908SOL    HW215624   2.604   6.587   6.225
 4909SOL     OW15625   4.948   5.876   4.667
 4909SOL    HW115626   4.877   5.837   4.727
 4909SOL    HW215627   5.015   5.925   4.722
 4910SOL     OW15628   4.604   1.804   6.757
 4910SOL    HW115629   4.618   1.859   6.839
 4910SOL    HW215630   4.692   1.770   6.724
 4911SOL     OW15631   6.672   4.442   3.341
 4911SOL    HW115632   6.671   4.342   3.338
 4911SOL    HW215633   6.708   4.478   3.255
 4912SOL     OW15634   5.622   2.839   4.323
 4912SOL    HW115635   5.642   2.936   4.334
 4912SOL    HW215636   5.527   2.821   4.345
 4913SOL     OW15637   0.961   3.713   5.681
 4913SOL    HW115638   0.906   3.776   5.736
 4913SOL    HW215639   0.906   3.635   5.653
 4914SOL     OW15640   3.220   6.798   3.753
 4914SOL    HW115641   3.262   6.845   3.831
 4914SOL    HW215642   3.204   6.702   3.776
 4915SOL     OW15643   4.147   5.712   5.328
 4915SOL    HW115644   4.186   5.636   5.378
 4915SOL    HW215645   4.095   5.771   5.390
 4916SOL     OW15646   5.627   2.481   3.509
 4916SOL    HW115647   5.705   2.535   3.540
 4916SOL    HW215648   5.555   2.542   3.475
 4917SOL     OW15649   4.915   6.429   6.568
 4917SOL    HW115650   4.928   6.463   6.661
 4917SOL    HW215651   4.940   6.333   6.563
 4918SOL     OW15652   5.143   6.235   3.808
 4918SOL    HW115653   5.236   6.243   3.773
 4918SOL    HW215654   5.143   6.250   3.907
 4919SOL     OW15655   4.194   3.965   1.804
 4919SOL    HW115656   4.098   3.980   1.826
 4919SOL    HW215657   4.248   4.044   1.834
 4920SOL     OW15658   6.328   1.218   5.612
 4920SOL    HW115659   6.390   1.146   5.581
 4920SOL    HW215660   6.358   1.306   5.576
 4921SOL     OW15661   6.406   0.176   2.502
 4921SOL    HW115662   6.456   0.231   2.434
 4921SOL    HW215663   6.471   0.123   2.557
 4922SOL     OW15664   3.867   0.798   6.140
 4922SOL    HW115665   3.830   0.713   6.178
 4922SOL    HW215666   3.839   0.875   6.199
 4923SOL     OW15667   4.132   1.442   1.427
 4923SOL    HW115668   4.132   1.541   1.442
 4923SOL    HW215669   4.049   1.416   1.377
 4924SOL     OW15670   3.009   1.469   5.008
 4924SOL    HW115671   3.082   1.501   5.068
 4924SOL    HW215672   3.003   1.369   5.013
 4925SOL     OW15673   4.982   0.348   4.364
 4925SOL    HW115674   5.031   0.343   4.451
 4925SOL    HW215675   4.888   0.381   4.381
 4926SOL     OW15676   4.730   2.474   1.799
 4926SOL    HW115677   4.700   2.548   1.858
 4926SOL    HW215678   4.762   2.512   1.712
 4927SOL     OW15679   2.366   1.162   0.221
 4927SOL    HW115680   2.323   1.161   0.131
 4927SOL    HW215681   2.462   1.133   0.212
 4928SOL     OW15682   0.480   1.737   1.197
 4928SOL    HW115683   0.406   1.754   1.262
 4928SOL    HW215684   0.555   1.689   1.244
 4929SOL     OW15685   6.669   0.176   4.843
 4929SOL    HW115686   6.645   0.273   4.852
 4929SOL    HW215687   6.766   0.164   4.865
 4930SOL     OW15688   4.306   6.055   2.972
 4930SOL    HW115689   4.329   6.095   3.061
 4930SOL    HW215690   4.373   5.985   2.948
 4931SOL     OW15691   5.457   0.213   1.597
 4931SOL    HW115692   5.519   0.187   1.670
 4931SOL    HW215693   5.442   0.134   1.537
 4932SOL     OW15694   3.816   4.066   3.163
 4932SOL    HW115695   3.719   4.078   3.145
 4932SOL    HW215696   3.867   4.069   3.077
 4933SOL     OW15697   1.777   6.677   5.073
 4933SOL    HW115698   1.802   6.602   5.134
 4933SOL    HW215699   1.746   6.641   4.985
 4934SOL     OW15700   2.436   0.074   3.077
 4934SOL    HW115701   2.497   0.029   3.144
 4934SOL    HW215702   2.387   0.149   3.122
 4935SOL     OW15703   6.002   0.142   4.873
 4935SOL    HW115704   6.026   0.228   4.917
 4935SOL    HW215705   5.967   0.160   4.781
 4936SOL     OW15706   4.597   3.180   0.269
 4936SOL    HW115707   4.554   3.270   0.264
 4936SOL    HW215708   4.682   3.186   0.321
 4937SOL     OW15709   3.653   2.706   5.286
 4937SOL    HW115710   3.610   2.746   5.366
 4937SOL    HW215711   3.671   2.776   5.217
 4938SOL     OW15712   2.996   4.532   0.352
 4938SOL    HW115713   2.957   4.618   0.320
 4938SOL    HW215714   2.923   4.466   0.366
 4939SOL     OW15715   4.928   3.673   6.538
 4939SOL    HW115716   4.876   3.759   6.541
 4939SOL    HW215717   4.924   3.636   6.445
 4940SOL     OW15718   1.144   5.880   3.723
 4940SOL    HW115719   1.201   5.800   3.745
 4940SOL    HW215720   1.186   5.930   3.647
 4941SOL     OW15721   6.064   1.191   1.208
 4941SOL    HW115722   6.070   1.117   1.275
 4941SOL    HW215723   5.981   1.180   1.153
 4942SOL     OW15724   5.267   2.264   5.455
 4942SOL    HW115725   5.214   2.199   5.402
 4942SOL    HW215726   5.316   2.216   5.528
 4943SOL     OW15727   5.952   3.134   1.574
 4943SOL    HW115728   5.905   3.158   1.659
 4943SOL    HW215729   5.889   3.086   1.513
 4944SOL     OW15730   1.887   3.222   1.982
 4944SOL    HW115731   1.833   3.292   1.936
 4944SOL    HW215732   1.865   3.132   1.944
 4945SOL     OW15733   6.945   5.945   4.019
 4945SOL    HW115734   7.008   5.870   3.996
 4945SOL    HW215735   6.887   5.917   4.096
 4946SOL     OW15736   0.497   4.568   2.072
 4946SOL    HW115737   0.546   4.481   2.066
 4946SOL    HW215738   0.399   4.552   2.058
 4947SOL     OW15739   5.889   0.418   0.494
 4947SOL    HW115740   5.936   0.375   0.570
 4947SOL    HW215741   5.953   0.432   0.418
 4948SOL     OW15742   2.378   1.618   2.093
 4948SOL    HW115743   2.303   1.634   2.029
 4948SOL    HW215744   2.381   1.521   2.118
 4949SOL     OW15745   5.976   2.221   5.638
 4949SOL    HW115746   6.026   2.231   5.724
 4949SOL    HW215747   5.883   2.188   5.657
 4950SOL     OW15748   3.456   5.512   4.019
 4950SOL    HW115749   3.551   5.522   4.048
 4950SOL    HW215750   3.409   5.449   4.081
 4951SOL     OW15751   4.490   2.357   3.709
 4951SOL    HW115752   4.554   2.283   3.686
 4951SOL    HW215753   4.397   2.322   3.711
 4952SOL     OW15754   6.490   4.871   4.301
 4952SOL    HW115755   6.587   4.891   4.291
 4952SOL    HW215756   6.477   4.807   4.377
 4953SOL     OW15757   1.222   4.731   2.176
 4953SOL    HW115758   1.178   4.816   2.148
 4953SOL    HW215759   1.161   4.654   2.155
 4954SOL     OW15760   6.957   6.233   6.415
 4954SOL    HW115761   6.912   6.318   6.387
 4954SOL    HW215762   6.961   6.171   6.336
 4955SOL     OW15763   1.905   7.025   2.045
 4955SOL    HW115764   1.952   0.063   2.106
 4955SOL    HW215765   1.829   0.047   2.000
 4956SOL     OW15766   6.049   6.423   3.342
 4956SOL    HW115767   6.130   6.476   3.316
 4956SOL    HW215768   5.976   6.439   3.275
 4957SOL     OW15769   1.067   5.450   4.154
 4957SOL    HW115770   1.108   5.474   4.066
 4957SOL    HW215771   0.968   5.463   4.149
 4958SOL     OW15772   0.167   0.227   6.876
 4958SOL    HW115773   0.095   0.162   6.853
 4958SOL    HW215774   0.148   0.315   6.832
 4959SOL     OW15775   0.828   2.009   0.007
 4959SOL    HW115776   0.845   2.048   0.098
 4959SOL    HW215777   0.820   1.910   0.014
 4960SOL     OW15778   3.354   6.905   5.394
 4960SOL    HW115779   3.345   6.866   5.486
 4960SOL    HW215780   3.275   6.965   5.377
 4961SOL     OW15781   4.864   0.086   5.194
 4961SOL    HW115782   4.842   0.100   5.290
 4961SOL    HW215783   4.784   0.106   5.138
 4962SOL     OW15784   6.326   2.394   2.098
 4962SOL    HW115785   6.284   2.305   2.080
 4962SOL    HW215786   6.256   2.465   2.092
 4963SOL     OW15787   0.842   4.153   1.307
 4963SOL    HW115788   0.824   4.214   1.230
 4963SOL    HW215789   0.855   4.208   1.390
 4964SOL     OW15790   3.156   6.822   3.006
 4964SOL    HW115791   3.193   6.911   3.029
 4964SOL    HW215792   3.184   6.755   3.074
 4965SOL     OW15793   0.310   5.990   5.587
 4965SOL    HW115794   0.384   5.945   5.637
 4965SOL    HW215795   0.297   6.083   5.622
 4966SOL     OW15796   5.230   5.430   5.644
 4966SOL    HW115797   5.254   5.523   5.617
 4966SOL    HW215798   5.249   5.368   5.568
 4967SOL     OW15799   5.837   0.960   6.982
 4967SOL    HW115800   5.901   0.884   6.994
 4967SOL    HW215801   5.745   0.924   6.968
 4968SOL     OW15802   5.669   3.748   6.592
 4968SOL    HW115803   5.573   3.728   6.575
 4968SOL    HW215804   5.676   3.830   6.650
 4969SOL     OW15805   1.505   0.897   1.363
 4969SOL    HW115806   1.491   0.905   1.264
 4969SOL    HW215807   1.557   0.815   1.383
 4970SOL     OW15808   1.679   1.994   6.485
 4970SOL    HW115809   1.682   2.087   6.449
 4970SOL    HW215810   1.721   1.992   6.576
 4971SOL     OW15811   6.253   5.518   3.735
 4971SOL    HW115812   6.301   5.430   3.730
 4971SOL    HW215813   6.158   5.506   3.706
 4972SOL     OW15814   1.529   2.092   5.031
 4972SOL    HW115815   1.545   2.190   5.020
 4972SOL    HW215816   1.440   2.077   5.073
 4973SOL     OW15817   4.872   5.822   3.330
 4973SOL    HW115818   4.866   5.904   3.273
 4973SOL    HW215819   4.968   5.795   3.340
 4974SOL     OW15820   3.809   6.635   6.101
 4974SOL    HW115821   3.884   6.572   6.119
 4974SOL    HW215822   3.746   6.634   6.179
 4975SOL     OW15823   4.019   6.071   0.199
 4975SOL    HW115824   4.106   6.051   0.246
 4975SOL    HW215825   3.963   6.130   0.257
 4976SOL     OW15826   2.411   1.280   4.541
 4976SOL    HW115827   2.438   1.276   4.637
 4976SOL    HW215828   2.385   1.189   4.509
 4977SOL     OW15829   3.951   3.568   1.860
 4977SOL    HW115830   4.002   3.639   1.909
 4977SOL    HW215831   4.015   3.512   1.807
 4978SOL     OW15832   6.469   3.939   6.242
 4978SOL    HW115833   6.568   3.954   6.241
 4978SOL    HW215834   6.437   3.920   6.149
 4979SOL     OW15835   2.172   2.206   3.354
 4979SOL    HW115836   2.225   2.122   3.367
 4979SOL    HW215837   2.163   2.225   3.257
 4980SOL     OW15838   2.300   4.737   2.958
 4980SOL    HW115839   2.380   4.692   2.917
 4980SOL    HW215840   2.322   4.765   3.051
 4981SOL     OW15841   5.448   5.880   5.409
 4981SOL    HW115842   5.529   5.848   5.359
 4981SOL    HW215843   5.472   5.895   5.505
 4982SOL     OW15844   2.664   1.136   6.740
 4982SOL    HW115845   2.670   1.210   6.807
 4982SOL    HW215846   2.568   1.109   6.729
 4983SOL     OW15847   6.850   2.333   3.892
 4983SOL    HW115848   6.773   2.276   3.864
 4983SOL    HW215849   6.851   2.340   3.992
 4984SOL     OW15850   5.428   4.947   3.639
 4984SOL    HW115851   5.351   4.956   3.576
 4984SOL    HW215852   5.406   4.881   3.711
 4985SOL     OW15853   5.562   3.740   2.019
 4985SOL    HW115854   5.533   3.778   2.107
 4985SOL    HW215855   5.495   3.673   1.988
 4986SOL     OW15856   4.425   5.037   3.631
 4986SOL    HW115857   4.517   5.036   3.591
 4986SOL    HW215858   4.361   5.076   3.565
 4987SOL     OW15859   1.157   2.743   0.122
 4987SOL    HW115860   1.186   2.648   0.132
 4987SOL    HW215861   1.199   2.783   0.041
 4988SOL     OW15862   2.482   2.124   5.023
 4988SOL    HW115863   2.470   2.102   4.926
 4988SOL    HW215864   2.421   2.199   5.048
 4989SOL     OW15865   0.136   0.767   0.635
 4989SOL    HW115866   0.102   0.804   0.722
 4989SOL    HW215867   0.235   0.755   0.641
 4990SOL     OW15868   1.933   2.155   0.259
 4990SOL    HW115869   1.936   2.255   0.268
 4990SOL    HW215870   1.997   2.127   0.187
 4991SOL     OW15871   2.641   1.636   5.795
 4991SOL    HW115872   2.740   1.625   5.811
 4991SOL    HW215873   2.603   1.697   5.864
 4992SOL     OW15874   4.179   6.945   4.659
 4992SOL    HW115875   4.225   6.858   4.672
 4992SOL    HW215876   4.244   7.020   4.673
 4993SOL     OW15877   1.682   6.580   4.812
 4993SOL    HW115878   1.768   6.556   4.767
 4993SOL    HW215879   1.607   6.526   4.772
 4994SOL     OW15880   0.385   5.723   2.999
 4994SOL    HW115881   0.316   5.783   3.039
 4994SOL    HW215882   0.447   5.776   2.942
 4995SOL     OW15883   5.600   2.767   5.053
 4995SOL    HW115884   5.502   2.784   5.060
 4995SOL    HW215885   5.616   2.668   5.055
 4996SOL     OW15886   0.694   1.969   3.967
 4996SOL    HW115887   0.754   1.927   4.034
 4996SOL    HW215888   0.599   1.963   3.998
 4997SOL     OW15889   6.937   2.551   3.746
 4997SOL    HW115890   6.897   2.480   3.804
 4997SOL    HW215891   6.913   2.533   3.651
 4998SOL     OW15892   1.251   5.667   5.824
 4998SOL    HW115893   1.186   5.714   5.764
 4998SOL    HW215894   1.331   5.724   5.837
 4999SOL     OW15895   5.813   4.870   1.022
 4999SOL    HW115896   5.799   4.804   1.096
 4999SOL    HW215897   5.737   4.936   1.021
 5000SOL     OW15898   6.028   5.348   3.871
 5000SOL    HW115899   5.990   5.410   3.802
 5000SOL    HW215900   5.973   5.265   3.875
 5001SOL     OW15901   4.985   3.570   5.330
 5001SOL    HW115902   5.084   3.574   5.325
 5001SOL    HW215903   4.957   3.487   5.380
 5002SOL     OW15904   1.682   2.072   1.677
 5002SOL    HW115905   1.696   1.983   1.721
 5002SOL    HW215906   1.638   2.134   1.742
 5003SOL     OW15907   6.684   5.251   4.647
 5003SOL    HW115908   6.668   5.335   4.699
 5003SOL    HW215909   6.606   5.234   4.587
 5004SOL     OW15910   2.121   4.174   5.968
 5004SOL    HW115911   2.169   4.241   6.023
 5004SOL    HW215912   2.179   4.145   5.892
 5005SOL     OW15913   4.927   2.447   0.465
 5005SOL    HW115914   4.929   2.463   0.564
 5005SOL    HW215915   4.959   2.354   0.446
 5006SOL     OW15916   4.773   4.899   2.490
 5006SOL    HW115917   4.692   4.939   2.533
 5006SOL    HW215918   4.745   4.848   2.409
 5007SOL     OW15919   3.991   1.044   4.687
 5007SOL    HW115920   3.950   1.088   4.766
 5007SOL    HW215921   4.090   1.033   4.702
 5008SOL     OW15922   6.117   1.889   4.069
 5008SOL    HW115923   6.102   1.897   4.167
 5008SOL    HW215924   6.199   1.940   4.044
 5009SOL     OW15925   2.671   6.410   1.931
 5009SOL    HW115926   2.619   6.388   1.848
 5009SOL    HW215927   2.765   6.378   1.920
 5010SOL     OW15928   3.322   3.162   6.293
 5010SOL    HW115929   3.419   3.183   6.308
 5010SOL    HW215930   3.285   3.115   6.373
 5011SOL     OW15931   1.463   1.476   4.340
 5011SOL    HW115932   1.559   1.501   4.331
 5011SOL    HW215933   1.407   1.559   4.341
 5012SOL     OW15934   6.041   2.365   0.046
 5012SOL    HW115935   6.034   2.372   0.145
 5012SOL    HW215936   6.064   2.454   0.007
 5013SOL     OW15937   5.023   1.624   5.255
 5013SOL    HW115938   4.948   1.675   5.298
 5013SOL    HW215939   5.074   1.686   5.195
 5014SOL     OW15940   6.942   5.046   6.732
 5014SOL    HW115941   0.002   5.068   6.687
 5014SOL    HW215942   6.908   4.959   6.698
 5015SOL     OW15943   4.915   1.832   4.015
 5015SOL    HW115944   4.921   1.888   4.097
 5015SOL    HW215945   4.819   1.814   3.993
 5016SOL     OW15946   2.750   5.470   1.843
 5016SOL    HW115947   2.837   5.518   1.854
 5016SOL    HW215948   2.677   5.536   1.830
 5017SOL     OW15949   0.209   2.281   1.774
 5017SOL    HW115950   0.163   2.273   1.685
 5017SOL    HW215951   0.275   2.207   1.784
 5018SOL     OW15952   6.364   5.274   4.028
 5018SOL    HW115953   6.430   5.340   3.993
 5018SOL    HW215954   6.272   5.316   4.027
 5019SOL     OW15955   3.256   5.592   4.812
 5019SOL    HW115956   3.184   5.622   4.874
 5019SOL    HW215957   3.231   5.505   4.771
 5020SOL     OW15958   4.529   4.967   7.024
 5020SOL    HW115959   4.538   4.999   0.092
 5020SOL    HW215960   4.612   4.989   6.973
 5021SOL     OW15961   2.305   4.899   5.708
 5021SOL    HW115962   2.370   4.958   5.660
 5021SOL    HW215963   2.354   4.842   5.773
 5022SOL     OW15964   1.678   3.156   6.799
 5022SOL    HW115965   1.619   3.145   6.719
 5022SOL    HW215966   1.760   3.099   6.788
 5023SOL     OW15967   6.694   3.260   4.298
 5023SOL    HW115968   6.648   3.175   4.272
 5023SOL    HW215969   6.775   3.238   4.353
 5024SOL     OW15970   4.794   3.959   5.178
 5024SOL    HW115971   4.724   4.016   5.220
 5024SOL    HW215972   4.787   3.966   5.078
 5025SOL     OW15973   5.734   0.524   4.977
 5025SOL    HW115974   5.833   0.531   4.962
 5025SOL    HW215975   5.717   0.504   5.074
 5026SOL     OW15976   1.234   5.636   2.731
 5026SOL    HW115977   1.232   5.698   2.653
 5026SOL    HW215978   1.236   5.689   2.816
 5027SOL     OW15979   1.229   5.604   3.519
 5027SOL    HW115980   1.324   5.598   3.487
 5027SOL    HW215981   1.203   5.517   3.562
 5028SOL     OW15982   1.200   6.229   3.048
 5028SOL    HW115983   1.192   6.318   3.093
 5028SOL    HW215984   1.138   6.225   2.969
 5029SOL     OW15985   5.864   0.582   4.603
 5029SOL    HW115986   5.938   0.519   4.625
 5029SOL    HW215987   5.847   0.643   4.680
 5030SOL     OW15988   1.364   5.897   0.744
 5030SOL    HW115989   1.339   5.865   0.653
 5030SOL    HW215990   1.281   5.924   0.794
 5031SOL     OW15991   5.621   6.926   0.151
 5031SOL    HW115992   5.658   6.918   0.243
 5031SOL    HW215993   5.545   6.992   0.152
 5032SOL     OW15994   1.803   5.721   2.386
 5032SOL    HW115995   1.791   5.646   2.321
 5032SOL    HW215996   1.870   5.785   2.349
 5033SOL     OW15997   0.694   4.407   4.545
 5033SOL    HW115998   0.693   4.307   4.555
 5033SOL    HW215999   0.616   4.446   4.593
 5034SOL     OW16000   0.746   3.075   5.909
 5034SOL    HW116001   0.836   3.062   5.953
 5034SOL    HW216002   0.757   3.129   5.826
 5035SOL     OW16003   6.396   4.674   1.069
 5035SOL    HW116004   6.408   4.737   0.993
 5035SOL    HW216005   6.351   4.591   1.037
 5036SOL     OW16006   1.223   1.764   2.843
 5036SOL    HW116007   1.288   1.756   2.918
 5036SOL    HW216008   1.192   1.859   2.835
 5037SOL     OW16009   5.022   4.460   1.193
 5037SOL    HW116010   4.948   4.498   1.249
 5037SOL    HW216011   5.106   4.458   1.247
 5038SOL     OW16012   3.228   5.759   5.873
 5038SOL    HW116013   3.300   5.723   5.813
 5038SOL    HW216014   3.143   5.766   5.821
 5039SOL     OW16015   1.146   2.692   3.423
 5039SOL    HW116016   1.067   2.726   3.372
 5039SOL    HW216017   1.174   2.761   3.490
 5040SOL     OW16018   2.438   3.605   6.211
 5040SOL    HW116019   2.495   3.524   6.197
 5040SOL    HW216020   2.372   3.588   6.284
 5041SOL     OW16021   0.464   5.573   0.547
 5041SOL    HW116022   0.405   5.508   0.499
 5041SOL    HW216023   0.418   5.605   0.630
 5042SOL     OW16024   6.188   1.198   6.387
 5042SOL    HW116025   6.098   1.221   6.352
 5042SOL    HW216026   6.225   1.121   6.334
 5043SOL     OW16027   5.616   5.878   3.927
 5043SOL    HW116028   5.521   5.873   3.897
 5043SOL    HW216029   5.668   5.938   3.866
 5044SOL     OW16030   6.044   4.028   1.973
 5044SOL    HW116031   6.041   3.940   1.926
 5044SOL    HW216032   5.956   4.075   1.960
 5045SOL     OW16033   4.734   2.925   5.689
 5045SOL    HW116034   4.715   2.979   5.607
 5045SOL    HW216035   4.663   2.942   5.758
 5046SOL     OW16036   3.948   2.808   5.830
 5046SOL    HW116037   3.923   2.871   5.904
 5046SOL    HW216038   3.961   2.716   5.868
 5047SOL     OW16039   0.451   2.208   2.404
 5047SOL    HW116040   0.485   2.302   2.405
 5047SOL    HW216041   0.479   2.162   2.488
 5048SOL     OW16042   5.883   4.040   0.794
 5048SOL    HW116043   5.894   3.989   0.880
 5048SOL    HW216044   5.813   3.996   0.739
 5049SOL     OW16045   0.913   1.030   1.401
 5049SOL    HW116046   0.889   0.950   1.345
 5049SOL    HW216047   0.840   1.098   1.395
 5050SOL     OW16048   1.658   3.924   0.520
 5050SOL    HW116049   1.694   3.988   0.452
 5050SOL    HW216050   1.618   3.976   0.596
 5051SOL     OW16051   2.369   3.957   6.464
 5051SOL    HW116052   2.274   3.945   6.434
 5051SOL    HW216053   2.429   3.963   6.384
 5052SOL     OW16054   6.117   2.956   1.162
 5052SOL    HW116055   6.127   2.905   1.077
 5052SOL    HW216056   6.075   2.897   1.231
 5053SOL     OW16057   1.095   3.736   1.339
 5053SOL    HW116058   1.100   3.640   1.312
 5053SOL    HW216059   1.032   3.746   1.416
 5054SOL     OW16060   3.687   6.305   4.987
 5054SOL    HW116061   3.707   6.305   5.085
 5054SOL    HW216062   3.725   6.223   4.945
 5055SOL     OW16063   0.527   0.768   3.880
 5055SOL    HW116064   0.624   0.754   3.900
 5055SOL    HW216065   0.503   0.720   3.796
 5056SOL     OW16066   2.876   1.588   6.280
 5056SOL    HW116067   2.935   1.541   6.346
 5056SOL    HW216068   2.928   1.660   6.235
 5057SOL     OW16069   0.370   4.111   2.180
 5057SOL    HW116070   0.383   4.012   2.189
 5057SOL    HW216071   0.325   4.131   2.093
 5058SOL     OW16072   4.082   1.661   7.022
 5058SOL    HW116073   4.121   1.578   6.982
 5058SOL    HW216074   4.150   1.704   0.056
 5059SOL     OW16075   5.718   2.911   2.477
 5059SOL    HW116076   5.670   2.907   2.390
 5059SOL    HW216077   5.667   2.968   2.541
 5060SOL     OW16078   6.151   2.965   5.103
 5060SOL    HW116079   6.101   3.041   5.063
 5060SOL    HW216080   6.217   3.001   5.170
 5061SOL     OW16081   3.808   2.517   5.629
 5061SOL    HW116082   3.717   2.494   5.665
 5061SOL    HW216083   3.877   2.497   5.698
 5062SOL     OW16084   5.835   1.086   3.358
 5062SOL    HW116085   5.756   1.102   3.417
 5062SOL    HW216086   5.870   0.994   3.372
 5063SOL     OW16087   0.902   1.306   0.616
 5063SOL    HW116088   0.865   1.347   0.533
 5063SOL    HW216089   1.001   1.322   0.621
 5064SOL     OW16090   6.363   5.186   0.621
 5064SOL    HW116091   6.458   5.160   0.608
 5064SOL    HW216092   6.304   5.107   0.603
 5065SOL     OW16093   1.862   2.115   2.661
 5065SOL    HW116094   1.876   2.025   2.702
 5065SOL    HW216095   1.851   2.107   2.562
 5066SOL     OW16096   1.272   4.833   4.201
 5066SOL    HW116097   1.203   4.864   4.135
 5066SOL    HW216098   1.226   4.802   4.285
 5067SOL     OW16099   5.348   2.854   0.876
 5067SOL    HW116100   5.291   2.871   0.796
 5067SOL    HW216101   5.304   2.893   0.957
 5068SOL     OW16102   1.682   0.021   1.360
 5068SOL    HW116103   1.644   6.961   1.326
 5068SOL    HW216104   1.770   0.039   1.316
 5069SOL     OW16105   4.133   4.383   5.961
 5069SOL    HW116106   4.078   4.377   6.044
 5069SOL    HW216107   4.075   4.373   5.881
 5070SOL     OW16108   0.062   3.330   6.542
 5070SOL    HW116109   0.069   3.404   6.610
 5070SOL    HW216110   0.153   3.301   6.514
 5071SOL     OW16111   1.918   6.414   2.746
 5071SOL    HW116112   1.902   6.435   2.842
 5071SOL    HW216113   1.950   6.496   2.699
 5072SOL     OW16114   0.635   1.909   2.630
 5072SOL    HW116115   0.558   1.878   2.686
 5072SOL    HW216116   0.645   2.008   2.641
 5073SOL     OW16117   1.372   1.316   3.831
 5073SOL    HW116118   1.443   1.374   3.872
 5073SOL    HW216119   1.415   1.247   3.773
 5074SOL     OW16120   3.833   2.197   1.272
 5074SOL    HW116121   3.837   2.169   1.176
 5074SOL    HW216122   3.799   2.291   1.278
 5075SOL     OW16123   6.268   2.182   6.937
 5075SOL    HW116124   6.189   2.216   6.988
 5075SOL    HW216125   6.316   2.114   6.992
 5076SOL     OW16126   0.172   1.252   6.004
 5076SOL    HW116127   0.221   1.339   5.995
 5076SOL    HW216128   0.235   1.182   6.039
 5077SOL     OW16129   0.346   4.476   4.606
 5077SOL    HW116130   0.332   4.400   4.542
 5077SOL    HW216131   0.332   4.443   4.700
 5078SOL     OW16132   6.336   1.860   2.879
 5078SOL    HW116133   6.371   1.828   2.967
 5078SOL    HW216134   6.409   1.906   2.828
 5079SOL     OW16135   1.755   3.760   5.490
 5079SOL    HW116136   1.787   3.854   5.506
 5079SOL    HW216137   1.672   3.744   5.542
 5080SOL     OW16138   6.339   5.815   6.848
 5080SOL    HW116139   6.306   5.723   6.827
 5080SOL    HW216140   6.266   5.882   6.832
 5081SOL     OW16141   3.188   4.924   5.394
 5081SOL    HW116142   3.286   4.904   5.405
 5081SOL    HW216143   3.150   4.867   5.321
 5082SOL     OW16144   5.676   0.392   2.925
 5082SOL    HW116145   5.705   0.296   2.921
 5082SOL    HW216146   5.626   0.416   2.842
 5083SOL     OW16147   0.690   0.583   3.549
 5083SOL    HW116148   0.708   0.562   3.645
 5083SOL    HW216149   0.674   0.498   3.498
 5084SOL     OW16150   3.419   5.624   5.684
 5084SOL    HW116151   3.384   5.538   5.646
 5084SOL    HW216152   3.385   5.701   5.630
 5085SOL     OW16153   0.490   3.994   6.533
 5085SOL    HW116154   0.439   4.077   6.509
 5085SOL    HW216155   0.532   4.005   6.622
 5086SOL     OW16156   1.416   4.500   2.085
 5086SOL    HW116157   1.350   4.427   2.070
 5086SOL    HW216158   1.371   4.578   2.129
 5087SOL     OW16159   6.633   5.739   1.509
 5087SOL    HW116160   6.691   5.810   1.548
 5087SOL    HW216161   6.681   5.694   1.433
 5088SOL     OW16162   4.428   4.654   2.041
 5088SOL    HW116163   4.363   4.612   1.977
 5088SOL    HW216164   4.504   4.591   2.058
 5089SOL     OW16165   5.227   6.136   5.795
 5089SOL    HW116166   5.254   6.174   5.706
 5089SOL    HW216167   5.292   6.065   5.822
 5090SOL     OW16168   2.416   6.912   4.266
 5090SOL    HW116169   2.466   6.860   4.336
 5090SOL    HW216170   2.471   6.917   4.182
 5091SOL     OW16171   6.319   6.131   6.013
 5091SOL    HW116172   6.334   6.034   5.996
 5091SOL    HW216173   6.263   6.143   6.095
 5092SOL     OW16174   3.730   2.921   4.407
 5092SOL    HW116175   3.776   2.931   4.496
 5092SOL    HW216176   3.633   2.902   4.422
 5093SOL     OW16177   3.293   2.163   3.527
 5093SOL    HW116178   3.214   2.197   3.578
 5093SOL    HW216179   3.267   2.149   3.431
 5094SOL     OW16180   2.526   5.631   4.845
 5094SOL    HW116181   2.460   5.564   4.812
 5094SOL    HW216182   2.523   5.713   4.789
 5095SOL     OW16183   5.949   2.008   3.409
 5095SOL    HW116184   5.925   2.036   3.502
 5095SOL    HW216185   5.936   2.085   3.347
 5096SOL     OW16186   5.644   2.478   5.847
 5096SOL    HW116187   5.574   2.473   5.918
 5096SOL    HW216188   5.642   2.569   5.805
 5097SOL     OW16189   0.815   0.649   5.655
 5097SOL    HW116190   0.893   0.669   5.595
 5097SOL    HW216191   0.844   0.658   5.751
 5098SOL     OW16192   2.715   2.048   1.310
 5098SOL    HW116193   2.736   1.950   1.299
 5098SOL    HW216194   2.620   2.064   1.285
 5099SOL     OW16195   2.292   5.563   2.237
 5099SOL    HW116196   2.242   5.604   2.313
 5099SOL    HW216197   2.294   5.627   2.160
 5100SOL     OW16198   5.968   3.480   1.164
 5100SOL    HW116199   5.874   3.447   1.162
 5100SOL    HW216200   5.971   3.575   1.133
 5101SOL     OW16201   3.659   1.870   5.088
 5101SOL    HW116202   3.597   1.946   5.069
 5101SOL    HW216203   3.647   1.840   5.183
 5102SOL     OW16204   5.494   4.691   5.158
 5102SOL    HW116205   5.559   4.758   5.122
 5102SOL    HW216206   5.415   4.686   5.096
 5103SOL     OW16207   0.558   0.548   5.641
 5103SOL    HW116208   0.553   0.497   5.726
 5103SOL    HW216209   0.638   0.608   5.643
 5104SOL     OW16210   4.144   3.601   3.842
 5104SOL    HW116211   4.056   3.558   3.863
 5104SOL    HW216212   4.218   3.539   3.869
 5105SOL     OW16213   4.457   2.857   6.761
 5105SOL    HW116214   4.480   2.849   6.664
 5105SOL    HW216215   4.491   2.777   6.810
 5106SOL     OW16216   4.091   1.007   1.243
 5106SOL    HW116217   4.113   1.032   1.337
 5106SOL    HW216218   3.992   1.014   1.229
 5107SOL     OW16219   6.186   5.048   6.558
 5107SOL    HW116220   6.214   4.953   6.540
 5107SOL    HW216221   6.109   5.072   6.499
 5108SOL     OW16222   3.871   4.224   0.956
 5108SOL    HW116223   3.964   4.251   0.934
 5108SOL    HW216224   3.811   4.304   0.956
 5109SOL     OW16225   2.134   2.345   2.196
 5109SOL    HW116226   2.164   2.250   2.187
 5109SOL    HW216227   2.185   2.390   2.269
 5110SOL     OW16228   3.513   6.480   4.587
 5110SOL    HW116229   3.543   6.560   4.536
 5110SOL    HW216230   3.415   6.485   4.603
 5111SOL     OW16231   2.552   5.484   6.193
 5111SOL    HW116232   2.467   5.456   6.149
 5111SOL    HW216233   2.565   5.583   6.183
 5112SOL     OW16234   1.176   4.531   2.515
 5112SOL    HW116235   1.147   4.616   2.472
 5112SOL    HW216236   1.142   4.529   2.609
 5113SOL     OW16237   2.504   4.359   0.930
 5113SOL    HW116238   2.593   4.320   0.907
 5113SOL    HW216239   2.432   4.304   0.887
 5114SOL     OW16240   4.763   5.072   1.675
 5114SOL    HW116241   4.699   5.130   1.725
 5114SOL    HW216242   4.821   5.022   1.740
 5115SOL     OW16243   1.224   4.375   0.308
 5115SOL    HW116244   1.198   4.306   0.240
 5115SOL    HW216245   1.306   4.423   0.277
 5116SOL     OW16246   0.259   6.992   5.731
 5116SOL    HW116247   0.263   6.957   5.638
 5116SOL    HW216248   0.278   0.065   5.731
 5117SOL     OW16249   0.153   3.825   3.910
 5117SOL    HW116250   0.108   3.903   3.866
 5117SOL    HW216251   0.185   3.852   4.001
 5118SOL     OW16252   4.306   4.628   0.313
 5118SOL    HW116253   4.343   4.716   0.343
 5118SOL    HW216254   4.356   4.597   0.232
 5119SOL     OW16255   5.138   1.593   0.706
 5119SOL    HW116256   5.225   1.577   0.753
 5119SOL    HW216257   5.145   1.561   0.612
 5120SOL     OW16258   5.910   6.490   6.169
 5120SOL    HW116259   5.819   6.474   6.208
 5120SOL    HW216260   5.963   6.549   6.230
 5121SOL     OW16261   1.663   3.264   0.258
 5121SOL    HW116262   1.640   3.348   0.306
 5121SOL    HW216263   1.596   3.248   0.185
 5122SOL     OW16264   5.096   5.048   3.468
 5122SOL    HW116265   5.105   4.984   3.391
 5122SOL    HW216266   5.003   5.085   3.469
 5123SOL     OW16267   4.887   2.245   1.211
 5123SOL    HW116268   4.880   2.253   1.112
 5123SOL    HW216269   4.857   2.154   1.239
 5124SOL     OW16270   0.485   5.566   4.600
 5124SOL    HW116271   0.398   5.535   4.563
 5124SOL    HW216272   0.557   5.501   4.574
 5125SOL     OW16273   5.622   2.465   3.928
 5125SOL    HW116274   5.655   2.402   3.858
 5125SOL    HW216275   5.596   2.414   4.010
 5126SOL     OW16276   2.101   0.963   1.464
 5126SOL    HW116277   2.036   1.009   1.405
 5126SOL    HW216278   2.074   0.975   1.560
 5127SOL     OW16279   2.354   6.466   0.547
 5127SOL    HW116280   2.275   6.419   0.509
 5127SOL    HW216281   2.326   6.556   0.580
 5128SOL     OW16282   4.563   0.253   1.971
 5128SOL    HW116283   4.661   0.265   1.958
 5128SOL    HW216284   4.515   0.336   1.945
 5129SOL     OW16285   5.996   5.777   0.328
 5129SOL    HW116286   6.007   5.694   0.274
 5129SOL    HW216287   5.974   5.853   0.266
 5130SOL     OW16288   6.001   5.050   1.897
 5130SOL    HW116289   5.990   5.138   1.944
 5130SOL    HW216290   5.911   5.012   1.876
 5131SOL     OW16291   2.628   2.260   2.203
 5131SOL    HW116292   2.712   2.256   2.148
 5131SOL    HW216293   2.606   2.356   2.222
 5132SOL     OW16294   2.611   6.456   5.504
 5132SOL    HW116295   2.559   6.374   5.529
 5132SOL    HW216296   2.582   6.532   5.563
 5133SOL     OW16297   3.557   6.491   4.861
 5133SOL    HW116298   3.614   6.415   4.893
 5133SOL    HW216299   3.534   6.478   4.765
 5134SOL     OW16300   0.783   3.203   6.560
 5134SOL    HW116301   0.694   3.178   6.597
 5134SOL    HW216302   0.835   3.252   6.630
 5135SOL     OW16303   6.505   1.867   3.803
 5135SOL    HW116304   6.493   1.932   3.728
 5135SOL    HW216305   6.427   1.804   3.805
 5136SOL     OW16306   3.455   1.854   5.905
 5136SOL    HW116307   3.538   1.859   5.962
 5136SOL    HW216308   3.381   1.904   5.950
 5137SOL     OW16309   3.982   3.480   7.000
 5137SOL    HW116310   3.987   3.491   0.073
 5137SOL    HW216311   4.028   3.557   6.956
 5138SOL     OW16312   2.211   3.031   5.926
 5138SOL    HW116313   2.213   3.007   6.024
 5138SOL    HW216314   2.119   3.017   5.891
 5139SOL     OW16315   0.481   7.007   3.650
 5139SOL    HW116316   0.454   0.075   3.672
 5139SOL    HW216317   0.470   6.949   3.730
 5140SOL     OW16318   3.062   2.921   1.918
 5140SOL    HW116319   3.101   2.844   1.967
 5140SOL    HW216320   3.007   2.888   1.841
 5141SOL     OW16321   0.787   3.536   5.562
 5141SOL    HW116322   0.740   3.517   5.476
 5141SOL    HW216323   0.720   3.563   5.631
 5142SOL     OW16324   5.260   3.331   1.851
 5142SOL    HW116325   5.267   3.291   1.760
 5142SOL    HW216326   5.180   3.294   1.898
 5143SOL     OW16327   0.033   4.982   6.242
 5143SOL    HW116328   0.097   5.044   6.196
 5143SOL    HW216329   0.072   4.951   6.328
 5144SOL     OW16330   1.774   1.563   5.287
 5144SOL    HW116331   1.866   1.535   5.312
 5144SOL    HW216332   1.710   1.536   5.359
 5145SOL     OW16333   3.767   5.392   5.946
 5145SOL    HW116334   3.723   5.334   5.877
 5145SOL    HW216335   3.782   5.338   6.029
 5146SOL     OW16336   3.208   5.067   1.186
 5146SOL    HW116337   3.189   5.060   1.284
 5146SOL    HW216338   3.208   5.163   1.159
 5147SOL     OW16339   0.299   5.139   6.389
 5147SOL    HW116340   0.370   5.140   6.319
 5147SOL    HW216341   0.299   5.051   6.436
 5148SOL     OW16342   0.357   0.653   1.392
 5148SOL    HW116343   0.325   0.568   1.435
 5148SOL    HW216344   0.335   0.730   1.452
 5149SOL     OW16345   0.127   0.820   5.584
 5149SOL    HW116346   0.150   0.916   5.602
 5149SOL    HW216347   0.204   0.762   5.610
 5150SOL     OW16348   2.792   5.251   5.432
 5150SOL    HW116349   2.887   5.283   5.424
 5150SOL    HW216350   2.788   5.177   5.499
 5151SOL     OW16351   4.940   0.405   5.950
 5151SOL    HW116352   4.853   0.360   5.929
 5151SOL    HW216353   4.972   0.375   6.040
 5152SOL     OW16354   6.675   5.055   6.465
 5152SOL    HW116355   6.712   5.147   6.452
 5152SOL    HW216356   6.750   4.992   6.485
 5153SOL     OW16357   2.408   3.011   0.904
 5153SOL    HW116358   2.388   3.107   0.922
 5153SOL    HW216359   2.322   2.959   0.903
 5154SOL     OW16360   1.236   4.767   5.025
 5154SOL    HW116361   1.262   4.682   4.978
 5154SOL    HW216362   1.137   4.773   5.031
 5155SOL     OW16363   4.131   0.861   2.071
 5155SOL    HW116364   4.034   0.845   2.091
 5155SOL    HW216365   4.173   0.776   2.041
 5156SOL     OW16366   5.596   3.311   6.095
 5156SOL    HW116367   5.636   3.264   6.016
 5156SOL    HW216368   5.638   3.278   6.179
 5157SOL     OW16369   6.126   2.259   3.504
 5157SOL    HW116370   6.068   2.255   3.423
 5157SOL    HW216371   6.222   2.262   3.477
 5158SOL     OW16372   3.590   0.322   1.717
 5158SOL    HW116373   3.600   0.275   1.804
 5158SOL    HW216374   3.535   0.405   1.729
 5159SOL     OW16375   2.204   3.160   5.243
 5159SOL    HW116376   2.228   3.257   5.256
 5159SOL    HW216377   2.279   3.114   5.196
 5160SOL     OW16378   2.726   2.359   3.918
 5160SOL    HW116379   2.687   2.434   3.865
 5160SOL    HW216380   2.701   2.272   3.876
 5161SOL     OW16381   2.014   3.268   7.020
 5161SOL    HW116382   2.035   3.178   6.983
 5161SOL    HW216383   1.946   3.313   6.962
 5162SOL     OW16384   6.422   5.889   4.706
 5162SOL    HW116385   6.362   5.843   4.641
 5162SOL    HW216386   6.472   5.820   4.759
 5163SOL     OW16387   5.635   4.120   0.362
 5163SOL    HW116388   5.623   4.110   0.461
 5163SOL    HW216389   5.546   4.134   0.319
 5164SOL     OW16390   6.880   6.295   4.888
 5164SOL    HW116391   6.825   6.269   4.968
 5164SOL    HW216392   6.969   6.329   4.919
 5165SOL     OW16393   5.901   4.166   5.430
 5165SOL    HW116394   5.838   4.145   5.355
 5165SOL    HW216395   5.978   4.220   5.395
 5166SOL     OW16396   0.592   6.872   3.261
 5166SOL    HW116397   0.499   6.897   3.234
 5166SOL    HW216398   0.646   6.851   3.180
 5167SOL     OW16399   1.834   0.209   5.352
 5167SOL    HW116400   1.908   0.148   5.323
 5167SOL    HW216401   1.820   0.278   5.281
 5168SOL     OW16402   3.365   2.034   2.364
 5168SOL    HW116403   3.454   2.005   2.330
 5168SOL    HW216404   3.307   2.063   2.288
 5169SOL     OW16405   3.806   4.991   6.488
 5169SOL    HW116406   3.778   4.921   6.553
 5169SOL    HW216407   3.906   4.999   6.489
 5170SOL     OW16408   4.242   5.398   4.350
 5170SOL    HW116409   4.205   5.412   4.258
 5170SOL    HW216410   4.262   5.301   4.363
 5171SOL     OW16411   2.706   4.733   5.266
 5171SOL    HW116412   2.770   4.754   5.340
 5171SOL    HW216413   2.753   4.680   5.195
 5172SOL     OW16414   2.125   3.972   6.322
 5172SOL    HW116415   2.102   3.883   6.284
 5172SOL    HW216416   2.078   4.043   6.270
 5173SOL     OW16417   0.233   2.612   4.499
 5173SOL    HW116418   0.308   2.676   4.519
 5173SOL    HW216419   0.262   2.519   4.520
 5174SOL     OW16420   2.862   4.781   6.945
 5174SOL    HW116421   2.879   4.740   6.855
 5174SOL    HW216422   2.786   4.734   6.989
 5175SOL     OW16423   0.169   5.174   6.656
 5175SOL    HW116424   0.189   5.166   6.558
 5175SOL    HW216425   0.145   5.269   6.677
 5176SOL     OW16426   5.674   3.461   6.351
 5176SOL    HW116427   5.619   3.416   6.422
 5176SOL    HW216428   5.644   3.556   6.342
 5177SOL     OW16429   4.776   4.727   6.088
 5177SOL    HW116430   4.690   4.677   6.086
 5177SOL    HW216431   4.826   4.703   6.172
 5178SOL     OW16432   3.600   4.196   0.498
 5178SOL    HW116433   3.621   4.127   0.567
 5178SOL    HW216434   3.532   4.260   0.534
 5179SOL     OW16435   3.228   6.611   5.326
 5179SOL    HW116436   3.175   6.620   5.242
 5179SOL    HW216437   3.176   6.650   5.403
 5180SOL     OW16438   4.897   1.522   6.993
 5180SOL    HW116439   4.912   1.544   6.897
 5180SOL    HW216440   4.836   1.590   0.008
 5181SOL     OW16441   2.881   6.181   2.459
 5181SOL    HW116442   2.914   6.163   2.367
 5181SOL    HW216443   2.948   6.148   2.526
 5182SOL     OW16444   4.823   4.047   1.099
 5182SOL    HW116445   4.890   4.023   1.030
 5182SOL    HW216446   4.732   4.055   1.057
 5183SOL     OW16447   3.365   0.336   3.819
 5183SOL    HW116448   3.406   0.421   3.853
 5183SOL    HW216449   3.361   0.269   3.892
 5184SOL     OW16450   0.951   2.393   3.045
 5184SOL    HW116451   0.903   2.372   3.129
 5184SOL    HW216452   0.889   2.383   2.967
 5185SOL     OW16453   3.647   0.173   1.948
 5185SOL    HW116454   3.691   0.218   2.026
 5185SOL    HW216455   3.554   0.148   1.972
 5186SOL     OW16456   5.544   4.054   0.058
 5186SOL    HW116457   5.593   4.141   0.055
 5186SOL    HW216458   5.600   3.986   0.106
 5187SOL     OW16459   4.901   3.402   3.981
 5187SOL    HW116460   4.908   3.467   4.057
 5187SOL    HW216461   4.892   3.309   4.018
 5188SOL     OW16462   6.807   1.099   3.220
 5188SOL    HW116463   6.839   1.045   3.298
 5188SOL    HW216464   6.879   1.102   3.150
 5189SOL     OW16465   5.025   5.263   5.856
 5189SOL    HW116466   5.020   5.289   5.759
 5189SOL    HW216467   5.112   5.293   5.894
 5190SOL     OW16468   2.340   2.205   2.441
 5190SOL    HW116469   2.365   2.298   2.417
 5190SOL    HW216470   2.329   2.150   2.358
 5191SOL     OW16471   5.142   1.038   2.147
 5191SOL    HW116472   5.234   1.076   2.149
 5191SOL    HW216473   5.099   1.060   2.059
 5192SOL     OW16474   6.437   4.169   1.243
 5192SOL    HW116475   6.451   4.220   1.327
 5192SOL    HW216476   6.379   4.222   1.181
 5193SOL     OW16477   3.806   4.913   2.637
 5193SOL    HW116478   3.904   4.896   2.646
 5193SOL    HW216479   3.785   4.939   2.543
 5194SOL     OW16480   4.891   0.991   0.351
 5194SOL    HW116481   4.951   0.983   0.431
 5194SOL    HW216482   4.881   0.901   0.308
 5195SOL     OW16483   0.459   5.679   5.153
 5195SOL    HW116484   0.416   5.719   5.234
 5195SOL    HW216485   0.394   5.678   5.077
 5196SOL     OW16486   0.781   3.214   3.483
 5196SOL    HW116487   0.681   3.223   3.476
 5196SOL    HW216488   0.820   3.201   3.392
 5197SOL     OW16489   3.839   6.238   5.306
 5197SOL    HW116490   3.747   6.215   5.339
 5197SOL    HW216491   3.893   6.274   5.382
 5198SOL     OW16492   4.271   1.098   5.671
 5198SOL    HW116493   4.248   1.134   5.581
 5198SOL    HW216494   4.192   1.050   5.709
 5199SOL     OW16495   0.525   6.113   2.172
 5199SOL    HW116496   0.582   6.042   2.132
 5199SOL    HW216497   0.583   6.185   2.210
 5200SOL     OW16498   6.011   6.796   5.333
 5200SOL    HW116499   5.961   6.882   5.343
 5200SOL    HW216500   5.949   6.724   5.303
 5201SOL     OW16501   0.128   4.056   5.383
 5201SOL    HW116502   0.061   3.982   5.376
 5201SOL    HW216503   0.206   4.036   5.324
 5202SOL     OW16504   3.856   2.141   5.892
 5202SOL    HW116505   3.770   2.169   5.848
 5202SOL    HW216506   3.836   2.082   5.970
 5203SOL     OW16507   1.034   0.285   6.395
 5203SOL    HW116508   1.123   0.313   6.360
 5203SOL    HW216509   0.973   0.264   6.319
 5204SOL     OW16510   2.369   0.427   2.169
 5204SOL    HW116511   2.407   0.519   2.171
 5204SOL    HW216512   2.284   0.426   2.118
 5205SOL     OW16513   6.717   0.177   1.808
 5205SOL    HW116514   6.702   0.170   1.710
 5205SOL    HW216515   6.712   0.273   1.836
 5206SOL     OW16516   1.278   5.300   4.893
 5206SOL    HW116517   1.314   5.268   4.980
 5206SOL    HW216518   1.314   5.244   4.819
 5207SOL     OW16519   4.643   1.168   4.644
 5207SOL    HW116520   4.566   1.230   4.657
 5207SOL    HW216521   4.680   1.179   4.552
 5208SOL     OW16522   6.538   1.558   0.255
 5208SOL    HW116523   6.615   1.546   0.317
 5208SOL    HW216524   6.539   1.651   0.218
 5209SOL     OW16525   4.885   6.081   2.429
 5209SOL    HW116526   4.860   6.138   2.351
 5209SOL    HW216527   4.901   5.988   2.399
 5210SOL     OW16528   5.970   4.120   1.453
 5210SOL    HW116529   5.925   4.096   1.366
 5210SOL    HW216530   5.947   4.214   1.478
 5211SOL     OW16531   4.957   2.995   4.821
 5211SOL    HW116532   4.914   3.085   4.828
 5211SOL    HW216533   5.004   2.987   4.733
 5212SOL     OW16534   6.317   3.559   0.024
 5212SOL    HW116535   6.376   3.619   6.995
 5212SOL    HW216536   6.335   3.575   0.121
 5213SOL     OW16537   3.677   3.194   3.895
 5213SOL    HW116538   3.579   3.188   3.912
 5213SOL    HW216539   3.704   3.290   3.895
 5214SOL     OW16540   6.033   3.206   5.803
 5214SOL    HW116541   6.031   3.119   5.754
 5214SOL    HW216542   6.127   3.229   5.827
 5215SOL     OW16543   0.361   4.694   4.939
 5215SOL    HW116544   0.443   4.645   4.908
 5215SOL    HW216545   0.303   4.632   4.991
 5216SOL     OW16546   6.568   4.737   0.545
 5216SOL    HW116547   6.656   4.772   0.578
 5216SOL    HW216548   6.582   4.646   0.506
 5217SOL     OW16549   3.516   0.271   2.897
 5217SOL    HW116550   3.522   0.199   2.965
 5217SOL    HW216551   3.520   0.232   2.805
 5218SOL     OW16552   6.046   0.338   0.704
 5218SOL    HW116553   6.035   0.242   0.727
 5218SOL    HW216554   6.134   0.371   0.739
 5219SOL     OW16555   4.362   2.136   4.953
 5219SOL    HW116556   4.415   2.219   4.935
 5219SOL    HW216557   4.265   2.156   4.944
 5220SOL     OW16558   1.937   4.148   4.431
 5220SOL    HW116559   1.882   4.205   4.370
 5220SOL    HW216560   1.884   4.127   4.513
 5221SOL     OW16561   4.168   6.221   0.803
 5221SOL    HW116562   4.214   6.235   0.890
 5221SOL    HW216563   4.087   6.164   0.816
 5222SOL     OW16564   5.965   3.028   2.419
 5222SOL    HW116565   5.963   3.114   2.368
 5222SOL    HW216566   5.874   2.987   2.421
 5223SOL     OW16567   6.931   2.332   0.735
 5223SOL    HW116568   6.997   2.311   0.663
 5223SOL    HW216569   6.976   2.325   0.824
 5224SOL     OW16570   1.870   1.497   4.554
 5224SOL    HW116571   1.868   1.578   4.613
 5224SOL    HW216572   1.813   1.514   4.473
 5225SOL     OW16573   0.057   2.358   5.825
 5225SOL    HW116574   0.078   2.302   5.745
 5225SOL    HW216575   0.121   2.435   5.830
 5226SOL     OW16576   0.096   6.866   4.068
 5226SOL    HW116577   0.172   6.869   4.133
 5226SOL    HW216578   0.104   6.784   4.011
 5227SOL     OW16579   2.080   2.645   6.423
 5227SOL    HW116580   2.125   2.696   6.496
 5227SOL    HW216581   2.128   2.660   6.337
 5228SOL     OW16582   0.891   2.232   5.360
 5228SOL    HW116583   0.828   2.308   5.375
 5228SOL    HW216584   0.983   2.268   5.344
 5229SOL     OW16585   4.008   1.737   0.418
 5229SOL    HW116586   3.971   1.659   0.366
 5229SOL    HW216587   4.068   1.703   0.490
 5230SOL     OW16588   6.686   0.513   2.094
 5230SOL    HW116589   6.712   0.489   2.001
 5230SOL    HW216590   6.589   0.494   2.109
 5231SOL     OW16591   6.465   3.947   1.636
 5231SOL    HW116592   6.395   4.017   1.646
 5231SOL    HW216593   6.443   3.868   1.693
 5232SOL     OW16594   1.584   1.535   5.965
 5232SOL    HW116595   1.493   1.576   5.954
 5232SOL    HW216596   1.633   1.538   5.878
 5233SOL     OW16597   2.339   6.939   3.613
 5233SOL    HW116598   2.418   6.896   3.571
 5233SOL    HW216599   2.267   6.871   3.627
 5234SOL     OW16600   3.219   2.377   6.392
 5234SOL    HW116601   3.182   2.450   6.335
 5234SOL    HW216602   3.147   2.342   6.452
 5235SOL     OW16603   2.304   2.906   1.348
 5235SOL    HW116604   2.373   2.845   1.309
 5235SOL    HW216605   2.346   2.993   1.371
 5236SOL     OW16606   2.746   5.040   2.018
 5236SOL    HW116607   2.769   5.109   1.948
 5236SOL    HW216608   2.810   4.964   2.011
 5237SOL     OW16609   1.498   1.539   1.453
 5237SOL    HW116610   1.527   1.443   1.455
 5237SOL    HW216611   1.579   1.598   1.447
 5238SOL     OW16612   6.009   0.824   3.333
 5238SOL    HW116613   5.980   0.887   3.261
 5238SOL    HW216614   6.095   0.780   3.307
 5239SOL     OW16615   2.485   3.809   6.960
 5239SOL    HW116616   2.573   3.796   7.005
 5239SOL    HW216617   2.416   3.752   7.005
 5240SOL     OW16618   1.870   4.272   5.844
 5240SOL    HW116619   1.918   4.359   5.846
 5240SOL    HW216620   1.936   4.197   5.847
 5241SOL     OW16621   2.119   5.611   3.690
 5241SOL    HW116622   2.062   5.556   3.750
 5241SOL    HW216623   2.201   5.560   3.666
 5242SOL     OW16624   4.164   5.986   5.701
 5242SOL    HW116625   4.252   6.000   5.747
 5242SOL    HW216626   4.174   6.006   5.604
 5243SOL     OW16627   1.898   5.617   3.971
 5243SOL    HW116628   1.932   5.622   4.065
 5243SOL    HW216629   1.798   5.610   3.972
 5244SOL     OW16630   5.452   0.502   6.547
 5244SOL    HW116631   5.449   0.540   6.455
 5244SOL    HW216632   5.452   0.577   6.614
 5245SOL     OW16633   3.100   3.768   1.700
 5245SOL    HW116634   3.074   3.671   1.692
 5245SOL    HW216635   3.174   3.788   1.636
 5246SOL     OW16636   6.234   2.852   5.513
 5246SOL    HW116637   6.190   2.909   5.583
 5246SOL    HW216638   6.332   2.846   5.533
 5247SOL     OW16639   4.903   0.876   5.391
 5247SOL    HW116640   4.890   0.952   5.327
 5247SOL    HW216641   4.818   0.862   5.442
 5248SOL     OW16642   4.398   1.073   2.144
 5248SOL    HW116643   4.463   1.139   2.106
 5248SOL    HW216644   4.306   1.095   2.113
 5249SOL     OW16645   6.818   5.955   2.053
 5249SOL    HW116646   6.908   5.998   2.061
 5249SOL    HW216647   6.829   5.855   2.046
 5250SOL     OW16648   1.362   4.852   0.336
 5250SOL    HW116649   1.289   4.915   0.308
 5250SOL    HW216650   1.451   4.892   0.316
 5251SOL     OW16651   1.343   4.562   6.283
 5251SOL    HW116652   1.325   4.638   6.346
 5251SOL    HW216653   1.436   4.569   6.248
 5252SOL     OW16654   4.005   6.377   3.089
 5252SOL    HW116655   3.934   6.330   3.143
 5252SOL    HW216656   4.035   6.458   3.138
 5253SOL     OW16657   0.429   5.859   4.775
 5253SOL    HW116658   0.476   5.838   4.689
 5253SOL    HW216659   0.495   5.889   4.843
 5254SOL     OW16660   4.538   6.371   1.903
 5254SOL    HW116661   4.625   6.415   1.883
 5254SOL    HW216662   4.549   6.310   1.982
 5255SOL     OW16663   0.434   1.363   6.314
 5255SOL    HW116664   0.512   1.402   6.362
 5255SOL    HW216665   0.439   1.263   6.317
 5256SOL     OW16666   4.174   1.943   2.523
 5256SOL    HW116667   4.224   2.017   2.478
 5256SOL    HW216668   4.096   1.981   2.571
 5257SOL     OW16669   5.504   0.991   0.066
 5257SOL    HW116670   5.531   1.063   0.002
 5257SOL    HW216671   5.505   0.903   0.019
 5258SOL     OW16672   5.855   1.948   5.531
 5258SOL    HW116673   5.917   1.967   5.608
 5258SOL    HW216674   5.862   1.851   5.506
 5259SOL     OW16675   4.326   6.135   4.601
 5259SOL    HW116676   4.413   6.113   4.557
 5259SOL    HW216677   4.340   6.209   4.667
 5260SOL     OW16678   1.492   6.995   1.863
 5260SOL    HW116679   1.511   0.066   1.846
 5260SOL    HW216680   1.420   6.964   1.802
 5261SOL     OW16681   6.396   4.771   0.310
 5261SOL    HW116682   6.449   4.772   0.395
 5261SOL    HW216683   6.402   4.860   0.266
 5262SOL     OW16684   2.345   2.135   1.817
 5262SOL    HW116685   2.416   2.097   1.877
 5262SOL    HW216686   2.256   2.132   1.864
 5263SOL     OW16687   0.483   6.117   2.775
 5263SOL    HW116688   0.452   6.211   2.788
 5263SOL    HW216689   0.404   6.055   2.777
 5264SOL     OW16690   6.828   2.374   2.222
 5264SOL    HW116691   6.846   2.386   2.124
 5264SOL    HW216692   6.914   2.354   2.269
 5265SOL     OW16693   0.807   5.628   5.907
 5265SOL    HW116694   0.741   5.598   5.838
 5265SOL    HW216695   0.804   5.728   5.915
 5266SOL     OW16696   1.079   7.017   6.316
 5266SOL    HW116697   1.143   6.942   6.333
 5266SOL    HW216698   1.065   0.042   6.401
 5267SOL     OW16699   6.200   1.041   4.932
 5267SOL    HW116700   6.273   1.043   4.864
 5267SOL    HW216701   6.200   1.127   4.984
 5268SOL     OW16702   5.948   0.383   5.900
 5268SOL    HW116703   5.935   0.312   5.970
 5268SOL    HW216704   5.871   0.382   5.836
 5269SOL     OW16705   1.167   0.509   4.475
 5269SOL    HW116706   1.233   0.513   4.550
 5269SOL    HW216707   1.204   0.556   4.395
 5270SOL     OW16708   1.506   1.598   0.017
 5270SOL    HW116709   1.527   1.652   6.961
 5270SOL    HW216710   1.500   1.658   0.096
 5271SOL     OW16711   1.423   5.923   6.147
 5271SOL    HW116712   1.515   5.961   6.136
 5271SOL    HW216713   1.428   5.824   6.154
 5272SOL     OW16714   4.130   0.500   6.068
 5272SOL    HW116715   4.202   0.503   5.998
 5272SOL    HW216716   4.041   0.489   6.024
 5273SOL     OW16717   2.296   1.533   3.308
 5273SOL    HW116718   2.212   1.484   3.334
 5273SOL    HW216719   2.306   1.529   3.209
 5274SOL     OW16720   6.202   4.282   1.102
 5274SOL    HW116721   6.195   4.186   1.078
 5274SOL    HW216722   6.150   4.299   1.186
 5275SOL     OW16723   5.862   0.911   6.321
 5275SOL    HW116724   5.765   0.892   6.302
 5275SOL    HW216725   5.877   0.911   6.420
 5276SOL     OW16726   3.478   6.213   1.602
 5276SOL    HW116727   3.470   6.277   1.526
 5276SOL    HW216728   3.450   6.122   1.571
 5277SOL     OW16729   1.722   3.411   1.814
 5277SOL    HW116730   1.627   3.426   1.785
 5277SOL    HW216731   1.763   3.340   1.756
 5278SOL     OW16732   4.091   3.606   3.293
 5278SOL    HW116733   4.091   3.570   3.386
 5278SOL    HW216734   4.068   3.704   3.295
 5279SOL     OW16735   1.362   6.523   3.166
 5279SOL    HW116736   1.355   6.516   3.067
 5279SOL    HW216737   1.454   6.554   3.191
 5280SOL     OW16738   3.546   0.524   3.982
 5280SOL    HW116739   3.556   0.542   4.080
 5280SOL    HW216740   3.617   0.461   3.952
 5281SOL     OW16741   6.720   2.725   3.704
 5281SOL    HW116742   6.632   2.689   3.675
 5281SOL    HW216743   6.771   2.654   3.752
 5282SOL     OW16744   5.362   2.550   1.233
 5282SOL    HW116745   5.391   2.458   1.258
 5282SOL    HW216746   5.418   2.584   1.158
 5283SOL     OW16747   5.151   5.148   5.216
 5283SOL    HW116748   5.214   5.074   5.241
 5283SOL    HW216749   5.057   5.114   5.218
 5284SOL     OW16750   5.180   3.008   4.417
 5284SOL    HW116751   5.094   2.991   4.465
 5284SOL    HW216752   5.228   3.084   4.461
 5285SOL     OW16753   4.311   6.106   2.565
 5285SOL    HW116754   4.255   6.165   2.507
 5285SOL    HW216755   4.373   6.161   2.620
 5286SOL     OW16756   1.928   4.758   2.337
 5286SOL    HW116757   1.967   4.672   2.372
 5286SOL    HW216758   1.979   4.787   2.256
 5287SOL     OW16759   0.737   0.583   2.654
 5287SOL    HW116760   0.718   0.494   2.612
 5287SOL    HW216761   0.707   0.581   2.750
 5288SOL     OW16762   3.574   0.608   0.987
 5288SOL    HW116763   3.552   0.704   1.006
 5288SOL    HW216764   3.668   0.588   1.015
 5289SOL     OW16765   1.783   6.772   1.819
 5289SOL    HW116766   1.798   6.816   1.731
 5289SOL    HW216767   1.847   6.809   1.886
 5290SOL     OW16768   5.947   6.672   6.534
 5290SOL    HW116769   5.949   6.663   6.634
 5290SOL    HW216770   5.893   6.598   6.495
 5291SOL     OW16771   1.465   5.395   6.805
 5291SOL    HW116772   1.555   5.433   6.828
 5291SOL    HW216773   1.406   5.467   6.769
 5292SOL     OW16774   5.726   1.602   1.464
 5292SOL    HW116775   5.646   1.585   1.521
 5292SOL    HW216776   5.791   1.527   1.476
 5293SOL     OW16777   1.739   1.482   4.067
 5293SOL    HW116778   1.789   1.408   4.022
 5293SOL    HW216779   1.738   1.563   4.008
 5294SOL     OW16780   3.640   2.109   6.548
 5294SOL    HW116781   3.712   2.135   6.485
 5294SOL    HW216782   3.557   2.163   6.528
 5295SOL     OW16783   0.057   1.444   3.263
 5295SOL    HW116784   0.138   1.456   3.321
 5295SOL    HW216785   7.003   1.480   3.310
 5296SOL     OW16786   0.208   3.012   6.508
 5296SOL    HW116787   0.163   2.924   6.492
 5296SOL    HW216788   0.287   3.020   6.448
 5297SOL     OW16789   0.663   2.022   1.711
 5297SOL    HW116790   0.717   2.061   1.786
 5297SOL    HW216791   0.678   2.074   1.628
 5298SOL     OW16792   0.967   4.229   1.985
 5298SOL    HW116793   1.041   4.163   1.998
 5298SOL    HW216794   0.887   4.198   2.037
 5299SOL     OW16795   3.972   0.278   0.003
 5299SOL    HW116796   3.970   0.282   6.929
 5299SOL    HW216797   4.067   0.287   0.035
 5300SOL     OW16798   6.616   4.995   4.601
 5300SOL    HW116799   6.547   5.020   4.533
 5300SOL    HW216800   6.647   5.076   4.649
 5301SOL     OW16801   5.329   0.279   6.606
 5301SOL    HW116802   5.388   0.205   6.575
 5301SOL    HW216803   5.369   0.367   6.579
 5302SOL     OW16804   6.988   3.892   2.976
 5302SOL    HW116805   0.003   3.801   2.973
 5302SOL    HW216806   6.892   3.887   2.948
 5303SOL     OW16807   2.214   4.481   2.752
 5303SOL    HW116808   2.291   4.542   2.730
 5303SOL    HW216809   2.142   4.534   2.798
 5304SOL     OW16810   4.830   1.823   5.620
 5304SOL    HW116811   4.733   1.806   5.639
 5304SOL    HW216812   4.850   1.920   5.634
 5305SOL     OW16813   4.119   1.641   4.517
 5305SOL    HW116814   4.041   1.586   4.488
 5305SOL    HW216815   4.108   1.665   4.614
 5306SOL     OW16816   2.486   6.769   2.926
 5306SOL    HW116817   2.386   6.769   2.930
 5306SOL    HW216818   2.519   6.863   2.919
 5307SOL     OW16819   5.063   6.251   6.935
 5307SOL    HW116820   4.967   6.270   6.914
 5307SOL    HW216821   5.084   6.157   6.911
 5308SOL     OW16822   6.959   1.429   1.492
 5308SOL    HW116823   7.000   1.399   1.406
 5308SOL    HW216824   6.973   1.359   1.562
 5309SOL     OW16825   3.582   3.677   5.713
 5309SOL    HW116826   3.619   3.584   5.708
 5309SOL    HW216827   3.552   3.696   5.806
 5310SOL     OW16828   5.124   2.735   0.311
 5310SOL    HW116829   5.054   2.804   0.327
 5310SOL    HW216830   5.086   2.644   0.330
 5311SOL     OW16831   6.850   5.722   0.236
 5311SOL    HW116832   6.889   5.700   0.147
 5311SOL    HW216833   6.764   5.771   0.224
 5312SOL     OW16834   0.601   4.080   1.674
 5312SOL    HW116835   0.699   4.101   1.679
 5312SOL    HW216836   0.585   3.987   1.705
 5313SOL     OW16837   0.332   6.017   6.676
 5313SOL    HW116838   0.346   5.947   6.606
 5313SOL    HW216839   0.238   6.051   6.671
 5314SOL     OW16840   3.777   4.808   0.662
 5314SOL    HW116841   3.688   4.850   0.679
 5314SOL    HW216842   3.766   4.711   0.642
 5315SOL     OW16843   5.578   1.193   2.498
 5315SOL    HW116844   5.524   1.253   2.439
 5315SOL    HW216845   5.517   1.127   2.543
 5316SOL     OW16846   5.221   5.015   4.652
 5316SOL    HW116847   5.219   5.112   4.627
 5316SOL    HW216848   5.150   4.997   4.720
 5317SOL     OW16849   0.099   4.731   1.723
 5317SOL    HW116850   0.044   4.788   1.784
 5317SOL    HW216851   0.154   4.789   1.663
 5318SOL     OW16852   6.520   2.532   3.705
 5318SOL    HW116853   6.549   2.455   3.761
 5318SOL    HW216854   6.427   2.558   3.730
 5319SOL     OW16855   2.901   6.326   2.865
 5319SOL    HW116856   2.848   6.410   2.870
 5319SOL    HW216857   2.991   6.345   2.826
 5320SOL     OW16858   6.387   1.971   0.027
 5320SOL    HW116859   6.323   1.917   0.081
 5320SOL    HW216860   6.447   1.909   7.001
 5321SOL     OW16861   2.707   4.634   0.075
 5321SOL    HW116862   2.653   4.703   0.123
 5321SOL    HW216863   2.710   4.550   0.130
 5322SOL     OW16864   2.955   6.512   0.303
 5322SOL    HW116865   3.018   6.564   0.245
 5322SOL    HW216866   2.977   6.528   0.399
 5323SOL     OW16867   6.496   3.248   0.629
 5323SOL    HW116868   6.540   3.179   0.687
 5323SOL    HW216869   6.415   3.283   0.676
 5324SOL     OW16870   4.165   3.406   2.395
 5324SOL    HW116871   4.185   3.344   2.319
 5324SOL    HW216872   4.235   3.394   2.466
 5325SOL     OW16873   3.122   6.932   5.673
 5325SOL    HW116874   3.167   6.997   5.735
 5325SOL    HW216875   3.103   6.847   5.722
 5326SOL     OW16876   5.876   0.968   3.753
 5326SOL    HW116877   5.943   0.934   3.688
 5326SOL    HW216878   5.884   0.918   3.839
 5327SOL     OW16879   6.146   6.813   4.119
 5327SOL    HW116880   6.188   6.723   4.134
 5327SOL    HW216881   6.218   6.881   4.105
 5328SOL     OW16882   2.498   4.561   6.375
 5328SOL    HW116883   2.406   4.589   6.405
 5328SOL    HW216884   2.514   4.597   6.283
 5329SOL     OW16885   0.122   6.687   6.251
 5329SOL    HW116886   0.024   6.672   6.258
 5329SOL    HW216887   0.163   6.684   6.342
 5330SOL     OW16888   4.436   4.350   0.761
 5330SOL    HW116889   4.484   4.263   0.752
 5330SOL    HW216890   4.371   4.359   0.685
 5331SOL     OW16891   5.890   1.478   0.005
 5331SOL    HW116892   5.988   1.476   0.024
 5331SOL    HW216893   5.852   1.386   0.017
 5332SOL     OW16894   6.821   3.344   0.147
 5332SOL    HW116895   6.725   3.335   0.120
 5332SOL    HW216896   6.875   3.380   0.071
 5333SOL     OW16897   0.224   6.580   4.168
 5333SOL    HW116898   0.206   6.491   4.127
 5333SOL    HW216899   0.323   6.593   4.178
 5334SOL     OW16900   3.256   5.614   1.076
 5334SOL    HW116901   3.278   5.635   1.171
 5334SOL    HW216902   3.236   5.516   1.068
 5335SOL     OW16903   0.093   5.670   1.919
 5335SOL    HW116904   0.160   5.694   1.849
 5335SOL    HW216905   0.138   5.664   2.008
 5336SOL     OW16906   1.083   3.251   5.398
 5336SOL    HW116907   1.040   3.296   5.476
 5336SOL    HW216908   1.152   3.313   5.359
 5337SOL     OW16909   6.373   1.954   1.032
 5337SOL    HW116910   6.343   2.049   1.041
 5337SOL    HW216911   6.304   1.893   1.070
 5338SOL     OW16912   0.238   3.213   1.739
 5338SOL    HW116913   0.140   3.229   1.745
 5338SOL    HW216914   0.266   3.147   1.809
 5339SOL     OW16915   4.916   3.748   3.043
 5339SOL    HW116916   5.012   3.740   3.071
 5339SOL    HW216917   4.878   3.832   3.083
 5340SOL     OW16918   5.466   3.696   1.471
 5340SOL    HW116919   5.502   3.763   1.536
 5340SOL    HW216920   5.436   3.742   1.388
 5341SOL     OW16921   4.853   5.214   3.429
 5341SOL    HW116922   4.842   5.270   3.346
 5341SOL    HW216923   4.848   5.273   3.509
 5342SOL     OW16924   5.977   5.058   4.902
 5342SOL    HW116925   6.014   4.979   4.854
 5342SOL    HW216926   5.895   5.031   4.953
 5343SOL     OW16927   3.457   3.583   0.060
 5343SOL    HW116928   3.393   3.586   7.009
 5343SOL    HW216929   3.534   3.523   0.037
 5344SOL     OW16930   5.905   1.905   6.911
 5344SOL    HW116931   5.831   1.873   6.970
 5344SOL    HW216932   5.937   1.995   6.943
 5345SOL     OW16933   3.705   1.127   6.810
 5345SOL    HW116934   3.623   1.070   6.813
 5345SOL    HW216935   3.678   1.224   6.810
 5346SOL     OW16936   2.228   6.052   3.129
 5346SOL    HW116937   2.140   6.068   3.172
 5346SOL    HW216938   2.249   5.955   3.129
 5347SOL     OW16939   6.014   2.316   5.209
 5347SOL    HW116940   5.981   2.409   5.225
 5347SOL    HW216941   5.946   2.250   5.241
 5348SOL     OW16942   4.878   2.525   5.349
 5348SOL    HW116943   4.842   2.592   5.414
 5348SOL    HW216944   4.802   2.485   5.297
 5349SOL     OW16945   0.772   4.008   0.264
 5349SOL    HW116946   0.718   3.973   0.341
 5349SOL    HW216947   0.711   4.034   0.190
 5350SOL     OW16948   1.372   0.359   6.818
 5350SOL    HW116949   1.302   0.288   6.805
 5350SOL    HW216950   1.432   0.360   6.739
 5351SOL     OW16951   0.665   5.538   3.900
 5351SOL    HW116952   0.662   5.638   3.890
 5351SOL    HW216953   0.756   5.506   3.872
 5352SOL     OW16954   0.563   2.842   5.872
 5352SOL    HW116955   0.648   2.891   5.889
 5352SOL    HW216956   0.545   2.839   5.773
 5353SOL     OW16957   2.240   6.680   3.024
 5353SOL    HW116958   2.269   6.586   3.007
 5353SOL    HW216959   2.268   6.708   3.116
 5354SOL     OW16960   3.553   6.104   1.860
 5354SOL    HW116961   3.472   6.129   1.914
 5354SOL    HW216962   3.536   6.124   1.763
 5355SOL     OW16963   5.183   4.335   5.383
 5355SOL    HW116964   5.159   4.387   5.465
 5355SOL    HW216965   5.104   4.282   5.352
 5356SOL     OW16966   6.977   0.172   1.817
 5356SOL    HW116967   6.997   0.160   1.720
 5356SOL    HW216968   6.880   0.195   1.828
 5357SOL     OW16969   6.275   3.614   2.477
 5357SOL    HW116970   6.266   3.709   2.505
 5357SOL    HW216971   6.195   3.562   2.507
 5358SOL     OW16972   5.712   0.072   6.578
 5358SOL    HW116973   5.778   0.008   6.539
 5358SOL    HW216974   5.737   0.092   6.673
 5359SOL     OW16975   3.466   2.176   6.923
 5359SOL    HW116976   3.454   2.266   6.881
 5359SOL    HW216977   3.480   2.188   7.022
 5360SOL     OW16978   5.143   5.806   3.401
 5360SOL    HW116979   5.202   5.726   3.413
 5360SOL    HW216980   5.157   5.870   3.478
 5361SOL     OW16981   1.399   3.889   2.810
 5361SOL    HW116982   1.381   3.965   2.873
 5361SOL    HW216983   1.439   3.813   2.860
 5362SOL     OW16984   5.704   1.712   3.975
 5362SOL    HW116985   5.801   1.694   3.989
 5362SOL    HW216986   5.650   1.663   4.044
 5363SOL     OW16987   6.496   5.001   6.043
 5363SOL    HW116988   6.439   5.024   6.122
 5363SOL    HW216989   6.589   4.982   6.073
 5364SOL     OW16990   4.940   2.569   1.604
 5364SOL    HW116991   4.979   2.497   1.547
 5364SOL    HW216992   4.860   2.607   1.558
 5365SOL     OW16993   3.586   3.254   6.285
 5365SOL    HW116994   3.567   3.349   6.260
 5365SOL    HW216995   3.685   3.237   6.279
 5366SOL     OW16996   0.293   4.416   3.998
 5366SOL    HW116997   0.333   4.454   4.082
 5366SOL    HW216998   0.353   4.345   3.962
 5367SOL     OW16999   6.392   6.174   1.161
 5367SOL    HW117000   6.439   6.260   1.143
 5367SOL    HW217001   6.293   6.188   1.157
 5368SOL     OW17002   0.357   5.801   5.372
 5368SOL    HW117003   0.314   5.873   5.426
 5368SOL    HW217004   0.293   5.725   5.363
 5369SOL     OW17005   3.542   0.173   2.635
 5369SOL    HW117006   3.600   0.092   2.640
 5369SOL    HW217007   3.451   0.148   2.603
 5370SOL     OW17008   2.355   1.807   0.377
 5370SOL    HW117009   2.451   1.817   0.352
 5370SOL    HW217010   2.343   1.725   0.432
 5371SOL     OW17011   6.215   5.152   3.401
 5371SOL    HW117012   6.251   5.063   3.373
 5371SOL    HW217013   6.177   5.145   3.493
 5372SOL     OW17014   0.163   0.483   4.193
 5372SOL    HW117015   0.092   0.521   4.253
 5372SOL    HW217016   0.239   0.547   4.188
 5373SOL     OW17017   4.043   0.019   0.528
 5373SOL    HW117018   3.954   7.021   0.489
 5373SOL    HW217019   4.071   0.109   0.494
 5374SOL     OW17020   1.571   3.818   1.310
 5374SOL    HW117021   1.477   3.851   1.318
 5374SOL    HW217022   1.632   3.876   1.365
 5375SOL     OW17023   2.754   5.337   4.707
 5375SOL    HW117024   2.709   5.368   4.791
 5375SOL    HW217025   2.684   5.313   4.639
 5376SOL     OW17026   0.354   6.921   2.444
 5376SOL    HW117027   0.257   6.927   2.421
 5376SOL    HW217028   0.408   6.967   2.373
 5377SOL     OW17029   1.080   2.526   1.825
 5377SOL    HW117030   1.051   2.511   1.920
 5377SOL    HW217031   1.162   2.471   1.806
 5378SOL     OW17032   4.733   7.015   3.648
 5378SOL    HW117033   4.665   7.011   3.575
 5378SOL    HW217034   4.693   6.980   3.733
 5379SOL     OW17035   3.026   2.203   4.318
 5379SOL    HW117036   3.021   2.260   4.400
 5379SOL    HW217037   3.122   2.191   4.292
 5380SOL     OW17038   4.721   0.015   1.660
 5380SOL    HW117039   4.737   6.982   1.580
 5380SOL    HW217040   4.774   0.099   1.651
 5381SOL     OW17041   2.859   1.945   2.648
 5381SOL    HW117042   2.893   1.970   2.738
 5381SOL    HW217043   2.880   2.018   2.583
 5382SOL     OW17044   4.671   0.446   2.946
 5382SOL    HW117045   4.649   0.369   2.886
 5382SOL    HW217046   4.715   0.518   2.893
 5383SOL     OW17047   2.528   4.151   5.367
 5383SOL    HW117048   2.493   4.088   5.299
 5383SOL    HW217049   2.626   4.135   5.380
 5384SOL     OW17050   5.247   6.235   5.541
 5384SOL    HW117051   5.284   6.196   5.457
 5384SOL    HW217052   5.271   6.332   5.547
 5385SOL     OW17053   3.365   3.912   0.747
 5385SOL    HW117054   3.424   3.842   0.788
 5385SOL    HW217055   3.341   3.884   0.653
 5386SOL     OW17056   4.540   4.862   3.284
 5386SOL    HW117057   4.526   4.810   3.200
 5386SOL    HW217058   4.452   4.895   3.318
 5387SOL     OW17059   0.792   2.493   5.428
 5387SOL    HW117060   0.833   2.578   5.459
 5387SOL    HW217061   0.724   2.461   5.494
 5388SOL     OW17062   6.546   6.996   3.321
 5388SOL    HW117063   6.484   0.045   3.344
 5388SOL    HW217064   6.507   6.910   3.354
 5389SOL     OW17065   6.237   1.552   4.719
 5389SOL    HW117066   6.235   1.519   4.625
 5389SOL    HW217067   6.331   1.571   4.746
 5390SOL     OW17068   5.603   2.993   3.018
 5390SOL    HW117069   5.682   3.050   2.995
 5390SOL    HW217070   5.613   2.903   2.975
 5391SOL     OW17071   4.754   3.276   1.071
 5391SOL    HW117072   4.752   3.209   1.145
 5391SOL    HW217073   4.840   3.268   1.021
 5392SOL     OW17074   5.321   0.860   4.088
 5392SOL    HW117075   5.347   0.829   4.179
 5392SOL    HW217076   5.381   0.934   4.059
 5393SOL     OW17077   4.925   3.144   2.564
 5393SOL    HW117078   4.951   3.194   2.646
 5393SOL    HW217079   4.973   3.056   2.563
 5394SOL     OW17080   0.575   3.101   3.197
 5394SOL    HW117081   0.546   3.094   3.102
 5394SOL    HW217082   0.578   3.197   3.224
 5395SOL     OW17083   0.236   0.830   1.583
 5395SOL    HW117084   0.143   0.837   1.549
 5395SOL    HW217085   0.252   0.901   1.653
 5396SOL     OW17086   4.010   2.140   0.542
 5396SOL    HW117087   3.943   2.213   0.538
 5396SOL    HW217088   3.990   2.072   0.471
 5397SOL     OW17089   0.574   6.600   3.073
 5397SOL    HW117090   0.649   6.559   3.023
 5397SOL    HW217091   0.610   6.657   3.147
 5398SOL     OW17092   5.452   2.442   3.089
 5398SOL    HW117093   5.402   2.357   3.074
 5398SOL    HW217094   5.439   2.503   3.010
 5399SOL     OW17095   2.625   2.612   0.389
 5399SOL    HW117096   2.548   2.661   0.348
 5399SOL    HW217097   2.651   2.536   0.330
 5400SOL     OW17098   5.106   2.821   0.702
 5400SOL    HW117099   5.169   2.818   0.623
 5400SOL    HW217100   5.064   2.911   0.707
 5401SOL     OW17101   5.156   4.276   1.001
 5401SOL    HW117102   5.121   4.334   1.075
 5401SOL    HW217103   5.248   4.245   1.025
 5402SOL     OW17104   2.221   5.615   1.705
 5402SOL    HW117105   2.270   5.533   1.675
 5402SOL    HW217106   2.248   5.693   1.649
 5403SOL     OW17107   6.077   2.658   5.409
 5403SOL    HW117108   6.059   2.592   5.482
 5403SOL    HW217109   6.142   2.727   5.443
 5404SOL     OW17110   4.903   6.381   0.318
 5404SOL    HW117111   4.859   6.463   0.281
 5404SOL    HW217112   4.847   6.344   0.392
 5405SOL     OW17113   6.430   5.321   6.018
 5405SOL    HW117114   6.404   5.232   5.982
 5405SOL    HW217115   6.482   5.310   6.103
 5406SOL     OW17116   1.641   1.069   5.380
 5406SOL    HW117117   1.710   1.106   5.442
 5406SOL    HW217118   1.575   1.140   5.356
 5407SOL     OW17119   1.799   1.438   2.571
 5407SOL    HW117120   1.775   1.535   2.562
 5407SOL    HW217121   1.800   1.413   2.668
 5408SOL     OW17122   2.137   2.469   4.670
 5408SOL    HW117123   2.065   2.418   4.717
 5408SOL    HW217124   2.114   2.566   4.668
 5409SOL     OW17125   6.880   4.515   3.490
 5409SOL    HW117126   6.913   4.426   3.522
 5409SOL    HW217127   6.796   4.502   3.438
 5410SOL     OW17128   5.942   1.556   0.315
 5410SOL    HW117129   6.012   1.503   0.267
 5410SOL    HW217130   5.852   1.518   0.295
 5411SOL     OW17131   3.299   6.236   1.969
 5411SOL    HW117132   3.294   6.224   2.068
 5411SOL    HW217133   3.321   6.332   1.948
 5412SOL     OW17134   2.195   1.820   5.870
 5412SOL    HW117135   2.208   1.876   5.953
 5412SOL    HW217136   2.145   1.737   5.893
 5413SOL     OW17137   0.025   5.291   5.656
 5413SOL    HW117138   6.977   5.244   5.608
 5413SOL    HW217139   7.016   5.377   5.695
 5414SOL     OW17140   6.092   5.993   5.804
 5414SOL    HW117141   6.177   5.952   5.835
 5414SOL    HW217142   6.078   5.973   5.707
 5415SOL     OW17143   1.686   0.920   0.459
 5415SOL    HW117144   1.645   1.011   0.462
 5415SOL    HW217145   1.664   0.872   0.544
 5416SOL     OW17146   4.137   4.927   6.066
 5416SOL    HW117147   4.110   4.886   6.153
 5416SOL    HW217148   4.190   5.010   6.084
 5417SOL     OW17149   5.386   0.568   1.219
 5417SOL    HW117150   5.329   0.508   1.275
 5417SOL    HW217151   5.418   0.518   1.138
 5418SOL     OW17152   0.249   2.710   5.282
 5418SOL    HW117153   0.305   2.792   5.292
 5418SOL    HW217154   0.154   2.736   5.265
 5419SOL     OW17155   3.574   2.203   6.093
 5419SOL    HW117156   3.626   2.262   6.032
 5419SOL    HW217157   3.528   2.258   6.163
 5420SOL     OW17158   1.882   1.706   0.986
 5420SOL    HW117159   1.943   1.721   0.909
 5420SOL    HW217160   1.787   1.715   0.955
 5421SOL     OW17161   3.980   5.741   1.017
 5421SOL    HW117162   3.931   5.687   0.948
 5421SOL    HW217163   3.919   5.756   1.095
 5422SOL     OW17164   2.477   6.511   3.063
 5422SOL    HW117165   2.516   6.592   3.020
 5422SOL    HW217166   2.541   6.475   3.131
 5423SOL     OW17167   4.265   6.722   2.633
 5423SOL    HW117168   4.277   6.622   2.636
 5423SOL    HW217169   4.317   6.764   2.707
 5424SOL     OW17170   3.931   3.315   5.650
 5424SOL    HW117171   4.010   3.371   5.676
 5424SOL    HW217172   3.946   3.276   5.559
 5425SOL     OW17173   2.105   5.397   4.996
 5425SOL    HW117174   2.079   5.490   4.972
 5425SOL    HW217175   2.165   5.399   5.076
 5426SOL     OW17176   1.770   3.987   6.810
 5426SOL    HW117177   1.815   4.061   6.860
 5426SOL    HW217178   1.720   4.025   6.732
 5427SOL     OW17179   4.811   1.840   0.614
 5427SOL    HW117180   4.775   1.902   0.683
 5427SOL    HW217181   4.743   1.769   0.594
 5428SOL     OW17182   4.504   5.909   2.883
 5428SOL    HW117183   4.545   5.823   2.913
 5428SOL    HW217184   4.526   5.925   2.787
 5429SOL     OW17185   2.695   6.335   3.728
 5429SOL    HW117186   2.750   6.415   3.705
 5429SOL    HW217187   2.735   6.254   3.685
 5430SOL     OW17188   0.854   4.032   5.321
 5430SOL    HW117189   0.931   3.985   5.279
 5430SOL    HW217190   0.870   4.131   5.320
 5431SOL     OW17191   5.695   4.416   0.752
 5431SOL    HW117192   5.619   4.456   0.702
 5431SOL    HW217193   5.714   4.324   0.717
 5432SOL     OW17194   1.961   5.471   5.791
 5432SOL    HW117195   1.917   5.403   5.733
 5432SOL    HW217196   1.948   5.446   5.887
 5433SOL     OW17197   2.094   6.799   1.051
 5433SOL    HW117198   2.074   6.727   1.116
 5433SOL    HW217199   2.192   6.799   1.030
 5434SOL     OW17200   5.323   5.975   4.560
 5434SOL    HW117201   5.338   5.887   4.516
 5434SOL    HW217202   5.402   5.999   4.616
 5435SOL     OW17203   0.350   3.140   0.216
 5435SOL    HW117204   0.281   3.119   0.148
 5435SOL    HW217205   0.351   3.068   0.286
 5436SOL     OW17206   1.124   4.405   0.937
 5436SOL    HW117207   1.066   4.453   0.872
 5436SOL    HW217208   1.141   4.312   0.904
 5437SOL     OW17209   3.014   6.393   6.240
 5437SOL    HW117210   3.113   6.387   6.234
 5437SOL    HW217211   2.973   6.306   6.215
 5438SOL     OW17212   5.089   6.368   2.736
 5438SOL    HW117213   5.155   6.384   2.810
 5438SOL    HW217214   5.030   6.448   2.727
 5439SOL     OW17215   1.103   3.759   2.130
 5439SOL    HW117216   1.132   3.803   2.214
 5439SOL    HW217217   1.018   3.707   2.147
 5440SOL     OW17218   5.600   6.209   3.158
 5440SOL    HW117219   5.632   6.253   3.074
 5440SOL    HW217220   5.614   6.272   3.235
 5441SOL     OW17221   5.349   0.179   5.061
 5441SOL    HW117222   5.339   0.127   4.976
 5441SOL    HW217223   5.326   0.120   5.139
 5442SOL     OW17224   2.571   6.709   0.140
 5442SOL    HW117225   2.558   6.708   0.041
 5442SOL    HW217226   2.615   6.624   0.169
 5443SOL     OW17227   6.030   1.275   3.396
 5443SOL    HW117228   5.953   1.218   3.369
 5443SOL    HW217229   6.061   1.328   3.317
 5444SOL     OW17230   1.449   1.624   6.391
 5444SOL    HW117231   1.501   1.700   6.352
 5444SOL    HW217232   1.473   1.539   6.344
 5445SOL     OW17233   5.986   6.198   4.898
 5445SOL    HW117234   6.037   6.280   4.871
 5445SOL    HW217235   5.995   6.127   4.828
 5446SOL     OW17236   2.318   3.981   0.333
 5446SOL    HW117237   2.283   3.979   0.427
 5446SOL    HW217238   2.267   3.916   0.277
 5447SOL     OW17239   5.551   2.453   1.865
 5447SOL    HW117240   5.500   2.488   1.786
 5447SOL    HW217241   5.637   2.412   1.834
 5448SOL     OW17242   5.806   5.251   1.569
 5448SOL    HW117243   5.843   5.343   1.583
 5448SOL    HW217244   5.748   5.250   1.488
 5449SOL     OW17245   1.953   0.194   2.508
 5449SOL    HW117246   1.941   0.095   2.519
 5449SOL    HW217247   1.864   0.238   2.502
 5450SOL     OW17248   4.332   4.858   1.646
 5450SOL    HW117249   4.411   4.809   1.682
 5450SOL    HW217250   4.256   4.795   1.633
 5451SOL     OW17251   0.817   5.617   3.567
 5451SOL    HW117252   0.887   5.618   3.495
 5451SOL    HW217253   0.733   5.659   3.532
 5452SOL     OW17254   2.164   3.791   3.373
 5452SOL    HW117255   2.162   3.813   3.275
 5452SOL    HW217256   2.208   3.865   3.423
 5453SOL     OW17257   5.975   5.790   4.097
 5453SOL    HW117258   5.895   5.849   4.101
 5453SOL    HW217259   6.019   5.798   4.008
 5454SOL     OW17260   6.383   3.828   1.858
 5454SOL    HW117261   6.440   3.787   1.929
 5454SOL    HW217262   6.340   3.756   1.804
 5455SOL     OW17263   2.311   2.878   2.885
 5455SOL    HW117264   2.377   2.851   2.816
 5455SOL    HW217265   2.298   2.804   2.950
 5456SOL     OW17266   5.328   2.720   0.130
 5456SOL    HW117267   5.244   2.738   0.181
 5456SOL    HW217268   5.377   2.643   0.172
 5457SOL     OW17269   5.666   1.199   0.542
 5457SOL    HW117270   5.647   1.242   0.630
 5457SOL    HW217271   5.763   1.205   0.522
 5458SOL     OW17272   6.403   4.544   6.110
 5458SOL    HW117273   6.369   4.462   6.063
 5458SOL    HW217274   6.350   4.560   6.193
 5459SOL     OW17275   2.346   3.783   5.788
 5459SOL    HW117276   2.380   3.869   5.749
 5459SOL    HW217277   2.370   3.779   5.885
 5460SOL     OW17278   6.953   1.085   1.285
 5460SOL    HW117279   0.004   1.032   1.251
 5460SOL    HW217280   6.978   1.182   1.285
 5461SOL     OW17281   5.973   0.340   6.501
 5461SOL    HW117282   5.992   0.438   6.498
 5461SOL    HW217283   5.877   0.325   6.524
 5462SOL     OW17284   5.325   4.931   6.901
 5462SOL    HW117285   5.340   4.945   6.803
 5462SOL    HW217286   5.327   5.020   6.947
 5463SOL     OW17287   2.487   4.751   0.219
 5463SOL    HW117288   2.417   4.682   0.238
 5463SOL    HW217289   2.449   4.842   0.234
 5464SOL     OW17290   2.236   5.754   4.072
 5464SOL    HW117291   2.258   5.842   4.030
 5464SOL    HW217292   2.149   5.761   4.120
 5465SOL     OW17293   0.973   1.221   4.936
 5465SOL    HW117294   1.005   1.168   5.015
 5465SOL    HW217295   0.906   1.169   4.884
 5466SOL     OW17296   5.252   2.372   4.901
 5466SOL    HW117297   5.166   2.418   4.879
 5466SOL    HW217298   5.329   2.429   4.870
 5467SOL     OW17299   5.353   4.127   3.806
 5467SOL    HW117300   5.272   4.167   3.848
 5467SOL    HW217301   5.389   4.054   3.865
 5468SOL     OW17302   0.543   2.681   1.287
 5468SOL    HW117303   0.582   2.737   1.360
 5468SOL    HW217304   0.520   2.739   1.209
 5469SOL     OW17305   4.621   1.162   3.212
 5469SOL    HW117306   4.669   1.248   3.226
 5469SOL    HW217307   4.551   1.173   3.141
 5470SOL     OW17308   2.851   4.748   4.055
 5470SOL    HW117309   2.895   4.687   3.988
 5470SOL    HW217310   2.756   4.762   4.029
 5471SOL     OW17311   5.166   0.562   4.264
 5471SOL    HW117312   5.114   0.486   4.302
 5471SOL    HW217313   5.260   0.559   4.298
 5472SOL     OW17314   2.850   3.951   6.818
 5472SOL    HW117315   2.909   3.889   6.766
 5472SOL    HW217316   2.885   4.044   6.810
 5473SOL     OW17317   2.902   4.832   2.040
 5473SOL    HW117318   2.859   4.743   2.024
 5473SOL    HW217319   2.950   4.831   2.128
 5474SOL     OW17320   0.940   5.129   1.968
 5474SOL    HW117321   0.847   5.158   1.942
 5474SOL    HW217322   0.993   5.208   1.996
 5475SOL     OW17323   1.005   0.888   5.463
 5475SOL    HW117324   0.995   0.958   5.533
 5475SOL    HW217325   0.919   0.836   5.455
 5476SOL     OW17326   2.874   0.970   4.704
 5476SOL    HW117327   2.909   1.029   4.776
 5476SOL    HW217328   2.948   0.949   4.639
 5477SOL     OW17329   2.158   4.047   3.511
 5477SOL    HW117330   2.201   4.077   3.425
 5477SOL    HW217331   2.059   4.058   3.505
 5478SOL     OW17332   6.547   3.625   5.802
 5478SOL    HW117333   6.625   3.656   5.748
 5478SOL    HW217334   6.510   3.541   5.762
 5479SOL     OW17335   5.438   3.950   4.417
 5479SOL    HW117336   5.463   4.014   4.490
 5479SOL    HW217337   5.346   3.915   4.433
 5480SOL     OW17338   1.367   2.799   5.916
 5480SOL    HW117339   1.414   2.882   5.949
 5480SOL    HW217340   1.435   2.726   5.903
 5481SOL     OW17341   4.319   1.453   0.437
 5481SOL    HW117342   4.385   1.390   0.479
 5481SOL    HW217343   4.226   1.422   0.456
 5482SOL     OW17344   5.408   4.673   2.262
 5482SOL    HW117345   5.329   4.728   2.288
 5482SOL    HW217346   5.391   4.629   2.174
 5483SOL     OW17347   5.647   1.533   0.524
 5483SOL    HW117348   5.644   1.512   0.427
 5483SOL    HW217349   5.732   1.579   0.547
 5484SOL     OW17350   5.723   0.462   6.175
 5484SOL    HW117351   5.693   0.384   6.230
 5484SOL    HW217352   5.802   0.436   6.120
 5485SOL     OW17353   2.751   0.772   4.336
 5485SOL    HW117354   2.718   0.864   4.315
 5485SOL    HW217355   2.851   0.769   4.325
 5486SOL     OW17356   0.004   0.508   3.970
 5486SOL    HW117357   0.064   0.467   4.039
 5486SOL    HW217358   7.004   0.439   3.903
 5487SOL     OW17359   4.183   5.210   1.218
 5487SOL    HW117360   4.139   5.209   1.308
 5487SOL    HW217361   4.242   5.291   1.210
 5488SOL     OW17362   4.930   0.792   6.324
 5488SOL    HW117363   4.915   0.888   6.301
 5488SOL    HW217364   4.974   0.746   6.247
 5489SOL     OW17365   6.564   3.994   2.467
 5489SOL    HW117366   6.576   4.087   2.433
 5489SOL    HW217367   6.467   3.974   2.475
 5490SOL     OW17368   2.763   0.874   6.729
 5490SOL    HW117369   2.678   0.824   6.747
 5490SOL    HW217370   2.743   0.972   6.719
 5491SOL     OW17371   6.301   6.523   1.386
 5491SOL    HW117372   6.326   6.440   1.435
 5491SOL    HW217373   6.313   6.602   1.446
 5492SOL     OW17374   1.238   1.645   5.020
 5492SOL    HW117375   1.185   1.574   4.973
 5492SOL    HW217376   1.333   1.614   5.027
 5493SOL     OW17377   4.301   1.428   7.000
 5493SOL    HW117378   4.351   1.470   0.050
 5493SOL    HW217379   4.229   1.369   0.011
 5494SOL     OW17380   5.241   3.364   2.493
 5494SOL    HW117381   5.266   3.321   2.407
 5494SOL    HW217382   5.161   3.422   2.480
 5495SOL     OW17383   3.207   3.004   4.473
 5495SOL    HW117384   3.130   2.979   4.532
 5495SOL    HW217385   3.172   3.049   4.390
 5496SOL     OW17386   4.459   4.948   2.194
 5496SOL    HW117387   4.410   4.881   2.139
 5496SOL    HW217388   4.455   4.922   2.291
 5497SOL     OW17389   4.993   0.007   6.984
 5497SOL    HW117390   5.092   0.005   6.988
 5497SOL    HW217391   4.957   0.039   0.046
 5498SOL     OW17392   4.137   1.172   4.146
 5498SOL    HW117393   4.081   1.097   4.111
 5498SOL    HW217394   4.134   1.249   4.082
 5499SOL     OW17395   0.306   0.560   4.983
 5499SOL    HW117396   0.385   0.530   4.929
 5499SOL    HW217397   0.329   0.559   5.080
 5500SOL     OW17398   1.997   6.217   0.860
 5500SOL    HW117399   1.902   6.187   0.852
 5500SOL    HW217400   2.057   6.150   0.816
 5501SOL     OW17401   2.343   0.901   1.916
 5501SOL    HW117402   2.371   0.933   1.826
 5501SOL    HW217403   2.403   0.941   1.986
 5502SOL     OW17404   4.871   4.527   0.391
 5502SOL    HW117405   4.921   4.568   0.467
 5502SOL    HW217406   4.797   4.588   0.363
 5503SOL     OW17407   6.661   0.281   4.056
 5503SOL    HW117408   6.709   0.365   4.081
 5503SOL    HW217409   6.577   0.304   4.008
 5504SOL     OW17410   2.615   2.455   4.763
 5504SOL    HW117411   2.616   2.448   4.664
 5504SOL    HW217412   2.602   2.550   4.790
 5505SOL     OW17413   3.316   4.941   0.486
 5505SOL    HW117414   3.278   5.033   0.490
 5505SOL    HW217415   3.256   4.882   0.432
 5506SOL     OW17416   1.123   6.536   5.266
 5506SOL    HW117417   1.094   6.616   5.319
 5506SOL    HW217418   1.080   6.539   5.175
 5507SOL     OW17419   2.688   5.464   4.958
 5507SOL    HW117420   2.637   5.379   4.945
 5507SOL    HW217421   2.644   5.538   4.907
 5508SOL     OW17422   2.046   1.061   5.171
 5508SOL    HW117423   2.005   1.007   5.244
 5508SOL    HW217424   2.140   1.086   5.196
 5509SOL     OW17425   0.062   0.179   5.904
 5509SOL    HW117426   7.005   0.234   5.913
 5509SOL    HW217427   0.140   0.238   5.883
 5510SOL     OW17428   0.725   0.029   5.269
 5510SOL    HW117429   0.722   0.129   5.269
 5510SOL    HW217430   0.634   7.018   5.250
 5511SOL     OW17431   0.366   2.475   1.292
 5511SOL    HW117432   0.308   2.490   1.372
 5511SOL    HW217433   0.446   2.534   1.297
 5512SOL     OW17434   6.402   0.197   0.442
 5512SOL    HW117435   6.439   0.110   0.475
 5512SOL    HW217436   6.446   0.221   0.356
 5513SOL     OW17437   2.949   5.855   4.140
 5513SOL    HW117438   2.923   5.865   4.044
 5513SOL    HW217439   2.988   5.764   4.155
 5514SOL     OW17440   5.701   6.035   3.365
 5514SOL    HW117441   5.653   6.099   3.305
 5514SOL    HW217442   5.799   6.052   3.359
 5515SOL     OW17443   0.560   3.612   3.382
 5515SOL    HW117444   0.641   3.646   3.335
 5515SOL    HW217445   0.581   3.600   3.479
 5516SOL     OW17446   1.791   2.813   0.029
 5516SOL    HW117447   1.878   2.837   7.014
 5516SOL    HW217448   1.783   2.857   0.119
 5517SOL     OW17449   3.091   1.018   2.132
 5517SOL    HW117450   3.008   0.962   2.139
 5517SOL    HW217451   3.112   1.058   2.221
 5518SOL     OW17452   5.641   3.572   5.953
 5518SOL    HW117453   5.638   3.512   6.033
 5518SOL    HW217454   5.608   3.663   5.978
 5519SOL     OW17455   5.485   5.032   2.445
 5519SOL    HW117456   5.564   5.052   2.389
 5519SOL    HW217457   5.513   4.979   2.525
 5520SOL     OW17458   1.510   3.182   0.670
 5520SOL    HW117459   1.444   3.132   0.615
 5520SOL    HW217460   1.489   3.171   0.767
 5521SOL     OW17461   5.458   4.368   6.143
 5521SOL    HW117462   5.460   4.397   6.047
 5521SOL    HW217463   5.549   4.379   6.183
 5522SOL     OW17464   1.372   2.625   1.413
 5522SOL    HW117465   1.438   2.625   1.338
 5522SOL    HW217466   1.384   2.708   1.468
 5523SOL     OW17467   3.046   6.163   1.445
 5523SOL    HW117468   3.037   6.099   1.369
 5523SOL    HW217469   3.092   6.246   1.412
 5524SOL     OW17470   6.246   6.701   5.719
 5524SOL    HW117471   6.271   6.740   5.630
 5524SOL    HW217472   6.155   6.734   5.745
 5525SOL     OW17473   6.475   6.513   3.333
 5525SOL    HW117474   6.548   6.533   3.399
 5525SOL    HW217475   6.496   6.428   3.284
 5526SOL     OW17476   5.596   3.061   4.687
 5526SOL    HW117477   5.633   2.978   4.646
 5526SOL    HW217478   5.662   3.098   4.753
 5527SOL     OW17479   2.645   3.495   6.897
 5527SOL    HW117480   2.673   3.560   6.825
 5527SOL    HW217481   2.555   3.521   6.931
 5528SOL     OW17482   6.616   3.064   2.554
 5528SOL    HW117483   6.556   2.999   2.506
 5528SOL    HW217484   6.684   3.100   2.491
 5529SOL     OW17485   1.388   0.711   3.960
 5529SOL    HW117486   1.364   0.687   4.054
 5529SOL    HW217487   1.357   0.804   3.941
 5530SOL     OW17488   6.859   3.025   6.785
 5530SOL    HW117489   6.839   2.952   6.850
 5530SOL    HW217490   6.847   3.114   6.830
 5531SOL     OW17491   2.896   3.252   0.316
 5531SOL    HW117492   2.858   3.271   0.225
 5531SOL    HW217493   2.995   3.263   0.313
 5532SOL     OW17494   2.801   2.641   1.453
 5532SOL    HW117495   2.765   2.566   1.397
 5532SOL    HW217496   2.797   2.615   1.549
 5533SOL     OW17497   3.316   0.549   0.988
 5533SOL    HW117498   3.294   0.454   0.968
 5533SOL    HW217499   3.412   0.556   1.018
 5534SOL     OW17500   0.761   3.375   5.183
 5534SOL    HW117501   0.728   3.291   5.224
 5534SOL    HW217502   0.848   3.358   5.137
 5535SOL     OW17503   4.847   4.440   3.884
 5535SOL    HW117504   4.878   4.507   3.951
 5535SOL    HW217505   4.831   4.352   3.929
 5536SOL     OW17506   2.325   1.050   4.301
 5536SOL    HW117507   2.230   1.021   4.307
 5536SOL    HW217508   2.332   1.128   4.238
 5537SOL     OW17509   3.606   0.944   3.599
 5537SOL    HW117510   3.528   0.993   3.637
 5537SOL    HW217511   3.682   1.007   3.585
 5538SOL     OW17512   5.048   2.325   2.124
 5538SOL    HW117513   4.951   2.337   2.143
 5538SOL    HW217514   5.101   2.359   2.201
 5539SOL     OW17515   1.455   0.482   6.356
 5539SOL    HW117516   1.524   0.551   6.378
 5539SOL    HW217517   1.467   0.453   6.261
 5540SOL     OW17518   5.365   0.041   5.287
 5540SOL    HW117519   5.317   0.024   5.373
 5540SOL    HW217520   5.451   7.016   5.286
 5541SOL     OW17521   4.292   2.767   5.773
 5541SOL    HW117522   4.376   2.720   5.745
 5541SOL    HW217523   4.235   2.784   5.692
 5542SOL     OW17524   4.990   4.237   6.245
 5542SOL    HW117525   4.964   4.274   6.334
 5542SOL    HW217526   5.089   4.245   6.233
 5543SOL     OW17527   0.560   0.216   6.325
 5543SOL    HW117528   0.500   0.136   6.328
 5543SOL    HW217529   0.554   0.265   6.412
 5544SOL     OW17530   3.384   5.198   0.078
 5544SOL    HW117531   3.459   5.184   0.143
 5544SOL    HW217532   3.297   5.200   0.127
 5545SOL     OW17533   5.483   1.824   2.746
 5545SOL    HW117534   5.538   1.756   2.697
 5545SOL    HW217535   5.527   1.846   2.833
 5546SOL     OW17536   0.496   5.815   4.510
 5546SOL    HW117537   0.464   5.723   4.534
 5546SOL    HW217538   0.525   5.816   4.414
 5547SOL     OW17539   5.222   1.384   4.770
 5547SOL    HW117540   5.129   1.416   4.786
 5547SOL    HW217541   5.284   1.425   4.837
 5548SOL     OW17542   0.917   3.612   5.165
 5548SOL    HW117543   0.866   3.688   5.126
 5548SOL    HW217544   0.855   3.553   5.218
 5549SOL     OW17545   3.693   2.892   0.877
 5549SOL    HW117546   3.748   2.832   0.819
 5549SOL    HW217547   3.720   2.880   0.973
 5550SOL     OW17548   2.579   3.762   1.684
 5550SOL    HW117549   2.517   3.835   1.715
 5550SOL    HW217550   2.673   3.796   1.685
 5551SOL     OW17551   1.526   4.994   2.202
 5551SOL    HW117552   1.570   5.055   2.137
 5551SOL    HW217553   1.543   4.899   2.175
 5552SOL     OW17554   0.893   0.776   0.227
 5552SOL    HW117555   0.963   0.785   0.157
 5552SOL    HW217556   0.856   0.683   0.226
 5553SOL     OW17557   5.483   6.480   0.483
 5553SOL    HW117558   5.521   6.414   0.419
 5553SOL    HW217559   5.547   6.556   0.495
 5554SOL     OW17560   6.672   2.428   1.640
 5554SOL    HW117561   6.616   2.353   1.673
 5554SOL    HW217562   6.615   2.508   1.624
 5555SOL     OW17563   1.642   5.040   2.466
 5555SOL    HW117564   1.740   5.019   2.477
 5555SOL    HW217565   1.607   4.991   2.386
 5556SOL     OW17566   0.001   1.518   4.753
 5556SOL    HW117567   6.985   1.439   4.709
 5556SOL    HW217568   0.081   1.489   4.805
 5557SOL     OW17569   3.504   6.980   2.872
 5557SOL    HW117570   3.447   6.900   2.892
 5557SOL    HW217571   3.523   0.003   2.957
 5558SOL     OW17572   4.218   3.411   6.311
 5558SOL    HW117573   4.290   3.474   6.340
 5558SOL    HW217574   4.153   3.399   6.387
 5559SOL     OW17575   3.476   0.472   3.280
 5559SOL    HW117576   3.513   0.436   3.366
 5559SOL    HW217577   3.540   0.453   3.205
 5560SOL     OW17578   0.025   5.861   3.420
 5560SOL    HW117579   0.042   5.934   3.487
 5560SOL    HW217580   0.023   5.773   3.467
 5561SOL     OW17581   3.326   0.615   3.449
 5561SOL    HW117582   3.367   0.564   3.374
 5561SOL    HW217583   3.398   0.649   3.510
 5562SOL     OW17584   4.458   3.189   0.605
 5562SOL    HW117585   4.541   3.239   0.578
 5562SOL    HW217586   4.473   3.145   0.694
 5563SOL     OW17587   2.355   4.412   2.157
 5563SOL    HW117588   2.284   4.478   2.133
 5563SOL    HW217589   2.327   4.360   2.238
 5564SOL     OW17590   4.647   0.009   6.041
 5564SOL    HW117591   4.600   6.960   6.087
 5564SOL    HW217592   4.607   0.096   6.069
 5565SOL     OW17593   3.578   1.348   6.221
 5565SOL    HW117594   3.644   1.332   6.294
 5565SOL    HW217595   3.561   1.262   6.172
 5566SOL     OW17596   1.851   5.295   5.609
 5566SOL    HW117597   1.870   5.322   5.514
 5566SOL    HW217598   1.754   5.277   5.620
 5567SOL     OW17599   0.783   5.129   6.882
 5567SOL    HW117600   0.839   5.058   6.840
 5567SOL    HW217601   0.690   5.123   6.848
 5568SOL     OW17602   5.041   5.531   1.989
 5568SOL    HW117603   5.095   5.448   2.002
 5568SOL    HW217604   5.097   5.611   2.008
 5569SOL     OW17605   2.208   1.920   2.505
 5569SOL    HW117606   2.118   1.938   2.543
 5569SOL    HW217607   2.233   1.994   2.442
 5570SOL     OW17608   6.609   3.787   1.456
 5570SOL    HW117609   6.561   3.850   1.517
 5570SOL    HW217610   6.578   3.801   1.362
 5571SOL     OW17611   6.781   4.625   0.354
 5571SOL    HW117612   6.759   4.714   0.313
 5571SOL    HW217613   6.865   4.633   0.408
 5572SOL     OW17614   1.267   4.480   5.033
 5572SOL    HW117615   1.222   4.546   5.093
 5572SOL    HW217616   1.293   4.399   5.086
 5573SOL     OW17617   3.510   4.943   3.606
 5573SOL    HW117618   3.506   4.908   3.699
 5573SOL    HW217619   3.591   4.907   3.560
 5574SOL     OW17620   1.149   1.348   6.229
 5574SOL    HW117621   1.079   1.277   6.229
 5574SOL    HW217622   1.218   1.327   6.160
 5575SOL     OW17623   0.115   0.617   1.875
 5575SOL    HW117624   0.187   0.652   1.815
 5575SOL    HW217625   0.127   0.519   1.888
 5576SOL     OW17626   1.666   4.800   3.793
 5576SOL    HW117627   1.583   4.805   3.849
 5576SOL    HW217628   1.646   4.750   3.709
 5577SOL     OW17629   2.797   2.424   6.150
 5577SOL    HW117630   2.707   2.390   6.125
 5577SOL    HW217631   2.863   2.396   6.079
 5578SOL     OW17632   3.728   3.938   4.031
 5578SOL    HW117633   3.820   3.906   4.007
 5578SOL    HW217634   3.696   4.001   3.961
 5579SOL     OW17635   6.189   3.168   1.767
 5579SOL    HW117636   6.286   3.172   1.743
 5579SOL    HW217637   6.143   3.100   1.710
 5580SOL     OW17638   5.360   2.071   5.630
 5580SOL    HW117639   5.450   2.088   5.590
 5580SOL    HW217640   5.365   2.081   5.730
 5581SOL     OW17641   1.570   1.127   6.506
 5581SOL    HW117642   1.562   1.222   6.536
 5581SOL    HW217643   1.600   1.124   6.411
 5582SOL     OW17644   3.072   2.338   6.042
 5582SOL    HW117645   3.151   2.292   6.002
 5582SOL    HW217646   3.064   2.430   6.005
 5583SOL     OW17647   6.231   6.605   0.666
 5583SOL    HW117648   6.328   6.584   0.682
 5583SOL    HW217649   6.179   6.520   0.660
 5584SOL     OW17650   1.482   2.962   4.874
 5584SOL    HW117651   1.543   3.037   4.847
 5584SOL    HW217652   1.463   2.968   4.971
 5585SOL     OW17653   5.752   4.675   1.383
 5585SOL    HW117654   5.742   4.774   1.395
 5585SOL    HW217655   5.838   4.656   1.337
 5586SOL     OW17656   0.874   5.404   1.317
 5586SOL    HW117657   0.905   5.317   1.358
 5586SOL    HW217658   0.893   5.479   1.381
 5587SOL     OW17659   6.093   0.619   5.607
 5587SOL    HW117660   6.134   0.704   5.640
 5587SOL    HW217661   6.016   0.594   5.665
 5588SOL     OW17662   3.420   6.891   0.670
 5588SOL    HW117663   3.428   6.940   0.757
 5588SOL    HW217664   3.370   6.947   0.604
 5589SOL     OW17665   6.842   4.414   5.930
 5589SOL    HW117666   6.750   4.391   5.898
 5589SOL    HW217667   6.908   4.349   5.891
 5590SOL     OW17668   5.694   5.316   3.329
 5590SOL    HW117669   5.638   5.396   3.309
 5590SOL    HW217670   5.687   5.251   3.253
 5591SOL     OW17671   5.172   1.334   2.428
 5591SOL    HW117672   5.096   1.323   2.363
 5591SOL    HW217673   5.149   1.287   2.514
 5592SOL     OW17674   0.372   5.539   4.077
 5592SOL    HW117675   0.410   5.564   3.988
 5592SOL    HW217676   0.272   5.543   4.074
 5593SOL     OW17677   1.202   4.033   0.514
 5593SOL    HW117678   1.154   3.946   0.501
 5593SOL    HW217679   1.249   4.031   0.602
 5594SOL     OW17680   6.266   1.496   5.921
 5594SOL    HW117681   6.208   1.425   5.880
 5594SOL    HW217682   6.324   1.456   5.992
 5595SOL     OW17683   0.505   2.112   0.805
 5595SOL    HW117684   0.485   2.105   0.708
 5595SOL    HW217685   0.451   2.044   0.856
 5596SOL     OW17686   3.728   6.083   3.131
 5596SOL    HW117687   3.805   6.023   3.108
 5596SOL    HW217688   3.760   6.159   3.187
 5597SOL     OW17689   5.085   3.115   1.964
 5597SOL    HW117690   5.037   3.185   2.017
 5597SOL    HW217691   5.135   3.054   2.025
 5598SOL     OW17692   3.734   0.718   4.199
 5598SOL    HW117693   3.718   0.731   4.101
 5598SOL    HW217694   3.831   0.728   4.219
 5599SOL     OW17695   0.798   1.442   3.471
 5599SOL    HW117696   0.844   1.524   3.505
 5599SOL    HW217697   0.797   1.372   3.542
 5600SOL     OW17698   2.522   2.824   5.342
 5600SOL    HW117699   2.498   2.916   5.314
 5600SOL    HW217700   2.606   2.827   5.396
 5601SOL     OW17701   2.127   0.805   6.514
 5601SOL    HW117702   2.154   0.869   6.442
 5601SOL    HW217703   2.060   0.849   6.574
 5602SOL     OW17704   2.317   0.801   0.081
 5602SOL    HW117705   2.227   0.784   0.121
 5602SOL    HW217706   2.315   0.778   7.010
 5603SOL     OW17707   6.251   4.046   5.233
 5603SOL    HW117708   6.176   4.081   5.178
 5603SOL    HW217709   6.301   4.122   5.274
 5604SOL     OW17710   5.230   0.862   6.277
 5604SOL    HW117711   5.276   0.951   6.273
 5604SOL    HW217712   5.219   0.827   6.184
 5605SOL     OW17713   0.469   1.644   6.636
 5605SOL    HW117714   0.495   1.634   6.540
 5605SOL    HW217715   0.439   1.555   6.671
 5606SOL     OW17716   5.946   0.637   3.031
 5606SOL    HW117717   6.013   0.601   2.967
 5606SOL    HW217718   5.938   0.574   3.109
 5607SOL     OW17719   5.059   0.673   1.154
 5607SOL    HW117720   4.971   0.694   1.196
 5607SOL    HW217721   5.072   0.574   1.153
 5608SOL     OW17722   3.728   6.717   4.934
 5608SOL    HW117723   3.633   6.692   4.956
 5608SOL    HW217724   3.782   6.635   4.920
 5609SOL     OW17725   1.192   6.045   5.455
 5609SOL    HW117726   1.291   6.042   5.443
 5609SOL    HW217727   1.171   6.074   5.549
 5610SOL     OW17728   4.447   0.193   6.521
 5610SOL    HW117729   4.434   0.228   6.614
 5610SOL    HW217730   4.361   0.156   6.487
 5611SOL     OW17731   1.764   4.042   4.642
 5611SOL    HW117732   1.835   4.048   4.712
 5611SOL    HW217733   1.757   3.947   4.611
 5612SOL     OW17734   3.486   6.147   4.402
 5612SOL    HW117735   3.574   6.183   4.372
 5612SOL    HW217736   3.416   6.170   4.334
 5613SOL     OW17737   3.075   5.280   1.995
 5613SOL    HW117738   3.147   5.263   2.062
 5613SOL    HW217739   3.065   5.201   1.934
 5614SOL     OW17740   5.205   2.097   4.306
 5614SOL    HW117741   5.289   2.044   4.292
 5614SOL    HW217742   5.219   2.163   4.380
 5615SOL     OW17743   0.859   1.689   1.984
 5615SOL    HW117744   0.880   1.624   2.057
 5615SOL    HW217745   0.760   1.701   1.978
 5616SOL     OW17746   2.136   6.588   5.299
 5616SOL    HW117747   2.161   6.580   5.395
 5616SOL    HW217748   2.182   6.516   5.246
 5617SOL     OW17749   0.415   0.947   6.067
 5617SOL    HW117750   0.480   0.871   6.080
 5617SOL    HW217751   0.394   0.956   5.970
 5618SOL     OW17752   6.099   5.130   3.018
 5618SOL    HW117753   6.039   5.161   3.091
 5618SOL    HW217754   6.059   5.155   2.929
 5619SOL     OW17755   2.130   3.875   5.200
 5619SOL    HW117756   2.207   3.895   5.141
 5619SOL    HW217757   2.045   3.877   5.147
 5620SOL     OW17758   5.150   1.753   6.843
 5620SOL    HW117759   5.184   1.716   6.930
 5620SOL    HW217760   5.211   1.725   6.769
 5621SOL     OW17761   2.494   1.921   6.941
 5621SOL    HW117762   2.592   1.924   6.924
 5621SOL    HW217763   2.449   1.868   6.869
 5622SOL     OW17764   5.751   0.076   5.241
 5622SOL    HW117765   5.693   0.002   5.274
 5622SOL    HW217766   5.791   0.050   5.153
 5623SOL     OW17767   0.193   6.162   0.084
 5623SOL    HW117768   0.162   6.256   0.093
 5623SOL    HW217769   0.141   6.104   0.147
 5624SOL     OW17770   0.757   4.546   2.248
 5624SOL    HW117771   0.853   4.540   2.274
 5624SOL    HW217772   0.700   4.543   2.331
 5625SOL     OW17773   6.564   2.097   5.833
 5625SOL    HW117774   6.524   2.081   5.742
 5625SOL    HW217775   6.501   2.064   5.903
 5626SOL     OW17776   5.602   6.869   5.314
 5626SOL    HW117777   5.601   6.823   5.402
 5626SOL    HW217778   5.530   6.832   5.256
 5627SOL     OW17779   1.306   0.281   1.190
 5627SOL    HW117780   1.330   0.376   1.209
 5627SOL    HW217781   1.217   0.277   1.145
 5628SOL     OW17782   1.705   1.587   4.352
 5628SOL    HW117783   1.669   1.680   4.349
 5628SOL    HW217784   1.731   1.559   4.259
 5629SOL     OW17785   3.649   3.054   3.610
 5629SOL    HW117786   3.697   3.138   3.585
 5629SOL    HW217787   3.629   3.055   3.708
 5630SOL     OW17788   6.468   3.966   0.751
 5630SOL    HW117789   6.418   3.897   0.804
 5630SOL    HW217790   6.530   4.016   0.811
 5631SOL     OW17791   5.808   1.180   6.602
 5631SOL    HW117792   5.856   1.113   6.658
 5631SOL    HW217793   5.867   1.259   6.587
 5632SOL     OW17794   3.193   2.001   0.477
 5632SOL    HW117795   3.133   1.956   0.542
 5632SOL    HW217796   3.140   2.065   0.421
 5633SOL     OW17797   7.004   3.149   5.502
 5633SOL    HW117798   0.000   3.074   5.564
 5633SOL    HW217799   6.954   3.220   5.551
 5634SOL     OW17800   4.507   6.410   4.827
 5634SOL    HW117801   4.538   6.316   4.820
 5634SOL    HW217802   4.430   6.426   4.764
 5635SOL     OW17803   3.207   1.513   5.977
 5635SOL    HW117804   3.171   1.588   5.922
 5635SOL    HW217805   3.306   1.504   5.961
 5636SOL     OW17806   4.368   6.751   4.398
 5636SOL    HW117807   4.441   6.683   4.399
 5636SOL    HW217808   4.396   6.830   4.346
 5637SOL     OW17809   5.988   0.112   3.206
 5637SOL    HW117810   5.977   0.126   3.305
 5637SOL    HW217811   6.066   0.052   3.190
 5638SOL     OW17812   0.024   3.638   0.287
 5638SOL    HW117813   0.106   3.693   0.274
 5638SOL    HW217814   0.047   3.541   0.276
 5639SOL     OW17815   4.479   6.641   0.097
 5639SOL    HW117816   4.488   6.738   0.122
 5639SOL    HW217817   4.382   6.617   0.090
 5640SOL     OW17818   1.343   6.995   3.317
 5640SOL    HW117819   1.312   0.052   3.365
 5640SOL    HW217820   1.388   7.021   3.232
 5641SOL     OW17821   6.880   5.184   4.843
 5641SOL    HW117822   6.818   5.164   4.920
 5641SOL    HW217823   6.828   5.226   4.769
 5642SOL     OW17824   1.734   1.006   0.115
 5642SOL    HW117825   1.661   0.941   0.137
 5642SOL    HW217826   1.711   1.096   0.153
 5643SOL     OW17827   5.624   1.799   6.205
 5643SOL    HW117828   5.657   1.746   6.126
 5643SOL    HW217829   5.624   1.896   6.181
 5644SOL     OW17830   2.515   0.540   6.021
 5644SOL    HW117831   2.424   0.504   6.002
 5644SOL    HW217832   2.565   0.476   6.079
 5645SOL     OW17833   5.779   3.993   4.174
 5645SOL    HW117834   5.704   4.059   4.186
 5645SOL    HW217835   5.771   3.922   4.244
 5646SOL     OW17836   0.349   4.267   2.592
 5646SOL    HW117837   0.360   4.262   2.493
 5646SOL    HW217838   0.364   4.361   2.623
 5647SOL     OW17839   5.109   5.904   2.787
 5647SOL    HW117840   5.041   5.975   2.799
 5647SOL    HW217841   5.200   5.945   2.779
 5648SOL     OW17842   5.133   6.250   3.453
 5648SOL    HW117843   5.159   6.346   3.453
 5648SOL    HW217844   5.045   6.238   3.408
 5649SOL     OW17845   0.435   0.285   4.481
 5649SOL    HW117846   0.494   0.254   4.406
 5649SOL    HW217847   0.465   0.243   4.566
 5650SOL     OW17848   0.060   3.585   6.239
 5650SOL    HW117849   0.097   3.675   6.264
 5650SOL    HW217850   7.026   3.552   6.312
 5651SOL     OW17851   2.802   1.331   1.039
 5651SOL    HW117852   2.832   1.268   1.110
 5651SOL    HW217853   2.710   1.305   1.008
 5652SOL     OW17854   0.566   5.860   2.870
 5652SOL    HW117855   0.665   5.859   2.882
 5652SOL    HW217856   0.535   5.953   2.850
 5653SOL     OW17857   6.754   0.766   2.710
 5653SOL    HW117858   6.746   0.676   2.754
 5653SOL    HW217859   6.750   0.837   2.780
 5654SOL     OW17860   3.399   6.088   5.629
 5654SOL    HW117861   3.420   6.055   5.721
 5654SOL    HW217862   3.390   6.188   5.631
 5655SOL     OW17863   5.652   3.103   4.363
 5655SOL    HW117864   5.637   3.201   4.349
 5655SOL    HW217865   5.635   3.081   4.459
 5656SOL     OW17866   0.408   3.834   0.829
 5656SOL    HW117867   0.468   3.904   0.868
 5656SOL    HW217868   0.348   3.798   0.900
 5657SOL     OW17869   5.817   5.928   4.899
 5657SOL    HW117870   5.897   5.979   4.868
 5657SOL    HW217871   5.816   5.838   4.856
 5658SOL     OW17872   2.577   2.401   5.881
 5658SOL    HW117873   2.634   2.359   5.811
 5658SOL    HW217874   2.538   2.487   5.847
 5659SOL     OW17875   2.262   4.324   6.488
 5659SOL    HW117876   2.314   4.248   6.449
 5659SOL    HW217877   2.172   4.329   6.443
 5660SOL     OW17878   3.470   6.975   4.544
 5660SOL    HW117879   3.555   7.006   4.585
 5660SOL    HW217880   3.448   0.006   4.464
 5661SOL     OW17881   0.781   5.550   6.241
 5661SOL    HW117882   0.703   5.535   6.181
 5661SOL    HW217883   0.835   5.627   6.208
 5662SOL     OW17884   2.839   6.163   1.095
 5662SOL    HW117885   2.741   6.172   1.076
 5662SOL    HW217886   2.890   6.233   1.046
 5663SOL     OW17887   3.050   2.301   6.627
 5663SOL    HW117888   3.007   2.245   6.698
 5663SOL    HW217889   2.986   2.312   6.551
 5664SOL     OW17890   5.175   5.188   4.419
 5664SOL    HW117891   5.154   5.274   4.466
 5664SOL    HW217892   5.242   5.205   4.347
 5665SOL     OW17893   1.795   0.824   1.114
 5665SOL    HW117894   1.817   0.801   1.209
 5665SOL    HW217895   1.773   0.741   1.063
 5666SOL     OW17896   6.036   3.114   4.719
 5666SOL    HW117897   6.074   3.032   4.676
 5666SOL    HW217898   6.105   3.187   4.717
 5667SOL     OW17899   3.033   4.944   4.220
 5667SOL    HW117900   2.988   4.871   4.168
 5667SOL    HW217901   3.038   4.918   4.316
 5668SOL     OW17902   4.516   4.880   3.844
 5668SOL    HW117903   4.568   4.844   3.767
 5668SOL    HW217904   4.437   4.931   3.810
 5669SOL     OW17905   5.981   4.051   5.701
 5669SOL    HW117906   5.912   4.057   5.773
 5669SOL    HW217907   5.937   4.054   5.611
 5670SOL     OW17908   1.141   2.549   4.328
 5670SOL    HW117909   1.163   2.456   4.359
 5670SOL    HW217910   1.195   2.615   4.380
 5671SOL     OW17911   6.277   5.919   2.631
 5671SOL    HW117912   6.350   5.882   2.689
 5671SOL    HW217913   6.316   5.990   2.571
 5672SOL     OW17914   5.407   3.213   4.563
 5672SOL    HW117915   5.467   3.170   4.631
 5672SOL    HW217916   5.461   3.273   4.504
 5673SOL     OW17917   0.120   2.263   0.298
 5673SOL    HW117918   0.168   2.184   0.259
 5673SOL    HW217919   0.114   2.253   0.397
 5674SOL     OW17920   2.544   5.428   5.519
 5674SOL    HW117921   2.483   5.402   5.444
 5674SOL    HW217922   2.631   5.379   5.511
 5675SOL     OW17923   2.941   2.267   0.971
 5675SOL    HW117924   3.024   2.244   0.921
 5675SOL    HW217925   2.951   2.240   1.067
 5676SOL     OW17926   3.847   1.459   1.699
 5676SOL    HW117927   3.909   1.533   1.674
 5676SOL    HW217928   3.768   1.496   1.747
 5677SOL     OW17929   0.954   1.558   6.291
 5677SOL    HW117930   1.021   1.492   6.256
 5677SOL    HW217931   0.981   1.587   6.383
 5678SOL     OW17932   3.995   1.912   2.161
 5678SOL    HW117933   4.087   1.881   2.137
 5678SOL    HW217934   3.955   1.849   2.228
 5679SOL     OW17935   0.066   3.874   6.023
 5679SOL    HW117936   0.154   3.914   5.997
 5679SOL    HW217937   0.023   3.833   5.943
 5680SOL     OW17938   0.723   5.686   5.064
 5680SOL    HW117939   0.732   5.693   4.965
 5680SOL    HW217940   0.627   5.671   5.089
 5681SOL     OW17941   1.286   3.462   2.953
 5681SOL    HW117942   1.311   3.477   3.049
 5681SOL    HW217943   1.295   3.364   2.932
 5682SOL     OW17944   1.847   4.748   0.833
 5682SOL    HW117945   1.810   4.702   0.753
 5682SOL    HW217946   1.819   4.699   0.916
 5683SOL     OW17947   0.194   0.369   5.733
 5683SOL    HW117948   0.287   0.359   5.697
 5683SOL    HW217949   0.133   0.306   5.685
 5684SOL     OW17950   1.812   2.953   5.179
 5684SOL    HW117951   1.825   2.854   5.186
 5684SOL    HW217952   1.879   2.991   5.115
 5685SOL     OW17953   1.903   1.614   1.904
 5685SOL    HW117954   1.813   1.620   1.946
 5685SOL    HW217955   1.925   1.701   1.859
 5686SOL     OW17956   5.980   5.896   5.589
 5686SOL    HW117957   5.986   5.916   5.492
 5686SOL    HW217958   6.015   5.804   5.607
 5687SOL     OW17959   1.469   0.027   6.656
 5687SOL    HW117960   1.377   0.049   6.688
 5687SOL    HW217961   1.498   6.966   6.695
 5688SOL     OW17962   1.501   1.919   2.807
 5688SOL    HW117963   1.482   2.010   2.844
 5688SOL    HW217964   1.539   1.860   2.879
 5689SOL     OW17965   7.004   2.429   1.192
 5689SOL    HW117966   6.982   2.525   1.203
 5689SOL    HW217967   0.031   2.397   1.271
 5690SOL     OW17968   3.074   5.393   0.108
 5690SOL    HW117969   3.108   5.387   0.014
 5690SOL    HW217970   2.985   5.439   0.109
 5691SOL     OW17971   4.681   2.701   3.494
 5691SOL    HW117972   4.751   2.771   3.508
 5691SOL    HW217973   4.664   2.689   3.397
 5692SOL     OW17974   6.405   4.923   1.786
 5692SOL    HW117975   6.334   4.873   1.837
 5692SOL    HW217976   6.421   4.878   1.699
 5693SOL     OW17977   3.054   1.077   2.620
 5693SOL    HW117978   3.084   1.164   2.659
 5693SOL    HW217979   3.062   1.005   2.689
 5694SOL     OW17980   0.364   0.150   0.978
 5694SOL    HW117981   0.421   0.115   1.051
 5694SOL    HW217982   0.419   0.159   0.894
 5695SOL     OW17983   2.130   1.109   1.893
 5695SOL    HW117984   2.200   1.037   1.901
 5695SOL    HW217985   2.058   1.093   1.961
 5696SOL     OW17986   0.009   0.365   3.729
 5696SOL    HW117987   0.087   0.305   3.714
 5696SOL    HW217988   0.007   0.436   3.658
 5697SOL     OW17989   6.077   1.920   0.629
 5697SOL    HW117990   6.065   1.951   0.723
 5697SOL    HW217991   6.110   1.826   0.629
 5698SOL     OW17992   2.982   2.264   3.457
 5698SOL    HW117993   3.036   2.338   3.415
 5698SOL    HW217994   2.921   2.225   3.388
 5699SOL     OW17995   2.579   2.432   2.548
 5699SOL    HW117996   2.591   2.426   2.449
 5699SOL    HW217997   2.642   2.369   2.594
 5700SOL     OW17998   5.726   6.801   2.303
 5700SOL    HW117999   5.777   6.791   2.389
 5700SOL    HW218000   5.725   6.898   2.277
 5701SOL     OW18001   1.649   0.363   0.983
 5701SOL    HW118002   1.628   0.279   1.033
 5701SOL    HW218003   1.676   0.341   0.890
 5702SOL     OW18004   1.481   6.365   5.223
 5702SOL    HW118005   1.497   6.346   5.126
 5702SOL    HW218006   1.394   6.325   5.252
 5703SOL     OW18007   1.269   2.653   6.143
 5703SOL    HW118008   1.323   2.706   6.077
 5703SOL    HW218009   1.270   2.557   6.117
 5704SOL     OW18010   4.324   5.763   4.334
 5704SOL    HW118011   4.359   5.796   4.422
 5704SOL    HW218012   4.253   5.695   4.350
 5705SOL     OW18013   5.766   1.196   4.903
 5705SOL    HW118014   5.833   1.193   4.829
 5705SOL    HW218015   5.694   1.129   4.885
 5706SOL     OW18016   5.432   1.315   0.983
 5706SOL    HW118017   5.379   1.232   1.003
 5706SOL    HW218018   5.493   1.334   1.060
 5707SOL     OW18019   5.696   5.816   1.297
 5707SOL    HW118020   5.763   5.759   1.248
 5707SOL    HW218021   5.604   5.794   1.264
 5708SOL     OW18022   5.133   6.308   2.282
 5708SOL    HW118023   5.123   6.218   2.239
 5708SOL    HW218024   5.195   6.364   2.228
 5709SOL     OW18025   0.450   3.170   2.312
 5709SOL    HW118026   0.524   3.149   2.377
 5709SOL    HW218027   0.363   3.174   2.361
 5710SOL     OW18028   5.377   1.593   0.897
 5710SOL    HW118029   5.342   1.635   0.981
 5710SOL    HW218030   5.400   1.498   0.914
 5711SOL     OW18031   4.662   1.674   1.964
 5711SOL    HW118032   4.713   1.727   1.896
 5711SOL    HW218033   4.725   1.642   2.035
 5712SOL     OW18034   6.610   6.399   6.746
 5712SOL    HW118035   6.702   6.396   6.706
 5712SOL    HW218036   6.600   6.324   6.812
 5713SOL     OW18037   1.085   1.552   0.944
 5713SOL    HW118038   1.085   1.650   0.962
 5713SOL    HW218039   1.067   1.503   1.030
 5714SOL     OW18040   5.876   0.378   0.965
 5714SOL    HW118041   5.912   0.295   1.007
 5714SOL    HW218042   5.943   0.416   0.902
 5715SOL     OW18043   6.979   6.535   1.238
 5715SOL    HW118044   6.893   6.553   1.286
 5715SOL    HW218045   0.021   6.603   1.265
 5716SOL     OW18046   0.732   4.805   5.444
 5716SOL    HW118047   0.666   4.817   5.518
 5716SOL    HW218048   0.684   4.776   5.361
 5717SOL     OW18049   0.124   5.378   3.235
 5717SOL    HW118050   0.211   5.414   3.202
 5717SOL    HW218051   0.093   5.305   3.175
 5718SOL     OW18052   0.935   4.189   0.423
 5718SOL    HW118053   0.877   4.124   0.374
 5718SOL    HW218054   1.009   4.139   0.470
 5719SOL     OW18055   3.198   3.023   0.667
 5719SOL    HW118056   3.156   3.002   0.755
 5719SOL    HW218057   3.133   3.003   0.594
 5720SOL     OW18058   2.999   4.661   6.443
 5720SOL    HW118059   3.032   4.649   6.537
 5720SOL    HW218060   2.899   4.664   6.444
 5721SOL     OW18061   0.979   3.284   0.640
 5721SOL    HW118062   0.924   3.312   0.719
 5721SOL    HW218063   1.074   3.270   0.668
 5722SOL     OW18064   1.663   0.393   5.855
 5722SOL    HW118065   1.743   0.360   5.904
 5722SOL    HW218066   1.686   0.405   5.758
 5723SOL     OW18067   4.060   3.443   0.243
 5723SOL    HW118068   4.079   3.345   0.231
 5723SOL    HW218069   3.988   3.455   0.311
 5724SOL     OW18070   6.376   1.964   5.966
 5724SOL    HW118071   6.381   1.943   6.064
 5724SOL    HW218072   6.310   1.903   5.923
 5725SOL     OW18073   0.075   4.349   4.692
 5725SOL    HW118074   7.011   4.306   4.701
 5725SOL    HW218075   0.064   4.443   4.659
 5726SOL     OW18076   4.036   4.761   1.970
 5726SOL    HW118077   4.107   4.711   2.019
 5726SOL    HW218078   4.002   4.706   1.893
 5727SOL     OW18079   1.410   3.106   5.751
 5727SOL    HW118080   1.444   3.200   5.751
 5727SOL    HW218081   1.310   3.107   5.761
 5728SOL     OW18082   2.986   6.435   4.846
 5728SOL    HW118083   2.975   6.341   4.814
 5728SOL    HW218084   2.982   6.436   4.946
 5729SOL     OW18085   2.958   1.983   4.625
 5729SOL    HW118086   2.866   1.977   4.588
 5729SOL    HW218087   2.997   2.072   4.602
 5730SOL     OW18088   6.403   4.354   5.232
 5730SOL    HW118089   6.391   4.316   5.140
 5730SOL    HW218090   6.442   4.446   5.225
 5731SOL     OW18091   0.500   6.672   2.553
 5731SOL    HW118092   0.468   6.758   2.512
 5731SOL    HW218093   0.471   6.668   2.649
 5732SOL     OW18094   5.183   0.581   3.374
 5732SOL    HW118095   5.243   0.648   3.417
 5732SOL    HW218096   5.172   0.502   3.435
 5733SOL     OW18097   2.991   1.160   4.918
 5733SOL    HW118098   3.091   1.161   4.932
 5733SOL    HW218099   2.948   1.113   4.995
 5734SOL     OW18100   1.567   6.604   4.070
 5734SOL    HW118101   1.493   6.604   4.138
 5734SOL    HW218102   1.635   6.534   4.096
 5735SOL     OW18103   2.872   1.093   1.167
 5735SOL    HW118104   2.878   1.073   1.265
 5735SOL    HW218105   2.807   1.030   1.124
 5736SOL     OW18106   1.577   4.851   0.617
 5736SOL    HW118107   1.532   4.940   0.624
 5736SOL    HW218108   1.510   4.783   0.586
 5737SOL     OW18109   6.163   4.079   6.803
 5737SOL    HW118110   6.082   4.062   6.860
 5737SOL    HW218111   6.243   4.086   6.863
 5738SOL     OW18112   0.596   5.162   4.239
 5738SOL    HW118113   0.501   5.193   4.237
 5738SOL    HW218114   0.632   5.171   4.332
 5739SOL     OW18115   0.462   2.648   0.804
 5739SOL    HW118116   0.550   2.644   0.758
 5739SOL    HW218117   0.466   2.599   0.891
 5740SOL     OW18118   3.987   5.241   0.145
 5740SOL    HW118119   4.079   5.225   0.181
 5740SOL    HW218120   3.945   5.154   0.119
 5741SOL     OW18121   0.480   2.835   2.335
 5741SOL    HW118122   0.386   2.811   2.359
 5741SOL    HW218123   0.498   2.930   2.362
 5742SOL     OW18124   0.562   5.236   3.617
 5742SOL    HW118125   0.556   5.171   3.693
 5742SOL    HW218126   0.654   5.236   3.579
 5743SOL     OW18127   0.762   6.890   5.492
 5743SOL    HW118128   0.771   6.974   5.438
 5743SOL    HW218129   0.791   6.812   5.437
 5744SOL     OW18130   6.368   0.207   1.800
 5744SOL    HW118131   6.380   0.300   1.834
 5744SOL    HW218132   6.437   0.147   1.840
 5745SOL     OW18133   6.471   3.403   2.490
 5745SOL    HW118134   6.508   3.403   2.583
 5745SOL    HW218135   6.423   3.489   2.473
 5746SOL     OW18136   6.948   4.288   6.153
 5746SOL    HW118137   6.949   4.188   6.154
 5746SOL    HW218138   6.909   4.320   6.067
 5747SOL     OW18139   0.064   6.047   3.609
 5747SOL    HW118140   0.111   6.034   3.696
 5747SOL    HW218141   0.104   6.126   3.562
 5748SOL     OW18142   1.367   0.681   4.256
 5748SOL    HW118143   1.308   0.745   4.305
 5748SOL    HW218144   1.461   0.713   4.259
 5749SOL     OW18145   0.338   0.611   3.349
 5749SOL    HW118146   0.280   0.681   3.390
 5749SOL    HW218147   0.322   0.608   3.250
 5750SOL     OW18148   5.311   6.692   2.043
 5750SOL    HW118149   5.219   6.731   2.048
 5750SOL    HW218150   5.371   6.742   2.105
 5751SOL     OW18151   0.812   2.158   6.608
 5751SOL    HW118152   0.909   2.143   6.628
 5751SOL    HW218153   0.761   2.075   6.628
 5752SOL     OW18154   1.681   1.209   6.863
 5752SOL    HW118155   1.706   1.283   6.801
 5752SOL    HW218156   1.619   1.245   6.933
 5753SOL     OW18157   4.426   1.227   6.828
 5753SOL    HW118158   4.410   1.305   6.889
 5753SOL    HW218159   4.360   1.230   6.753
 5754SOL     OW18160   6.150   5.849   0.782
 5754SOL    HW118161   6.115   5.769   0.734
 5754SOL    HW218162   6.184   5.822   0.872
 5755SOL     OW18163   3.366   3.744   1.610
 5755SOL    HW118164   3.379   3.645   1.618
 5755SOL    HW218165   3.362   3.784   1.702
 5756SOL     OW18166   6.416   6.871   4.409
 5756SOL    HW118167   6.461   6.783   4.396
 5756SOL    HW218168   6.376   6.875   4.501
 5757SOL     OW18169   6.388   6.317   1.542
 5757SOL    HW118170   6.337   6.284   1.622
 5757SOL    HW218171   6.475   6.268   1.536
 5758SOL     OW18172   3.017   0.618   5.617
 5758SOL    HW118173   3.102   0.667   5.600
 5758SOL    HW218174   2.950   0.682   5.655
 5759SOL     OW18175   0.888   0.963   6.076
 5759SOL    HW118176   0.806   0.926   6.032
 5759SOL    HW218177   0.968   0.940   6.020
 5760SOL     OW18178   6.897   6.073   1.409
 5760SOL    HW118179   6.938   5.987   1.441
 5760SOL    HW218180   6.825   6.053   1.342
 5761SOL     OW18181   4.282   0.816   3.982
 5761SOL    HW118182   4.281   0.844   4.078
 5761SOL    HW218183   4.199   0.763   3.962
 5762SOL     OW18184   5.137   6.583   1.354
 5762SOL    HW118185   5.048   6.544   1.329
 5762SOL    HW218186   5.192   6.513   1.401
 5763SOL     OW18187   3.473   1.108   0.432
 5763SOL    HW118188   3.533   1.105   0.512
 5763SOL    HW218189   3.426   1.020   0.422
 5764SOL     OW18190   3.612   2.807   6.695
 5764SOL    HW118191   3.683   2.818   6.764
 5764SOL    HW218192   3.621   2.879   6.626
 5765SOL     OW18193   6.849   5.626   6.742
 5765SOL    HW118194   6.753   5.646   6.764
 5765SOL    HW218195   6.874   5.536   6.779
 5766SOL     OW18196   2.182   1.512   2.358
 5766SOL    HW118197   2.214   1.436   2.301
 5766SOL    HW218198   2.244   1.524   2.435
 5767SOL     OW18199   5.124   6.352   0.582
 5767SOL    HW118200   5.036   6.307   0.572
 5767SOL    HW218201   5.197   6.288   0.559
 5768SOL     OW18202   6.121   6.592   1.732
 5768SOL    HW118203   6.152   6.627   1.821
 5768SOL    HW218204   6.154   6.499   1.720
 5769SOL     OW18205   0.355   4.404   2.956
 5769SOL    HW118206   0.358   4.468   3.032
 5769SOL    HW218207   0.308   4.321   2.985
 5770SOL     OW18208   5.201   2.327   1.672
 5770SOL    HW118209   5.250   2.302   1.588
 5770SOL    HW218210   5.103   2.320   1.656
 5771SOL     OW18211   1.057   0.612   1.956
 5771SOL    HW118212   0.993   0.646   1.887
 5771SOL    HW218213   1.134   0.676   1.964
 5772SOL     OW18214   6.692   5.639   5.739
 5772SOL    HW118215   6.791   5.625   5.737
 5772SOL    HW218216   6.647   5.567   5.686
 5773SOL     OW18217   5.363   6.281   4.415
 5773SOL    HW118218   5.423   6.256   4.339
 5773SOL    HW218219   5.281   6.223   4.414
 5774SOL     OW18220   1.849   5.019   2.173
 5774SOL    HW118221   1.939   4.977   2.161
 5774SOL    HW218222   1.853   5.085   2.249
 5775SOL     OW18223   1.059   0.684   0.979
 5775SOL    HW118224   1.095   0.691   1.071
 5775SOL    HW218225   0.997   0.760   0.961
 5776SOL     OW18226   4.998   1.223   5.890
 5776SOL    HW118227   4.973   1.261   5.979
 5776SOL    HW218228   4.968   1.286   5.818
 5777SOL     OW18229   5.815   6.556   4.532
 5777SOL    HW118230   5.810   6.608   4.446
 5777SOL    HW218231   5.722   6.543   4.568
 5778SOL     OW18232   2.684   6.968   3.834
 5778SOL    HW118233   2.752   6.899   3.858
 5778SOL    HW218234   2.609   6.964   3.900
 5779SOL     OW18235   3.974   0.118   2.296
 5779SOL    HW118236   4.065   0.080   2.305
 5779SOL    HW218237   3.939   0.103   2.203
 5780SOL     OW18238   6.758   4.706   0.083
 5780SOL    HW118239   6.704   4.624   0.104
 5780SOL    HW218240   6.698   4.776   0.045
 5781SOL     OW18241   4.065   4.113   5.762
 5781SOL    HW118242   4.030   4.199   5.724
 5781SOL    HW218243   4.002   4.039   5.739
 5782SOL     OW18244   4.942   1.750   2.926
 5782SOL    HW118245   4.873   1.690   2.887
 5782SOL    HW218246   4.920   1.845   2.905
 5783SOL     OW18247   3.473   6.148   3.096
 5783SOL    HW118248   3.455   6.169   3.192
 5783SOL    HW218249   3.566   6.113   3.086
 5784SOL     OW18250   0.952   6.455   1.815
 5784SOL    HW118251   0.967   6.371   1.867
 5784SOL    HW218252   0.881   6.509   1.858
 5785SOL     OW18253   2.624   1.582   6.348
 5785SOL    HW118254   2.706   1.602   6.294
 5785SOL    HW218255   2.647   1.516   6.420
 5786SOL     OW18256   2.049   1.827   6.685
 5786SOL    HW118257   2.111   1.846   6.609
 5786SOL    HW218258   2.100   1.783   6.759
 5787SOL     OW18259   0.437   1.840   6.139
 5787SOL    HW118260   0.488   1.762   6.103
 5787SOL    HW218261   0.496   1.921   6.138
 5788SOL     OW18262   0.852   2.582   1.654
 5788SOL    HW118263   0.887   2.610   1.565
 5788SOL    HW218264   0.929   2.554   1.712
 5789SOL     OW18265   3.106   0.191   0.328
 5789SOL    HW118266   3.091   0.255   0.403
 5789SOL    HW218267   3.077   0.233   0.242
 5790SOL     OW18268   6.419   6.332   2.455
 5790SOL    HW118269   6.431   6.358   2.359
 5790SOL    HW218270   6.335   6.374   2.490
 5791SOL     OW18271   4.023   0.651   0.846
 5791SOL    HW118272   3.929   0.654   0.811
 5791SOL    HW218273   4.026   0.692   0.937
 5792SOL     OW18274   4.290   2.304   2.704
 5792SOL    HW118275   4.356   2.379   2.708
 5792SOL    HW218276   4.257   2.284   2.797
 5793SOL     OW18277   4.468   2.314   0.847
 5793SOL    HW118278   4.411   2.386   0.808
 5793SOL    HW218279   4.565   2.338   0.836
 5794SOL     OW18280   3.117   6.343   6.823
 5794SOL    HW118281   3.031   6.366   6.867
 5794SOL    HW218282   3.100   6.281   6.746
 5795SOL     OW18283   1.112   1.382   1.830
 5795SOL    HW118284   1.183   1.408   1.895
 5795SOL    HW218285   1.153   1.329   1.755
 5796SOL     OW18286   4.748   0.730   5.809
 5796SOL    HW118287   4.799   0.780   5.879
 5796SOL    HW218288   4.728   0.638   5.842
 5797SOL     OW18289   6.215   1.836   0.188
 5797SOL    HW118290   6.154   1.902   0.232
 5797SOL    HW218291   6.244   1.767   0.255
 5798SOL     OW18292   1.887   2.765   4.947
 5798SOL    HW118293   1.926   2.856   4.941
 5798SOL    HW218294   1.920   2.720   5.030
 5799SOL     OW18295   2.947   0.249   4.061
 5799SOL    HW118296   2.988   0.190   3.991
 5799SOL    HW218297   2.890   0.318   4.016
 5800SOL     OW18298   1.695   6.066   1.824
 5800SOL    HW118299   1.736   5.988   1.777
 5800SOL    HW218300   1.674   6.041   1.919
 5801SOL     OW18301   1.821   2.496   3.087
 5801SOL    HW118302   1.784   2.584   3.057
 5801SOL    HW218303   1.750   2.443   3.133
 5802SOL     OW18304   0.058   0.072   2.931
 5802SOL    HW118305   0.142   0.043   2.884
 5802SOL    HW218306   0.034   0.004   3.000
 5803SOL     OW18307   0.374   6.416   4.491
 5803SOL    HW118308   0.281   6.450   4.502
 5803SOL    HW218309   0.371   6.329   4.441
 5804SOL     OW18310   5.973   2.223   3.247
 5804SOL    HW118311   6.011   2.195   3.159
 5804SOL    HW218312   5.877   2.249   3.235
 5805SOL     OW18313   0.835   2.672   1.149
 5805SOL    HW118314   0.866   2.585   1.112
 5805SOL    HW218315   0.810   2.734   1.074
 5806SOL     OW18316   6.458   4.260   1.488
 5806SOL    HW118317   6.465   4.312   1.573
 5806SOL    HW218318   6.420   4.169   1.508
 5807SOL     OW18319   0.689   0.720   2.914
 5807SOL    HW118320   0.683   0.809   2.869
 5807SOL    HW218321   0.647   0.725   3.004
 5808SOL     OW18322   6.648   5.853   5.894
 5808SOL    HW118323   6.582   5.824   5.963
 5808SOL    HW218324   6.653   5.783   5.822
 5809SOL     OW18325   6.770   3.345   4.735
 5809SOL    HW118326   6.840   3.274   4.743
 5809SOL    HW218327   6.681   3.302   4.719
 5810SOL     OW18328   1.231   6.269   5.286
 5810SOL    HW118329   1.197   6.196   5.345
 5810SOL    HW218330   1.191   6.356   5.314
 5811SOL     OW18331   3.230   4.829   0.180
 5811SOL    HW118332   3.132   4.839   0.193
 5811SOL    HW218333   3.268   4.914   0.144
 5812SOL     OW18334   6.660   2.310   6.110
 5812SOL    HW118335   6.563   2.288   6.103
 5812SOL    HW218336   6.671   2.406   6.137
 5813SOL     OW18337   6.488   5.749   1.262
 5813SOL    HW118338   6.522   5.689   1.189
 5813SOL    HW218339   6.462   5.694   1.340
 5814SOL     OW18340   4.827   1.860   2.522
 5814SOL    HW118341   4.921   1.862   2.556
 5814SOL    HW218342   4.792   1.766   2.525
 5815SOL     OW18343   6.926   4.672   5.113
 5815SOL    HW118344   6.914   4.634   5.204
 5815SOL    HW218345   6.849   4.733   5.092
 5816SOL     OW18346   0.125   4.220   1.257
 5816SOL    HW118347   0.189   4.186   1.188
 5816SOL    HW218348   0.054   4.151   1.272
 5817SOL     OW18349   6.098   2.687   4.019
 5817SOL    HW118350   6.048   2.768   3.988
 5817SOL    HW218351   6.182   2.716   4.065
 5818SOL     OW18352   2.471   0.417   4.353
 5818SOL    HW118353   2.444   0.421   4.449
 5818SOL    HW218354   2.466   0.323   4.321
 5819SOL     OW18355   3.964   3.792   1.185
 5819SOL    HW118356   4.033   3.858   1.158
 5819SOL    HW218357   4.007   3.718   1.238
 5820SOL     OW18358   0.518   6.545   2.294
 5820SOL    HW118359   0.506   6.612   2.221
 5820SOL    HW218360   0.521   6.592   2.382
 5821SOL     OW18361   5.095   6.145   2.073
 5821SOL    HW118362   5.038   6.086   2.015
 5821SOL    HW218363   5.103   6.236   2.031
 5822SOL     OW18364   0.837   3.970   3.350
 5822SOL    HW118365   0.879   3.881   3.334
 5822SOL    HW218366   0.873   4.010   3.434
 5823SOL     OW18367   2.762   6.470   5.197
 5823SOL    HW118368   2.777   6.379   5.159
 5823SOL    HW218369   2.764   6.466   5.297
 5824SOL     OW18370   2.416   5.562   2.521
 5824SOL    HW118371   2.443   5.521   2.434
 5824SOL    HW218372   2.333   5.616   2.508
 5825SOL     OW18373   3.700   2.123   4.447
 5825SOL    HW118374   3.755   2.157   4.523
 5825SOL    HW218375   3.603   2.130   4.470
 5826SOL     OW18376   1.454   6.085   5.459
 5826SOL    HW118377   1.501   6.015   5.405
 5826SOL    HW218378   1.520   6.141   5.507
 5827SOL     OW18379   1.985   3.989   4.134
 5827SOL    HW118380   1.901   3.980   4.187
 5827SOL    HW218381   2.064   3.984   4.194
 5828SOL     OW18382   4.596   0.443   5.267
 5828SOL    HW118383   4.687   0.420   5.301
 5828SOL    HW218384   4.536   0.364   5.276
 5829SOL     OW18385   1.870   1.330   2.854
 5829SOL    HW118386   1.772   1.313   2.861
 5829SOL    HW218387   1.896   1.406   2.914
 5830SOL     OW18388   5.064   5.042   4.915
 5830SOL    HW118389   5.144   5.057   4.974
 5830SOL    HW218390   5.041   5.127   4.869
 5831SOL     OW18391   2.635   1.985   4.230
 5831SOL    HW118392   2.613   2.027   4.319
 5831SOL    HW218393   2.727   1.946   4.234
 5832SOL     OW18394   2.645   4.971   3.537
 5832SOL    HW118395   2.664   5.027   3.618
 5832SOL    HW218396   2.581   4.899   3.561
 5833SOL     OW18397   2.205   4.632   1.400
 5833SOL    HW118398   2.242   4.543   1.371
 5833SOL    HW218399   2.278   4.687   1.441
 5834SOL     OW18400   5.889   1.831   6.105
 5834SOL    HW118401   5.897   1.798   6.199
 5834SOL    HW218402   5.838   1.765   6.051
 5835SOL     OW18403   3.759   0.746   3.934
 5835SOL    HW118404   3.700   0.666   3.920
 5835SOL    HW218405   3.712   0.828   3.902
 5836SOL     OW18406   5.399   4.751   1.023
 5836SOL    HW118407   5.393   4.652   1.036
 5836SOL    HW218408   5.316   4.795   1.057
 5837SOL     OW18409   1.958   4.211   0.022
 5837SOL    HW118410   2.000   4.194   0.111
 5837SOL    HW218411   1.990   4.299   7.013
 5838SOL     OW18412   2.961   3.024   0.517
 5838SOL    HW118413   2.992   3.119   0.530
 5838SOL    HW218414   2.870   3.024   0.476
 5839SOL     OW18415   2.410   1.634   1.121
 5839SOL    HW118416   2.477   1.570   1.083
 5839SOL    HW218417   2.406   1.716   1.063
 5840SOL     OW18418   5.832   4.131   2.253
 5840SOL    HW118419   5.901   4.060   2.250
 5840SOL    HW218420   5.858   4.200   2.321
 5841SOL     OW18421   5.142   2.123   0.889
 5841SOL    HW118422   5.182   2.063   0.821
 5841SOL    HW218423   5.067   2.076   0.936
 5842SOL     OW18424   3.678   2.076   2.308
 5842SOL    HW118425   3.722   2.010   2.247
 5842SOL    HW218426   3.647   2.154   2.255
 5843SOL     OW18427   2.833   2.533   0.926
 5843SOL    HW118428   2.735   2.537   0.908
 5843SOL    HW218429   2.860   2.439   0.946
 5844SOL     OW18430   6.778   5.512   5.397
 5844SOL    HW118431   6.759   5.430   5.451
 5844SOL    HW218432   6.862   5.499   5.344
 5845SOL     OW18433   1.865   6.008   2.988
 5845SOL    HW118434   1.836   6.100   3.014
 5845SOL    HW218435   1.899   5.960   3.068
 5846SOL     OW18436   0.849   4.372   4.948
 5846SOL    HW118437   0.834   4.470   4.937
 5846SOL    HW218438   0.852   4.327   4.859
 5847SOL     OW18439   2.455   3.997   5.578
 5847SOL    HW118440   2.446   4.085   5.532
 5847SOL    HW218441   2.454   3.924   5.510
 5848SOL     OW18442   3.088   6.455   1.312
 5848SOL    HW118443   3.044   6.507   1.240
 5848SOL    HW218444   3.153   6.390   1.272
 5849SOL     OW18445   2.804   5.965   6.422
 5849SOL    HW118446   2.748   5.913   6.357
 5849SOL    HW218447   2.862   5.902   6.473
 5850SOL     OW18448   5.115   1.926   1.333
 5850SOL    HW118449   5.211   1.955   1.335
 5850SOL    HW218450   5.059   1.993   1.381
 5851SOL     OW18451   1.409   2.773   5.565
 5851SOL    HW118452   1.465   2.836   5.619
 5851SOL    HW218453   1.461   2.690   5.546
 5852SOL     OW18454   4.233   4.923   3.268
 5852SOL    HW118455   4.215   4.850   3.334
 5852SOL    HW218456   4.275   5.001   3.316
 5853SOL     OW18457   4.245   4.430   0.017
 5853SOL    HW118458   4.274   4.391   6.956
 5853SOL    HW218459   4.316   4.492   0.051
 5854SOL     OW18460   2.839   4.367   5.363
 5854SOL    HW118461   2.788   4.421   5.430
 5854SOL    HW218462   2.884   4.428   5.298
 5855SOL     OW18463   1.683   2.165   4.678
 5855SOL    HW118464   1.701   2.126   4.769
 5855SOL    HW218465   1.665   2.091   4.613
 5856SOL     OW18466   0.597   0.754   1.992
 5856SOL    HW118467   0.652   0.836   2.005
 5856SOL    HW218468   0.656   0.673   1.999
 5857SOL     OW18469   6.230   5.571   6.794
 5857SOL    HW118470   6.255   5.488   6.745
 5857SOL    HW218471   6.143   5.606   6.759
 5858SOL     OW18472   3.025   1.675   1.948
 5858SOL    HW118473   3.116   1.639   1.927
 5858SOL    HW218474   2.967   1.667   1.867
 5859SOL     OW18475   6.035   5.118   1.525
 5859SOL    HW118476   5.947   5.157   1.553
 5859SOL    HW218477   6.099   5.123   1.602
 5860SOL     OW18478   1.830   2.951   1.902
 5860SOL    HW118479   1.919   2.906   1.907
 5860SOL    HW218480   1.768   2.911   1.970
 5861SOL     OW18481   5.404   6.985   4.675
 5861SOL    HW118482   5.453   0.019   4.739
 5861SOL    HW218483   5.408   7.023   4.583
 5862SOL     OW18484   0.277   4.903   1.587
 5862SOL    HW118485   0.291   4.980   1.650
 5862SOL    HW218486   0.348   4.834   1.603
 5863SOL     OW18487   4.249   6.684   6.136
 5863SOL    HW118488   4.239   6.770   6.086
 5863SOL    HW218489   4.258   6.703   6.234
 5864SOL     OW18490   3.664   3.371   3.345
 5864SOL    HW118491   3.590   3.308   3.322
 5864SOL    HW218492   3.736   3.321   3.394
 5865SOL     OW18493   6.718   6.643   1.308
 5865SOL    HW118494   6.669   6.730   1.317
 5865SOL    HW218495   6.757   6.618   1.396
 5866SOL     OW18496   3.295   3.745   4.472
 5866SOL    HW118497   3.372   3.801   4.442
 5866SOL    HW218498   3.209   3.785   4.440
 5867SOL     OW18499   4.786   0.708   1.187
 5867SOL    HW118500   4.704   0.660   1.219
 5867SOL    HW218501   4.771   0.739   1.093
 5868SOL     OW18502   1.871   0.742   1.351
 5868SOL    HW118503   1.880   0.721   1.448
 5868SOL    HW218504   1.942   0.694   1.300
 5869SOL     OW18505   2.122   5.177   3.869
 5869SOL    HW118506   2.087   5.264   3.904
 5869SOL    HW218507   2.171   5.129   3.941
 5870SOL     OW18508   3.812   6.457   3.513
 5870SOL    HW118509   3.882   6.528   3.504
 5870SOL    HW218510   3.722   6.500   3.522
 5871SOL     OW18511   3.364   2.897   3.252
 5871SOL    HW118512   3.415   2.945   3.180
 5871SOL    HW218513   3.420   2.891   3.334
 5872SOL     OW18514   3.787   5.121   1.217
 5872SOL    HW118515   3.768   5.191   1.286
 5872SOL    HW218516   3.884   5.123   1.193
 5873SOL     OW18517   4.146   6.847   2.425
 5873SOL    HW118518   4.205   6.890   2.357
 5873SOL    HW218519   4.200   6.821   2.505
 5874SOL     OW18520   0.106   4.213   5.011
 5874SOL    HW118521   0.137   4.191   4.919
 5874SOL    HW218522   0.045   4.141   5.044
 5875SOL     OW18523   4.330   3.234   1.129
 5875SOL    HW118524   4.345   3.308   1.195
 5875SOL    HW218525   4.241   3.246   1.086
 5876SOL     OW18526   3.359   3.419   2.544
 5876SOL    HW118527   3.401   3.438   2.633
 5876SOL    HW218528   3.423   3.444   2.471
 5877SOL     OW18529   4.804   4.365   1.656
 5877SOL    HW118530   4.739   4.419   1.708
 5877SOL    HW218531   4.782   4.268   1.666
 5878SOL     OW18532   0.537   3.565   1.584
 5878SOL    HW118533   0.541   3.514   1.498
 5878SOL    HW218534   0.511   3.504   1.658
 5879SOL     OW18535   1.723   4.502   5.111
 5879SOL    HW118536   1.777   4.502   5.195
 5879SOL    HW218537   1.636   4.550   5.127
 5880SOL     OW18538   2.372   5.199   0.415
 5880SOL    HW118539   2.399   5.268   0.348
 5880SOL    HW218540   2.323   5.244   0.490
 5881SOL     OW18541   1.439   6.355   4.225
 5881SOL    HW118542   1.387   6.374   4.142
 5881SOL    HW218543   1.377   6.321   4.296
 5882SOL     OW18544   4.496   0.822   3.436
 5882SOL    HW118545   4.538   0.838   3.346
 5882SOL    HW218546   4.538   0.884   3.503
 5883SOL     OW18547   1.337   2.995   5.448
 5883SOL    HW118548   1.371   2.912   5.492
 5883SOL    HW218549   1.306   2.973   5.355
 5884SOL     OW18550   6.837   0.935   3.448
 5884SOL    HW118551   6.840   0.960   3.544
 5884SOL    HW218552   6.892   0.853   3.433
 5885SOL     OW18553   5.879   6.371   0.445
 5885SOL    HW118554   5.926   6.441   0.390
 5885SOL    HW218555   5.794   6.345   0.401
 5886SOL     OW18556   5.700   1.532   5.378
 5886SOL    HW118557   5.634   1.527   5.303
 5886SOL    HW218558   5.653   1.521   5.465
 5887SOL     OW18559   2.857   6.725   2.572
 5887SOL    HW118560   2.784   6.777   2.529
 5887SOL    HW218561   2.879   6.645   2.516
 5888SOL     OW18562   6.453   6.102   1.807
 5888SOL    HW118563   6.443   6.029   1.739
 5888SOL    HW218564   6.542   6.146   1.795
 5889SOL     OW18565   3.329   6.824   0.429
 5889SOL    HW118566   3.234   6.816   0.461
 5889SOL    HW218567   3.390   6.788   0.500
 5890SOL     OW18568   4.155   4.755   5.859
 5890SOL    HW118569   4.253   4.739   5.845
 5890SOL    HW218570   4.142   4.800   5.948
 5891SOL     OW18571   1.851   2.670   6.308
 5891SOL    HW118572   1.931   2.674   6.367
 5891SOL    HW218573   1.880   2.669   6.212
 5892SOL     OW18574   3.250   5.764   1.765
 5892SOL    HW118575   3.207   5.690   1.713
 5892SOL    HW218576   3.349   5.763   1.749
 5893SOL     OW18577   1.121   3.208   2.651
 5893SOL    HW118578   1.195   3.164   2.703
 5893SOL    HW218579   1.149   3.300   2.624
 5894SOL     OW18580   1.651   3.711   3.777
 5894SOL    HW118581   1.631   3.683   3.871
 5894SOL    HW218582   1.735   3.765   3.775
 5895SOL     OW18583   4.961   4.986   2.925
 5895SOL    HW118584   5.020   5.026   2.995
 5895SOL    HW218585   5.016   4.936   2.859
 5896SOL     OW18586   5.335   1.500   5.385
 5896SOL    HW118587   5.303   1.580   5.435
 5896SOL    HW218588   5.260   1.435   5.375
 5897SOL     OW18589   4.540   4.041   1.002
 5897SOL    HW118590   4.482   3.962   1.020
 5897SOL    HW218591   4.498   4.123   1.041
 5898SOL     OW18592   1.432   5.962   3.126
 5898SOL    HW118593   1.415   6.055   3.094
 5898SOL    HW218594   1.401   5.953   3.221
 5899SOL     OW18595   5.019   0.875   3.518
 5899SOL    HW118596   4.979   0.798   3.567
 5899SOL    HW218597   5.077   0.928   3.581
 5900SOL     OW18598   3.762   5.010   1.722
 5900SOL    HW118599   3.702   5.088   1.703
 5900SOL    HW218600   3.854   5.031   1.689
 5901SOL     OW18601   3.094   6.119   3.636
 5901SOL    HW118602   3.131   6.183   3.703
 5901SOL    HW218603   3.001   6.093   3.663
 5902SOL     OW18604   5.733   2.515   0.385
 5902SOL    HW118605   5.695   2.524   0.477
 5902SOL    HW218606   5.772   2.602   0.355
 5903SOL     OW18607   0.411   1.969   6.766
 5903SOL    HW118608   0.317   2.000   6.747
 5903SOL    HW218609   0.466   2.045   6.799
 5904SOL     OW18610   1.169   3.009   2.065
 5904SOL    HW118611   1.211   2.927   2.026
 5904SOL    HW218612   1.073   2.992   2.084
 5905SOL     OW18613   6.468   3.757   2.248
 5905SOL    HW118614   6.530   3.729   2.320
 5905SOL    HW218615   6.518   3.768   2.162
 5906SOL     OW18616   6.506   1.032   3.205
 5906SOL    HW118617   6.455   1.117   3.215
 5906SOL    HW218618   6.604   1.052   3.207
 5907SOL     OW18619   1.573   1.269   2.911
 5907SOL    HW118620   1.543   1.339   2.845
 5907SOL    HW218621   1.493   1.222   2.948
 5908SOL     OW18622   0.975   2.693   5.647
 5908SOL    HW118623   0.903   2.644   5.696
 5908SOL    HW218624   1.018   2.759   5.709
 5909SOL     OW18625   6.441   4.603   6.533
 5909SOL    HW118626   6.506   4.608   6.609
 5909SOL    HW218627   6.491   4.609   6.446
 5910SOL     OW18628   1.621   1.540   3.254
 5910SOL    HW118629   1.643   1.444   3.237
 5910SOL    HW218630   1.641   1.594   3.172
 5911SOL     OW18631   6.189   5.856   6.544
 5911SOL    HW118632   6.118   5.815   6.601
 5911SOL    HW218633   6.239   5.925   6.596
 5912SOL     OW18634   0.672   1.386   2.799
 5912SOL    HW118635   0.644   1.299   2.839
 5912SOL    HW218636   0.762   1.412   2.834
 5913SOL     OW18637   6.994   3.522   1.518
 5913SOL    HW118638   6.909   3.573   1.505
 5913SOL    HW218639   0.002   3.490   1.429
 5914SOL     OW18640   1.468   6.721   0.612
 5914SOL    HW118641   1.483   6.819   0.625
 5914SOL    HW218642   1.393   6.691   0.671
 5915SOL     OW18643   4.298   0.447   5.470
 5915SOL    HW118644   4.351   0.530   5.490
 5915SOL    HW218645   4.353   0.386   5.412
 5916SOL     OW18646   0.918   0.319   2.650
 5916SOL    HW118647   0.942   0.389   2.583
 5916SOL    HW218648   0.971   0.237   2.633
 5917SOL     OW18649   3.455   3.493   0.549
 5917SOL    HW118650   3.391   3.536   0.612
 5917SOL    HW218651   3.512   3.427   0.599
 5918SOL     OW18652   3.769   6.842   4.677
 5918SOL    HW118653   3.740   6.819   4.770
 5918SOL    HW218654   3.840   6.779   4.647
 5919SOL     OW18655   3.060   3.983   4.899
 5919SOL    HW118656   3.045   3.989   4.801
 5919SOL    HW218657   3.154   4.009   4.920
 5920SOL     OW18658   1.078   0.327   5.654
 5920SOL    HW118659   1.169   0.315   5.614
 5920SOL    HW218660   1.015   0.262   5.613
 5921SOL     OW18661   2.409   4.561   0.744
 5921SOL    HW118662   2.437   4.510   0.826
 5921SOL    HW218663   2.310   4.574   0.745
 5922SOL     OW18664   4.615   2.581   2.522
 5922SOL    HW118665   4.650   2.666   2.482
 5922SOL    HW218666   4.590   2.518   2.449
 5923SOL     OW18667   5.986   0.961   2.716
 5923SOL    HW118668   5.919   0.922   2.779
 5923SOL    HW218669   5.958   0.945   2.622
 5924SOL     OW18670   6.939   6.326   3.255
 5924SOL    HW118671   6.942   6.270   3.172
 5924SOL    HW218672   6.864   6.391   3.249
 5925SOL     OW18673   4.565   0.906   1.353
 5925SOL    HW118674   4.663   0.892   1.338
 5925SOL    HW218675   4.547   0.912   1.451
 5926SOL     OW18676   5.085   3.111   3.406
 5926SOL    HW118677   5.018   3.083   3.336
 5926SOL    HW218678   5.177   3.096   3.372
 5927SOL     OW18679   1.225   0.105   1.467
 5927SOL    HW118680   1.232   0.186   1.408
 5927SOL    HW218681   1.228   0.023   1.411
 5928SOL     OW18682   2.995   6.973   0.332
 5928SOL    HW118683   2.904   6.968   0.290
 5928SOL    HW218684   3.025   0.043   0.335
 5929SOL     OW18685   1.197   0.980   1.622
 5929SOL    HW118686   1.106   0.995   1.661
 5929SOL    HW218687   1.251   1.064   1.629
 5930SOL     OW18688   1.033   4.510   2.174
 5930SOL    HW118689   0.976   4.517   2.093
 5930SOL    HW218690   1.094   4.432   2.166
 5931SOL     OW18691   5.174   6.918   4.376
 5931SOL    HW118692   5.151   6.886   4.285
 5931SOL    HW218693   5.263   6.879   4.404
 5932SOL     OW18694   3.238   5.977   0.184
 5932SOL    HW118695   3.216   5.974   0.087
 5932SOL    HW218696   3.326   6.024   0.197
 5933SOL     OW18697   6.500   5.522   4.449
 5933SOL    HW118698   6.475   5.532   4.353
 5933SOL    HW218699   6.494   5.425   4.476
 5934SOL     OW18700   3.685   4.384   6.817
 5934SOL    HW118701   3.775   4.415   6.786
 5934SOL    HW218702   3.692   4.355   6.913
 5935SOL     OW18703   1.574   0.666   5.220
 5935SOL    HW118704   1.527   0.719   5.290
 5935SOL    HW218705   1.524   0.581   5.204
 5936SOL     OW18706   3.870   2.972   2.254
 5936SOL    HW118707   3.850   3.043   2.187
 5936SOL    HW218708   3.950   2.919   2.224
 5937SOL     OW18709   0.937   3.064   0.118
 5937SOL    HW118710   0.943   2.981   0.173
 5937SOL    HW218711   0.977   3.048   0.028
 5938SOL     OW18712   0.853   2.902   4.428
 5938SOL    HW118713   0.946   2.881   4.396
 5938SOL    HW218714   0.839   3.001   4.430
 5939SOL     OW18715   4.936   1.092   6.201
 5939SOL    HW118716   4.917   1.065   6.106
 5939SOL    HW218717   4.972   1.185   6.202
 5940SOL     OW18718   4.941   5.151   1.226
 5940SOL    HW118719   4.865   5.174   1.166
 5940SOL    HW218720   4.940   5.053   1.244
 5941SOL     OW18721   1.126   1.428   3.408
 5941SOL    HW118722   1.037   1.389   3.385
 5941SOL    HW218723   1.113   1.515   3.456
 5942SOL     OW18724   4.800   1.857   6.215
 5942SOL    HW118725   4.892   1.866   6.179
 5942SOL    HW218726   4.803   1.812   6.304
 5943SOL     OW18727   2.050   4.539   2.424
 5943SOL    HW118728   2.107   4.459   2.407
 5943SOL    HW218729   1.963   4.509   2.464
 5944SOL     OW18730   6.695   4.034   6.076
 5944SOL    HW118731   6.698   3.954   6.016
 5944SOL    HW218732   6.776   4.036   6.134
 5945SOL     OW18733   7.019   6.647   3.808
 5945SOL    HW118734   7.020   6.553   3.772
 5945SOL    HW218735   6.932   6.664   3.854
 5946SOL     OW18736   3.293   2.964   6.489
 5946SOL    HW118737   3.247   2.887   6.534
 5946SOL    HW218738   3.361   2.930   6.425
 5947SOL     OW18739   3.556   3.668   5.173
 5947SOL    HW118740   3.618   3.686   5.249
 5947SOL    HW218741   3.468   3.712   5.190
 5948SOL     OW18742   4.764   4.070   1.870
 5948SOL    HW118743   4.820   3.996   1.833
 5948SOL    HW218744   4.692   4.094   1.804
 5949SOL     OW18745   1.110   3.953   4.021
 5949SOL    HW118746   1.103   4.022   3.949
 5949SOL    HW218747   1.193   3.899   4.007
 5950SOL     OW18748   2.087   6.689   5.009
 5950SOL    HW118749   2.097   6.788   5.008
 5950SOL    HW218750   2.094   6.655   5.103
 5951SOL     OW18751   0.114   2.752   6.436
 5951SOL    HW118752   0.042   2.694   6.400
 5951SOL    HW218753   0.192   2.696   6.465
 5952SOL     OW18754   3.914   4.010   1.894
 5952SOL    HW118755   3.872   4.061   1.969
 5952SOL    HW218756   3.858   3.930   1.873
 5953SOL     OW18757   6.743   2.860   7.020
 5953SOL    HW118758   6.671   2.890   0.058
 5953SOL    HW218759   6.702   2.810   6.944
 5954SOL     OW18760   2.341   4.938   3.698
 5954SOL    HW118761   2.261   4.898   3.744
 5954SOL    HW218762   2.406   4.866   3.676
 5955SOL     OW18763   3.917   2.692   0.231
 5955SOL    HW118764   3.942   2.631   0.306
 5955SOL    HW218765   3.912   2.786   0.265
 5956SOL     OW18766   3.921   2.701   6.527
 5956SOL    HW118767   3.927   2.678   6.624
 5956SOL    HW218768   3.947   2.797   6.513
 5957SOL     OW18769   6.722   2.234   3.465
 5957SOL    HW118770   6.797   2.245   3.531
 5957SOL    HW218771   6.646   2.294   3.491
 5958SOL     OW18772   2.602   6.244   2.644
 5958SOL    HW118773   2.507   6.232   2.615
 5958SOL    HW218774   2.660   6.177   2.598
 5959SOL     OW18775   5.042   4.343   3.042
 5959SOL    HW118776   5.077   4.291   2.964
 5959SOL    HW218777   5.065   4.440   3.030
 5960SOL     OW18778   5.882   6.917   6.424
 5960SOL    HW118779   5.897   6.826   6.462
 5960SOL    HW218780   5.965   6.948   6.378
 5961SOL     OW18781   2.119   1.926   3.819
 5961SOL    HW118782   2.170   1.869   3.754
 5961SOL    HW218783   2.116   2.020   3.786
 5962SOL     OW18784   5.355   4.675   0.227
 5962SOL    HW118785   5.453   4.657   0.218
 5962SOL    HW218786   5.316   4.688   0.136
 5963SOL     OW18787   1.946   3.982   0.781
 5963SOL    HW118788   2.002   3.941   0.852
 5963SOL    HW218789   1.889   3.912   0.738
 5964SOL     OW18790   1.651   6.739   3.491
 5964SOL    HW118791   1.740   6.785   3.499
 5964SOL    HW218792   1.586   6.780   3.554
 5965SOL     OW18793   2.349   0.106   1.162
 5965SOL    HW118794   2.415   0.156   1.219
 5965SOL    HW218795   2.382   0.103   1.068
 5966SOL     OW18796   3.053   1.655   5.338
 5966SOL    HW118797   2.958   1.626   5.346
 5966SOL    HW218798   3.083   1.696   5.425
 5967SOL     OW18799   4.664   2.231   5.454
 5967SOL    HW118800   4.647   2.318   5.407
 5967SOL    HW218801   4.678   2.248   5.551
 5968SOL     OW18802   6.156   1.884   3.256
 5968SOL    HW118803   6.101   1.918   3.333
 5968SOL    HW218804   6.147   1.947   3.179
 5969SOL     OW18805   5.305   6.412   1.476
 5969SOL    HW118806   5.276   6.455   1.562
 5969SOL    HW218807   5.390   6.454   1.445
 5970SOL     OW18808   5.565   1.951   0.472
 5970SOL    HW118809   5.663   1.932   0.484
 5970SOL    HW218810   5.530   1.994   0.556
 5971SOL     OW18811   6.686   5.283   3.692
 5971SOL    HW118812   6.644   5.251   3.607
 5971SOL    HW218813   6.685   5.383   3.693
 5972SOL     OW18814   5.897   5.200   0.626
 5972SOL    HW118815   5.952   5.281   0.606
 5972SOL    HW218816   5.900   5.138   0.547
 5973SOL     OW18817   3.449   1.088   2.410
 5973SOL    HW118818   3.442   1.007   2.352
 5973SOL    HW218819   3.436   1.061   2.506
 5974SOL     OW18820   5.486   1.266   4.303
 5974SOL    HW118821   5.531   1.340   4.253
 5974SOL    HW218822   5.486   1.286   4.401
 5975SOL     OW18823   3.672   4.838   0.367
 5975SOL    HW118824   3.746   4.876   0.424
 5975SOL    HW218825   3.614   4.913   0.335
 5976SOL     OW18826   1.289   2.179   6.343
 5976SOL    HW118827   1.316   2.176   6.440
 5976SOL    HW218828   1.290   2.087   6.305
 5977SOL     OW18829   0.804   5.751   1.802
 5977SOL    HW118830   0.718   5.726   1.759
 5977SOL    HW218831   0.838   5.837   1.763
 5978SOL     OW18832   3.065   3.621   6.171
 5978SOL    HW118833   3.134   3.555   6.140
 5978SOL    HW218834   3.076   3.637   6.269
 5979SOL     OW18835   5.833   0.612   1.147
 5979SOL    HW118836   5.824   0.552   1.068
 5979SOL    HW218837   5.924   0.602   1.187
 5980SOL     OW18838   3.336   2.532   0.619
 5980SOL    HW118839   3.272   2.605   0.642
 5980SOL    HW218840   3.393   2.511   0.698
 5981SOL     OW18841   3.824   2.685   0.730
 5981SOL    HW118842   3.918   2.682   0.765
 5981SOL    HW218843   3.821   2.647   0.638
 5982SOL     OW18844   5.681   2.790   1.530
 5982SOL    HW118845   5.751   2.837   1.584
 5982SOL    HW218846   5.717   2.701   1.500
 5983SOL     OW18847   6.605   1.342   3.635
 5983SOL    HW118848   6.685   1.330   3.577
 5983SOL    HW218849   6.597   1.438   3.662
 5984SOL     OW18850   5.834   6.481   1.990
 5984SOL    HW118851   5.875   6.427   2.063
 5984SOL    HW218852   5.892   6.560   1.970
 5985SOL     OW18853   6.739   4.820   2.801
 5985SOL    HW118854   6.673   4.876   2.752
 5985SOL    HW218855   6.815   4.877   2.833
 5986SOL     OW18856   3.821   3.041   3.310
 5986SOL    HW118857   3.752   3.020   3.240
 5986SOL    HW218858   3.781   3.031   3.400
 5987SOL     OW18859   6.937   6.204   4.223
 5987SOL    HW118860   6.942   6.303   4.216
 5987SOL    HW218861   6.919   6.164   4.133
 5988SOL     OW18862   1.951   2.440   0.218
 5988SOL    HW118863   1.980   2.437   0.122
 5988SOL    HW218864   1.859   2.479   0.223
 5989SOL     OW18865   2.571   6.698   5.638
 5989SOL    HW118866   2.606   6.792   5.636
 5989SOL    HW218867   2.578   6.662   5.730
 5990SOL     OW18868   2.294   3.751   1.764
 5990SOL    HW118869   2.313   3.846   1.791
 5990SOL    HW218870   2.380   3.705   1.741
 5991SOL     OW18871   5.215   1.218   0.718
 5991SOL    HW118872   5.206   1.237   0.620
 5991SOL    HW218873   5.302   1.173   0.735
 5992SOL     OW18874   2.707   4.660   3.407
 5992SOL    HW118875   2.660   4.693   3.325
 5992SOL    HW218876   2.781   4.723   3.431
 5993SOL     OW18877   5.550   1.737   0.255
 5993SOL    HW118878   5.456   1.764   0.231
 5993SOL    HW218879   5.578   1.786   0.338
 5994SOL     OW18880   0.367   4.518   1.091
 5994SOL    HW118881   0.402   4.609   1.112
 5994SOL    HW218882   0.403   4.488   1.003
 5995SOL     OW18883   5.333   3.836   0.861
 5995SOL    HW118884   5.240   3.823   0.898
 5995SOL    HW218885   5.344   3.780   0.779
 5996SOL     OW18886   1.994   0.301   1.790
 5996SOL    HW118887   2.043   0.214   1.786
 5996SOL    HW218888   2.002   0.348   1.702
 5997SOL     OW18889   6.330   0.383   4.838
 5997SOL    HW118890   6.418   0.363   4.882
 5997SOL    HW218891   6.274   0.300   4.835
 5998SOL     OW18892   6.232   6.512   6.705
 5998SOL    HW118893   6.241   6.542   6.799
 5998SOL    HW218894   6.149   6.456   6.696
 5999SOL     OW18895   5.594   3.767   1.030
 5999SOL    HW118896   5.638   3.821   1.101
 5999SOL    HW218897   5.537   3.827   0.973
 6000SOL     OW18898   1.277   4.744   1.849
 6000SOL    HW118899   1.335   4.796   1.913
 6000SOL    HW218900   1.182   4.774   1.858
 6001SOL     OW18901   0.291   6.268   5.650
 6001SOL    HW118902   0.193   6.272   5.672
 6001SOL    HW218903   0.340   6.335   5.705
 6002SOL     OW18904   5.752   4.732   5.002
 6002SOL    HW118905   5.733   4.636   4.982
 6002SOL    HW218906   5.822   4.766   4.939
 6003SOL     OW18907   2.603   1.196   5.168
 6003SOL    HW118908   2.607   1.294   5.151
 6003SOL    HW218909   2.584   1.148   5.082
 6004SOL     OW18910   5.391   3.017   4.943
 6004SOL    HW118911   5.389   2.929   4.894
 6004SOL    HW218912   5.485   3.051   4.947
 6005SOL     OW18913   4.168   4.231   0.180
 6005SOL    HW118914   4.210   4.299   0.120
 6005SOL    HW218915   4.239   4.179   0.226
 6006SOL     OW18916   2.891   6.158   6.216
 6006SOL    HW118917   2.896   6.117   6.125
 6006SOL    HW218918   2.864   6.089   6.283
 6007SOL     OW18919   2.990   6.621   4.647
 6007SOL    HW118920   2.973   6.556   4.722
 6007SOL    HW218921   2.917   6.612   4.579
 6008SOL     OW18922   2.379   4.045   6.893
 6008SOL    HW118923   2.286   4.041   6.855
 6008SOL    HW218924   2.414   3.953   6.906
 6009SOL     OW18925   2.609   5.358   2.612
 6009SOL    HW118926   2.619   5.374   2.514
 6009SOL    HW218927   2.518   5.386   2.642
 6010SOL     OW18928   0.144   5.144   5.980
 6010SOL    HW118929   0.115   5.237   6.002
 6010SOL    HW218930   0.103   5.116   5.893
 6011SOL     OW18931   5.695   1.889   2.959
 6011SOL    HW118932   5.620   1.880   3.025
 6011SOL    HW218933   5.782   1.871   3.004
 6012SOL     OW18934   6.659   0.912   5.677
 6012SOL    HW118935   6.744   0.881   5.634
 6012SOL    HW218936   6.583   0.900   5.614
 6013SOL     OW18937   5.835   1.684   2.571
 6013SOL    HW118938   5.742   1.684   2.532
 6013SOL    HW218939   5.839   1.619   2.647
 6014SOL     OW18940   4.087   3.178   4.391
 6014SOL    HW118941   4.037   3.139   4.314
 6014SOL    HW218942   4.167   3.228   4.357
 6015SOL     OW18943   6.369   0.210   3.435
 6015SOL    HW118944   6.457   0.258   3.432
 6015SOL    HW218945   6.298   0.267   3.392
 6016SOL     OW18946   4.089   1.918   4.455
 6016SOL    HW118947   4.107   1.821   4.472
 6016SOL    HW218948   4.174   1.969   4.463
 6017SOL     OW18949   1.245   2.054   5.442
 6017SOL    HW118950   1.343   2.065   5.458
 6017SOL    HW218951   1.195   2.116   5.503
 6018SOL     OW18952   2.383   0.564   3.717
 6018SOL    HW118953   2.327   0.646   3.709
 6018SOL    HW218954   2.375   0.526   3.809
 6019SOL     OW18955   6.788   3.295   6.603
 6019SOL    HW118956   6.746   3.294   6.512
 6019SOL    HW218957   6.885   3.272   6.596
 6020SOL     OW18958   0.815   5.706   4.808
 6020SOL    HW118959   0.828   5.687   4.711
 6020SOL    HW218960   0.775   5.797   4.819
 6021SOL     OW18961   4.818   0.227   3.781
 6021SOL    HW118962   4.767   0.271   3.854
 6021SOL    HW218963   4.772   0.143   3.753
 6022SOL     OW18964   6.769   3.743   1.034
 6022SOL    HW118965   6.799   3.761   0.940
 6022SOL    HW218966   6.725   3.653   1.038
 6023SOL     OW18967   4.118   0.029   2.616
 6023SOL    HW118968   4.025   0.063   2.601
 6023SOL    HW218969   4.144   6.993   2.542
 6024SOL     OW18970   0.728   6.411   0.172
 6024SOL    HW118971   0.748   6.508   0.158
 6024SOL    HW218972   0.705   6.368   0.085
 6025SOL     OW18973   3.374   0.510   5.960
 6025SOL    HW118974   3.278   0.513   5.931
 6025SOL    HW218975   3.378   0.512   6.060
 6026SOL     OW18976   5.466   6.208   3.800
 6026SOL    HW118977   5.554   6.214   3.753
 6026SOL    HW218978   5.448   6.293   3.849
 6027SOL     OW18979   6.429   4.207   5.647
 6027SOL    HW118980   6.335   4.239   5.661
 6027SOL    HW218981   6.427   4.121   5.597
 6028SOL     OW18982   5.993   5.690   6.741
 6028SOL    HW118983   5.952   5.687   6.833
 6028SOL    HW218984   5.922   5.673   6.673
 6029SOL     OW18985   2.572   1.534   2.669
 6029SOL    HW118986   2.496   1.598   2.655
 6029SOL    HW218987   2.658   1.584   2.671
 6030SOL     OW18988   6.218   3.569   4.727
 6030SOL    HW118989   6.126   3.563   4.688
 6030SOL    HW218990   6.284   3.581   4.653
 6031SOL     OW18991   6.835   0.177   3.812
 6031SOL    HW118992   6.811   0.169   3.908
 6031SOL    HW218993   6.898   0.254   3.799
 6032SOL     OW18994   2.840   6.945   3.131
 6032SOL    HW118995   2.830   6.906   3.039
 6032SOL    HW218996   2.937   6.964   3.148
 6033SOL     OW18997   0.841   1.550   3.043
 6033SOL    HW118998   0.753   1.574   3.001
 6033SOL    HW218999   0.915   1.594   2.992
 6034SOL     OW19000   0.914   0.921   0.911
 6034SOL    HW119001   0.971   0.987   0.863
 6034SOL    HW219002   0.821   0.926   0.877
 6035SOL     OW19003   1.516   1.318   2.514
 6035SOL    HW119004   1.557   1.375   2.585
 6035SOL    HW219005   1.571   1.322   2.431
 6036SOL     OW19006   6.722   3.495   0.372
 6036SOL    HW119007   6.758   3.445   0.294
 6036SOL    HW219008   6.754   3.453   0.457
 6037SOL     OW19009   4.416   0.518   6.409
 6037SOL    HW119010   4.391   0.591   6.473
 6037SOL    HW219011   4.509   0.487   6.429
 6038SOL     OW19012   2.215   1.183   7.006
 6038SOL    HW119013   2.201   1.085   6.990
 6038SOL    HW219014   2.194   1.233   6.922
 6039SOL     OW19015   3.465   2.914   4.424
 6039SOL    HW119016   3.396   2.984   4.406
 6039SOL    HW219017   3.423   2.837   4.472
 6040SOL     OW19018   6.628   1.223   0.327
 6040SOL    HW119019   6.568   1.184   0.397
 6040SOL    HW219020   6.574   1.252   0.249
 6041SOL     OW19021   0.590   3.141   5.028
 6041SOL    HW119022   0.679   3.121   5.069
 6041SOL    HW219023   0.517   3.107   5.088
 6042SOL     OW19024   2.861   5.889   3.878
 6042SOL    HW119025   2.765   5.860   3.878
 6042SOL    HW219026   2.915   5.825   3.822
 6043SOL     OW19027   2.297   5.683   1.990
 6043SOL    HW119028   2.372   5.747   1.970
 6043SOL    HW219029   2.286   5.620   1.914
 6044SOL     OW19030   6.850   3.413   0.605
 6044SOL    HW119031   6.820   3.318   0.589
 6044SOL    HW219032   6.948   3.414   0.623
 6045SOL     OW19033   5.076   1.602   4.502
 6045SOL    HW119034   4.999   1.651   4.462
 6045SOL    HW219035   5.098   1.642   4.591
 6046SOL     OW19036   3.483   4.012   2.149
 6046SOL    HW119037   3.395   4.033   2.106
 6046SOL    HW219038   3.501   3.914   2.140
 6047SOL     OW19039   6.997   1.344   6.916
 6047SOL    HW119040   7.007   1.333   7.015
 6047SOL    HW219041   0.059   1.371   6.876
 6048SOL     OW19042   6.278   5.698   3.359
 6048SOL    HW119043   6.337   5.779   3.353
 6048SOL    HW219044   6.327   5.625   3.407
 6049SOL     OW19045   5.017   4.845   6.763
 6049SOL    HW119046   5.029   4.862   6.861
 6049SOL    HW219047   5.083   4.898   6.711
 6050SOL     OW19048   2.241   5.448   2.945
 6050SOL    HW119049   2.331   5.491   2.948
 6050SOL    HW219050   2.227   5.407   2.854
 6051SOL     OW19051   0.496   1.593   2.491
 6051SOL    HW119052   0.490   1.569   2.588
 6051SOL    HW219053   0.591   1.614   2.468
 6052SOL     OW19054   5.374   5.990   6.450
 6052SOL    HW119055   5.471   6.005   6.471
 6052SOL    HW219056   5.321   5.992   6.535
 6053SOL     OW19057   3.987   2.169   5.584
 6053SOL    HW119058   3.909   2.109   5.568
 6053SOL    HW219059   4.010   2.217   5.499
 6054SOL     OW19060   4.338   3.522   0.344
 6054SOL    HW119061   4.335   3.622   0.333
 6054SOL    HW219062   4.245   3.486   0.338
 6055SOL     OW19063   2.762   4.534   1.287
 6055SOL    HW119064   2.837   4.487   1.240
 6055SOL    HW219065   2.754   4.499   1.381
 6056SOL     OW19066   5.265   6.422   2.955
 6056SOL    HW119067   5.348   6.470   2.984
 6056SOL    HW219068   5.212   6.394   3.035
 6057SOL     OW19069   5.934   1.206   3.876
 6057SOL    HW119070   5.930   1.106   3.885
 6057SOL    HW219071   5.877   1.235   3.799
 6058SOL     OW19072   0.008   3.180   5.939
 6058SOL    HW119073   6.991   3.095   5.906
 6058SOL    HW219074   7.025   3.184   6.038
 6059SOL     OW19075   4.591   2.356   6.382
 6059SOL    HW119076   4.504   2.347   6.432
 6059SOL    HW219077   4.660   2.297   6.425
 6060SOL     OW19078   1.705   2.244   1.054
 6060SOL    HW119079   1.665   2.155   1.036
 6060SOL    HW219080   1.652   2.291   1.124
 6061SOL     OW19081   2.453   4.729   6.904
 6061SOL    HW119082   2.501   4.642   6.900
 6061SOL    HW219083   2.363   4.715   6.945
 6062SOL     OW19084   2.030   2.138   5.586
 6062SOL    HW119085   2.025   2.237   5.572
 6062SOL    HW219086   2.086   2.118   5.666
 6063SOL     OW19087   4.544   3.760   6.325
 6063SOL    HW119088   4.468   3.812   6.285
 6063SOL    HW219089   4.509   3.674   6.362
 6064SOL     OW19090   5.892   6.118   0.583
 6064SOL    HW119091   5.887   6.210   0.544
 6064SOL    HW219092   5.977   6.074   0.554
 6065SOL     OW19093   2.186   6.033   1.437
 6065SOL    HW119094   2.176   6.022   1.338
 6065SOL    HW219095   2.129   6.110   1.467
 6066SOL     OW19096   5.921   6.014   1.951
 6066SOL    HW119097   5.869   5.986   1.870
 6066SOL    HW219098   5.891   5.961   2.030
 6067SOL     OW19099   6.830   4.916   5.709
 6067SOL    HW119100   6.807   4.901   5.612
 6067SOL    HW219101   6.776   4.992   5.745
 6068SOL     OW19102   3.753   1.941   3.890
 6068SOL    HW119103   3.808   2.022   3.908
 6068SOL    HW219104   3.787   1.864   3.944
 6069SOL     OW19105   0.429   5.245   5.401
 6069SOL    HW119106   0.510   5.263   5.345
 6069SOL    HW219107   0.457   5.226   5.495
 6070SOL     OW19108   2.519   1.116   0.872
 6070SOL    HW119109   2.461   1.066   0.808
 6070SOL    HW219110   2.505   1.215   0.860
 6071SOL     OW19111   6.082   0.170   6.333
 6071SOL    HW119112   6.019   0.238   6.370
 6071SOL    HW219113   6.176   0.196   6.357
 6072SOL     OW19114   6.596   2.628   0.245
 6072SOL    HW119115   6.624   2.711   0.195
 6072SOL    HW219116   6.498   2.613   0.231
 6073SOL     OW19117   4.690   3.715   0.291
 6073SOL    HW119118   4.624   3.713   0.366
 6073SOL    HW219119   4.721   3.622   0.270
 6074SOL     OW19120   1.069   6.284   2.807
 6074SOL    HW119121   1.031   6.223   2.738
 6074SOL    HW219122   1.072   6.378   2.772
 6075SOL     OW19123   6.347   6.902   6.757
 6075SOL    HW119124   6.315   6.891   6.851
 6075SOL    HW219125   6.443   6.875   6.750
 6076SOL     OW19126   6.966   6.674   3.283
 6076SOL    HW119127   7.023   6.652   3.362
 6076SOL    HW219128   6.889   6.612   3.278
 6077SOL     OW19129   4.944   6.103   2.716
 6077SOL    HW119130   4.932   6.072   2.622
 6077SOL    HW219131   4.968   6.200   2.717
 6078SOL     OW19132   5.647   4.646   0.240
 6078SOL    HW119133   5.722   4.580   0.243
 6078SOL    HW219134   5.666   4.721   0.304
 6079SOL     OW19135   3.735   1.769   0.136
 6079SOL    HW119136   3.802   1.714   0.186
 6079SOL    HW219137   3.656   1.712   0.112
 6080SOL     OW19138   6.963   3.819   5.598
 6080SOL    HW119139   6.987   3.816   5.501
 6080SOL    HW219140   6.909   3.900   5.616
 6081SOL     OW19141   2.135   3.840   4.519
 6081SOL    HW119142   2.208   3.904   4.497
 6081SOL    HW219143   2.133   3.767   4.450
 6082SOL     OW19144   4.557   1.134   0.976
 6082SOL    HW119145   4.646   1.171   0.949
 6082SOL    HW219146   4.540   1.155   1.072
 6083SOL     OW19147   4.968   0.691   6.014
 6083SOL    HW119148   4.972   0.599   5.973
 6083SOL    HW219149   5.061   0.727   6.024
 6084SOL     OW19150   6.334   4.917   3.317
 6084SOL    HW119151   6.261   4.925   3.248
 6084SOL    HW219152   6.349   4.820   3.337
 6085SOL     OW19153   0.500   6.276   0.985
 6085SOL    HW119154   0.484   6.213   0.909
 6085SOL    HW219155   0.448   6.360   0.970
 6086SOL     OW19156   4.216   3.590   0.865
 6086SOL    HW119157   4.290   3.529   0.839
 6086SOL    HW219158   4.143   3.537   0.910
 6087SOL     OW19159   3.812   0.659   0.389
 6087SOL    HW119160   3.798   0.565   0.359
 6087SOL    HW219161   3.807   0.663   0.489
 6088SOL     OW19162   3.871   5.885   2.232
 6088SOL    HW119163   3.828   5.939   2.160
 6088SOL    HW219164   3.895   5.795   2.196
 6089SOL     OW19165   6.294   5.463   3.166
 6089SOL    HW119166   6.199   5.448   3.136
 6089SOL    HW219167   6.297   5.464   3.266
 6090SOL     OW19168   3.841   6.035   4.842
 6090SOL    HW119169   3.779   6.004   4.769
 6090SOL    HW219170   3.890   5.957   4.880
 6091SOL     OW19171   0.874   2.835   2.630
 6091SOL    HW119172   0.880   2.909   2.563
 6091SOL    HW219173   0.862   2.748   2.581
 6092SOL     OW19174   1.993   6.586   1.180
 6092SOL    HW119175   1.894   6.585   1.186
 6092SOL    HW219176   2.023   6.535   1.100
 6093SOL     OW19177   2.798   3.091   1.805
 6093SOL    HW119178   2.750   3.172   1.771
 6093SOL    HW219179   2.889   3.085   1.765
 6094SOL     OW19180   0.995   0.447   5.863
 6094SOL    HW119181   1.007   0.430   5.765
 6094SOL    HW219182   1.027   0.369   5.915
 6095SOL     OW19183   4.826   5.276   2.343
 6095SOL    HW119184   4.776   5.219   2.277
 6095SOL    HW219185   4.895   5.220   2.388
 6096SOL     OW19186   4.899   5.801   2.600
 6096SOL    HW119187   4.928   5.779   2.507
 6096SOL    HW219188   4.978   5.832   2.653
 6097SOL     OW19189   2.371   5.409   1.653
 6097SOL    HW119190   2.466   5.395   1.626
 6097SOL    HW219191   2.360   5.384   1.749
 6098SOL     OW19192   6.184   1.705   5.320
 6098SOL    HW119193   6.155   1.613   5.346
 6098SOL    HW219194   6.109   1.752   5.274
 6099SOL     OW19195   3.520   6.849   5.194
 6099SOL    HW119196   3.452   6.876   5.263
 6099SOL    HW219197   3.527   6.749   5.192
 6100SOL     OW19198   0.625   5.540   5.728
 6100SOL    HW119199   0.657   5.550   5.633
 6100SOL    HW219200   0.531   5.572   5.735
 6101SOL     OW19201   0.870   3.078   0.984
 6101SOL    HW119202   0.880   3.066   1.083
 6101SOL    HW219203   0.854   3.174   0.964
 6102SOL     OW19204   2.950   0.466   3.160
 6102SOL    HW119205   2.977   0.377   3.124
 6102SOL    HW219206   2.930   0.459   3.257
 6103SOL     OW19207   5.849   0.873   2.473
 6103SOL    HW119208   5.762   0.829   2.453
 6103SOL    HW219209   5.921   0.830   2.418
 6104SOL     OW19210   6.505   0.838   5.023
 6104SOL    HW119211   6.453   0.773   5.078
 6104SOL    HW219212   6.495   0.930   5.062
 6105SOL     OW19213   3.793   4.748   6.251
 6105SOL    HW119214   3.715   4.797   6.290
 6105SOL    HW219215   3.877   4.799   6.270
 6106SOL     OW19216   6.528   3.988   5.197
 6106SOL    HW119217   6.435   3.951   5.198
 6106SOL    HW219218   6.531   4.070   5.140
 6107SOL     OW19219   6.033   5.193   5.350
 6107SOL    HW119220   5.959   5.144   5.304
 6107SOL    HW219221   6.108   5.130   5.370
 6108SOL     OW19222   3.407   0.551   6.233
 6108SOL    HW119223   3.458   0.489   6.293
 6108SOL    HW219224   3.324   0.582   6.279
 6109SOL     OW19225   6.780   6.724   3.878
 6109SOL    HW119226   6.789   6.782   3.959
 6109SOL    HW219227   6.779   6.781   3.796
 6110SOL     OW19228   1.300   2.038   3.648
 6110SOL    HW119229   1.301   1.965   3.580
 6110SOL    HW219230   1.210   2.041   3.693
 6111SOL     OW19231   2.561   2.448   0.638
 6111SOL    HW119232   2.583   2.505   0.558
 6111SOL    HW219233   2.576   2.501   0.721
 6112SOL     OW19234   4.732   6.710   3.532
 6112SOL    HW119235   4.702   6.804   3.549
 6112SOL    HW219236   4.707   6.653   3.610
 6113SOL     OW19237   2.927   5.250   1.174
 6113SOL    HW119238   2.916   5.307   1.093
 6113SOL    HW219239   2.948   5.156   1.147
 6114SOL     OW19240   4.826   3.523   1.767
 6114SOL    HW119241   4.901   3.462   1.741
 6114SOL    HW219242   4.817   3.596   1.699
 6115SOL     OW19243   6.492   1.094   5.191
 6115SOL    HW119244   6.455   1.177   5.151
 6115SOL    HW219245   6.420   1.047   5.242
 6116SOL     OW19246   6.301   2.956   0.346
 6116SOL    HW119247   6.219   2.930   0.398
 6116SOL    HW219248   6.338   3.041   0.382
 6117SOL     OW19249   1.936   2.391   1.022
 6117SOL    HW119250   1.964   2.375   0.928
 6117SOL    HW219251   1.854   2.336   1.042
 6118SOL     OW19252   5.921   0.884   1.475
 6118SOL    HW119253   5.936   0.941   1.556
 6118SOL    HW219254   5.882   0.796   1.502
 6119SOL     OW19255   0.193   1.043   6.458
 6119SOL    HW119256   0.198   1.073   6.553
 6119SOL    HW219257   0.280   1.061   6.413
 6120SOL     OW19258   3.137   1.233   3.981
 6120SOL    HW119259   3.129   1.187   3.893
 6120SOL    HW219260   3.110   1.171   4.055
 6121SOL     OW19261   3.254   1.195   5.283
 6121SOL    HW119262   3.234   1.184   5.186
 6121SOL    HW219263   3.178   1.160   5.337
 6122SOL     OW19264   4.661   4.728   4.956
 6122SOL    HW119265   4.753   4.761   4.936
 6122SOL    HW219266   4.651   4.635   4.921
 6123SOL     OW19267   6.594   1.759   5.050
 6123SOL    HW119268   6.665   1.698   5.014
 6123SOL    HW219269   6.632   1.850   5.065
 6124SOL     OW19270   2.367   6.123   4.229
 6124SOL    HW119271   2.376   6.108   4.131
 6124SOL    HW219272   2.273   6.104   4.257
 6125SOL     OW19273   3.819   1.266   5.428
 6125SOL    HW119274   3.784   1.359   5.433
 6125SOL    HW219275   3.806   1.221   5.517
 6126SOL     OW19276   5.899   2.824   6.430
 6126SOL    HW119277   5.874   2.732   6.460
 6126SOL    HW219278   5.817   2.881   6.422
 6127SOL     OW19279   4.858   2.336   2.644
 6127SOL    HW119280   4.770   2.291   2.659
 6127SOL    HW219281   4.911   2.285   2.577
 6128SOL     OW19282   6.006   5.885   5.258
 6128SOL    HW119283   6.018   5.803   5.312
 6128SOL    HW219284   6.094   5.915   5.221
 6129SOL     OW19285   2.249   5.746   3.172
 6129SOL    HW119286   2.222   5.694   3.253
 6129SOL    HW219287   2.343   5.723   3.146
 6130SOL     OW19288   6.067   2.847   0.482
 6130SOL    HW119289   6.007   2.881   0.554
 6130SOL    HW219290   6.060   2.747   0.478
 6131SOL     OW19291   6.243   3.074   2.514
 6131SOL    HW119292   6.293   3.017   2.579
 6131SOL    HW219293   6.152   3.034   2.500
 6132SOL     OW19294   4.791   6.143   6.123
 6132SOL    HW119295   4.714   6.134   6.187
 6132SOL    HW219296   4.872   6.099   6.162
 6133SOL     OW19297   0.704   2.429   3.834
 6133SOL    HW119298   0.778   2.483   3.873
 6133SOL    HW219299   0.648   2.488   3.775
 6134SOL     OW19300   0.572   6.624   5.157
 6134SOL    HW119301   0.557   6.701   5.094
 6134SOL    HW219302   0.613   6.548   5.107
 6135SOL     OW19303   6.296   6.190   0.559
 6135SOL    HW119304   6.242   6.265   0.598
 6135SOL    HW219305   6.237   6.111   0.545
 6136SOL     OW19306   1.215   2.418   3.346
 6136SOL    HW119307   1.198   2.499   3.402
 6136SOL    HW219308   1.306   2.425   3.304
 6137SOL     OW19309   6.925   5.280   1.227
 6137SOL    HW119310   6.830   5.280   1.258
 6137SOL    HW219311   6.979   5.222   1.287
 6138SOL     OW19312   5.706   0.679   2.252
 6138SOL    HW119313   5.616   0.691   2.293
 6138SOL    HW219314   5.707   0.595   2.197
 6139SOL     OW19315   2.059   2.109   5.304
 6139SOL    HW119316   2.144   2.160   5.291
 6139SOL    HW219317   2.036   2.107   5.401
 6140SOL     OW19318   2.464   0.156   3.591
 6140SOL    HW119319   2.499   0.191   3.504
 6140SOL    HW219320   2.419   0.068   3.575
 6141SOL     OW19321   1.163   0.410   0.632
 6141SOL    HW119322   1.121   0.500   0.620
 6141SOL    HW219323   1.215   0.409   0.717
 6142SOL     OW19324   0.304   0.120   2.001
 6142SOL    HW119325   0.376   0.108   1.932
 6142SOL    HW219326   0.224   0.065   1.975
 6143SOL     OW19327   0.854   2.791   5.410
 6143SOL    HW119328   0.912   2.758   5.484
 6143SOL    HW219329   0.904   2.858   5.355
 6144SOL     OW19330   3.271   5.965   2.948
 6144SOL    HW119331   3.298   5.969   2.851
 6144SOL    HW219332   3.310   6.044   2.996
 6145SOL     OW19333   5.400   3.122   4.136
 6145SOL    HW119334   5.385   3.027   4.107
 6145SOL    HW219335   5.406   3.125   4.236
 6146SOL     OW19336   5.964   1.157   5.215
 6146SOL    HW119337   5.968   1.058   5.197
 6146SOL    HW219338   6.026   1.204   5.153
 6147SOL     OW19339   1.345   1.705   5.966
 6147SOL    HW119340   1.375   1.769   5.894
 6147SOL    HW219341   1.321   1.757   6.048
 6148SOL     OW19342   4.043   5.025   6.769
 6148SOL    HW119343   4.100   5.001   6.848
 6148SOL    HW219344   3.960   4.969   6.769
 6149SOL     OW19345   3.950   1.931   1.584
 6149SOL    HW119346   3.933   1.962   1.678
 6149SOL    HW219347   3.872   1.956   1.526
 6150SOL     OW19348   0.703   4.821   4.206
 6150SOL    HW119349   0.721   4.727   4.233
 6150SOL    HW219350   0.743   4.884   4.273
 6151SOL     OW19351   3.980   5.316   3.340
 6151SOL    HW119352   3.925   5.293   3.420
 6151SOL    HW219353   3.975   5.242   3.273
 6152SOL     OW19354   0.189   4.174   3.014
 6152SOL    HW119355   0.193   4.094   3.074
 6152SOL    HW219356   0.095   4.209   3.012
 6153SOL     OW19357   5.610   6.204   0.854
 6153SOL    HW119358   5.611   6.303   0.842
 6153SOL    HW219359   5.562   6.180   0.938
 6154SOL     OW19360   4.274   4.648   3.073
 6154SOL    HW119361   4.261   4.602   3.161
 6154SOL    HW219362   4.189   4.692   3.046
 6155SOL     OW19363   2.026   1.586   3.666
 6155SOL    HW119364   1.978   1.645   3.601
 6155SOL    HW219365   1.995   1.607   3.759
 6156SOL     OW19366   4.621   4.369   2.406
 6156SOL    HW119367   4.617   4.382   2.307
 6156SOL    HW219368   4.561   4.435   2.450
 6157SOL     OW19369   0.484   2.909   1.083
 6157SOL    HW119370   0.392   2.879   1.056
 6157SOL    HW219371   0.496   3.006   1.059
 6158SOL     OW19372   3.025   1.051   5.905
 6158SOL    HW119373   3.050   0.954   5.895
 6158SOL    HW219374   3.080   1.106   5.842
 6159SOL     OW19375   5.599   1.993   0.749
 6159SOL    HW119376   5.672   2.061   0.738
 6159SOL    HW219377   5.558   2.002   0.839
 6160SOL     OW19378   0.851   6.999   1.084
 6160SOL    HW119379   0.885   6.964   0.996
 6160SOL    HW219380   0.819   0.067   1.072
 6161SOL     OW19381   5.219   3.843   6.839
 6161SOL    HW119382   5.269   3.921   6.803
 6161SOL    HW219383   5.284   3.771   6.864
 6162SOL     OW19384   6.112   6.108   1.131
 6162SOL    HW119385   6.099   6.023   1.183
 6162SOL    HW219386   6.047   6.177   1.164
 6163SOL     OW19387   6.130   6.009   3.088
 6163SOL    HW119388   6.052   6.032   3.029
 6163SOL    HW219389   6.132   5.910   3.103
 6164SOL     OW19390   3.459   3.519   4.445
 6164SOL    HW119391   3.411   3.606   4.455
 6164SOL    HW219392   3.419   3.467   4.370
 6165SOL     OW19393   3.505   0.870   0.008
 6165SOL    HW119394   3.570   0.857   0.084
 6165SOL    HW219395   3.451   0.787   7.022
 6166SOL     OW19396   3.579   1.167   5.981
 6166SOL    HW119397   3.502   1.108   5.956
 6166SOL    HW219398   3.660   1.111   5.998
 6167SOL     OW19399   1.575   3.345   2.695
 6167SOL    HW119400   1.507   3.416   2.675
 6167SOL    HW219401   1.580   3.282   2.617
 6168SOL     OW19402   0.840   3.183   4.400
 6168SOL    HW119403   0.933   3.196   4.366
 6168SOL    HW219404   0.778   3.246   4.353
 6169SOL     OW19405   2.853   1.011   0.384
 6169SOL    HW119406   2.818   0.994   0.476
 6169SOL    HW219407   2.945   1.051   0.390
 6170SOL     OW19408   2.678   4.800   0.995
 6170SOL    HW119409   2.724   4.795   1.084
 6170SOL    HW219410   2.610   4.727   0.989
 6171SOL     OW19411   2.177   4.151   1.665
 6171SOL    HW119412   2.228   4.154   1.579
 6171SOL    HW219413   2.193   4.236   1.716
 6172SOL     OW19414   2.761   5.052   1.581
 6172SOL    HW119415   2.809   4.977   1.627
 6172SOL    HW219416   2.673   5.019   1.545
 6173SOL     OW19417   1.414   5.667   2.423
 6173SOL    HW119418   1.339   5.726   2.393
 6173SOL    HW219419   1.473   5.717   2.487
 6174SOL     OW19420   5.503   4.393   1.811
 6174SOL    HW119421   5.600   4.386   1.789
 6174SOL    HW219422   5.451   4.325   1.759
 6175SOL     OW19423   5.309   0.331   4.083
 6175SOL    HW119424   5.400   0.330   4.042
 6175SOL    HW219425   5.286   0.424   4.110
 6176SOL     OW19426   5.830   3.368   0.028
 6176SOL    HW119427   5.928   3.384   0.015
 6176SOL    HW219428   5.816   3.302   0.102
 6177SOL     OW19429   6.204   2.742   2.435
 6177SOL    HW119430   6.217   2.643   2.433
 6177SOL    HW219431   6.106   2.763   2.439
 6178SOL     OW19432   6.392   3.365   1.081
 6178SOL    HW119433   6.408   3.447   1.136
 6178SOL    HW219434   6.299   3.331   1.098
 6179SOL     OW19435   0.540   1.766   5.117
 6179SOL    HW119436   0.626   1.761   5.168
 6179SOL    HW219437   0.509   1.861   5.113
 6180SOL     OW19438   3.191   0.679   6.361
 6180SOL    HW119439   3.213   0.761   6.415
 6180SOL    HW219440   3.124   0.702   6.292
 6181SOL     OW19441   4.300   5.926   6.586
 6181SOL    HW119442   4.255   5.948   6.673
 6181SOL    HW219443   4.303   6.008   6.529
 6182SOL     OW19444   4.893   6.654   5.447
 6182SOL    HW119445   4.820   6.694   5.392
 6182SOL    HW219446   4.982   6.681   5.410
 6183SOL     OW19447   2.971   0.434   2.777
 6183SOL    HW119448   2.960   0.371   2.701
 6183SOL    HW219449   2.997   0.383   2.859
 6184SOL     OW19450   6.771   0.523   5.764
 6184SOL    HW119451   6.729   0.562   5.847
 6184SOL    HW219452   6.814   0.595   5.711
 6185SOL     OW19453   2.733   2.486   6.547
 6185SOL    HW119454   2.807   2.520   6.605
 6185SOL    HW219455   2.676   2.422   6.598
 6186SOL     OW19456   4.522   1.137   4.195
 6186SOL    HW119457   4.462   1.173   4.266
 6186SOL    HW219458   4.507   1.038   4.185
 6187SOL     OW19459   3.288   5.078   4.253
 6187SOL    HW119460   3.214   5.017   4.224
 6187SOL    HW219461   3.311   5.059   4.349
 6188SOL     OW19462   3.000   6.843   2.100
 6188SOL    HW119463   2.963   6.756   2.069
 6188SOL    HW219464   3.096   6.852   2.072
 6189SOL     OW19465   5.170   4.874   3.286
 6189SOL    HW119466   5.246   4.809   3.282
 6189SOL    HW219467   5.182   4.944   3.216
 6190SOL     OW19468   5.334   2.775   5.915
 6190SOL    HW119469   5.248   2.758   5.963
 6190SOL    HW219470   5.315   2.798   5.820
 6191SOL     OW19471   6.846   1.665   6.573
 6191SOL    HW119472   6.752   1.699   6.577
 6191SOL    HW219473   6.899   1.704   6.648
 6192SOL     OW19474   3.385   2.313   0.384
 6192SOL    HW119475   3.384   2.228   0.437
 6192SOL    HW219476   3.339   2.385   0.436
 6193SOL     OW19477   6.715   0.452   1.822
 6193SOL    HW119478   6.761   0.484   1.739
 6193SOL    HW219479   6.617   0.467   1.814
 6194SOL     OW19480   2.493   0.232   0.663
 6194SOL    HW119481   2.476   0.133   0.661
 6194SOL    HW219482   2.443   0.272   0.740
 6195SOL     OW19483   2.567   6.935   5.464
 6195SOL    HW119484   2.611   6.984   5.389
 6195SOL    HW219485   2.516   6.856   5.428
 6196SOL     OW19486   0.782   1.541   5.805
 6196SOL    HW119487   0.830   1.603   5.742
 6196SOL    HW219488   0.696   1.511   5.762
 6197SOL     OW19489   2.393   2.657   1.030
 6197SOL    HW119490   2.435   2.736   1.075
 6197SOL    HW219491   2.297   2.652   1.056
 6198SOL     OW19492   3.691   5.361   2.945
 6198SOL    HW119493   3.710   5.382   2.849
 6198SOL    HW219494   3.602   5.317   2.953
 6199SOL     OW19495   0.421   0.378   6.576
 6199SOL    HW119496   0.330   0.416   6.593
 6199SOL    HW219497   0.486   0.453   6.561
 6200SOL     OW19498   3.996   0.593   5.720
 6200SOL    HW119499   4.034   0.668   5.774
 6200SOL    HW219500   4.053   0.578   5.639
 6201SOL     OW19501   1.945   5.090   4.342
 6201SOL    HW119502   1.858   5.055   4.307
 6201SOL    HW219503   1.935   5.109   4.440
 6202SOL     OW19504   1.938   2.140   1.297
 6202SOL    HW119505   1.878   2.148   1.218
 6202SOL    HW219506   1.976   2.047   1.302
 6203SOL     OW19507   5.880   2.015   3.933
 6203SOL    HW119508   5.940   1.947   3.973
 6203SOL    HW219509   5.920   2.106   3.944
 6204SOL     OW19510   1.226   6.777   5.738
 6204SOL    HW119511   1.165   6.852   5.712
 6204SOL    HW219512   1.251   6.786   5.835
 6205SOL     OW19513   5.105   6.254   0.197
 6205SOL    HW119514   5.022   6.282   0.245
 6205SOL    HW219515   5.094   6.268   0.099
 6206SOL     OW19516   5.448   0.159   3.517
 6206SOL    HW119517   5.350   0.169   3.529
 6206SOL    HW219518   5.468   0.070   3.477
 6207SOL     OW19519   2.209   4.134   4.415
 6207SOL    HW119520   2.239   4.126   4.320
 6207SOL    HW219521   2.109   4.134   4.419
 6208SOL     OW19522   5.494   5.509   5.286
 6208SOL    HW119523   5.486   5.526   5.384
 6208SOL    HW219524   5.464   5.590   5.235
 6209SOL     OW19525   2.439   5.095   1.221
 6209SOL    HW119526   2.350   5.141   1.229
 6209SOL    HW219527   2.452   5.034   1.299
 6210SOL     OW19528   6.683   4.519   2.805
 6210SOL    HW119529   6.741   4.599   2.820
 6210SOL    HW219530   6.665   4.509   2.707
 6211SOL     OW19531   2.882   1.080   5.184
 6211SOL    HW119532   2.790   1.095   5.219
 6211SOL    HW219533   2.948   1.085   5.260
 6212SOL     OW19534   6.633   0.319   3.359
 6212SOL    HW119535   6.595   0.310   3.268
 6212SOL    HW219536   6.643   0.416   3.382
 6213SOL     OW19537   6.976   0.074   0.537
 6213SOL    HW119538   7.025   0.137   0.477
 6213SOL    HW219539   6.978   0.110   0.631
 6214SOL     OW19540   5.215   4.719   1.875
 6214SOL    HW119541   5.197   4.724   1.777
 6214SOL    HW219542   5.129   4.722   1.926
 6215SOL     OW19543   2.789   4.800   1.224
 6215SOL    HW119544   2.810   4.704   1.242
 6215SOL    HW219545   2.764   4.846   1.310
 6216SOL     OW19546   6.526   2.618   2.503
 6216SOL    HW119547   6.534   2.712   2.468
 6216SOL    HW219548   6.533   2.554   2.427
 6217SOL     OW19549   4.542   1.609   1.612
 6217SOL    HW119550   4.614   1.551   1.649
 6217SOL    HW219551   4.567   1.705   1.623
 6218SOL     OW19552   4.591   5.220   4.226
 6218SOL    HW119553   4.605   5.179   4.316
 6218SOL    HW219554   4.675   5.267   4.198
 6219SOL     OW19555   0.263   1.051   4.070
 6219SOL    HW119556   0.179   0.999   4.087
 6219SOL    HW219557   0.302   1.023   3.982
 6220SOL     OW19558   1.496   3.351   5.158
 6220SOL    HW119559   1.397   3.348   5.148
 6220SOL    HW219560   1.530   3.258   5.175
 6221SOL     OW19561   4.277   4.811   4.552
 6221SOL    HW119562   4.286   4.748   4.629
 6221SOL    HW219563   4.336   4.890   4.566
 6222SOL     OW19564   7.022   1.851   1.082
 6222SOL    HW119565   0.037   1.910   1.012
 6222SOL    HW219566   6.923   1.843   1.064
 6223SOL     OW19567   5.340   4.308   4.276
 6223SOL    HW119568   5.388   4.354   4.350
 6223SOL    HW219569   5.406   4.266   4.214
 6224SOL     OW19570   2.560   0.083   4.577
 6224SOL    HW119571   2.484   0.147   4.591
 6224SOL    HW219572   2.641   0.134   4.549
 6225SOL     OW19573   3.984   1.891   6.402
 6225SOL    HW119574   4.063   1.875   6.342
 6225SOL    HW219575   3.996   1.977   6.452
 6226SOL     OW19576   6.878   6.467   4.356
 6226SOL    HW119577   6.878   6.567   4.350
 6226SOL    HW219578   6.809   6.429   4.294
 6227SOL     OW19579   2.817   4.471   6.672
 6227SOL    HW119580   2.852   4.454   6.764
 6227SOL    HW219581   2.741   4.409   6.653
 6228SOL     OW19582   6.825   2.382   2.748
 6228SOL    HW119583   6.859   2.321   2.820
 6228SOL    HW219584   6.816   2.332   2.662
 6229SOL     OW19585   1.717   1.859   1.846
 6229SOL    HW119586   1.660   1.789   1.888
 6229SOL    HW219587   1.764   1.911   1.917
 6230SOL     OW19588   2.495   1.902   3.758
 6230SOL    HW119589   2.566   1.849   3.805
 6230SOL    HW219590   2.418   1.842   3.736
 6231SOL     OW19591   6.568   5.132   1.643
 6231SOL    HW119592   6.500   5.078   1.693
 6231SOL    HW219593   6.587   5.087   1.555
 6232SOL     OW19594   1.110   0.983   0.135
 6232SOL    HW119595   1.190   1.012   0.082
 6232SOL    HW219596   1.081   0.893   0.104
 6233SOL     OW19597   4.058   1.125   6.479
 6233SOL    HW119598   4.080   1.047   6.421
 6233SOL    HW219599   3.992   1.097   6.549
 6234SOL     OW19600   2.354   2.242   3.882
 6234SOL    HW119601   2.340   2.202   3.792
 6234SOL    HW219602   2.360   2.168   3.950
 6235SOL     OW19603   2.062   5.870   2.043
 6235SOL    HW119604   2.053   5.921   1.958
 6235SOL    HW219605   2.157   5.840   2.054
 6236SOL     OW19606   6.939   3.866   0.152
 6236SOL    HW119607   6.980   3.775   0.161
 6236SOL    HW219608   6.992   3.931   0.206
 6237SOL     OW19609   3.865   5.844   6.184
 6237SOL    HW119610   3.935   5.913   6.199
 6237SOL    HW219611   3.904   5.753   6.201
 6238SOL     OW19612   5.323   3.637   0.622
 6238SOL    HW119613   5.293   3.718   0.571
 6238SOL    HW219614   5.397   3.592   0.573
 6239SOL     OW19615   3.452   6.180   3.397
 6239SOL    HW119616   3.386   6.255   3.391
 6239SOL    HW219617   3.403   6.095   3.413
 6240SOL     OW19618   2.999   3.532   0.161
 6240SOL    HW119619   3.055   3.615   0.160
 6240SOL    HW219620   3.012   3.481   0.076
 6241SOL     OW19621   4.750   0.530   2.213
 6241SOL    HW119622   4.806   0.515   2.131
 6241SOL    HW219623   4.734   0.629   2.224
 6242SOL     OW19624   3.853   2.148   2.975
 6242SOL    HW119625   3.761   2.129   2.940
 6242SOL    HW219626   3.853   2.141   3.074
 6243SOL     OW19627   6.475   5.685   3.083
 6243SOL    HW119628   6.448   5.754   3.151
 6243SOL    HW219629   6.429   5.599   3.103
 6244SOL     OW19630   1.639   1.642   1.993
 6244SOL    HW119631   1.623   1.660   2.090
 6244SOL    HW219632   1.557   1.604   1.952
 6245SOL     OW19633   2.331   3.773   0.630
 6245SOL    HW119634   2.339   3.727   0.719
 6245SOL    HW219635   2.422   3.799   0.598
 6246SOL     OW19636   4.472   6.932   0.183
 6246SOL    HW119637   4.536   6.976   0.121
 6246SOL    HW219638   4.382   6.975   0.174
 6247SOL     OW19639   6.829   6.729   2.716
 6247SOL    HW119640   6.812   6.640   2.672
 6247SOL    HW219641   6.891   6.782   2.659
 6248SOL     OW19642   0.829   5.801   0.766
 6248SOL    HW119643   0.858   5.729   0.829
 6248SOL    HW219644   0.757   5.766   0.706
 6249SOL     OW19645   6.341   3.383   6.115
 6249SOL    HW119646   6.301   3.461   6.162
 6249SOL    HW219647   6.437   3.403   6.093
 6250SOL     OW19648   6.894   4.636   6.065
 6250SOL    HW119649   6.989   4.661   6.046
 6250SOL    HW219650   6.870   4.553   6.014
 6251SOL     OW19651   4.525   1.374   0.828
 6251SOL    HW119652   4.524   1.343   0.733
 6251SOL    HW219653   4.547   1.297   0.888
 6252SOL     OW19654   1.959   6.533   4.784
 6252SOL    HW119655   1.978   6.605   4.849
 6252SOL    HW219656   1.979   6.444   4.825
 6253SOL     OW19657   2.910   3.822   1.364
 6253SOL    HW119658   2.942   3.779   1.280
 6253SOL    HW219659   2.820   3.863   1.347
 6254SOL     OW19660   5.153   0.203   0.383
 6254SOL    HW119661   5.081   0.201   0.313
 6254SOL    HW219662   5.149   0.289   0.433
 6255SOL     OW19663   0.247   3.136   3.086
 6255SOL    HW119664   0.236   3.044   3.050
 6255SOL    HW219665   0.309   3.188   3.027
 6256SOL     OW19666   4.011   5.108   4.228
 6256SOL    HW119667   4.097   5.061   4.211
 6256SOL    HW219668   4.015   5.200   4.190
 6257SOL     OW19669   4.380   3.055   6.562
 6257SOL    HW119670   4.437   2.974   6.547
 6257SOL    HW219671   4.301   3.052   6.501
 6258SOL     OW19672   4.612   2.207   3.011
 6258SOL    HW119673   4.551   2.157   3.073
 6258SOL    HW219674   4.593   2.179   2.916
 6259SOL     OW19675   3.182   2.154   1.626
 6259SOL    HW119676   3.114   2.225   1.643
 6259SOL    HW219677   3.273   2.190   1.645
 6260SOL     OW19678   3.315   4.345   1.245
 6260SOL    HW119679   3.251   4.288   1.297
 6260SOL    HW219680   3.267   4.424   1.208
 6261SOL     OW19681   4.926   6.790   6.248
 6261SOL    HW119682   4.965   6.780   6.339
 6261SOL    HW219683   4.917   6.888   6.226
 6262SOL     OW19684   0.593   5.961   5.014
 6262SOL    HW119685   0.615   5.909   5.096
 6262SOL    HW219686   0.561   6.052   5.039
 6263SOL     OW19687   6.301   1.030   1.336
 6263SOL    HW119688   6.382   0.982   1.368
 6263SOL    HW219689   6.328   1.114   1.289
 6264SOL     OW19690   2.849   1.392   0.379
 6264SOL    HW119691   2.765   1.352   0.415
 6264SOL    HW219692   2.828   1.449   0.300
 6265SOL     OW19693   5.996   3.594   0.446
 6265SOL    HW119694   6.063   3.537   0.398
 6265SOL    HW219695   6.018   3.690   0.431
 6266SOL     OW19696   2.438   0.169   2.508
 6266SOL    HW119697   2.510   0.222   2.552
 6266SOL    HW219698   2.479   0.104   2.444
 6267SOL     OW19699   2.693   6.488   0.235
 6267SOL    HW119700   2.788   6.517   0.250
 6267SOL    HW219701   2.648   6.475   0.323
 6268SOL     OW19702   1.982   5.869   2.296
 6268SOL    HW119703   2.004   5.865   2.198
 6268SOL    HW219704   2.030   5.945   2.339
 6269SOL     OW19705   6.349   4.443   6.860
 6269SOL    HW119706   6.422   4.391   6.814
 6269SOL    HW219707   6.367   4.541   6.849
 6270SOL     OW19708   0.153   1.079   3.736
 6270SOL    HW119709   0.238   1.110   3.779
 6270SOL    HW219710   0.124   0.994   3.779
 6271SOL     OW19711   6.114   2.011   1.402
 6271SOL    HW119712   6.042   1.989   1.337
 6271SOL    HW219713   6.154   2.100   1.380
 6272SOL     OW19714   2.384   2.792   3.635
 6272SOL    HW119715   2.461   2.755   3.686
 6272SOL    HW219716   2.326   2.846   3.695
 6273SOL     OW19717   4.111   0.684   2.418
 6273SOL    HW119718   4.022   0.710   2.382
 6273SOL    HW219719   4.150   0.760   2.470
 6274SOL     OW19720   2.739   5.974   6.836
 6274SOL    HW119721   2.777   5.890   6.797
 6274SOL    HW219722   2.780   5.991   6.925
 6275SOL     OW19723   3.346   0.961   4.925
 6275SOL    HW119724   3.318   0.865   4.930
 6275SOL    HW219725   3.381   0.981   4.833
 6276SOL     OW19726   1.473   5.277   3.519
 6276SOL    HW119727   1.486   5.186   3.557
 6276SOL    HW219728   1.452   5.270   3.422
 6277SOL     OW19729   6.144   3.148   4.223
 6277SOL    HW119730   6.046   3.146   4.205
 6277SOL    HW219731   6.188   3.214   4.162
 6278SOL     OW19732   4.313   1.150   3.478
 6278SOL    HW119733   4.326   1.122   3.383
 6278SOL    HW219734   4.392   1.204   3.508
 6279SOL     OW19735   4.608   1.960   6.384
 6279SOL    HW119736   4.663   1.907   6.319
 6279SOL    HW219737   4.584   1.903   6.462
 6280SOL     OW19738   1.367   5.330   6.047
 6280SOL    HW119739   1.453   5.380   6.055
 6280SOL    HW219740   1.383   5.233   6.063
 6281SOL     OW19741   3.469   5.775   4.346
 6281SOL    HW119742   3.528   5.720   4.405
 6281SOL    HW219743   3.464   5.869   4.382
 6282SOL     OW19744   0.665   0.064   3.942
 6282SOL    HW119745   0.581   0.045   3.993
 6282SOL    HW219746   0.715   7.004   3.927
 6283SOL     OW19747   1.111   2.798   4.866
 6283SOL    HW119748   1.144   2.792   4.960
 6283SOL    HW219749   1.116   2.708   4.823
 6284SOL     OW19750   2.433   4.996   6.958
 6284SOL    HW119751   2.455   4.899   6.947
 6284SOL    HW219752   2.355   5.019   6.900
 6285SOL     OW19753   2.041   4.042   2.301
 6285SOL    HW119754   2.079   3.950   2.305
 6285SOL    HW219755   1.941   4.037   2.306
 6286SOL     OW19756   6.208   6.072   4.495
 6286SOL    HW119757   6.131   6.046   4.437
 6286SOL    HW219758   6.294   6.043   4.452
 6287SOL     OW19759   3.762   4.869   2.360
 6287SOL    HW119760   3.787   4.924   2.281
 6287SOL    HW219761   3.764   4.772   2.337
 6288SOL     OW19762   5.730   3.171   0.523
 6288SOL    HW119763   5.758   3.082   0.558
 6288SOL    HW219764   5.797   3.240   0.551
 6289SOL     OW19765   0.826   6.552   2.943
 6289SOL    HW119766   0.807   6.501   2.859
 6289SOL    HW219767   0.901   6.507   2.993
 6290SOL     OW19768   6.115   4.203   3.517
 6290SOL    HW119769   6.189   4.238   3.575
 6290SOL    HW219770   6.050   4.277   3.497
 6291SOL     OW19771   3.848   4.058   3.626
 6291SOL    HW119772   3.890   3.978   3.583
 6291SOL    HW219773   3.909   4.137   3.618
 6292SOL     OW19774   6.951   1.028   1.757
 6292SOL    HW119775   6.960   0.975   1.674
 6292SOL    HW219776   6.906   0.973   1.828
 6293SOL     OW19777   6.094   5.259   6.071
 6293SOL    HW119778   6.139   5.324   6.010
 6293SOL    HW219779   6.136   5.263   6.161
 6294SOL     OW19780   3.731   6.429   1.924
 6294SOL    HW119781   3.739   6.484   1.841
 6294SOL    HW219782   3.736   6.332   1.899
 6295SOL     OW19783   6.973   5.958   5.694
 6295SOL    HW119784   0.015   5.889   5.668
 6295SOL    HW219785   6.927   5.930   5.778
 6296SOL     OW19786   6.126   1.356   3.134
 6296SOL    HW119787   6.219   1.370   3.169
 6296SOL    HW219788   6.130   1.298   3.053
 6297SOL     OW19789   5.801   1.413   5.836
 6297SOL    HW119790   5.832   1.324   5.803
 6297SOL    HW219791   5.736   1.453   5.771
 6298SOL     OW19792   6.615   2.492   4.252
 6298SOL    HW119793   6.550   2.435   4.303
 6298SOL    HW219794   6.607   2.587   4.283
 6299SOL     OW19795   6.637   2.659   0.566
 6299SOL    HW119796   6.542   2.689   0.559
 6299SOL    HW219797   6.652   2.582   0.505
 6300SOL     OW19798   5.115   1.492   3.562
 6300SOL    HW119799   5.093   1.584   3.530
 6300SOL    HW219800   5.101   1.486   3.661
 6301SOL     OW19801   3.467   0.884   0.954
 6301SOL    HW119802   3.407   0.952   0.997
 6301SOL    HW219803   3.433   0.862   0.863
 6302SOL     OW19804   6.317   0.438   2.635
 6302SOL    HW119805   6.303   0.339   2.642
 6302SOL    HW219806   6.299   0.467   2.541
 6303SOL     OW19807   2.778   5.902   4.496
 6303SOL    HW119808   2.692   5.875   4.540
 6303SOL    HW219809   2.845   5.829   4.507
 6304SOL     OW19810   3.842   0.814   4.699
 6304SOL    HW119811   3.883   0.893   4.653
 6304SOL    HW219812   3.906   0.777   4.765
 6305SOL     OW19813   5.552   0.672   2.492
 6305SOL    HW119814   5.591   0.581   2.477
 6305SOL    HW219815   5.452   0.666   2.486
 6306SOL     OW19816   5.900   2.504   3.998
 6306SOL    HW119817   5.976   2.568   3.999
 6306SOL    HW219818   5.814   2.554   3.995
 6307SOL     OW19819   1.906   4.487   0.347
 6307SOL    HW119820   1.970   4.548   0.394
 6307SOL    HW219821   1.952   4.444   0.270
 6308SOL     OW19822   4.071   2.243   6.293
 6308SOL    HW119823   4.071   2.286   6.203
 6308SOL    HW219824   4.134   2.166   6.295
 6309SOL     OW19825   5.827   2.165   5.322
 6309SOL    HW119826   5.731   2.184   5.301
 6309SOL    HW219827   5.833   2.120   5.412
 6310SOL     OW19828   0.038   5.694   4.413
 6310SOL    HW119829   6.979   5.686   4.465
 6310SOL    HW219830   0.089   5.775   4.445
 6311SOL     OW19831   5.998   0.125   4.379
 6311SOL    HW119832   5.994   0.038   4.429
 6311SOL    HW219833   5.962   0.198   4.437
 6312SOL     OW19834   5.532   4.035   5.829
 6312SOL    HW119835   5.586   3.963   5.786
 6312SOL    HW219836   5.587   4.119   5.836
 6313SOL     OW19837   2.294   5.317   4.141
 6313SOL    HW119838   2.249   5.400   4.108
 6313SOL    HW219839   2.328   5.264   4.062
 6314SOL     OW19840   1.536   0.310   3.681
 6314SOL    HW119841   1.560   0.378   3.612
 6314SOL    HW219842   1.437   0.297   3.682
 6315SOL     OW19843   2.015   3.342   0.274
 6315SOL    HW119844   1.933   3.389   0.308
 6315SOL    HW219845   2.001   3.314   0.179
 6316SOL     OW19846   4.234   1.405   4.855
 6316SOL    HW119847   4.185   1.492   4.864
 6316SOL    HW219848   4.287   1.405   4.771
 6317SOL     OW19849   6.465   5.261   4.951
 6317SOL    HW119850   6.369   5.243   4.933
 6317SOL    HW219851   6.506   5.183   4.999
 6318SOL     OW19852   1.636   1.986   4.204
 6318SOL    HW119853   1.607   2.044   4.128
 6318SOL    HW219854   1.735   1.991   4.214
 6319SOL     OW19855   1.198   2.042   2.776
 6319SOL    HW119856   1.272   2.011   2.716
 6319SOL    HW219857   1.210   2.139   2.797
 6320SOL     OW19858   0.504   2.284   2.682
 6320SOL    HW119859   0.505   2.384   2.691
 6320SOL    HW219860   0.427   2.247   2.733
 6321SOL     OW19861   2.103   3.772   6.133
 6321SOL    HW119862   2.028   3.799   6.072
 6321SOL    HW219863   2.190   3.803   6.095
 6322SOL     OW19864   2.679   0.178   6.919
 6322SOL    HW119865   2.584   0.187   6.891
 6322SOL    HW219866   2.737   0.171   6.838
 6323SOL     OW19867   4.819   1.739   1.735
 6323SOL    HW119868   4.757   1.811   1.703
 6323SOL    HW219869   4.905   1.743   1.684
 6324SOL     OW19870   3.358   1.707   0.219
 6324SOL    HW119871   3.445   1.664   0.243
 6324SOL    HW219872   3.285   1.667   0.275
 6325SOL     OW19873   1.468   3.128   2.966
 6325SOL    HW119874   1.550   3.070   2.968
 6325SOL    HW219875   1.488   3.211   2.915
 6326SOL     OW19876   4.203   6.777   1.721
 6326SOL    HW119877   4.222   6.872   1.696
 6326SOL    HW219878   4.286   6.734   1.755
 6327SOL     OW19879   3.821   5.258   5.261
 6327SOL    HW119880   3.812   5.351   5.297
 6327SOL    HW219881   3.781   5.193   5.326
 6328SOL     OW19882   2.499   4.434   0.134
 6328SOL    HW119883   2.444   4.352   0.120
 6328SOL    HW219884   2.446   4.501   0.187
 6329SOL     OW19885   0.589   1.557   3.314
 6329SOL    HW119886   0.610   1.654   3.326
 6329SOL    HW219887   0.646   1.503   3.376
 6330SOL     OW19888   3.424   0.603   7.024
 6330SOL    HW119889   3.499   0.550   0.037
 6330SOL    HW219890   3.339   0.582   0.046
 6331SOL     OW19891   4.794   3.172   1.665
 6331SOL    HW119892   4.704   3.201   1.630
 6331SOL    HW219893   4.782   3.128   1.754
 6332SOL     OW19894   4.673   6.380   2.275
 6332SOL    HW119895   4.727   6.443   2.220
 6332SOL    HW219896   4.592   6.427   2.310
 6333SOL     OW19897   2.418   5.095   2.798
 6333SOL    HW119898   2.335   5.150   2.787
 6333SOL    HW219899   2.455   5.110   2.890
 6334SOL     OW19900   2.120   1.300   2.194
 6334SOL    HW119901   2.167   1.219   2.229
 6334SOL    HW219902   2.056   1.273   2.123
 6335SOL     OW19903   6.849   0.819   0.086
 6335SOL    HW119904   6.811   0.910   0.076
 6335SOL    HW219905   6.945   0.825   0.113
 6336SOL     OW19906   1.402   2.636   5.092
 6336SOL    HW119907   1.411   2.711   5.027
 6336SOL    HW219908   1.471   2.645   5.164
 6337SOL     OW19909   0.632   4.612   4.820
 6337SOL    HW119910   0.654   4.653   4.732
 6337SOL    HW219911   0.708   4.624   4.884
 6338SOL     OW19912   3.665   1.559   4.538
 6338SOL    HW119913   3.721   1.632   4.578
 6338SOL    HW219914   3.691   1.547   4.442
 6339SOL     OW19915   0.278   2.659   4.088
 6339SOL    HW119916   0.300   2.667   3.991
 6339SOL    HW219917   0.180   2.671   4.101
 6340SOL     OW19918   2.987   5.704   3.752
 6340SOL    HW119919   2.989   5.640   3.828
 6340SOL    HW219920   3.025   5.660   3.670
 6341SOL     OW19921   5.934   5.423   2.241
 6341SOL    HW119922   5.946   5.519   2.220
 6341SOL    HW219923   5.984   5.400   2.325
 6342SOL     OW19924   1.361   3.543   0.723
 6342SOL    HW119925   1.368   3.510   0.628
 6342SOL    HW219926   1.338   3.640   0.722
 6343SOL     OW19927   4.494   1.280   0.555
 6343SOL    HW119928   4.577   1.252   0.507
 6343SOL    HW219929   4.452   1.201   0.599
 6344SOL     OW19930   6.295   4.843   4.653
 6344SOL    HW119931   6.391   4.814   4.646
 6344SOL    HW219932   6.236   4.762   4.651
 6345SOL     OW19933   1.735   2.223   1.458
 6345SOL    HW119934   1.810   2.176   1.412
 6345SOL    HW219935   1.724   2.188   1.551
 6346SOL     OW19936   0.533   5.209   3.897
 6346SOL    HW119937   0.591   5.164   3.965
 6346SOL    HW219938   0.567   5.302   3.882
 6347SOL     OW19939   2.959   0.636   0.605
 6347SOL    HW119940   2.913   0.598   0.525
 6347SOL    HW219941   2.920   0.597   0.689
 6348SOL     OW19942   0.439   2.999   3.943
 6348SOL    HW119943   0.493   2.958   3.869
 6348SOL    HW219944   0.488   2.988   4.029
 6349SOL     OW19945   1.390   0.725   0.717
 6349SOL    HW119946   1.376   0.749   0.621
 6349SOL    HW219947   1.325   0.776   0.773
 6350SOL     OW19948   6.877   5.881   3.203
 6350SOL    HW119949   6.930   5.895   3.287
 6350SOL    HW219950   6.882   5.963   3.146
 6351SOL     OW19951   0.145   2.390   3.127
 6351SOL    HW119952   0.223   2.330   3.111
 6351SOL    HW219953   0.164   2.480   3.087
 6352SOL     OW19954   6.615   4.665   2.440
 6352SOL    HW119955   6.662   4.741   2.485
 6352SOL    HW219956   6.680   4.614   2.383
 6353SOL     OW19957   6.751   6.766   1.913
 6353SOL    HW119958   6.696   6.833   1.963
 6353SOL    HW219959   6.825   6.733   1.971
 6354SOL     OW19960   0.048   6.856   4.434
 6354SOL    HW119961   6.986   6.834   4.391
 6354SOL    HW219962   0.030   6.906   4.520
 6355SOL     OW19963   1.308   2.157   1.347
 6355SOL    HW119964   1.267   2.182   1.259
 6355SOL    HW219965   1.235   2.141   1.414
 6356SOL     OW19966   3.433   3.682   1.348
 6356SOL    HW119967   3.431   3.690   1.448
 6356SOL    HW219968   3.479   3.597   1.322
 6357SOL     OW19969   5.008   1.948   1.064
 6357SOL    HW119970   5.046   1.920   1.152
 6357SOL    HW219971   5.019   1.873   0.998
 6358SOL     OW19972   1.171   2.647   5.470
 6358SOL    HW119973   1.085   2.652   5.520
 6358SOL    HW219974   1.240   2.702   5.517
 6359SOL     OW19975   6.898   0.864   6.666
 6359SOL    HW119976   6.954   0.918   6.728
 6359SOL    HW219977   6.915   0.766   6.681
 6360SOL     OW19978   2.162   5.084   4.185
 6360SOL    HW119979   2.217   5.168   4.179
 6360SOL    HW219980   2.084   5.100   4.245
 6361SOL     OW19981   2.985   6.700   5.452
 6361SOL    HW119982   2.949   6.608   5.432
 6361SOL    HW219983   2.979   6.718   5.550
 6362SOL     OW19984   6.594   5.282   6.225
 6362SOL    HW119985   6.692   5.270   6.209
 6362SOL    HW219986   6.577   5.367   6.275
 6363SOL     OW19987   0.931   5.255   3.828
 6363SOL    HW119988   0.868   5.177   3.817
 6363SOL    HW219989   1.000   5.233   3.896
 6364SOL     OW19990   2.895   1.988   6.211
 6364SOL    HW119991   2.956   1.920   6.252
 6364SOL    HW219992   2.936   2.024   6.128
 6365SOL     OW19993   3.899   5.598   2.636
 6365SOL    HW119994   3.954   5.589   2.719
 6365SOL    HW219995   3.919   5.685   2.592
 6366SOL     OW19996   0.688   4.040   5.594
 6366SOL    HW119997   0.743   4.007   5.517
 6366SOL    HW219998   0.690   4.140   5.595
 6367SOL     OW19999   5.199   5.772   2.040
 6367SOL    HW120000   5.113   5.805   2.078
 6367SOL    HW220001   5.269   5.843   2.050
 6368SOL     OW20002   2.841   1.409   2.499
 6368SOL    HW120003   2.851   1.501   2.537
 6368SOL    HW220004   2.821   1.416   2.401
 6369SOL     OW20005   2.161   6.214   5.059
 6369SOL    HW120006   2.190   6.292   5.114
 6369SOL    HW220007   2.231   6.143   5.063
 6370SOL     OW20008   5.458   3.186   2.002
 6370SOL    HW120009   5.461   3.109   1.938
 6370SOL    HW220010   5.374   3.238   1.986
 6371SOL     OW20011   4.055   1.259   3.843
 6371SOL    HW120012   4.074   1.172   3.797
 6371SOL    HW220013   3.960   1.259   3.876
 6372SOL     OW20014   2.637   0.244   2.671
 6372SOL    HW120015   2.655   0.339   2.646
 6372SOL    HW220016   2.719   0.189   2.656
 6373SOL     OW20017   3.404   4.507   0.195
 6373SOL    HW120018   3.486   4.455   0.221
 6373SOL    HW220019   3.413   4.537   0.100
 6374SOL     OW20020   3.060   3.163   3.945
 6374SOL    HW120021   3.065   3.205   3.854
 6374SOL    HW220022   2.979   3.104   3.950
 6375SOL     OW20023   2.477   5.941   1.735
 6375SOL    HW120024   2.408   5.879   1.697
 6375SOL    HW220025   2.517   5.995   1.660
 6376SOL     OW20026   1.324   1.514   5.363
 6376SOL    HW120027   1.225   1.514   5.371
 6376SOL    HW220028   1.356   1.607   5.343
 6377SOL     OW20029   1.424   2.244   3.812
 6377SOL    HW120030   1.394   2.183   3.739
 6377SOL    HW220031   1.364   2.234   3.891
 6378SOL     OW20032   4.488   5.200   3.837
 6378SOL    HW120033   4.429   5.147   3.776
 6378SOL    HW220034   4.584   5.174   3.822
 6379SOL     OW20035   2.869   4.806   1.694
 6379SOL    HW120036   2.826   4.718   1.716
 6379SOL    HW220037   2.962   4.808   1.731
 6380SOL     OW20038   1.478   0.748   6.238
 6380SOL    HW120039   1.567   0.791   6.222
 6380SOL    HW220040   1.470   0.667   6.180
 6381SOL     OW20041   3.458   3.131   2.719
 6381SOL    HW120042   3.373   3.087   2.688
 6381SOL    HW220043   3.509   3.165   2.640
 6382SOL     OW20044   1.413   4.853   4.531
 6382SOL    HW120045   1.397   4.842   4.629
 6382SOL    HW220046   1.478   4.783   4.500
 6383SOL     OW20047   3.698   1.448   4.238
 6383SOL    HW120048   3.666   1.358   4.266
 6383SOL    HW220049   3.633   1.489   4.174
 6384SOL     OW20050   6.926   4.346   1.952
 6384SOL    HW120051   6.842   4.389   1.986
 6384SOL    HW220052   6.920   4.336   1.853
 6385SOL     OW20053   1.063   5.814   5.704
 6385SOL    HW120054   0.978   5.811   5.652
 6385SOL    HW220055   1.066   5.898   5.759
 6386SOL     OW20056   2.296   5.374   2.691
 6386SOL    HW120057   2.243   5.325   2.622
 6386SOL    HW220058   2.325   5.463   2.654
 6387SOL     OW20059   6.182   0.756   4.941
 6387SOL    HW120060   6.183   0.856   4.948
 6387SOL    HW220061   6.217   0.716   5.025
 6388SOL     OW20062   2.054   4.628   2.886
 6388SOL    HW120063   2.128   4.682   2.925
 6388SOL    HW220064   1.984   4.688   2.848
 6389SOL     OW20065   1.395   4.097   1.113
 6389SOL    HW120066   1.353   4.025   1.170
 6389SOL    HW220067   1.323   4.156   1.076
 6390SOL     OW20068   0.546   3.247   4.789
 6390SOL    HW120069   0.578   3.208   4.875
 6390SOL    HW220070   0.564   3.184   4.714
 6391SOL     OW20071   4.039   0.552   0.232
 6391SOL    HW120072   4.013   0.582   0.324
 6391SOL    HW220073   4.001   0.461   0.215
 6392SOL     OW20074   1.602   5.719   4.468
 6392SOL    HW120075   1.647   5.779   4.403
 6392SOL    HW220076   1.503   5.736   4.466
 6393SOL     OW20077   4.687   1.147   6.899
 6393SOL    HW120078   4.597   1.171   6.861
 6393SOL    HW220079   4.758   1.197   6.849
 6394SOL     OW20080   3.649   5.523   1.910
 6394SOL    HW120081   3.554   5.528   1.943
 6394SOL    HW220082   3.672   5.428   1.888
 6395SOL     OW20083   5.479   2.090   0.036
 6395SOL    HW120084   5.476   2.053   6.969
 6395SOL    HW220085   5.574   2.111   0.060
 6396SOL     OW20086   6.435   2.917   6.711
 6396SOL    HW120087   6.418   2.865   6.627
 6396SOL    HW220088   6.357   2.976   6.731
 6397SOL     OW20089   6.395   1.188   0.781
 6397SOL    HW120090   6.411   1.266   0.719
 6397SOL    HW220091   6.386   1.104   0.727
 6398SOL     OW20092   4.006   0.835   1.741
 6398SOL    HW120093   4.017   0.929   1.773
 6398SOL    HW220094   3.910   0.809   1.747
 6399SOL     OW20095   1.150   6.542   6.443
 6399SOL    HW120096   1.206   6.622   6.420
 6399SOL    HW220097   1.186   6.461   6.397
 6400SOL     OW20098   2.678   5.005   4.785
 6400SOL    HW120099   2.729   4.999   4.700
 6400SOL    HW220100   2.583   4.975   4.770
 6401SOL     OW20101   0.617   5.122   5.712
 6401SOL    HW120102   0.671   5.168   5.641
 6401SOL    HW220103   0.679   5.082   5.780
 6402SOL     OW20104   1.884   3.094   3.372
 6402SOL    HW120105   1.886   3.101   3.272
 6402SOL    HW220106   1.972   3.060   3.405
 6403SOL     OW20107   0.420   6.289   1.690
 6403SOL    HW120108   0.324   6.265   1.676
 6403SOL    HW220109   0.472   6.266   1.608
 6404SOL     OW20110   5.284   0.719   2.569
 6404SOL    HW120111   5.309   0.789   2.502
 6404SOL    HW220112   5.240   0.762   2.648
 6405SOL     OW20113   3.481   0.178   1.480
 6405SOL    HW120114   3.561   0.121   1.459
 6405SOL    HW220115   3.510   0.264   1.521
 6406SOL     OW20116   2.680   1.718   3.186
 6406SOL    HW120117   2.664   1.697   3.090
 6406SOL    HW220118   2.664   1.816   3.202
 6407SOL     OW20119   4.802   6.276   6.851
 6407SOL    HW120120   4.800   6.370   6.885
 6407SOL    HW220121   4.716   6.255   6.805
 6408SOL     OW20122   5.727   2.438   1.109
 6408SOL    HW120123   5.734   2.528   1.151
 6408SOL    HW220124   5.630   2.412   1.102
 6409SOL     OW20125   1.065   5.331   2.108
 6409SOL    HW120126   1.152   5.296   2.073
 6409SOL    HW220127   1.024   5.392   2.040
 6410SOL     OW20128   0.594   0.379   1.489
 6410SOL    HW120129   0.651   0.322   1.430
 6410SOL    HW220130   0.498   0.353   1.478
 6411SOL     OW20131   1.436   1.986   3.244
 6411SOL    HW120132   1.445   1.915   3.174
 6411SOL    HW220133   1.366   1.959   3.310
 6412SOL     OW20134   5.795   2.530   4.510
 6412SOL    HW120135   5.792   2.500   4.415
 6412SOL    HW220136   5.794   2.450   4.571
 6413SOL     OW20137   0.472   5.136   1.127
 6413SOL    HW120138   0.569   5.112   1.125
 6413SOL    HW220139   0.426   5.082   1.198
 6414SOL     OW20140   5.912   0.568   3.288
 6414SOL    HW120141   5.888   0.527   3.376
 6414SOL    HW220142   5.946   0.661   3.301
 6415SOL     OW20143   1.391   1.552   1.921
 6415SOL    HW120144   1.365   1.554   1.824
 6415SOL    HW220145   1.339   1.621   1.971
 6416SOL     OW20146   2.518   6.102   6.454
 6416SOL    HW120147   2.507   6.100   6.553
 6416SOL    HW220148   2.596   6.044   6.428
 6417SOL     OW20149   7.011   5.647   4.150
 6417SOL    HW120150   6.923   5.694   4.153
 6417SOL    HW220151   0.021   5.637   4.243
 6418SOL     OW20152   7.018   5.186   2.161
 6418SOL    HW120153   0.010   5.201   2.064
 6418SOL    HW220154   0.065   5.227   2.215
 6419SOL     OW20155   2.397   2.767   0.343
 6419SOL    HW120156   2.377   2.753   0.440
 6419SOL    HW220157   2.466   2.838   0.332
 6420SOL     OW20158   0.587   2.374   0.026
 6420SOL    HW120159   0.632   2.343   6.968
 6420SOL    HW220160   0.558   2.294   0.079
 6421SOL     OW20161   5.680   1.501   0.209
 6421SOL    HW120162   5.631   1.588   0.209
 6421SOL    HW220163   5.626   1.433   0.160
 6422SOL     OW20164   5.972   2.720   2.820
 6422SOL    HW120165   6.040   2.734   2.748
 6422SOL    HW220166   5.945   2.624   2.821
 6423SOL     OW20167   5.235   3.867   0.473
 6423SOL    HW120168   5.317   3.922   0.460
 6423SOL    HW220169   5.166   3.894   0.405
 6424SOL     OW20170   6.003   3.796   5.010
 6424SOL    HW120171   5.905   3.791   4.992
 6424SOL    HW220172   6.050   3.829   4.928
 6425SOL     OW20173   0.481   5.666   1.222
 6425SOL    HW120174   0.495   5.716   1.307
 6425SOL    HW220175   0.498   5.728   1.145
 6426SOL     OW20176   6.287   3.176   2.977
 6426SOL    HW120177   6.334   3.253   3.022
 6426SOL    HW220178   6.195   3.204   2.951
 6427SOL     OW20179   0.568   3.252   6.034
 6427SOL    HW120180   0.481   3.223   5.994
 6427SOL    HW220181   0.641   3.191   6.002
 6428SOL     OW20182   6.081   4.106   4.787
 6428SOL    HW120183   6.136   4.022   4.789
 6428SOL    HW220184   5.993   4.086   4.744
 6429SOL     OW20185   0.908   1.371   5.528
 6429SOL    HW120186   0.814   1.405   5.536
 6429SOL    HW220187   0.963   1.437   5.477
 6430SOL     OW20188   6.374   2.714   0.469
 6430SOL    HW120189   6.357   2.801   0.422
 6430SOL    HW220190   6.296   2.653   0.455
 6431SOL     OW20191   5.795   1.135   2.354
 6431SOL    HW120192   5.706   1.166   2.386
 6431SOL    HW220193   5.822   1.053   2.404
 6432SOL     OW20194   6.067   3.934   0.630
 6432SOL    HW120195   5.985   3.956   0.578
 6432SOL    HW220196   6.066   3.984   0.716
 6433SOL     OW20197   2.106   3.576   1.542
 6433SOL    HW120198   2.046   3.656   1.539
 6433SOL    HW220199   2.055   3.495   1.513
 6434SOL     OW20200   1.623   5.812   0.814
 6434SOL    HW120201   1.668   5.760   0.741
 6434SOL    HW220202   1.546   5.863   0.775
 6435SOL     OW20203   4.968   3.517   0.960
 6435SOL    HW120204   4.888   3.574   0.942
 6435SOL    HW220205   5.040   3.573   1.001
 6436SOL     OW20206   2.025   2.517   1.233
 6436SOL    HW120207   2.075   2.445   1.282
 6436SOL    HW220208   1.987   2.480   1.148
 6437SOL     OW20209   0.271   1.265   0.927
 6437SOL    HW120210   0.285   1.192   0.860
 6437SOL    HW220211   0.266   1.353   0.879
 6438SOL     OW20212   0.878   3.195   4.993
 6438SOL    HW120213   0.857   3.105   4.955
 6438SOL    HW220214   0.917   3.253   4.922
 6439SOL     OW20215   6.978   6.355   2.724
 6439SOL    HW120216   6.880   6.370   2.716
 6439SOL    HW220217   6.995   6.270   2.774
 6440SOL     OW20218   0.896   0.401   1.933
 6440SOL    HW120219   0.840   0.431   1.856
 6440SOL    HW220220   0.957   0.475   1.961
 6441SOL     OW20221   4.941   1.770   3.477
 6441SOL    HW120222   4.949   1.853   3.422
 6441SOL    HW220223   4.905   1.793   3.567
 6442SOL     OW20224   1.696   1.414   3.625
 6442SOL    HW120225   1.616   1.474   3.629
 6442SOL    HW220226   1.766   1.455   3.566
 6443SOL     OW20227   1.889   0.421   1.076
 6443SOL    HW120228   1.949   0.341   1.068
 6443SOL    HW220229   1.796   0.395   1.049
 6444SOL     OW20230   1.006   1.584   2.833
 6444SOL    HW120231   0.925   1.642   2.820
 6444SOL    HW220232   1.088   1.642   2.831
 6445SOL     OW20233   3.118   4.573   6.223
 6445SOL    HW120234   3.075   4.607   6.307
 6445SOL    HW220235   3.095   4.476   6.212
 6446SOL     OW20236   0.255   1.034   0.784
 6446SOL    HW120237   0.323   0.973   0.744
 6446SOL    HW220238   0.197   0.983   0.848
 6447SOL     OW20239   1.543   0.742   3.475
 6447SOL    HW120240   1.514   0.652   3.509
 6447SOL    HW220241   1.591   0.731   3.388
 6448SOL     OW20242   6.572   2.495   2.751
 6448SOL    HW120243   6.665   2.458   2.750
 6448SOL    HW220244   6.550   2.531   2.660
 6449SOL     OW20245   4.081   2.593   0.768
 6449SOL    HW120246   4.153   2.603   0.837
 6449SOL    HW220247   4.120   2.559   0.683
 6450SOL     OW20248   6.591   2.405   0.438
 6450SOL    HW120249   6.513   2.346   0.420
 6450SOL    HW220250   6.623   2.446   0.352
 6451SOL     OW20251   2.582   6.285   4.244
 6451SOL    HW120252   2.512   6.215   4.256
 6451SOL    HW220253   2.609   6.288   4.147
 6452SOL     OW20254   3.179   6.225   4.288
 6452SOL    HW120255   3.101   6.167   4.312
 6452SOL    HW220256   3.194   6.221   4.189
 6453SOL     OW20257   2.280   5.097   6.724
 6453SOL    HW120258   2.201   5.155   6.700
 6453SOL    HW220259   2.288   5.023   6.658
 6454SOL     OW20260   3.705   0.894   4.937
 6454SOL    HW120261   3.650   0.975   4.955
 6454SOL    HW220262   3.720   0.884   4.839
 6455SOL     OW20263   6.427   3.466   0.334
 6455SOL    HW120264   6.514   3.515   0.325
 6455SOL    HW220265   6.440   3.371   0.304
 6456SOL     OW20266   6.456   1.844   4.543
 6456SOL    HW120267   6.381   1.785   4.513
 6456SOL    HW220268   6.419   1.931   4.574
 6457SOL     OW20269   5.682   3.241   2.142
 6457SOL    HW120270   5.715   3.336   2.144
 6457SOL    HW220271   5.596   3.237   2.091
 6458SOL     OW20272   0.894   5.998   3.808
 6458SOL    HW120273   0.974   5.946   3.776
 6458SOL    HW220274   0.820   5.990   3.742
 6459SOL     OW20275   5.737   4.237   0.118
 6459SOL    HW120276   5.725   4.198   0.209
 6459SOL    HW220277   5.770   4.331   0.125
 6460SOL     OW20278   3.756   4.791   1.493
 6460SOL    HW120279   3.817   4.803   1.414
 6460SOL    HW220280   3.698   4.711   1.478
 6461SOL     OW20281   3.533   5.938   5.160
 6461SOL    HW120282   3.519   6.011   5.227
 6461SOL    HW220283   3.496   5.966   5.072
 6462SOL     OW20284   1.999   3.936   2.602
 6462SOL    HW120285   2.033   4.025   2.572
 6462SOL    HW220286   2.031   3.865   2.539
 6463SOL     OW20287   1.526   3.366   5.854
 6463SOL    HW120288   1.471   3.433   5.905
 6463SOL    HW220289   1.582   3.415   5.787
 6464SOL     OW20290   1.379   4.987   1.959
 6464SOL    HW120291   1.459   5.045   1.978
 6464SOL    HW220292   1.333   4.965   2.044
 6465SOL     OW20293   6.332   0.559   2.390
 6465SOL    HW120294   6.276   0.635   2.424
 6465SOL    HW220295   6.426   0.569   2.423
 6466SOL     OW20296   6.214   2.574   4.734
 6466SOL    HW120297   6.269   2.657   4.746
 6466SOL    HW220298   6.118   2.599   4.721
 6467SOL     OW20299   3.423   0.144   6.322
 6467SOL    HW120300   3.514   0.107   6.301
 6467SOL    HW220301   3.372   0.079   6.376
 6468SOL     OW20302   6.202   4.578   1.835
 6468SOL    HW120303   6.272   4.529   1.887
 6468SOL    HW220304   6.201   4.674   1.862
 6469SOL     OW20305   6.160   1.772   5.948
 6469SOL    HW120306   6.185   1.677   5.926
 6469SOL    HW220307   6.134   1.778   6.044
 6470SOL     OW20308   6.658   6.082   4.652
 6470SOL    HW120309   6.604   6.003   4.625
 6470SOL    HW220310   6.596   6.156   4.680
 6471SOL     OW20311   6.428   6.350   5.257
 6471SOL    HW120312   6.478   6.400   5.327
 6471SOL    HW220313   6.330   6.368   5.267
 6472SOL     OW20314   1.916   6.261   1.789
 6472SOL    HW120315   1.906   6.357   1.763
 6472SOL    HW220316   1.828   6.226   1.823
 6473SOL     OW20317   2.152   1.163   5.506
 6473SOL    HW120318   2.102   1.083   5.470
 6473SOL    HW220319   2.146   1.164   5.605
 6474SOL     OW20320   1.827   3.414   6.101
 6474SOL    HW120321   1.830   3.498   6.156
 6474SOL    HW220322   1.916   3.401   6.057
 6475SOL     OW20323   4.306   5.299   4.033
 6475SOL    HW120324   4.274   5.288   3.939
 6475SOL    HW220325   4.405   5.314   4.033
 6476SOL     OW20326   4.912   5.703   2.901
 6476SOL    HW120327   4.884   5.731   2.809
 6476SOL    HW220328   4.907   5.782   2.963
 6477SOL     OW20329   6.554   6.210   6.917
 6477SOL    HW120330   6.515   6.279   6.977
 6477SOL    HW220331   6.510   6.121   6.936
 6478SOL     OW20332   4.256   6.006   1.101
 6478SOL    HW120333   4.290   5.980   1.010
 6478SOL    HW220334   4.247   6.105   1.106
 6479SOL     OW20335   2.803   5.767   2.853
 6479SOL    HW120336   2.877   5.819   2.895
 6479SOL    HW220337   2.735   5.744   2.923
 6480SOL     OW20338   2.276   0.615   0.622
 6480SOL    HW120339   2.273   0.699   0.567
 6480SOL    HW220340   2.264   0.638   0.718
 6481SOL     OW20341   4.555   0.537   1.216
 6481SOL    HW120342   4.469   0.590   1.222
 6481SOL    HW220343   4.556   0.467   1.287
 6482SOL     OW20344   0.427   0.199   5.633
 6482SOL    HW120345   0.427   0.262   5.556
 6482SOL    HW220346   0.520   0.189   5.669
 6483SOL     OW20347   1.781   4.876   1.490
 6483SOL    HW120348   1.855   4.810   1.499
 6483SOL    HW220349   1.817   4.969   1.500
 6484SOL     OW20350   4.663   6.784   2.936
 6484SOL    HW120351   4.721   6.836   2.998
 6484SOL    HW220352   4.700   6.790   2.843
 6485SOL     OW20353   0.577   2.975   2.738
 6485SOL    HW120354   0.613   2.892   2.781
 6485SOL    HW220355   0.617   2.984   2.647
 6486SOL     OW20356   1.669   2.963   2.930
 6486SOL    HW120357   1.758   2.930   2.963
 6486SOL    HW220358   1.675   2.980   2.832
 6487SOL     OW20359   6.006   5.625   3.405
 6487SOL    HW120360   5.957   5.621   3.317
 6487SOL    HW220361   6.102   5.649   3.388
 6488SOL     OW20362   3.298   5.343   4.211
 6488SOL    HW120363   3.299   5.243   4.206
 6488SOL    HW220364   3.307   5.372   4.306
 6489SOL     OW20365   2.374   1.535   6.452
 6489SOL    HW120366   2.453   1.565   6.398
 6489SOL    HW220367   2.406   1.477   6.527
 6490SOL     OW20368   5.119   1.884   0.295
 6490SOL    HW120369   5.072   1.815   0.349
 6490SOL    HW220370   5.174   1.942   0.354
 6491SOL     OW20371   5.566   1.144   5.686
 6491SOL    HW120372   5.568   1.118   5.589
 6491SOL    HW220373   5.652   1.187   5.711
 6492SOL     OW20374   6.231   5.896   6.255
 6492SOL    HW120375   6.219   5.883   6.353
 6492SOL    HW220376   6.328   5.892   6.232
 6493SOL     OW20377   0.471   7.004   5.255
 6493SOL    HW120378   0.403   0.039   5.296
 6493SOL    HW220379   0.430   6.913   5.244
 6494SOL     OW20380   0.358   2.197   3.114
 6494SOL    HW120381   0.294   2.139   3.164
 6494SOL    HW220382   0.451   2.183   3.150
 6495SOL     OW20383   5.366   4.546   2.042
 6495SOL    HW120384   5.430   4.491   1.989
 6495SOL    HW220385   5.335   4.624   1.988
 6496SOL     OW20386   0.168   6.363   3.233
 6496SOL    HW120387   0.215   6.443   3.198
 6496SOL    HW220388   0.069   6.374   3.221
 6497SOL     OW20389   0.510   6.842   1.385
 6497SOL    HW120390   0.435   6.826   1.449
 6497SOL    HW220391   0.530   6.757   1.336
 6498SOL     OW20392   1.336   3.772   4.319
 6498SOL    HW120393   1.239   3.788   4.334
 6498SOL    HW220394   1.389   3.847   4.359
 6499SOL     OW20395   6.384   1.317   3.228
 6499SOL    HW120396   6.397   1.348   3.322
 6499SOL    HW220397   6.454   1.357   3.169
 6500SOL     OW20398   5.678   4.840   2.217
 6500SOL    HW120399   5.720   4.835   2.308
 6500SOL    HW220400   5.614   4.764   2.206
 6501SOL     OW20401   6.705   4.384   0.725
 6501SOL    HW120402   6.624   4.401   0.669
 6501SOL    HW220403   6.713   4.456   0.795
 6502SOL     OW20404   0.890   5.064   1.373
 6502SOL    HW120405   0.984   5.096   1.364
 6502SOL    HW220406   0.881   5.008   1.455
 6503SOL     OW20407   4.385   0.317   3.897
 6503SOL    HW120408   4.312   0.249   3.889
 6503SOL    HW220409   4.387   0.373   3.815
 6504SOL     OW20410   2.243   1.833   0.710
 6504SOL    HW120411   2.311   1.761   0.715
 6504SOL    HW220412   2.261   1.891   0.630
 6505SOL     OW20413   5.587   5.163   0.603
 6505SOL    HW120414   5.541   5.251   0.613
 6505SOL    HW220415   5.686   5.178   0.599
 6506SOL     OW20416   2.428   1.044   1.421
 6506SOL    HW120417   2.495   1.118   1.411
 6506SOL    HW220418   2.336   1.080   1.407
 6507SOL     OW20419   2.970   0.861   1.811
 6507SOL    HW120420   2.901   0.835   1.878
 6507SOL    HW220421   2.940   0.944   1.763
 6508SOL     OW20422   1.844   2.521   2.004
 6508SOL    HW120423   1.825   2.443   2.064
 6508SOL    HW220424   1.916   2.495   1.939
 6509SOL     OW20425   1.306   3.152   4.169
 6509SOL    HW120426   1.360   3.207   4.233
 6509SOL    HW220427   1.367   3.110   4.102
 6510SOL     OW20428   6.302   4.368   6.481
 6510SOL    HW120429   6.261   4.306   6.548
 6510SOL    HW220430   6.375   4.421   6.525
 6511SOL     OW20431   0.149   6.791   5.865
 6511SOL    HW120432   0.200   6.854   5.807
 6511SOL    HW220433   0.055   6.784   5.832
 6512SOL     OW20434   5.195   6.224   4.092
 6512SOL    HW120435   5.282   6.272   4.081
 6512SOL    HW220436   5.212   6.127   4.110
 6513SOL     OW20437   1.029   6.725   3.465
 6513SOL    HW120438   1.067   6.728   3.372
 6513SOL    HW220439   1.087   6.778   3.527
 6514SOL     OW20440   2.816   0.600   3.409
 6514SOL    HW120441   2.754   0.542   3.461
 6514SOL    HW220442   2.908   0.593   3.447
 6515SOL     OW20443   1.040   0.812   3.502
 6515SOL    HW120444   1.014   0.741   3.568
 6515SOL    HW220445   0.992   0.796   3.416
 6516SOL     OW20446   1.470   0.845   5.398
 6516SOL    HW120447   1.425   0.854   5.487
 6516SOL    HW220448   1.543   0.914   5.391
 6517SOL     OW20449   2.400   2.175   1.086
 6517SOL    HW120450   2.494   2.157   1.058
 6517SOL    HW220451   2.338   2.162   1.009
 6518SOL     OW20452   6.001   6.493   0.910
 6518SOL    HW120453   5.999   6.445   0.998
 6518SOL    HW220454   5.996   6.592   0.926
 6519SOL     OW20455   1.111   1.963   4.052
 6519SOL    HW120456   1.155   2.010   4.129
 6519SOL    HW220457   1.088   2.030   3.982
 6520SOL     OW20458   5.753   5.164   1.105
 6520SOL    HW120459   5.682   5.114   1.055
 6520SOL    HW220460   5.722   5.185   1.197
 6521SOL     OW20461   1.332   2.169   5.837
 6521SOL    HW120462   1.410   2.107   5.833
 6521SOL    HW220463   1.262   2.132   5.898
 6522SOL     OW20464   2.243   4.748   4.554
 6522SOL    HW120465   2.158   4.765   4.504
 6522SOL    HW220466   2.302   4.828   4.549
 6523SOL     OW20467   2.031   2.374   0.737
 6523SOL    HW120468   2.031   2.433   0.656
 6523SOL    HW220469   1.980   2.291   0.717
 6524SOL     OW20470   4.035   2.602   5.499
 6524SOL    HW120471   4.028   2.687   5.446
 6524SOL    HW220472   3.958   2.597   5.563
 6525SOL     OW20473   0.519   2.707   4.223
 6525SOL    HW120474   0.432   2.686   4.177
 6525SOL    HW220475   0.504   2.713   4.321
 6526SOL     OW20476   1.480   5.874   3.597
 6526SOL    HW120477   1.533   5.829   3.524
 6526SOL    HW220478   1.529   5.956   3.628
 6527SOL     OW20479   2.118   1.361   4.283
 6527SOL    HW120480   2.080   1.269   4.295
 6527SOL    HW220481   2.044   1.428   4.286
 6528SOL     OW20482   0.423   0.394   3.496
 6528SOL    HW120483   0.498   0.370   3.434
 6528SOL    HW220484   0.360   0.456   3.450
 6529SOL     OW20485   6.456   2.847   2.405
 6529SOL    HW120486   6.431   2.925   2.348
 6529SOL    HW220487   6.373   2.808   2.446
 6530SOL     OW20488   0.085   1.626   0.023
 6530SOL    HW120489   0.162   1.563   0.014
 6530SOL    HW220490   0.014   1.584   0.079
 6531SOL     OW20491   5.033   2.398   5.552
 6531SOL    HW120492   5.117   2.367   5.508
 6531SOL    HW220493   4.974   2.442   5.485
 6532SOL     OW20494   1.175   1.339   0.060
 6532SOL    HW120495   1.179   1.402   7.009
 6532SOL    HW220496   1.217   1.252   0.035
 6533SOL     OW20497   4.834   6.928   1.007
 6533SOL    HW120498   4.833   0.000   0.987
 6533SOL    HW220499   4.918   6.906   1.058
 6534SOL     OW20500   3.241   2.818   6.751
 6534SOL    HW120501   3.325   2.864   6.782
 6534SOL    HW220502   3.163   2.855   6.800
 6535SOL     OW20503   2.291   3.461   5.181
 6535SOL    HW120504   2.316   3.525   5.108
 6535SOL    HW220505   2.325   3.496   5.268
 6536SOL     OW20506   0.144   1.864   0.109
 6536SOL    HW120507   0.109   1.774   0.083
 6536SOL    HW220508   0.241   1.857   0.132
 6537SOL     OW20509   0.569   0.591   6.428
 6537SOL    HW120510   0.647   0.556   6.377
 6537SOL    HW220511   0.496   0.617   6.365
 6538SOL     OW20512   2.737   2.606   5.632
 6538SOL    HW120513   2.788   2.590   5.547
 6538SOL    HW220514   2.658   2.545   5.636
 6539SOL     OW20515   3.640   1.388   6.927
 6539SOL    HW120516   3.701   1.411   6.850
 6539SOL    HW220517   3.576   1.463   6.942
 6540SOL     OW20518   3.904   2.224   3.283
 6540SOL    HW120519   3.920   2.201   3.379
 6540SOL    HW220520   3.985   2.269   3.246
 6541SOL     OW20521   2.685   2.441   5.254
 6541SOL    HW120522   2.637   2.493   5.183
 6541SOL    HW220523   2.754   2.382   5.211
 6542SOL     OW20524   4.991   4.561   2.606
 6542SOL    HW120525   5.077   4.524   2.640
 6542SOL    HW220526   4.942   4.491   2.555
 6543SOL     OW20527   1.098   6.475   5.895
 6543SOL    HW120528   1.124   6.550   5.834
 6543SOL    HW220529   1.016   6.431   5.861
 6544SOL     OW20530   0.001   5.779   2.643
 6544SOL    HW120531   6.939   5.740   2.673
 6544SOL    HW220532   7.017   5.878   2.629
 6545SOL     OW20533   6.130   3.014   6.653
 6545SOL    HW120534   6.155   3.011   6.556
 6545SOL    HW220535   6.032   2.998   6.662
 6546SOL     OW20536   3.335   4.801   6.213
 6546SOL    HW120537   3.323   4.890   6.257
 6546SOL    HW220538   3.252   4.746   6.225
 6547SOL     OW20539   4.486   1.253   6.362
 6547SOL    HW120540   4.529   1.168   6.391
 6547SOL    HW220541   4.531   1.288   6.280
 6548SOL     OW20542   4.892   3.971   5.972
 6548SOL    HW120543   4.856   4.061   5.948
 6548SOL    HW220544   4.851   3.940   6.057
 6549SOL     OW20545   2.729   2.243   2.651
 6549SOL    HW120546   2.793   2.254   2.727
 6549SOL    HW220547   2.675   2.160   2.666
 6550SOL     OW20548   1.045   5.867   2.281
 6550SOL    HW120549   1.066   5.955   2.239
 6550SOL    HW220550   1.068   5.794   2.217
 6551SOL     OW20551   3.700   5.206   1.985
 6551SOL    HW120552   3.645   5.123   1.981
 6551SOL    HW220553   3.778   5.198   1.924
 6552SOL     OW20554   4.638   4.531   5.536
 6552SOL    HW120555   4.714   4.579   5.581
 6552SOL    HW220556   4.595   4.469   5.602
 6553SOL     OW20557   0.120   3.261   3.303
 6553SOL    HW120558   0.121   3.256   3.403
 6553SOL    HW220559   0.213   3.253   3.268
 6554SOL     OW20560   6.942   3.952   4.771
 6554SOL    HW120561   6.954   3.909   4.681
 6554SOL    HW220562   6.951   4.051   4.762
 6555SOL     OW20563   0.723   1.613   1.328
 6555SOL    HW120564   0.662   1.622   1.407
 6555SOL    HW220565   0.817   1.601   1.360
 6556SOL     OW20566   3.770   6.963   3.510
 6556SOL    HW120567   3.735   6.917   3.592
 6556SOL    HW220568   3.697   7.015   3.467
 6557SOL     OW20569   5.401   5.667   0.623
 6557SOL    HW120570   5.402   5.740   0.691
 6557SOL    HW220571   5.307   5.636   0.608
 6558SOL     OW20572   0.050   6.619   5.490
 6558SOL    HW120573   0.062   6.622   5.391
 6558SOL    HW220574   0.081   6.705   5.529
 6559SOL     OW20575   2.968   3.626   1.150
 6559SOL    HW120576   2.999   3.699   1.089
 6559SOL    HW220577   3.030   3.548   1.144
 6560SOL     OW20578   4.163   1.632   0.991
 6560SOL    HW120579   4.218   1.550   1.004
 6560SOL    HW220580   4.101   1.644   1.069
 6561SOL     OW20581   3.713   3.723   4.669
 6561SOL    HW120582   3.808   3.755   4.672
 6561SOL    HW220583   3.693   3.689   4.577
 6562SOL     OW20584   0.391   4.574   5.302
 6562SOL    HW120585   0.318   4.551   5.238
 6562SOL    HW220586   0.354   4.631   5.375
 6563SOL     OW20587   0.602   5.521   2.218
 6563SOL    HW120588   0.688   5.563   2.247
 6563SOL    HW220589   0.529   5.547   2.282
 6564SOL     OW20590   1.568   4.961   3.100
 6564SOL    HW120591   1.602   4.987   3.190
 6564SOL    HW220592   1.561   4.861   3.094
 6565SOL     OW20593   6.698   3.820   4.790
 6565SOL    HW120594   6.746   3.739   4.822
 6565SOL    HW220595   6.762   3.882   4.744
 6566SOL     OW20596   4.072   1.065   0.700
 6566SOL    HW120597   4.156   1.015   0.684
 6566SOL    HW220598   4.092   1.150   0.748
 6567SOL     OW20599   6.382   2.597   0.793
 6567SOL    HW120600   6.398   2.609   0.695
 6567SOL    HW220601   6.435   2.519   0.827
 6568SOL     OW20602   5.091   3.655   1.448
 6568SOL    HW120603   4.995   3.649   1.420
 6568SOL    HW220604   5.105   3.736   1.505
 6569SOL     OW20605   1.529   4.174   5.364
 6569SOL    HW120606   1.608   4.123   5.331
 6569SOL    HW220607   1.553   4.224   5.447
 6570SOL     OW20608   6.844   3.980   1.945
 6570SOL    HW120609   6.771   4.047   1.956
 6570SOL    HW220610   6.916   4.019   1.886
 6571SOL     OW20611   1.624   5.654   3.879
 6571SOL    HW120612   1.603   5.590   3.805
 6571SOL    HW220613   1.556   5.644   3.952
 6572SOL     OW20614   2.105   3.738   5.670
 6572SOL    HW120615   2.193   3.749   5.718
 6572SOL    HW220616   2.047   3.676   5.723
 6573SOL     OW20617   1.726   1.681   1.620
 6573SOL    HW120618   1.676   1.726   1.546
 6573SOL    HW220619   1.721   1.738   1.703
 6574SOL     OW20620   2.051   4.449   4.687
 6574SOL    HW120621   2.074   4.504   4.767
 6574SOL    HW220622   2.098   4.361   4.694
 6575SOL     OW20623   1.533   1.849   2.531
 6575SOL    HW120624   1.537   1.921   2.462
 6575SOL    HW220625   1.509   1.888   2.620
 6576SOL     OW20626   0.294   6.305   4.000
 6576SOL    HW120627   0.214   6.249   3.981
 6576SOL    HW220628   0.322   6.293   4.095
 6577SOL     OW20629   0.273   4.074   5.970
 6577SOL    HW120630   0.353   4.038   6.017
 6577SOL    HW220631   0.272   4.040   5.876
 6578SOL     OW20632   6.213   5.770   3.836
 6578SOL    HW120633   6.169   5.821   3.762
 6578SOL    HW220634   6.230   5.676   3.807
 6579SOL     OW20635   0.541   3.874   4.181
 6579SOL    HW120636   0.442   3.881   4.178
 6579SOL    HW220637   0.572   3.893   4.274
 6580SOL     OW20638   5.390   2.446   0.521
 6580SOL    HW120639   5.475   2.479   0.563
 6580SOL    HW220640   5.318   2.440   0.590
 6581SOL     OW20641   2.638   2.236   5.445
 6581SOL    HW120642   2.672   2.158   5.393
 6581SOL    HW220643   2.639   2.318   5.388
 6582SOL     OW20644   6.656   0.796   2.021
 6582SOL    HW120645   6.709   0.714   2.045
 6582SOL    HW220646   6.563   0.787   2.057
 6583SOL     OW20647   6.744   1.029   6.279
 6583SOL    HW120648   6.690   0.978   6.347
 6583SOL    HW220649   6.839   0.998   6.282
 6584SOL     OW20650   5.638   2.535   0.662
 6584SOL    HW120651   5.697   2.525   0.742
 6584SOL    HW220652   5.605   2.629   0.656
 6585SOL     OW20653   2.987   0.541   2.389
 6585SOL    HW120654   3.080   0.568   2.362
 6585SOL    HW220655   2.935   0.623   2.414
 6586SOL     OW20656   5.916   2.179   6.912
 6586SOL    HW120657   5.890   2.209   6.820
 6586SOL    HW220658   5.959   2.256   6.961
 6587SOL     OW20659   1.415   5.749   1.857
 6587SOL    HW120660   1.506   5.744   1.815
 6587SOL    HW220661   1.424   5.782   1.951
 6588SOL     OW20662   2.997   2.538   0.267
 6588SOL    HW120663   3.071   2.495   0.217
 6588SOL    HW220664   3.022   2.632   0.291
 6589SOL     OW20665   4.905   1.622   5.785
 6589SOL    HW120666   4.995   1.588   5.758
 6589SOL    HW220667   4.875   1.692   5.720
 6590SOL     OW20668   6.417   2.004   5.577
 6590SOL    HW120669   6.321   1.982   5.560
 6590SOL    HW220670   6.474   1.959   5.508
 6591SOL     OW20671   4.879   0.253   3.048
 6591SOL    HW120672   4.811   0.313   3.005
 6591SOL    HW220673   4.969   0.295   3.042
 6592SOL     OW20674   6.228   4.980   5.416
 6592SOL    HW120675   6.243   4.981   5.515
 6592SOL    HW220676   6.213   4.886   5.386
 6593SOL     OW20677   5.199   0.988   3.270
 6593SOL    HW120678   5.162   0.928   3.341
 6593SOL    HW220679   5.130   1.057   3.246
 6594SOL     OW20680   5.601   0.773   6.951
 6594SOL    HW120681   5.617   0.725   6.865
 6594SOL    HW220682   5.540   0.720   7.009
 6595SOL     OW20683   3.418   2.446   6.210
 6595SOL    HW120684   3.371   2.529   6.177
 6595SOL    HW220685   3.364   2.404   6.282
 6596SOL     OW20686   2.729   5.968   5.137
 6596SOL    HW120687   2.826   5.943   5.132
 6596SOL    HW220688   2.672   5.888   5.120
 6597SOL     OW20689   0.153   4.058   6.995
 6597SOL    HW120690   0.081   4.006   0.016
 6597SOL    HW220691   0.242   4.031   0.005
 6598SOL     OW20692   2.852   6.326   4.266
 6598SOL    HW120693   2.869   6.238   4.311
 6598SOL    HW220694   2.755   6.333   4.243
 6599SOL     OW20695   4.412   3.535   6.463
 6599SOL    HW120696   4.506   3.505   6.446
 6599SOL    HW220697   4.390   3.521   6.559
 6600SOL     OW20698   4.204   4.854   5.087
 6600SOL    HW120699   4.228   4.950   5.105
 6600SOL    HW220700   4.152   4.817   5.163
 6601SOL     OW20701   0.766   0.973   2.004
 6601SOL    HW120702   0.788   1.059   2.051
 6601SOL    HW220703   0.851   0.926   1.980
 6602SOL     OW20704   6.299   1.782   1.273
 6602SOL    HW120705   6.384   1.758   1.320
 6602SOL    HW220706   6.250   1.850   1.326
 6603SOL     OW20707   2.322   1.667   1.409
 6603SOL    HW120708   2.261   1.589   1.392
 6603SOL    HW220709   2.324   1.726   1.329
 6604SOL     OW20710   4.076   6.288   4.735
 6604SOL    HW120711   3.983   6.282   4.699
 6604SOL    HW220712   4.132   6.215   4.696
 6605SOL     OW20713   5.255   6.601   0.567
 6605SOL    HW120714   5.346   6.572   0.536
 6605SOL    HW220715   5.191   6.525   0.560
 6606SOL     OW20716   0.624   2.461   3.015
 6606SOL    HW120717   0.636   2.369   3.051
 6606SOL    HW220718   0.596   2.522   3.089
 6607SOL     OW20719   1.245   3.449   2.525
 6607SOL    HW120720   1.332   3.497   2.518
 6607SOL    HW220721   1.199   3.452   2.436
 6608SOL     OW20722   4.949   4.346   4.690
 6608SOL    HW120723   4.850   4.333   4.699
 6608SOL    HW220724   4.971   4.380   4.599
 6609SOL     OW20725   5.170   2.010   6.655
 6609SOL    HW120726   5.126   2.036   6.740
 6609SOL    HW220727   5.212   2.091   6.613
 6610SOL     OW20728   3.506   1.468   0.837
 6610SOL    HW120729   3.557   1.528   0.898
 6610SOL    HW220730   3.408   1.484   0.850
 6611SOL     OW20731   5.177   3.718   2.823
 6611SOL    HW120732   5.078   3.727   2.812
 6611SOL    HW220733   5.197   3.646   2.890
 6612SOL     OW20734   0.878   6.015   6.598
 6612SOL    HW120735   0.804   6.024   6.665
 6612SOL    HW220736   0.897   6.105   6.557
 6613SOL     OW20737   5.964   4.983   0.799
 6613SOL    HW120738   5.907   5.053   0.756
 6613SOL    HW220739   5.915   4.943   0.877
 6614SOL     OW20740   5.998   4.612   6.099
 6614SOL    HW120741   6.048   4.527   6.117
 6614SOL    HW220742   6.043   4.660   6.024
 6615SOL     OW20743   0.054   3.492   5.016
 6615SOL    HW120744   0.143   3.535   4.998
 6615SOL    HW220745   7.015   3.520   4.945
 6616SOL     OW20746   4.784   1.404   4.091
 6616SOL    HW120747   4.749   1.420   4.183
 6616SOL    HW220748   4.714   1.356   4.037
 6617SOL     OW20749   4.455   0.093   4.682
 6617SOL    HW120750   4.451   0.077   4.781
 6617SOL    HW220751   4.409   0.179   4.660
 6618SOL     OW20752   0.030   4.692   1.103
 6618SOL    HW120753   0.068   4.725   1.017
 6618SOL    HW220754   0.047   4.594   1.112
 6619SOL     OW20755   6.918   6.505   2.268
 6619SOL    HW120756   6.989   6.455   2.317
 6619SOL    HW220757   6.839   6.445   2.254
 6620SOL     OW20758   4.680   3.050   5.453
 6620SOL    HW120759   4.720   3.140   5.470
 6620SOL    HW220760   4.714   3.015   5.365
 6621SOL     OW20761   3.038   2.810   0.303
 6621SOL    HW120762   2.943   2.819   0.275
 6621SOL    HW220763   3.058   2.877   0.375
 6622SOL     OW20764   5.775   5.400   0.324
 6622SOL    HW120765   5.680   5.374   0.339
 6622SOL    HW220766   5.779   5.490   0.282
 6623SOL     OW20767   3.646   4.079   2.692
 6623SOL    HW120768   3.657   4.016   2.615
 6623SOL    HW220769   3.735   4.098   2.732
 6624SOL     OW20770   4.604   5.072   4.448
 6624SOL    HW120771   4.637   4.992   4.398
 6624SOL    HW220772   4.660   5.086   4.529
 6625SOL     OW20773   5.715   6.461   0.068
 6625SOL    HW120774   5.749   6.396   7.026
 6625SOL    HW220775   5.770   6.544   0.066
 6626SOL     OW20776   2.617   4.811   3.926
 6626SOL    HW120777   2.556   4.863   3.986
 6626SOL    HW220778   2.563   4.761   3.859
 6627SOL     OW20779   1.590   0.709   1.684
 6627SOL    HW120780   1.497   0.744   1.696
 6627SOL    HW220781   1.595   0.659   1.597
 6628SOL     OW20782   4.032   6.251   3.599
 6628SOL    HW120783   3.999   6.180   3.661
 6628SOL    HW220784   3.954   6.290   3.548
 6629SOL     OW20785   3.038   3.938   7.016
 6629SOL    HW120786   2.962   3.926   6.952
 6629SOL    HW220787   3.043   3.858   0.050
 6630SOL     OW20788   3.756   1.009   6.276
 6630SOL    HW120789   3.768   1.106   6.299
 6630SOL    HW220790   3.731   0.958   6.358
 6631SOL     OW20791   3.819   6.942   1.167
 6631SOL    HW120792   3.860   6.991   1.245
 6631SOL    HW220793   3.724   6.969   1.157
 6632SOL     OW20794   5.994   3.495   2.077
 6632SOL    HW120795   6.022   3.456   1.990
 6632SOL    HW220796   6.062   3.561   2.108
 6633SOL     OW20797   0.703   6.252   2.917
 6633SOL    HW120798   0.624   6.196   2.891
 6633SOL    HW220799   0.749   6.211   2.995
 6634SOL     OW20800   6.835   2.163   5.936
 6634SOL    HW120801   6.796   2.135   5.849
 6634SOL    HW220802   6.768   2.215   5.988
 6635SOL     OW20803   4.287   5.147   3.409
 6635SOL    HW120804   4.365   5.208   3.394
 6635SOL    HW220805   4.202   5.198   3.396
 6636SOL     OW20806   1.778   3.517   3.335
 6636SOL    HW120807   1.729   3.510   3.422
 6636SOL    HW220808   1.828   3.432   3.318
 6637SOL     OW20809   6.684   3.092   1.301
 6637SOL    HW120810   6.589   3.067   1.285
 6637SOL    HW220811   6.695   3.191   1.290
 6638SOL     OW20812   1.918   0.909   6.681
 6638SOL    HW120813   1.945   1.000   6.651
 6638SOL    HW220814   1.826   0.912   6.719
 6639SOL     OW20815   3.988   5.157   5.948
 6639SOL    HW120816   4.009   5.060   5.957
 6639SOL    HW220817   3.934   5.188   6.026
 6640SOL     OW20818   5.767   3.682   2.778
 6640SOL    HW120819   5.715   3.751   2.728
 6640SOL    HW220820   5.706   3.611   2.812
 6641SOL     OW20821   2.409   5.785   6.524
 6641SOL    HW120822   2.430   5.827   6.435
 6641SOL    HW220823   2.491   5.739   6.559
 6642SOL     OW20824   6.728   6.118   5.938
 6642SOL    HW120825   6.786   6.144   5.860
 6642SOL    HW220826   6.698   6.024   5.926
 6643SOL     OW20827   4.081   5.431   7.008
 6643SOL    HW120828   4.115   5.368   6.938
 6643SOL    HW220829   4.034   5.379   0.053
 6644SOL     OW20830   0.845   3.809   1.781
 6644SOL    HW120831   0.749   3.813   1.752
 6644SOL    HW220832   0.862   3.881   1.847
 6645SOL     OW20833   6.925   4.648   5.701
 6645SOL    HW120834   6.886   4.610   5.785
 6645SOL    HW220835   6.915   4.748   5.701
 6646SOL     OW20836   1.610   5.441   3.700
 6646SOL    HW120837   1.578   5.382   3.625
 6646SOL    HW220838   1.708   5.458   3.689
 6647SOL     OW20839   4.399   1.771   1.924
 6647SOL    HW120840   4.376   1.808   2.014
 6647SOL    HW220841   4.484   1.719   1.931
 6648SOL     OW20842   4.160   5.644   2.254
 6648SOL    HW120843   4.118   5.689   2.332
 6648SOL    HW220844   4.101   5.569   2.223
 6649SOL     OW20845   4.271   1.245   6.178
 6649SOL    HW120846   4.262   1.341   6.203
 6649SOL    HW220847   4.357   1.208   6.215
 6650SOL     OW20848   3.462   1.328   3.822
 6650SOL    HW120849   3.476   1.406   3.762
 6650SOL    HW220850   3.472   1.357   3.917
 6651SOL     OW20851   0.713   1.592   0.604
 6651SOL    HW120852   0.723   1.522   0.533
 6651SOL    HW220853   0.708   1.548   0.694
 6652SOL     OW20854   0.685   5.255   3.310
 6652SOL    HW120855   0.686   5.155   3.307
 6652SOL    HW220856   0.764   5.287   3.362
 6653SOL     OW20857   3.872   3.505   3.074
 6653SOL    HW120858   3.866   3.405   3.070
 6653SOL    HW220859   3.931   3.533   3.150
 6654SOL     OW20860   1.498   3.823   1.692
 6654SOL    HW120861   1.581   3.835   1.638
 6654SOL    HW220862   1.429   3.889   1.661
 6655SOL     OW20863   1.678   0.950   6.825
 6655SOL    HW120864   1.652   0.914   6.915
 6655SOL    HW220865   1.680   1.050   6.829
 6656SOL     OW20866   6.791   2.382   1.899
 6656SOL    HW120867   6.795   2.402   1.801
 6656SOL    HW220868   6.706   2.419   1.937
 6657SOL     OW20869   3.146   5.252   5.225
 6657SOL    HW120870   3.113   5.239   5.319
 6657SOL    HW220871   3.083   5.206   5.162
 6658SOL     OW20872   6.855   6.857   5.943
 6658SOL    HW120873   6.818   6.765   5.931
 6658SOL    HW220874   6.792   6.910   6.000
 6659SOL     OW20875   1.731   2.903   6.613
 6659SOL    HW120876   1.746   2.836   6.686
 6659SOL    HW220877   1.708   2.856   6.528
 6660SOL     OW20878   0.335   6.397   2.859
 6660SOL    HW120879   0.269   6.456   2.811
 6660SOL    HW220880   0.392   6.453   2.919
 6661SOL     OW20881   6.559   6.573   4.193
 6661SOL    HW120882   6.527   6.605   4.281
 6661SOL    HW220883   6.533   6.638   4.122
 6662SOL     OW20884   0.860   3.880   6.265
 6662SOL    HW120885   0.800   3.883   6.185
 6662SOL    HW220886   0.954   3.899   6.236
 6663SOL     OW20887   0.526   5.138   2.167
 6663SOL    HW120888   0.589   5.104   2.097
 6663SOL    HW220889   0.452   5.189   2.124
 6664SOL     OW20890   6.851   2.138   1.993
 6664SOL    HW120891   6.946   2.116   2.013
 6664SOL    HW220892   6.846   2.230   1.953
 6665SOL     OW20893   2.056   6.506   3.414
 6665SOL    HW120894   1.974   6.463   3.452
 6665SOL    HW220895   2.108   6.438   3.363
 6666SOL     OW20896   5.244   0.828   0.155
 6666SOL    HW120897   5.331   0.790   0.187
 6666SOL    HW220898   5.261   0.901   0.089
 6667SOL     OW20899   5.831   5.041   5.321
 6667SOL    HW120900   5.792   5.056   5.230
 6667SOL    HW220901   5.845   4.943   5.335
 6668SOL     OW20902   6.382   5.994   1.377
 6668SOL    HW120903   6.389   6.070   1.312
 6668SOL    HW220904   6.393   5.907   1.329
 6669SOL     OW20905   0.868   4.877   2.989
 6669SOL    HW120906   0.892   4.850   3.082
 6669SOL    HW220907   0.805   4.810   2.950
 6670SOL     OW20908   4.625   4.557   6.851
 6670SOL    HW120909   4.565   4.630   6.819
 6670SOL    HW220910   4.631   4.485   6.782
 6671SOL     OW20911   0.608   2.448   5.630
 6671SOL    HW120912   0.548   2.436   5.552
 6671SOL    HW220913   0.582   2.384   5.703
 6672SOL     OW20914   6.908   1.106   5.020
 6672SOL    HW120915   6.992   1.152   4.990
 6672SOL    HW220916   6.911   1.094   5.120
 6673SOL     OW20917   4.217   6.123   1.412
 6673SOL    HW120918   4.273   6.091   1.488
 6673SOL    HW220919   4.239   6.218   1.392
 6674SOL     OW20920   0.861   6.319   5.334
 6674SOL    HW120921   0.927   6.358   5.398
 6674SOL    HW220922   0.890   6.338   5.241
 6675SOL     OW20923   6.850   5.987   7.022
 6675SOL    HW120924   6.768   5.985   6.965
 6675SOL    HW220925   6.898   5.899   7.014
 6676SOL     OW20926   0.466   1.800   0.784
 6676SOL    HW120927   0.372   1.803   0.818
 6676SOL    HW220928   0.513   1.722   0.825
 6677SOL     OW20929   0.359   4.711   0.570
 6677SOL    HW120930   0.453   4.684   0.548
 6677SOL    HW220931   0.357   4.758   0.658
 6678SOL     OW20932   0.721   3.206   4.033
 6678SOL    HW120933   0.679   3.175   3.947
 6678SOL    HW220934   0.761   3.128   4.080
 6679SOL     OW20935   2.304   0.919   4.778
 6679SOL    HW120936   2.341   0.924   4.685
 6679SOL    HW220937   2.226   0.982   4.786
 6680SOL     OW20938   2.434   0.448   6.348
 6680SOL    HW120939   2.488   0.373   6.311
 6680SOL    HW220940   2.354   0.463   6.289
 6681SOL     OW20941   5.454   5.689   6.371
 6681SOL    HW120942   5.361   5.669   6.404
 6681SOL    HW220943   5.472   5.787   6.381
 6682SOL     OW20944   6.290   5.243   2.273
 6682SOL    HW120945   6.344   5.172   2.318
 6682SOL    HW220946   6.301   5.236   2.174
 6683SOL     OW20947   4.807   2.858   4.301
 6683SOL    HW120948   4.734   2.795   4.327
 6683SOL    HW220949   4.827   2.848   4.204
 6684SOL     OW20950   1.376   1.513   2.297
 6684SOL    HW120951   1.471   1.483   2.309
 6684SOL    HW220952   1.328   1.506   2.384
 6685SOL     OW20953   5.804   2.768   6.825
 6685SOL    HW120954   5.758   2.766   6.913
 6685SOL    HW220955   5.773   2.847   6.772
 6686SOL     OW20956   5.468   4.353   3.682
 6686SOL    HW120957   5.433   4.280   3.742
 6686SOL    HW220958   5.533   4.314   3.618
 6687SOL     OW20959   0.827   0.386   0.489
 6687SOL    HW120960   0.786   0.295   0.486
 6687SOL    HW220961   0.879   0.402   0.405
 6688SOL     OW20962   0.802   5.224   2.725
 6688SOL    HW120963   0.870   5.193   2.791
 6688SOL    HW220964   0.809   5.323   2.714
 6689SOL     OW20965   4.978   3.975   6.980
 6689SOL    HW120966   4.908   3.919   7.024
 6689SOL    HW220967   5.051   3.916   6.945
 6690SOL     OW20968   0.511   1.418   0.471
 6690SOL    HW120969   0.421   1.414   0.514
 6690SOL    HW220970   0.523   1.507   0.427
 6691SOL     OW20971   1.185   5.502   0.898
 6691SOL    HW120972   1.275   5.544   0.890
 6691SOL    HW220973   1.187   5.432   0.969
 6692SOL     OW20974   4.712   3.482   6.725
 6692SOL    HW120975   4.730   3.554   6.657
 6692SOL    HW220976   4.778   3.408   6.711
 6693SOL     OW20977   4.251   3.786   5.930
 6693SOL    HW120978   4.236   3.885   5.935
 6693SOL    HW220979   4.343   3.764   5.962
 6694SOL     OW20980   2.776   6.231   6.689
 6694SOL    HW120981   2.729   6.153   6.730
 6694SOL    HW220982   2.719   6.271   6.617
 6695SOL     OW20983   1.782   1.529   0.236
 6695SOL    HW120984   1.834   1.524   0.150
 6695SOL    HW220985   1.719   1.607   0.232
 6696SOL     OW20986   1.530   2.280   1.301
 6696SOL    HW120987   1.603   2.265   1.367
 6696SOL    HW220988   1.452   2.221   1.324
 6697SOL     OW20989   5.196   3.415   4.458
 6697SOL    HW120990   5.191   3.495   4.518
 6697SOL    HW220991   5.291   3.395   4.435
 6698SOL     OW20992   2.553   4.061   6.240
 6698SOL    HW120993   2.632   4.009   6.209
 6698SOL    HW220994   2.581   4.128   6.309
 6699SOL     OW20995   1.962   3.041   6.615
 6699SOL    HW120996   1.870   3.013   6.588
 6699SOL    HW220997   1.987   3.124   6.565
 6700SOL     OW20998   0.330   6.458   6.366
 6700SOL    HW120999   0.320   6.515   6.448
 6700SOL    HW221000   0.273   6.377   6.374
 6701SOL     OW21001   1.309   2.638   0.604
 6701SOL    HW121002   1.264   2.550   0.620
 6701SOL    HW221003   1.241   2.712   0.611
 6702SOL     OW21004   2.592   3.236   0.712
 6702SOL    HW121005   2.517   3.279   0.763
 6702SOL    HW221006   2.613   3.291   0.632
 6703SOL     OW21007   0.268   2.574   0.123
 6703SOL    HW121008   0.365   2.598   0.116
 6703SOL    HW221009   0.218   2.614   0.046
 6704SOL     OW21010   5.248   3.513   2.975
 6704SOL    HW121011   5.301   3.490   3.057
 6704SOL    HW221012   5.161   3.462   2.976
 6705SOL     OW21013   5.595   1.307   1.215
 6705SOL    HW121014   5.674   1.246   1.213
 6705SOL    HW221015   5.531   1.276   1.285
 6706SOL     OW21016   1.349   6.171   0.208
 6706SOL    HW121017   1.297   6.256   0.215
 6706SOL    HW221018   1.317   6.120   0.128
 6707SOL     OW21019   1.631   5.188   2.921
 6707SOL    HW121020   1.592   5.109   2.967
 6707SOL    HW221021   1.595   5.272   2.962
 6708SOL     OW21022   2.328   6.408   1.161
 6708SOL    HW121023   2.334   6.317   1.203
 6708SOL    HW221024   2.336   6.478   1.232
 6709SOL     OW21025   5.237   1.760   3.773
 6709SOL    HW121026   5.157   1.705   3.798
 6709SOL    HW221027   5.320   1.711   3.799
 6710SOL     OW21028   1.804   2.203   0.614
 6710SOL    HW121029   1.783   2.271   0.544
 6710SOL    HW221030   1.788   2.242   0.705
 6711SOL     OW21031   5.927   3.680   6.557
 6711SOL    HW121032   5.955   3.663   6.463
 6711SOL    HW221033   5.831   3.708   6.559
 6712SOL     OW21034   3.453   6.363   1.361
 6712SOL    HW121035   3.375   6.381   1.301
 6712SOL    HW221036   3.532   6.415   1.330
 6713SOL     OW21037   1.640   2.285   3.124
 6713SOL    HW121038   1.577   2.228   3.071
 6713SOL    HW221039   1.588   2.358   3.169
 6714SOL     OW21040   6.599   0.449   4.931
 6714SOL    HW121041   6.638   0.514   4.866
 6714SOL    HW221042   6.571   0.497   5.015
 6715SOL     OW21043   5.212   2.406   0.737
 6715SOL    HW121044   5.124   2.453   0.731
 6715SOL    HW221045   5.209   2.337   0.809
 6716SOL     OW21046   3.530   6.108   0.841
 6716SOL    HW121047   3.507   6.015   0.870
 6716SOL    HW221048   3.561   6.160   0.920
 6717SOL     OW21049   3.881   0.980   6.666
 6717SOL    HW121050   3.925   0.913   6.725
 6717SOL    HW221051   3.842   1.053   6.722
 6718SOL     OW21052   3.911   0.282   6.769
 6718SOL    HW121053   3.851   0.249   6.696
 6718SOL    HW221054   3.951   0.370   6.742
 6719SOL     OW21055   0.609   2.207   5.039
 6719SOL    HW121056   0.555   2.168   4.964
 6719SOL    HW221057   0.659   2.287   5.006
 6720SOL     OW21058   1.314   4.595   0.992
 6720SOL    HW121059   1.312   4.628   1.087
 6720SOL    HW221060   1.227   4.550   0.971
 6721SOL     OW21061   6.130   6.354   3.018
 6721SOL    HW121062   6.034   6.366   3.045
 6721SOL    HW221063   6.136   6.279   2.951
 6722SOL     OW21064   4.116   4.677   0.082
 6722SOL    HW121065   4.072   4.662   0.171
 6722SOL    HW221066   4.142   4.588   0.043
 6723SOL     OW21067   3.970   1.442   2.444
 6723SOL    HW121068   3.948   1.458   2.348
 6723SOL    HW221069   4.018   1.523   2.481
 6724SOL     OW21070   3.327   4.640   5.667
 6724SOL    HW121071   3.386   4.716   5.640
 6724SOL    HW221072   3.291   4.656   5.759
 6725SOL     OW21073   0.600   5.607   1.609
 6725SOL    HW121074   0.568   5.512   1.611
 6725SOL    HW221075   0.686   5.611   1.558
 6726SOL     OW21076   2.474   2.683   1.649
 6726SOL    HW121077   2.465   2.656   1.552
 6726SOL    HW221078   2.562   2.727   1.663
 6727SOL     OW21079   2.782   4.268   0.870
 6727SOL    HW121080   2.740   4.254   0.780
 6727SOL    HW221081   2.881   4.267   0.861
 6728SOL     OW21082   4.765   1.388   4.353
 6728SOL    HW121083   4.765   1.289   4.366
 6728SOL    HW221084   4.743   1.433   4.440
 6729SOL     OW21085   4.743   6.232   3.579
 6729SOL    HW121086   4.660   6.182   3.554
 6729SOL    HW221087   4.797   6.251   3.497
 6730SOL     OW21088   1.175   6.796   2.667
 6730SOL    HW121089   1.231   6.779   2.586
 6730SOL    HW221090   1.151   6.893   2.672
 6731SOL     OW21091   1.905   3.749   1.555
 6731SOL    HW121092   1.878   3.692   1.632
 6731SOL    HW221093   1.827   3.805   1.526
 6732SOL     OW21094   3.262   5.617   0.755
 6732SOL    HW121095   3.333   5.582   0.817
 6732SOL    HW221096   3.225   5.541   0.701
 6733SOL     OW21097   6.326   5.899   4.279
 6733SOL    HW121098   6.277   5.826   4.327
 6733SOL    HW221099   6.282   5.918   4.192
 6734SOL     OW21100   2.140   3.623   6.782
 6734SOL    HW121101   2.152   3.524   6.771
 6734SOL    HW221102   2.219   3.671   6.744
 6735SOL     OW21103   0.896   6.454   6.178
 6735SOL    HW121104   0.994   6.448   6.196
 6735SOL    HW221105   0.877   6.534   6.122
 6736SOL     OW21106   2.268   4.410   1.764
 6736SOL    HW121107   2.214   4.485   1.801
 6736SOL    HW221108   2.358   4.408   1.808
 6737SOL     OW21109   1.205   6.569   1.014
 6737SOL    HW121110   1.106   6.575   1.025
 6737SOL    HW221111   1.245   6.660   1.023
 6738SOL     OW21112   4.787   1.598   1.371
 6738SOL    HW121113   4.841   1.595   1.287
 6738SOL    HW221114   4.750   1.507   1.391
 6739SOL     OW21115   3.637   6.464   5.542
 6739SOL    HW121116   3.705   6.463   5.615
 6739SOL    HW221117   3.682   6.474   5.453
 6740SOL     OW21118   5.547   2.054   6.089
 6740SOL    HW121119   5.498   2.080   6.173
 6740SOL    HW221120   5.630   2.108   6.081
 6741SOL     OW21121   0.395   0.725   5.381
 6741SOL    HW121122   0.455   0.740   5.302
 6741SOL    HW221123   0.448   0.737   5.465
 6742SOL     OW21124   6.100   5.644   4.745
 6742SOL    HW121125   6.034   5.701   4.696
 6742SOL    HW221126   6.192   5.661   4.710
 6743SOL     OW21127   5.674   2.264   1.404
 6743SOL    HW121128   5.721   2.220   1.328
 6743SOL    HW221129   5.685   2.209   1.487
 6744SOL     OW21130   4.519   0.870   4.181
 6744SOL    HW121131   4.584   0.841   4.251
 6744SOL    HW221132   4.568   0.886   4.095
 6745SOL     OW21133   0.686   3.762   3.033
 6745SOL    HW121134   0.630   3.756   2.951
 6745SOL    HW221135   0.683   3.855   3.069
 6746SOL     OW21136   6.310   0.964   0.635
 6746SOL    HW121137   6.218   0.936   0.606
 6746SOL    HW221138   6.358   1.004   0.557
 6747SOL     OW21139   4.806   5.204   6.656
 6747SOL    HW121140   4.878   5.171   6.717
 6747SOL    HW221141   4.840   5.282   6.603
 6748SOL     OW21142   6.707   6.335   2.318
 6748SOL    HW121143   6.631   6.298   2.265
 6748SOL    HW221144   6.673   6.401   2.385
 6749SOL     OW21145   2.610   5.245   1.061
 6749SOL    HW121146   2.685   5.191   1.023
 6749SOL    HW221147   2.570   5.196   1.139
 6750SOL     OW21148   2.492   3.203   5.449
 6750SOL    HW121149   2.394   3.212   5.464
 6750SOL    HW221150   2.509   3.148   5.367
 6751SOL     OW21151   4.076   2.375   6.049
 6751SOL    HW121152   4.170   2.402   6.028
 6751SOL    HW221153   4.034   2.335   5.968
 6752SOL     OW21154   6.613   1.360   0.015
 6752SOL    HW121155   6.568   1.407   6.964
 6752SOL    HW221156   6.676   1.423   0.060
 6753SOL     OW21157   6.257   0.809   6.807
 6753SOL    HW121158   6.329   0.842   6.868
 6753SOL    HW221159   6.277   0.716   6.778
 6754SOL     OW21160   4.306   1.213   6.583
 6754SOL    HW121161   4.362   1.254   6.511
 6754SOL    HW221162   4.217   1.186   6.545
 6755SOL     OW21163   5.211   1.864   3.282
 6755SOL    HW121164   5.164   1.787   3.239
 6755SOL    HW221165   5.245   1.836   3.372
 6756SOL     OW21166   5.005   4.729   3.486
 6756SOL    HW121167   5.056   4.766   3.407
 6756SOL    HW221168   4.921   4.686   3.454
 6757SOL     OW21169   6.142   4.426   1.336
 6757SOL    HW121170   6.054   4.395   1.373
 6757SOL    HW221171   6.171   4.509   1.384
 6758SOL     OW21172   6.206   2.206   2.672
 6758SOL    HW121173   6.226   2.281   2.609
 6758SOL    HW221174   6.130   2.151   2.636
 6759SOL     OW21175   0.757   5.032   3.813
 6759SOL    HW121176   0.696   4.989   3.746
 6759SOL    HW221177   0.704   5.061   3.892
 6760SOL     OW21178   0.437   3.861   4.989
 6760SOL    HW121179   0.427   3.874   4.891
 6760SOL    HW221180   0.397   3.773   5.015
 6761SOL     OW21181   6.087   2.608   6.963
 6761SOL    HW121182   6.029   2.615   6.882
 6761SOL    HW221183   6.173   2.657   6.948
 6762SOL     OW21184   0.197   2.846   4.346
 6762SOL    HW121185   0.188   2.759   4.394
 6762SOL    HW221186   0.238   2.830   4.256
 6763SOL     OW21187   6.096   6.317   5.815
 6763SOL    HW121188   6.016   6.350   5.765
 6763SOL    HW221189   6.103   6.218   5.807
 6764SOL     OW21190   1.676   3.551   0.304
 6764SOL    HW121191   1.615   3.628   0.323
 6764SOL    HW221192   1.692   3.544   0.206
 6765SOL     OW21193   4.926   4.967   2.095
 6765SOL    HW121194   4.838   5.010   2.111
 6765SOL    HW221195   4.997   5.017   2.145
 6766SOL     OW21196   2.876   2.555   5.399
 6766SOL    HW121197   2.974   2.573   5.384
 6766SOL    HW221198   2.834   2.527   5.313
 6767SOL     OW21199   0.594   2.896   5.438
 6767SOL    HW121200   0.687   2.865   5.416
 6767SOL    HW221201   0.562   2.849   5.520
 6768SOL     OW21202   6.953   0.959   5.999
 6768SOL    HW121203   6.959   1.024   5.923
 6768SOL    HW221204   6.903   1.001   6.075
 6769SOL     OW21205   1.046   2.247   6.093
 6769SOL    HW121206   1.085   2.156   6.080
 6769SOL    HW221207   0.985   2.246   6.172
 6770SOL     OW21208   0.876   1.762   3.768
 6770SOL    HW121209   0.786   1.803   3.756
 6770SOL    HW221210   0.874   1.698   3.845
 6771SOL     OW21211   5.225   2.448   2.306
 6771SOL    HW121212   5.249   2.407   2.394
 6771SOL    HW221213   5.304   2.443   2.245
 6772SOL     OW21214   0.841   0.135   1.788
 6772SOL    HW121215   0.829   0.225   1.830
 6772SOL    HW221216   0.863   0.146   1.691
 6773SOL     OW21217   1.774   1.058   2.937
 6773SOL    HW121218   1.854   1.073   2.879
 6773SOL    HW221219   1.722   1.143   2.946
 6774SOL     OW21220   4.135   1.470   5.557
 6774SOL    HW121221   4.161   1.374   5.549
 6774SOL    HW221222   4.068   1.480   5.631
 6775SOL     OW21223   1.503   2.373   4.977
 6775SOL    HW121224   1.446   2.449   5.006
 6775SOL    HW221225   1.555   2.400   4.896
 6776SOL     OW21226   3.500   3.697   3.830
 6776SOL    HW121227   3.539   3.725   3.742
 6776SOL    HW221228   3.433   3.765   3.861
 6777SOL     OW21229   0.313   0.651   5.710
 6777SOL    HW121230   0.263   0.565   5.718
 6777SOL    HW221231   0.411   0.632   5.700
 6778SOL     OW21232   6.357   6.066   2.062
 6778SOL    HW121233   6.414   6.060   1.980
 6778SOL    HW221234   6.358   5.978   2.109
 6779SOL     OW21235   5.736   4.024   6.364
 6779SOL    HW121236   5.832   4.007   6.343
 6779SOL    HW221237   5.681   3.944   6.340
 6780SOL     OW21238   5.015   0.744   2.803
 6780SOL    HW121239   4.984   0.649   2.806
 6780SOL    HW221240   4.937   0.804   2.789
 6781SOL     OW21241   5.922   3.918   2.813
 6781SOL    HW121242   6.019   3.909   2.837
 6781SOL    HW221243   5.883   3.827   2.797
 6782SOL     OW21244   0.100   1.615   3.063
 6782SOL    HW121245   0.045   1.573   2.990
 6782SOL    HW221246   0.095   1.558   3.145
 6783SOL     OW21247   0.760   6.036   6.936
 6783SOL    HW121248   0.710   6.009   7.017
 6783SOL    HW221249   0.698   6.038   6.857
 6784SOL     OW21250   1.817   4.825   6.563
 6784SOL    HW121251   1.909   4.788   6.567
 6784SOL    HW221252   1.803   4.889   6.638
 6785SOL     OW21253   5.101   4.417   2.020
 6785SOL    HW121254   5.069   4.449   1.931
 6785SOL    HW221255   5.189   4.459   2.041
 6786SOL     OW21256   6.349   1.143   5.993
 6786SOL    HW121257   6.391   1.232   6.013
 6786SOL    HW221258   6.254   1.157   5.964
 6787SOL     OW21259   4.504   2.709   1.114
 6787SOL    HW121260   4.511   2.809   1.108
 6787SOL    HW221261   4.540   2.668   1.030
 6788SOL     OW21262   1.537   4.433   0.923
 6788SOL    HW121263   1.457   4.491   0.934
 6788SOL    HW221264   1.527   4.350   0.979
 6789SOL     OW21265   6.290   2.721   2.934
 6789SOL    HW121266   6.282   2.676   2.845
 6789SOL    HW221267   6.271   2.656   3.007
 6790SOL     OW21268   0.729   5.700   0.529
 6790SOL    HW121269   0.746   5.777   0.469
 6790SOL    HW221270   0.634   5.669   0.518
 6791SOL     OW21271   1.773   6.036   4.046
 6791SOL    HW121272   1.733   6.013   3.957
 6791SOL    HW221273   1.869   6.061   4.033
 6792SOL     OW21274   3.234   5.696   0.031
 6792SOL    HW121275   3.153   5.714   0.087
 6792SOL    HW221276   3.215   5.619   6.995
 6793SOL     OW21277   1.875   3.504   6.608
 6793SOL    HW121278   1.811   3.534   6.537
 6793SOL    HW221279   1.938   3.437   6.569
 6794SOL     OW21280   4.630   2.667   4.417
 6794SOL    HW121281   4.561   2.614   4.369
 6794SOL    HW221282   4.588   2.717   4.493
 6795SOL     OW21283   0.615   0.356   2.315
 6795SOL    HW121284   0.533   0.369   2.371
 6795SOL    HW221285   0.673   0.438   2.320
 6796SOL     OW21286   6.638   2.731   2.204
 6796SOL    HW121287   6.593   2.647   2.174
 6796SOL    HW221288   6.572   2.789   2.252
 6797SOL     OW21289   1.721   3.681   0.864
 6797SOL    HW121290   1.709   3.582   0.861
 6797SOL    HW221291   1.651   3.721   0.923
 6798SOL     OW21292   5.095   1.773   1.607
 6798SOL    HW121293   5.067   1.854   1.556
 6798SOL    HW221294   5.153   1.715   1.549
 6799SOL     OW21295   4.870   0.020   2.919
 6799SOL    HW121296   4.791   0.021   2.858
 6799SOL    HW221297   4.859   0.089   2.990
 6800SOL     OW21298   6.081   2.561   2.089
 6800SOL    HW121299   6.057   2.603   2.177
 6800SOL    HW221300   6.109   2.632   2.025
 6801SOL     OW21301   2.231   5.120   5.245
 6801SOL    HW121302   2.268   5.100   5.154
 6801SOL    HW221303   2.132   5.134   5.237
 6802SOL     OW21304   2.795   4.360   1.517
 6802SOL    HW121305   2.793   4.285   1.452
 6802SOL    HW221306   2.828   4.328   1.606
 6803SOL     OW21307   6.111   5.649   6.178
 6803SOL    HW121308   6.143   5.737   6.211
 6803SOL    HW221309   6.183   5.606   6.122
 6804SOL     OW21310   3.330   5.031   1.692
 6804SOL    HW121311   3.402   5.030   1.762
 6804SOL    HW221312   3.295   5.124   1.683
 6805SOL     OW21313   0.577   3.634   4.033
 6805SOL    HW121314   0.518   3.658   3.956
 6805SOL    HW221315   0.565   3.700   4.107
 6806SOL     OW21316   6.019   3.921   2.224
 6806SOL    HW121317   6.116   3.913   2.245
 6806SOL    HW221318   6.007   3.957   2.131
 6807SOL     OW21319   4.015   3.453   2.629
 6807SOL    HW121320   4.068   3.452   2.544
 6807SOL    HW221321   3.926   3.412   2.613
 6808SOL     OW21322   2.876   6.571   4.410
 6808SOL    HW121323   2.857   6.641   4.342
 6808SOL    HW221324   2.874   6.481   4.367
 6809SOL     OW21325   6.034   2.919   0.756
 6809SOL    HW121326   6.131   2.942   0.746
 6809SOL    HW221327   6.025   2.822   0.779
 6810SOL     OW21328   3.044   7.015   4.709
 6810SOL    HW121329   3.122   0.041   4.744
 6810SOL    HW221330   3.051   6.920   4.739
 6811SOL     OW21331   6.612   1.878   1.186
 6811SOL    HW121332   6.614   1.804   1.254
 6811SOL    HW221333   6.525   1.875   1.137
 6812SOL     OW21334   3.359   4.606   5.349
 6812SOL    HW121335   3.452   4.576   5.370
 6812SOL    HW221336   3.330   4.673   5.417
 6813SOL     OW21337   0.102   3.868   2.147
 6813SOL    HW121338   0.173   3.913   2.201
 6813SOL    HW221339   0.027   3.841   2.207
 6814SOL     OW21340   4.460   2.296   1.347
 6814SOL    HW121341   4.478   2.265   1.253
 6814SOL    HW221342   4.535   2.266   1.406
 6815SOL     OW21343   1.447   5.768   1.076
 6815SOL    HW121344   1.438   5.747   0.978
 6815SOL    HW221345   1.482   5.688   1.124
 6816SOL     OW21346   5.767   6.964   3.491
 6816SOL    HW121347   5.711   6.960   3.574
 6816SOL    HW221348   5.783   0.034   3.467
 6817SOL     OW21349   5.923   0.902   1.200
 6817SOL    HW121350   5.954   0.901   1.296
 6817SOL    HW221351   5.850   0.836   1.188
 6818SOL     OW21352   0.053   0.178   5.551
 6818SOL    HW121353   0.020   0.096   5.599
 6818SOL    HW221354   7.003   0.220   5.501
 6819SOL     OW21355   5.980   3.382   0.629
 6819SOL    HW121356   5.945   3.475   0.634
 6819SOL    HW221357   6.053   3.376   0.561
 6820SOL     OW21358   2.149   4.619   0.759
 6820SOL    HW121359   2.082   4.555   0.796
 6820SOL    HW221360   2.106   4.708   0.746
 6821SOL     OW21361   2.702   3.315   5.806
 6821SOL    HW121362   2.720   3.400   5.755
 6821SOL    HW221363   2.651   3.252   5.748
 6822SOL     OW21364   0.192   4.467   4.954
 6822SOL    HW121365   0.164   4.379   4.992
 6822SOL    HW221366   0.125   4.496   4.885
 6823SOL     OW21367   7.009   3.415   5.821
 6823SOL    HW121368   6.974   3.373   5.737
 6823SOL    HW221369   7.022   3.345   5.891
 6824SOL     OW21370   0.342   0.296   4.032
 6824SOL    HW121371   0.301   0.348   4.107
 6824SOL    HW221372   0.284   0.218   4.011
 6825SOL     OW21373   5.066   4.627   1.492
 6825SOL    HW121374   4.979   4.596   1.454
 6825SOL    HW221375   5.055   4.717   1.535
 6826SOL     OW21376   5.749   0.667   4.038
 6826SOL    HW121377   5.766   0.615   4.122
 6826SOL    HW221378   5.661   0.641   3.999
 6827SOL     OW21379   5.182   4.783   5.470
 6827SOL    HW121380   5.210   4.841   5.547
 6827SOL    HW221381   5.086   4.803   5.447
 6828SOL     OW21382   2.593   1.978   2.647
 6828SOL    HW121383   2.576   1.985   2.549
 6828SOL    HW221384   2.691   1.967   2.662
 6829SOL     OW21385   5.846   0.078   4.648
 6829SOL    HW121386   5.909   0.006   4.618
 6829SOL    HW221387   5.778   0.040   4.710
 6830SOL     OW21388   3.597   6.454   2.283
 6830SOL    HW121389   3.606   6.462   2.382
 6830SOL    HW221390   3.671   6.396   2.248
 6831SOL     OW21391   2.120   0.401   0.193
 6831SOL    HW121392   2.143   0.367   0.102
 6831SOL    HW221393   2.200   0.447   0.233
 6832SOL     OW21394   3.378   3.838   0.470
 6832SOL    HW121395   3.310   3.905   0.442
 6832SOL    HW221396   3.378   3.761   0.406
 6833SOL     OW21397   4.472   5.313   0.330
 6833SOL    HW121398   4.520   5.230   0.302
 6833SOL    HW221399   4.524   5.360   0.402
 6834SOL     OW21400   6.693   5.510   5.116
 6834SOL    HW121401   6.597   5.539   5.120
 6834SOL    HW221402   6.728   5.496   5.208
 6835SOL     OW21403   4.319   0.221   2.712
 6835SOL    HW121404   4.330   0.258   2.619
 6835SOL    HW221405   4.253   0.147   2.711
 6836SOL     OW21406   0.937   4.875   6.539
 6836SOL    HW121407   0.838   4.887   6.542
 6836SOL    HW221408   0.980   4.962   6.515
 6837SOL     OW21409   6.439   2.565   1.726
 6837SOL    HW121410   6.352   2.517   1.714
 6837SOL    HW221411   6.424   2.647   1.782
 6838SOL     OW21412   1.953   3.940   0.026
 6838SOL    HW121413   1.871   3.895   7.016
 6838SOL    HW221414   1.936   4.038   0.036
 6839SOL     OW21415   6.203   2.265   5.451
 6839SOL    HW121416   6.123   2.258   5.511
 6839SOL    HW221417   6.175   2.247   5.357
 6840SOL     OW21418   3.228   0.403   4.417
 6840SOL    HW121419   3.216   0.411   4.318
 6840SOL    HW221420   3.140   0.415   4.462
 6841SOL     OW21421   4.769   5.718   0.636
 6841SOL    HW121422   4.744   5.622   0.653
 6841SOL    HW221423   4.787   5.763   0.723
 6842SOL     OW21424   0.919   3.458   3.266
 6842SOL    HW121425   0.890   3.503   3.182
 6842SOL    HW221426   0.938   3.362   3.248
 6843SOL     OW21427   4.364   2.979   1.713
 6843SOL    HW121428   4.445   3.035   1.727
 6843SOL    HW221429   4.382   2.910   1.643
 6844SOL     OW21430   3.250   6.830   4.638
 6844SOL    HW121431   3.192   6.800   4.562
 6844SOL    HW221432   3.328   6.882   4.602
 6845SOL     OW21433   3.505   3.836   0.092
 6845SOL    HW121434   3.487   3.740   0.073
 6845SOL    HW221435   3.566   3.844   0.171
 6846SOL     OW21436   3.914   3.059   3.941
 6846SOL    HW121437   3.895   2.969   3.904
 6846SOL    HW221438   3.829   3.110   3.951
 6847SOL     OW21439   5.137   3.742   1.980
 6847SOL    HW121440   5.048   3.709   2.011
 6847SOL    HW221441   5.159   3.826   2.029
 6848SOL     OW21442   0.710   5.990   4.554
 6848SOL    HW121443   0.759   5.981   4.641
 6848SOL    HW221444   0.627   5.935   4.557
 6849SOL     OW21445   2.885   0.217   4.637
 6849SOL    HW121446   2.906   0.128   4.678
 6849SOL    HW221447   2.826   0.268   4.699
 6850SOL     OW21448   6.853   3.207   1.981
 6850SOL    HW121449   6.760   3.220   1.945
 6850SOL    HW221450   6.918   3.199   1.906
 6851SOL     OW21451   1.681   5.653   0.605
 6851SOL    HW121452   1.726   5.732   0.563
 6851SOL    HW221453   1.722   5.569   0.569
 6852SOL     OW21454   5.138   4.713   2.352
 6852SOL    HW121455   5.107   4.808   2.359
 6852SOL    HW221456   5.079   4.655   2.409
 6853SOL     OW21457   6.514   4.248   4.388
 6853SOL    HW121458   6.526   4.347   4.377
 6853SOL    HW221459   6.437   4.230   4.448
 6854SOL     OW21460   6.189   1.085   6.862
 6854SOL    HW121461   6.139   1.079   6.948
 6854SOL    HW221462   6.281   1.048   6.874
 6855SOL     OW21463   2.510   6.745   2.167
 6855SOL    HW121464   2.492   6.657   2.210
 6855SOL    HW221465   2.554   6.730   2.078
 6856SOL     OW21466   0.823   5.192   5.504
 6856SOL    HW121467   0.764   5.225   5.430
 6856SOL    HW221468   0.847   5.097   5.488
 6857SOL     OW21469   4.637   0.811   0.022
 6857SOL    HW121470   4.563   0.874   0.047
 6857SOL    HW221471   4.681   0.843   6.964
 6858SOL     OW21472   3.473   2.793   6.302
 6858SOL    HW121473   3.549   2.732   6.322
 6858SOL    HW221474   3.423   2.760   6.222
 6859SOL     OW21475   4.242   0.612   1.279
 6859SOL    HW121476   4.221   0.622   1.377
 6859SOL    HW221477   4.202   0.688   1.228
 6860SOL     OW21478   4.945   2.960   0.072
 6860SOL    HW121479   4.938   2.921   0.164
 6860SOL    HW221480   4.855   2.989   0.041
 6861SOL     OW21481   6.218   3.802   0.190
 6861SOL    HW121482   6.292   3.775   0.128
 6861SOL    HW221483   6.251   3.870   0.255
 6862SOL     OW21484   2.352   4.462   4.886
 6862SOL    HW121485   2.331   4.554   4.853
 6862SOL    HW221486   2.282   4.398   4.855
 6863SOL     OW21487   1.089   3.480   3.789
 6863SOL    HW121488   1.099   3.475   3.888
 6863SOL    HW221489   1.002   3.437   3.762
 6864SOL     OW21490   2.996   5.636   6.168
 6864SOL    HW121491   3.076   5.608   6.222
 6864SOL    HW221492   2.986   5.574   6.090
 6865SOL     OW21493   1.158   2.366   5.431
 6865SOL    HW121494   1.167   2.466   5.430
 6865SOL    HW221495   1.120   2.336   5.518
 6866SOL     OW21496   0.681   4.053   2.635
 6866SOL    HW121497   0.695   4.121   2.707
 6866SOL    HW221498   0.603   4.079   2.578
 6867SOL     OW21499   2.640   5.225   3.650
 6867SOL    HW121500   2.547   5.206   3.618
 6867SOL    HW221501   2.671   5.312   3.611
 6868SOL     OW21502   1.995   5.529   4.731
 6868SOL    HW121503   1.905   5.540   4.688
 6868SOL    HW221504   2.001   5.590   4.810
 6869SOL     OW21505   0.267   2.981   4.755
 6869SOL    HW121506   0.278   2.969   4.853
 6869SOL    HW221507   0.179   2.944   4.726
 6870SOL     OW21508   5.449   4.085   2.943
 6870SOL    HW121509   5.468   4.074   2.846
 6870SOL    HW221510   5.523   4.044   2.997
 6871SOL     OW21511   4.201   5.837   1.990
 6871SOL    HW121512   4.110   5.808   2.021
 6871SOL    HW221513   4.224   5.925   2.031
 6872SOL     OW21514   3.417   4.419   0.601
 6872SOL    HW121515   3.418   4.506   0.550
 6872SOL    HW221516   3.364   4.431   0.685
 6873SOL     OW21517   5.432   5.056   5.225
 6873SOL    HW121518   5.459   5.116   5.150
 6873SOL    HW221519   5.458   5.097   5.313
 6874SOL     OW21520   0.989   1.651   6.540
 6874SOL    HW121521   1.046   1.732   6.553
 6874SOL    HW221522   0.985   1.599   6.625
 6875SOL     OW21523   4.279   0.459   5.015
 6875SOL    HW121524   4.188   0.457   4.973
 6875SOL    HW221525   4.315   0.366   5.023
 6876SOL     OW21526   3.272   6.229   4.839
 6876SOL    HW121527   3.366   6.237   4.807
 6876SOL    HW221528   3.235   6.140   4.814
 6877SOL     OW21529   2.276   3.651   0.018
 6877SOL    HW121530   2.211   3.630   6.970
 6877SOL    HW221531   2.239   3.723   0.076
 6878SOL     OW21532   1.529   1.521   5.102
 6878SOL    HW121533   1.618   1.540   5.144
 6878SOL    HW221534   1.543   1.476   5.014
 6879SOL     OW21535   6.314   1.550   5.639
 6879SOL    HW121536   6.324   1.551   5.738
 6879SOL    HW221537   6.402   1.573   5.597
 6880SOL     OW21538   0.975   4.472   4.672
 6880SOL    HW121539   0.880   4.456   4.648
 6880SOL    HW221540   1.000   4.566   4.647
 6881SOL     OW21541   5.046   5.939   1.169
 6881SOL    HW121542   5.086   5.856   1.129
 6881SOL    HW221543   5.017   5.920   1.262
 6882SOL     OW21544   2.730   5.860   5.429
 6882SOL    HW121545   2.730   5.828   5.334
 6882SOL    HW221546   2.737   5.960   5.430
 6883SOL     OW21547   2.824   6.429   2.182
 6883SOL    HW121548   2.754   6.453   2.115
 6883SOL    HW221549   2.816   6.489   2.262
 6884SOL     OW21550   1.625   4.543   2.856
 6884SOL    HW121551   1.688   4.609   2.815
 6884SOL    HW221552   1.658   4.450   2.839
 6885SOL     OW21553   4.272   4.774   4.845
 6885SOL    HW121554   4.240   4.823   4.926
 6885SOL    HW221555   4.293   4.679   4.869
 6886SOL     OW21556   5.220   0.140   1.071
 6886SOL    HW121557   5.246   0.166   0.978
 6886SOL    HW221558   5.284   0.182   1.136
 6887SOL     OW21559   6.416   1.144   4.773
 6887SOL    HW121560   6.487   1.214   4.786
 6887SOL    HW221561   6.459   1.058   4.748
 6888SOL     OW21562   6.336   6.972   3.920
 6888SOL    HW121563   6.347   6.979   3.821
 6888SOL    HW221564   6.344   0.037   3.961
 6889SOL     OW21565   2.038   3.762   6.553
 6889SOL    HW121566   2.079   3.815   6.627
 6889SOL    HW221567   2.013   3.671   6.586
 6890SOL     OW21568   1.303   0.549   1.499
 6890SOL    HW121569   1.281   0.647   1.509
 6890SOL    HW221570   1.222   0.501   1.465
 6891SOL     OW21571   4.629   5.050   6.018
 6891SOL    HW121572   4.563   5.001   6.076
 6891SOL    HW221573   4.657   4.991   5.943
 6892SOL     OW21574   3.344   1.928   4.395
 6892SOL    HW121575   3.280   1.876   4.451
 6892SOL    HW221576   3.398   1.988   4.453
 6893SOL     OW21577   5.254   6.771   1.138
 6893SOL    HW121578   5.217   6.703   1.201
 6893SOL    HW221579   5.351   6.787   1.160
 6894SOL     OW21580   5.928   4.921   5.813
 6894SOL    HW121581   6.010   4.918   5.870
 6894SOL    HW221582   5.920   4.836   5.761
 6895SOL     OW21583   4.674   5.132   5.088
 6895SOL    HW121584   4.720   5.200   5.144
 6895SOL    HW221585   4.720   5.125   4.999
 6896SOL     OW21586   5.193   2.152   2.316
 6896SOL    HW121587   5.178   2.123   2.222
 6896SOL    HW221588   5.209   2.072   2.374
 6897SOL     OW21589   3.886   1.059   1.513
 6897SOL    HW121590   3.882   1.089   1.609
 6897SOL    HW221591   3.981   1.047   1.485
 6898SOL     OW21592   3.400   1.218   2.065
 6898SOL    HW121593   3.443   1.177   1.985
 6898SOL    HW221594   3.306   1.245   2.042
 6899SOL     OW21595   5.892   4.859   6.205
 6899SOL    HW121596   5.870   4.941   6.151
 6899SOL    HW221597   5.943   4.794   6.149
 6900SOL     OW21598   4.014   0.192   6.196
 6900SOL    HW121599   3.940   0.225   6.256
 6900SOL    HW221600   4.027   0.257   6.122
 6901SOL     OW21601   2.185   0.389   0.469
 6901SOL    HW121602   2.124   0.406   0.392
 6901SOL    HW221603   2.243   0.469   0.484
 6902SOL     OW21604   6.459   5.820   2.837
 6902SOL    HW121605   6.471   5.760   2.916
 6902SOL    HW221606   6.541   5.878   2.827
 6903SOL     OW21607   5.990   4.144   0.033
 6903SOL    HW121608   6.054   4.219   0.019
 6903SOL    HW221609   5.907   4.178   0.078
 6904SOL     OW21610   0.592   1.165   2.930
 6904SOL    HW121611   0.520   1.134   2.868
 6904SOL    HW221612   0.552   1.200   3.014
 6905SOL     OW21613   3.686   5.336   0.423
 6905SOL    HW121614   3.604   5.388   0.442
 6905SOL    HW221615   3.767   5.395   0.430
 6906SOL     OW21616   5.925   6.521   2.343
 6906SOL    HW121617   5.966   6.454   2.282
 6906SOL    HW221618   5.826   6.509   2.344
 6907SOL     OW21619   3.299   0.671   1.236
 6907SOL    HW121620   3.233   0.635   1.301
 6907SOL    HW221621   3.293   0.620   1.150
 6908SOL     OW21622   5.338   6.776   6.982
 6908SOL    HW121623   5.250   6.731   6.997
 6908SOL    HW221624   5.413   6.712   7.000
 6909SOL     OW21625   2.289   1.887   0.102
 6909SOL    HW121626   2.371   1.929   0.062
 6909SOL    HW221627   2.315   1.833   0.182
 6910SOL     OW21628   4.961   0.960   0.911
 6910SOL    HW121629   4.950   1.059   0.912
 6910SOL    HW221630   4.912   0.921   0.989
 6911SOL     OW21631   3.712   0.071   4.643
 6911SOL    HW121632   3.726   0.129   4.723
 6911SOL    HW221633   3.758   7.009   4.657
 6912SOL     OW21634   4.215   5.555   1.672
 6912SOL    HW121635   4.242   5.536   1.578
 6912SOL    HW221636   4.125   5.516   1.690
 6913SOL     OW21637   4.719   5.812   5.819
 6913SOL    HW121638   4.703   5.800   5.917
 6913SOL    HW221639   4.810   5.780   5.795
 6914SOL     OW21640   0.125   4.871   0.379
 6914SOL    HW121641   0.032   4.878   0.344
 6914SOL    HW221642   0.190   4.893   0.306
 6915SOL     OW21643   0.487   6.672   0.383
 6915SOL    HW121644   0.515   6.743   0.318
 6915SOL    HW221645   0.442   6.715   0.461
 6916SOL     OW21646   6.151   1.216   5.827
 6916SOL    HW121647   6.221   1.210   5.755
 6916SOL    HW221648   6.062   1.196   5.787
 6917SOL     OW21649   4.650   6.191   5.850
 6917SOL    HW121650   4.643   6.163   5.946
 6917SOL    HW221651   4.720   6.137   5.805
 6918SOL     OW21652   2.041   2.452   3.400
 6918SOL    HW121653   1.991   2.440   3.486
 6918SOL    HW221654   2.090   2.368   3.377
 6919SOL     OW21655   1.580   6.127   3.668
 6919SOL    HW121656   1.528   6.125   3.754
 6919SOL    HW221657   1.526   6.171   3.597
 6920SOL     OW21658   5.385   5.718   4.466
 6920SOL    HW121659   5.406   5.639   4.524
 6920SOL    HW221660   5.321   5.691   4.394
 6921SOL     OW21661   1.875   4.880   2.983
 6921SOL    HW121662   1.895   4.875   3.081
 6921SOL    HW221663   1.875   4.976   2.955
 6922SOL     OW21664   2.029   6.252   1.532
 6922SOL    HW121665   2.052   6.348   1.514
 6922SOL    HW221666   2.005   6.240   1.628
 6923SOL     OW21667   5.185   5.173   4.008
 6923SOL    HW121668   5.104   5.146   4.059
 6923SOL    HW221669   5.263   5.119   4.038
 6924SOL     OW21670   5.688   6.126   2.302
 6924SOL    HW121671   5.589   6.115   2.301
 6924SOL    HW221672   5.722   6.113   2.395
 6925SOL     OW21673   4.632   5.427   2.469
 6925SOL    HW121674   4.573   5.485   2.413
 6925SOL    HW221675   4.701   5.384   2.411
 6926SOL     OW21676   3.049   3.779   5.449
 6926SOL    HW121677   3.031   3.876   5.463
 6926SOL    HW221678   3.015   3.752   5.359
 6927SOL     OW21679   3.981   4.001   0.491
 6927SOL    HW121680   3.898   4.017   0.545
 6927SOL    HW221681   3.977   4.056   0.407
 6928SOL     OW21682   6.624   0.612   6.708
 6928SOL    HW121683   6.586   0.697   6.671
 6928SOL    HW221684   6.596   0.535   6.651
 6929SOL     OW21685   3.530   5.799   1.412
 6929SOL    HW121686   3.528   5.876   1.349
 6929SOL    HW221687   3.625   5.776   1.433
 6930SOL     OW21688   0.037   0.584   2.953
 6930SOL    HW121689   0.010   0.507   3.010
 6930SOL    HW221690   0.049   0.553   2.858
 6931SOL     OW21691   2.905   6.978   0.762
 6931SOL    HW121692   2.941   0.045   0.765
 6931SOL    HW221693   2.925   6.931   0.848
 6932SOL     OW21694   2.806   2.124   0.422
 6932SOL    HW121695   2.714   2.146   0.389
 6932SOL    HW221696   2.800   2.092   0.516
 6933SOL     OW21697   2.992   5.856   5.166
 6933SOL    HW121698   2.956   5.791   5.233
 6933SOL    HW221699   3.062   5.913   5.209
 6934SOL     OW21700   5.600   4.506   6.488
 6934SOL    HW121701   5.621   4.569   6.563
 6934SOL    HW221702   5.662   4.525   6.411
 6935SOL     OW21703   4.106   5.797   3.252
 6935SOL    HW121704   4.175   5.724   3.259
 6935SOL    HW221705   4.138   5.877   3.302
 6936SOL     OW21706   0.732   4.367   0.784
 6936SOL    HW121707   0.806   4.434   0.779
 6936SOL    HW221708   0.685   4.363   0.695
 6937SOL     OW21709   4.509   5.858   6.309
 6937SOL    HW121710   4.410   5.845   6.312
 6937SOL    HW221711   4.530   5.955   6.295
 6938SOL     OW21712   6.477   2.476   5.399
 6938SOL    HW121713   6.556   2.441   5.349
 6938SOL    HW221714   6.405   2.500   5.334
 6939SOL     OW21715   6.415   4.842   1.522
 6939SOL    HW121716   6.383   4.749   1.505
 6939SOL    HW221717   6.400   4.898   1.441
 6940SOL     OW21718   4.433   0.603   4.204
 6940SOL    HW121719   4.413   0.631   4.298
 6940SOL    HW221720   4.421   0.680   4.143
 6941SOL     OW21721   3.209   2.848   5.146
 6941SOL    HW121722   3.257   2.864   5.060
 6941SOL    HW221723   3.134   2.914   5.155
 6942SOL     OW21724   6.326   1.767   6.499
 6942SOL    HW121725   6.272   1.709   6.561
 6942SOL    HW221726   6.324   1.861   6.533
 6943SOL     OW21727   6.044   5.235   0.139
 6943SOL    HW121728   6.101   5.156   0.114
 6943SOL    HW221729   6.048   5.304   0.067
 6944SOL     OW21730   1.212   6.682   0.318
 6944SOL    HW121731   1.309   6.671   0.340
 6944SOL    HW221732   1.157   6.652   0.396
 6945SOL     OW21733   4.157   1.559   6.620
 6945SOL    HW121734   4.231   1.590   6.678
 6945SOL    HW221735   4.087   1.630   6.613
 6946SOL     OW21736   6.147   4.313   2.410
 6946SOL    HW121737   6.146   4.391   2.348
 6946SOL    HW221738   6.178   4.342   2.501
 6947SOL     OW21739   3.754   6.567   1.051
 6947SOL    HW121740   3.814   6.647   1.052
 6947SOL    HW221741   3.759   6.523   0.962
 6948SOL     OW21742   3.578   1.779   5.423
 6948SOL    HW121743   3.532   1.788   5.512
 6948SOL    HW221744   3.510   1.771   5.351
 6949SOL     OW21745   5.139   0.445   2.056
 6949SOL    HW121746   5.210   0.501   2.014
 6949SOL    HW221747   5.120   0.479   2.148
 6950SOL     OW21748   3.591   1.569   3.122
 6950SOL    HW121749   3.643   1.575   3.037
 6950SOL    HW221750   3.621   1.641   3.185
 6951SOL     OW21751   5.032   4.013   5.588
 6951SOL    HW121752   5.092   4.017   5.668
 6951SOL    HW221753   5.082   4.046   5.508
 6952SOL     OW21754   6.924   3.539   6.489
 6952SOL    HW121755   6.965   3.448   6.489
 6952SOL    HW221756   6.961   3.594   6.563
 6953SOL     OW21757   5.467   2.508   4.818
 6953SOL    HW121758   5.558   2.482   4.849
 6953SOL    HW221759   5.468   2.519   4.719
 6954SOL     OW21760   0.168   4.332   1.961
 6954SOL    HW121761   0.202   4.426   1.968
 6954SOL    HW221762   0.068   4.332   1.958
 6955SOL     OW21763   6.467   0.405   3.891
 6955SOL    HW121764   6.511   0.491   3.918
 6955SOL    HW221765   6.461   0.401   3.792
 6956SOL     OW21766   3.112   3.991   1.457
 6956SOL    HW121767   3.036   3.926   1.450
 6956SOL    HW221768   3.077   4.084   1.448
 6957SOL     OW21769   1.127   4.687   0.120
 6957SOL    HW121770   1.069   4.768   0.109
 6957SOL    HW221771   1.073   4.610   0.153
 6958SOL     OW21772   2.207   3.699   5.402
 6958SOL    HW121773   2.167   3.754   5.329
 6958SOL    HW221774   2.177   3.735   5.491
 6959SOL     OW21775   4.153   0.835   5.009
 6959SOL    HW121776   4.204   0.913   4.973
 6959SOL    HW221777   4.212   0.781   5.068
 6960SOL     OW21778   1.408   5.798   6.951
 6960SOL    HW121779   1.347   5.736   6.902
 6960SOL    HW221780   1.497   5.799   6.906
 6961SOL     OW21781   6.193   1.068   3.439
 6961SOL    HW121782   6.130   1.145   3.430
 6961SOL    HW221783   6.272   1.096   3.495
 6962SOL     OW21784   3.122   3.764   0.979
 6962SOL    HW121785   3.141   3.769   0.881
 6962SOL    HW221786   3.203   3.793   1.030
 6963SOL     OW21787   6.122   5.733   1.949
 6963SOL    HW121788   6.145   5.818   1.901
 6963SOL    HW221789   6.204   5.676   1.956
 6964SOL     OW21790   3.859   5.388   5.612
 6964SOL    HW121791   3.954   5.377   5.583
 6964SOL    HW221792   3.820   5.298   5.632
 6965SOL     OW21793   6.568   1.690   6.041
 6965SOL    HW121794   6.610   1.727   5.958
 6965SOL    HW221795   6.481   1.737   6.058
 6966SOL     OW21796   4.706   1.651   3.900
 6966SOL    HW121797   4.660   1.634   3.988
 6966SOL    HW221798   4.788   1.594   3.895
 6967SOL     OW21799   3.279   2.642   6.089
 6967SOL    HW121800   3.201   2.646   6.152
 6967SOL    HW221801   3.246   2.645   5.995
 6968SOL     OW21802   4.095   0.206   3.871
 6968SOL    HW121803   3.995   0.204   3.865
 6968SOL    HW221804   4.134   0.161   3.791
 6969SOL     OW21805   3.443   3.246   0.860
 6969SOL    HW121806   3.401   3.267   0.948
 6969SOL    HW221807   3.384   3.183   0.809
 6970SOL     OW21808   4.930   4.258   0.492
 6970SOL    HW121809   4.958   4.204   0.412
 6970SOL    HW221810   4.909   4.351   0.463
 6971SOL     OW21811   6.044   1.670   2.399
 6971SOL    HW121812   6.087   1.580   2.410
 6971SOL    HW221813   5.970   1.680   2.466
 6972SOL     OW21814   5.080   5.498   4.399
 6972SOL    HW121815   5.035   5.574   4.446
 6972SOL    HW221816   5.010   5.433   4.366
 6973SOL     OW21817   1.239   4.021   3.703
 6973SOL    HW121818   1.235   3.924   3.677
 6973SOL    HW221819   1.232   4.078   3.622
 6974SOL     OW21820   3.307   4.060   5.012
 6974SOL    HW121821   3.264   4.109   5.087
 6974SOL    HW221822   3.403   4.043   5.033
 6975SOL     OW21823   2.147   6.966   6.768
 6975SOL    HW121824   2.084   6.888   6.762
 6975SOL    HW221825   2.239   6.933   6.790
 6976SOL     OW21826   1.062   5.958   0.829
 6976SOL    HW121827   0.963   5.972   0.820
 6976SOL    HW221828   1.079   5.891   0.901
 6977SOL     OW21829   4.928   2.917   1.575
 6977SOL    HW121830   4.890   3.010   1.575
 6977SOL    HW221831   4.915   2.875   1.665
 6978SOL     OW21832   4.328   2.389   3.418
 6978SOL    HW121833   4.281   2.472   3.446
 6978SOL    HW221834   4.421   2.389   3.456
 6979SOL     OW21835   6.953   3.867   4.522
 6979SOL    HW121836   6.941   3.772   4.493
 6979SOL    HW221837   6.956   3.926   4.441
 6980SOL     OW21838   4.937   1.670   4.934
 6980SOL    HW121839   4.979   1.634   4.850
 6980SOL    HW221840   4.986   1.753   4.962
 6981SOL     OW21841   3.339   3.996   6.528
 6981SOL    HW121842   3.425   4.026   6.485
 6981SOL    HW221843   3.298   4.072   6.578
 6982SOL     OW21844   0.711   7.001   4.570
 6982SOL    HW121845   0.620   6.982   4.532
 6982SOL    HW221846   0.747   0.059   4.530
 6983SOL     OW21847   6.000   0.987   3.112
 6983SOL    HW121848   5.938   0.962   3.037
 6983SOL    HW221849   6.042   1.075   3.092
 6984SOL     OW21850   1.569   1.118   6.170
 6984SOL    HW121851   1.652   1.110   6.115
 6984SOL    HW221852   1.490   1.128   6.110
 6985SOL     OW21853   5.110   6.541   4.169
 6985SOL    HW121854   5.145   6.449   4.187
 6985SOL    HW221855   5.037   6.536   4.100
 6986SOL     OW21856   1.658   6.310   5.420
 6986SOL    HW121857   1.596   6.309   5.341
 6986SOL    HW221858   1.619   6.367   5.493
 6987SOL     OW21859   6.670   3.618   6.359
 6987SOL    HW121860   6.747   3.576   6.408
 6987SOL    HW221861   6.586   3.569   6.381
 6988SOL     OW21862   5.963   1.286   6.284
 6988SOL    HW121863   5.961   1.359   6.352
 6988SOL    HW221864   5.898   1.306   6.211
 6989SOL     OW21865   1.660   3.317   4.585
 6989SOL    HW121866   1.607   3.301   4.668
 6989SOL    HW221867   1.688   3.413   4.581
 6990SOL     OW21868   4.263   3.535   1.413
 6990SOL    HW121869   4.284   3.596   1.489
 6990SOL    HW221870   4.304   3.445   1.429
 6991SOL     OW21871   4.178   4.705   5.309
 6991SOL    HW121872   4.079   4.716   5.305
 6991SOL    HW221873   4.209   4.723   5.402
 6992SOL     OW21874   6.383   6.342   4.976
 6992SOL    HW121875   6.389   6.342   5.076
 6992SOL    HW221876   6.303   6.395   4.948
 6993SOL     OW21877   0.311   0.010   2.737
 6993SOL    HW121878   0.304   7.016   2.639
 6993SOL    HW221879   0.407   0.029   2.760
 6994SOL     OW21880   1.389   2.263   0.420
 6994SOL    HW121881   1.315   2.208   0.457
 6994SOL    HW221882   1.408   2.235   0.326
 6995SOL     OW21883   0.927   5.663   3.846
 6995SOL    HW121884   0.870   5.721   3.905
 6995SOL    HW221885   0.880   5.649   3.758
 6996SOL     OW21886   1.862   6.792   5.783
 6996SOL    HW121887   1.893   6.825   5.693
 6996SOL    HW221888   1.928   6.820   5.853
 6997SOL     OW21889   4.609   5.655   4.481
 6997SOL    HW121890   4.575   5.565   4.453
 6997SOL    HW221891   4.576   5.676   4.573
 6998SOL     OW21892   2.670   2.005   2.374
 6998SOL    HW121893   2.657   2.098   2.340
 6998SOL    HW221894   2.751   1.965   2.332
 6999SOL     OW21895   5.306   1.589   6.685
 6999SOL    HW121896   5.395   1.629   6.701
 6999SOL    HW221897   5.312   1.489   6.695
 7000SOL     OW21898   0.288   0.421   1.548
 7000SOL    HW121899   0.321   0.462   1.633
 7000SOL    HW221900   0.188   0.421   1.546
 7001SOL     OW21901   3.107   1.229   6.647
 7001SOL    HW121902   3.047   1.237   6.727
 7001SOL    HW221903   3.144   1.319   6.624
 7002SOL     OW21904   2.641   4.845   2.272
 7002SOL    HW121905   2.637   4.757   2.227
 7002SOL    HW221906   2.576   4.908   2.229
 7003SOL     OW21907   1.965   6.374   5.600
 7003SOL    HW121908   1.904   6.449   5.574
 7003SOL    HW221909   1.928   6.288   5.568
 7004SOL     OW21910   1.777   3.700   6.866
 7004SOL    HW121911   1.771   3.795   6.832
 7004SOL    HW221912   1.844   3.650   6.811
 7005SOL     OW21913   6.616   0.150   5.769
 7005SOL    HW121914   6.540   0.098   5.730
 7005SOL    HW221915   6.669   0.193   5.695
 7006SOL     OW21916   4.900   5.308   4.328
 7006SOL    HW121917   4.976   5.245   4.344
 7006SOL    HW221918   4.873   5.305   4.232
 7007SOL     OW21919   5.059   4.875   1.589
 7007SOL    HW121920   4.984   4.880   1.655
 7007SOL    HW221921   5.136   4.930   1.622
 7008SOL     OW21922   0.892   5.648   4.553
 7008SOL    HW121923   0.977   5.604   4.522
 7008SOL    HW221924   0.842   5.682   4.473
 7009SOL     OW21925   0.093   4.333   1.680
 7009SOL    HW121926   0.129   4.316   1.771
 7009SOL    HW221927   0.113   4.255   1.621
 7010SOL     OW21928   5.674   4.347   5.416
 7010SOL    HW121929   5.740   4.294   5.469
 7010SOL    HW221930   5.588   4.296   5.409
 7011SOL     OW21931   0.962   0.499   5.441
 7011SOL    HW121932   0.963   0.454   5.530
 7011SOL    HW221933   1.054   0.499   5.402
 7012SOL     OW21934   0.949   1.066   1.682
 7012SOL    HW121935   0.953   1.034   1.587
 7012SOL    HW221936   0.863   1.116   1.696
 7013SOL     OW21937   6.199   2.421   1.595
 7013SOL    HW121938   6.244   2.358   1.531
 7013SOL    HW221939   6.101   2.424   1.574
 7014SOL     OW21940   2.432   5.268   0.863
 7014SOL    HW121941   2.478   5.287   0.950
 7014SOL    HW221942   2.500   5.256   0.791
 7015SOL     OW21943   4.909   2.248   1.735
 7015SOL    HW121944   4.951   2.264   1.824
 7015SOL    HW221945   4.817   2.288   1.733
 7016SOL     OW21946   4.456   4.498   0.990
 7016SOL    HW121947   4.423   4.589   0.966
 7016SOL    HW221948   4.453   4.439   0.910
 7017SOL     OW21949   5.331   1.890   5.144
 7017SOL    HW121950   5.337   1.899   5.243
 7017SOL    HW221951   5.401   1.947   5.101
 7018SOL     OW21952   0.685   4.028   3.107
 7018SOL    HW121953   0.748   4.045   3.182
 7018SOL    HW221954   0.681   4.108   3.047
 7019SOL     OW21955   0.088   6.339   2.433
 7019SOL    HW121956   0.127   6.250   2.407
 7019SOL    HW221957   0.019   6.325   2.503
 7020SOL     OW21958   0.258   5.369   6.939
 7020SOL    HW121959   0.209   5.292   6.981
 7020SOL    HW221960   0.342   5.336   6.897
 7021SOL     OW21961   3.228   6.639   5.801
 7021SOL    HW121962   3.312   6.646   5.855
 7021SOL    HW221963   3.250   6.641   5.704
 7022SOL     OW21964   4.065   5.211   5.687
 7022SOL    HW121965   4.154   5.168   5.670
 7022SOL    HW221966   4.045   5.209   5.785
 7023SOL     OW21967   4.307   4.712   2.616
 7023SOL    HW121968   4.325   4.789   2.555
 7023SOL    HW221969   4.243   4.740   2.688
 7024SOL     OW21970   5.706   6.558   1.722
 7024SOL    HW121971   5.666   6.478   1.678
 7024SOL    HW221972   5.756   6.529   1.804
 7025SOL     OW21973   2.700   0.118   1.145
 7025SOL    HW121974   2.699   0.049   1.073
 7025SOL    HW221975   2.750   0.083   1.224
 7026SOL     OW21976   4.075   2.803   1.065
 7026SOL    HW121977   4.135   2.825   0.988
 7026SOL    HW221978   4.127   2.756   1.136
 7027SOL     OW21979   5.646   5.813   4.395
 7027SOL    HW121980   5.557   5.800   4.439
 7027SOL    HW221981   5.633   5.820   4.296
 7028SOL     OW21982   2.701   1.139   4.526
 7028SOL    HW121983   2.681   1.231   4.560
 7028SOL    HW221984   2.732   1.082   4.602
 7029SOL     OW21985   3.456   0.745   4.296
 7029SOL    HW121986   3.418   0.742   4.388
 7029SOL    HW221987   3.549   0.708   4.297
 7030SOL     OW21988   1.489   3.302   3.791
 7030SOL    HW121989   1.436   3.224   3.759
 7030SOL    HW221990   1.569   3.269   3.842
 7031SOL     OW21991   1.578   0.834   4.853
 7031SOL    HW121992   1.542   0.916   4.807
 7031SOL    HW221993   1.585   0.852   4.951
 7032SOL     OW21994   6.002   2.509   3.356
 7032SOL    HW121995   6.002   2.411   3.336
 7032SOL    HW221996   5.961   2.559   3.280
 7033SOL     OW21997   0.493   0.904   4.702
 7033SOL    HW121998   0.489   0.887   4.603
 7033SOL    HW221999   0.515   0.820   4.750
 7034SOL     OW22000   0.158   5.162   3.662
 7034SOL    HW122001   0.063   5.143   3.689
 7034SOL    HW222002   0.179   5.113   3.577
 7035SOL     OW22003   6.638   4.643   1.840
 7035SOL    HW122004   6.634   4.635   1.740
 7035SOL    HW222005   6.579   4.718   1.870
 7036SOL     OW22006   6.121   4.647   0.832
 7036SOL    HW122007   6.178   4.571   0.864
 7036SOL    HW222008   6.099   4.706   0.910
 7037SOL     OW22009   1.198   0.603   6.675
 7037SOL    HW122010   1.206   0.504   6.670
 7037SOL    HW222011   1.234   0.635   6.763
 7038SOL     OW22012   2.147   3.015   4.427
 7038SOL    HW122013   2.198   3.070   4.493
 7038SOL    HW222014   2.059   2.988   4.468
 7039SOL     OW22015   3.810   2.047   6.799
 7039SOL    HW122016   3.851   1.989   6.869
 7039SOL    HW222017   3.712   2.026   6.791
 7040SOL     OW22018   5.896   2.525   6.696
 7040SOL    HW122019   5.837   2.605   6.708
 7040SOL    HW222020   5.841   2.445   6.677
 7041SOL     OW22021   1.804   1.627   3.459
 7041SOL    HW122022   1.763   1.606   3.370
 7041SOL    HW222023   1.855   1.712   3.452
 7042SOL     OW22024   2.044   1.420   6.794
 7042SOL    HW122025   2.011   1.430   6.700
 7042SOL    HW222026   2.131   1.369   6.794
 7043SOL     OW22027   1.538   2.650   1.943
 7043SOL    HW122028   1.632   2.618   1.928
 7043SOL    HW222029   1.540   2.747   1.967
 7044SOL     OW22030   6.965   6.024   0.983
 7044SOL    HW122031   7.016   6.042   0.899
 7044SOL    HW222032   6.903   6.100   1.003
 7045SOL     OW22033   0.428   4.968   0.420
 7045SOL    HW122034   0.479   4.967   0.506
 7045SOL    HW222035   0.356   4.899   0.423
 7046SOL     OW22036   3.204   1.814   3.521
 7046SOL    HW122037   3.285   1.801   3.578
 7046SOL    HW222038   3.193   1.911   3.500
 7047SOL     OW22039   1.479   0.046   3.095
 7047SOL    HW122040   1.497   7.007   3.021
 7047SOL    HW222041   1.561   0.101   3.111
 7048SOL     OW22042   6.489   5.629   0.097
 7048SOL    HW122043   6.546   5.562   0.145
 7048SOL    HW222044   6.402   5.638   0.146
 7049SOL     OW22045   2.312   0.711   6.824
 7049SOL    HW122046   2.385   0.664   6.873
 7049SOL    HW222047   2.310   0.679   6.729
 7050SOL     OW22048   4.540   3.511   5.484
 7050SOL    HW122049   4.598   3.466   5.417
 7050SOL    HW222050   4.484   3.581   5.439
 7051SOL     OW22051   5.761   6.318   2.926
 7051SOL    HW122052   5.751   6.337   2.828
 7051SOL    HW222053   5.834   6.251   2.940
 7052SOL     OW22054   6.951   6.982   5.183
 7052SOL    HW122055   6.956   7.003   5.281
 7052SOL    HW222056   6.902   6.895   5.171
 7053SOL     OW22057   6.640   3.404   6.076
 7053SOL    HW122058   6.700   3.472   6.033
 7053SOL    HW222059   6.633   3.423   6.174
 7054SOL     OW22060   6.228   2.390   2.480
 7054SOL    HW122061   6.293   2.361   2.409
 7054SOL    HW222062   6.134   2.379   2.447
 7055SOL     OW22063   4.515   1.903   3.861
 7055SOL    HW122064   4.528   1.821   3.805
 7055SOL    HW222065   4.536   1.985   3.807
 7056SOL     OW22066   4.830   5.736   4.221
 7056SOL    HW122067   4.908   5.787   4.185
 7056SOL    HW222068   4.841   5.722   4.320
 7057SOL     OW22069   5.414   5.835   2.877
 7057SOL    HW122070   5.329   5.794   2.910
 7057SOL    HW222071   5.394   5.921   2.831
 7058SOL     OW22072   0.335   4.190   4.418
 7058SOL    HW122073   0.414   4.214   4.362
 7058SOL    HW222074   0.365   4.135   4.496
 7059SOL     OW22075   1.581   0.981   2.245
 7059SOL    HW122076   1.536   0.996   2.334
 7059SOL    HW222077   1.612   1.069   2.209
 7060SOL     OW22078   2.974   6.803   0.555
 7060SOL    HW122079   2.954   6.873   0.624
 7060SOL    HW222080   2.986   6.848   0.466
 7061SOL     OW22081   0.443   0.905   3.170
 7061SOL    HW122082   0.463   0.999   3.144
 7061SOL    HW222083   0.495   0.881   3.252
 7062SOL     OW22084   6.576   1.431   5.614
 7062SOL    HW122085   6.599   1.527   5.603
 7062SOL    HW222086   6.637   1.389   5.681
 7063SOL     OW22087   2.205   6.378   1.965
 7063SOL    HW122088   2.212   6.454   2.029
 7063SOL    HW222089   2.109   6.363   1.940
 7064SOL     OW22090   3.519   2.357   0.119
 7064SOL    HW122091   3.497   2.344   0.215
 7064SOL    HW222092   3.598   2.417   0.110
 7065SOL     OW22093   3.383   3.750   2.577
 7065SOL    HW122094   3.342   3.825   2.525
 7065SOL    HW222095   3.315   3.678   2.590
 7066SOL     OW22096   2.484   4.773   1.667
 7066SOL    HW122097   2.530   4.686   1.685
 7066SOL    HW222098   2.385   4.762   1.677
 7067SOL     OW22099   0.987   4.355   5.196
 7067SOL    HW122100   1.057   4.287   5.220
 7067SOL    HW222101   0.948   4.333   5.107
 7068SOL     OW22102   0.276   0.539   3.100
 7068SOL    HW122103   0.199   0.589   3.062
 7068SOL    HW222104   0.245   0.450   3.133
 7069SOL     OW22105   1.800   4.939   5.283
 7069SOL    HW122106   1.791   4.858   5.341
 7069SOL    HW222107   1.709   4.969   5.254
 7070SOL     OW22108   5.592   4.986   3.367
 7070SOL    HW122109   5.495   4.990   3.391
 7070SOL    HW222110   5.645   4.955   3.447
 7071SOL     OW22111   1.825   6.494   5.264
 7071SOL    HW122112   1.756   6.442   5.313
 7071SOL    HW222113   1.914   6.481   5.308
 7072SOL     OW22114   0.618   0.048   6.628
 7072SOL    HW122115   0.578   0.109   6.696
 7072SOL    HW222116   0.716   0.036   6.648
 7073SOL     OW22117   1.938   2.308   6.924
 7073SOL    HW122118   1.976   2.218   6.947
 7073SOL    HW222119   1.839   2.307   6.938
 7074SOL     OW22120   3.444   1.166   6.635
 7074SOL    HW122121   3.420   1.250   6.587
 7074SOL    HW222122   3.443   1.089   6.571
 7075SOL     OW22123   0.840   6.131   3.133
 7075SOL    HW122124   0.770   6.157   3.200
 7075SOL    HW222125   0.930   6.162   3.164
 7076SOL     OW22126   3.281   1.144   6.215
 7076SOL    HW122127   3.317   1.126   6.124
 7076SOL    HW222128   3.210   1.214   6.210
 7077SOL     OW22129   1.658   5.635   6.534
 7077SOL    HW122130   1.575   5.618   6.480
 7077SOL    HW222131   1.632   5.674   6.622
 7078SOL     OW22132   0.227   1.030   1.787
 7078SOL    HW122133   0.129   1.030   1.808
 7078SOL    HW222134   0.272   0.957   1.837
 7079SOL     OW22135   5.346   6.580   4.344
 7079SOL    HW122136   5.348   6.480   4.338
 7079SOL    HW222137   5.320   6.607   4.437
 7080SOL     OW22138   5.814   0.292   3.774
 7080SOL    HW122139   5.801   0.387   3.748
 7080SOL    HW222140   5.909   0.277   3.803
 7081SOL     OW22141   4.924   0.850   4.954
 7081SOL    HW122142   4.969   0.807   4.876
 7081SOL    HW222143   4.961   0.813   5.039
 7082SOL     OW22144   5.967   1.191   0.471
 7082SOL    HW122145   6.066   1.187   0.457
 7082SOL    HW222146   5.921   1.127   0.409
 7083SOL     OW22147   4.383   0.275   5.273
 7083SOL    HW122148   4.357   0.189   5.316
 7083SOL    HW222149   4.376   0.266   5.173
 7084SOL     OW22150   6.142   5.965   0.521
 7084SOL    HW122151   6.192   5.909   0.587
 7084SOL    HW222152   6.091   5.906   0.459
 7085SOL     OW22153   4.742   1.459   1.670
 7085SOL    HW122154   4.705   1.425   1.584
 7085SOL    HW222155   4.788   1.547   1.655
 7086SOL     OW22156   1.451   0.903   6.002
 7086SOL    HW122157   1.442   0.862   6.092
 7086SOL    HW222158   1.540   0.948   5.995
 7087SOL     OW22159   2.257   2.779   5.178
 7087SOL    HW122160   2.311   2.844   5.124
 7087SOL    HW222161   2.230   2.822   5.264
 7088SOL     OW22162   6.907   2.300   4.436
 7088SOL    HW122163   6.829   2.238   4.430
 7088SOL    HW222164   6.897   2.357   4.518
 7089SOL     OW22165   3.095   1.866   1.531
 7089SOL    HW122166   3.103   1.964   1.547
 7089SOL    HW222167   3.003   1.846   1.497
 7090SOL     OW22168   2.857   1.621   4.685
 7090SOL    HW122169   2.825   1.664   4.600
 7090SOL    HW222170   2.954   1.602   4.677
 7091SOL     OW22171   6.775   6.253   1.038
 7091SOL    HW122172   6.732   6.207   0.961
 7091SOL    HW222173   6.716   6.327   1.071
 7092SOL     OW22174   3.360   2.105   0.645
 7092SOL    HW122175   3.299   2.056   0.583
 7092SOL    HW222176   3.445   2.054   0.656
 7093SOL     OW22177   3.963   2.984   6.584
 7093SOL    HW122178   4.010   3.013   6.501
 7093SOL    HW222179   3.871   3.023   6.587
 7094SOL     OW22180   6.482   0.873   6.603
 7094SOL    HW122181   6.408   0.848   6.664
 7094SOL    HW222182   6.535   0.948   6.642
 7095SOL     OW22183   0.604   3.966   0.974
 7095SOL    HW122184   0.621   4.060   1.002
 7095SOL    HW222185   0.605   3.907   1.055
 7096SOL     OW22186   3.982   6.503   2.641
 7096SOL    HW122187   3.955   6.413   2.677
 7096SOL    HW222188   3.901   6.560   2.630
 7097SOL     OW22189   2.213   1.470   1.642
 7097SOL    HW122190   2.140   1.402   1.649
 7097SOL    HW222191   2.187   1.542   1.578
 7098SOL     OW22192   1.453   0.506   6.076
 7098SOL    HW122193   1.521   0.485   6.006
 7098SOL    HW222194   1.364   0.520   6.032
 7099SOL     OW22195   0.031   1.441   5.062
 7099SOL    HW122196   0.035   1.351   5.019
 7099SOL    HW222197   0.003   1.432   5.157
 7100SOL     OW22198   5.597   1.596   1.219
 7100SOL    HW122199   5.601   1.496   1.220
 7100SOL    HW222200   5.626   1.632   1.307
 7101SOL     OW22201   1.632   0.396   4.489
 7101SOL    HW122202   1.676   0.432   4.407
 7101SOL    HW222203   1.564   0.327   4.462
 7102SOL     OW22204   4.094   2.833   0.556
 7102SOL    HW122205   4.109   2.789   0.644
 7102SOL    HW222206   4.121   2.929   0.561
 7103SOL     OW22207   2.069   6.850   5.944
 7103SOL    HW122208   2.137   6.913   5.905
 7103SOL    HW222209   2.068   6.859   6.044
 7104SOL     OW22210   0.914   2.924   2.070
 7104SOL    HW122211   0.921   2.922   1.970
 7104SOL    HW222212   0.829   2.879   2.098
 7105SOL     OW22213   1.916   2.797   5.705
 7105SOL    HW122214   1.867   2.755   5.629
 7105SOL    HW222215   1.938   2.892   5.683
 7106SOL     OW22216   3.000   2.890   5.437
 7106SOL    HW122217   3.000   2.966   5.371
 7106SOL    HW222218   3.011   2.804   5.388
 7107SOL     OW22219   1.685   1.256   0.251
 7107SOL    HW122220   1.655   1.216   0.338
 7107SOL    HW222221   1.724   1.346   0.269
 7108SOL     OW22222   4.743   7.017   2.024
 7108SOL    HW122223   4.652   6.984   2.002
 7108SOL    HW222224   4.773   6.977   2.111
 7109SOL     OW22225   4.587   6.113   6.287
 7109SOL    HW122226   4.528   6.165   6.225
 7109SOL    HW222227   4.583   6.152   6.378
 7110SOL     OW22228   3.867   4.913   4.595
 7110SOL    HW122229   3.925   4.854   4.539
 7110SOL    HW222230   3.890   4.901   4.691
 7111SOL     OW22231   1.721   2.665   3.389
 7111SOL    HW122232   1.801   2.624   3.345
 7111SOL    HW222233   1.750   2.716   3.470
 7112SOL     OW22234   1.728   6.215   3.089
 7112SOL    HW122235   1.630   6.228   3.074
 7112SOL    HW222236   1.744   6.189   3.184
 7113SOL     OW22237   4.094   3.333   5.889
 7113SOL    HW122238   4.011   3.378   5.921
 7113SOL    HW222239   4.173   3.373   5.936
 7114SOL     OW22240   3.808   6.426   0.814
 7114SOL    HW122241   3.771   6.348   0.763
 7114SOL    HW222242   3.907   6.432   0.799
 7115SOL     OW22243   3.805   2.843   1.120
 7115SOL    HW122244   3.898   2.816   1.097
 7115SOL    HW222245   3.801   2.875   1.214
 7116SOL     OW22246   6.307   4.162   3.223
 7116SOL    HW122247   6.214   4.129   3.239
 7116SOL    HW222248   6.357   4.167   3.310
 7117SOL     OW22249   5.444   6.803   2.274
 7117SOL    HW122250   5.543   6.805   2.286
 7117SOL    HW222251   5.400   6.852   2.349
 7118SOL     OW22252   6.661   3.387   3.315
 7118SOL    HW122253   6.705   3.346   3.394
 7118SOL    HW222254   6.565   3.360   3.312
 7119SOL     OW22255   1.198   2.282   2.996
 7119SOL    HW122256   1.251   2.366   2.982
 7119SOL    HW222257   1.113   2.304   3.043
 7120SOL     OW22258   4.535   6.346   3.720
 7120SOL    HW122259   4.628   6.381   3.727
 7120SOL    HW222260   4.510   6.336   3.623
 7121SOL     OW22261   2.113   6.453   0.974
 7121SOL    HW122262   2.193   6.439   1.033
 7121SOL    HW222263   2.088   6.366   0.932
 7122SOL     OW22264   7.018   6.002   0.521
 7122SOL    HW122265   0.018   6.015   0.617
 7122SOL    HW222266   6.961   5.920   0.512
 7123SOL     OW22267   2.938   5.335   0.728
 7123SOL    HW122268   2.966   5.247   0.690
 7123SOL    HW222269   2.843   5.353   0.703
 7124SOL     OW22270   0.051   6.049   6.681
 7124SOL    HW122271   7.018   6.107   6.737
 7124SOL    HW222272   0.007   6.031   6.593
 7125SOL     OW22273   0.923   6.053   3.487
 7125SOL    HW122274   0.971   6.055   3.399
 7125SOL    HW222275   0.909   6.146   3.520
 7126SOL     OW22276   1.502   3.543   1.681
 7126SOL    HW122277   1.518   3.641   1.689
 7126SOL    HW222278   1.404   3.526   1.671
 7127SOL     OW22279   2.155   0.446   5.104
 7127SOL    HW122280   2.141   0.349   5.085
 7127SOL    HW222281   2.070   0.496   5.091
 7128SOL     OW22282   3.097   3.424   2.596
 7128SOL    HW122283   3.068   3.367   2.519
 7128SOL    HW222284   3.192   3.452   2.582
 7129SOL     OW22285   2.565   1.995   0.637
 7129SOL    HW122286   2.628   2.067   0.667
 7129SOL    HW222287   2.471   2.027   0.647
 7130SOL     OW22288   1.789   0.422   2.859
 7130SOL    HW122289   1.861   0.415   2.927
 7130SOL    HW222290   1.727   0.497   2.882
 7131SOL     OW22291   2.485   1.143   3.702
 7131SOL    HW122292   2.508   1.181   3.613
 7131SOL    HW222293   2.569   1.130   3.756
 7132SOL     OW22294   2.985   3.512   2.157
 7132SOL    HW122295   2.928   3.573   2.211
 7132SOL    HW222296   2.934   3.480   2.077
 7133SOL     OW22297   6.222   4.128   1.589
 7133SOL    HW122298   6.196   4.171   1.675
 7133SOL    HW222299   6.142   4.123   1.528
 7134SOL     OW22300   5.059   4.935   2.581
 7134SOL    HW122301   4.964   4.917   2.556
 7134SOL    HW222302   5.093   4.863   2.641
 7135SOL     OW22303   0.303   2.156   6.349
 7135SOL    HW122304   0.322   2.240   6.400
 7135SOL    HW222305   0.356   2.080   6.389
 7136SOL     OW22306   1.545   1.750   6.840
 7136SOL    HW122307   1.484   1.743   6.761
 7136SOL    HW222308   1.639   1.764   6.808
 7137SOL     OW22309   4.670   2.263   5.018
 7137SOL    HW122310   4.588   2.313   4.989
 7137SOL    HW222311   4.705   2.210   4.941
 7138SOL     OW22312   2.460   2.266   6.631
 7138SOL    HW122313   2.439   2.348   6.683
 7138SOL    HW222314   2.376   2.228   6.591
 7139SOL     OW22315   2.906   1.295   0.674
 7139SOL    HW122316   2.908   1.272   0.577
 7139SOL    HW222317   2.964   1.231   0.724
 7140SOL     OW22318   7.003   4.583   4.512
 7140SOL    HW122319   6.930   4.651   4.513
 7140SOL    HW222320   0.017   4.579   4.421
 7141SOL     OW22321   0.715   6.939   2.011
 7141SOL    HW122322   0.721   0.011   2.028
 7141SOL    HW222323   0.734   6.920   1.914
 7142SOL     OW22324   3.295   6.499   3.742
 7142SOL    HW122325   3.212   6.454   3.775
 7142SOL    HW222326   3.369   6.483   3.807
 7143SOL     OW22327   1.800   2.228   3.364
 7143SOL    HW122328   1.767   2.278   3.445
 7143SOL    HW222329   1.744   2.253   3.285
 7144SOL     OW22330   1.352   3.469   3.203
 7144SOL    HW122331   1.447   3.439   3.194
 7144SOL    HW222332   1.319   3.447   3.295
 7145SOL     OW22333   4.018   5.611   6.300
 7145SOL    HW122334   4.047   5.555   6.223
 7145SOL    HW222335   3.955   5.559   6.357
 7146SOL     OW22336   3.481   4.821   1.585
 7146SOL    HW122337   3.420   4.900   1.595
 7146SOL    HW222338   3.427   4.741   1.556
 7147SOL     OW22339   0.208   0.873   3.376
 7147SOL    HW122340   0.275   0.922   3.431
 7147SOL    HW222341   0.208   0.909   3.283
 7148SOL     OW22342   6.695   1.847   0.650
 7148SOL    HW122343   6.600   1.847   0.680
 7148SOL    HW222344   6.699   1.840   0.550
 7149SOL     OW22345   0.907   0.507   4.521
 7149SOL    HW122346   1.004   0.513   4.499
 7149SOL    HW222347   0.891   0.533   4.616
 7150SOL     OW22348   5.934   3.400   6.097
 7150SOL    HW122349   5.887   3.312   6.088
 7150SOL    HW222350   5.946   3.441   6.006
 7151SOL     OW22351   2.042   6.635   0.026
 7151SOL    HW122352   2.133   6.677   0.033
 7151SOL    HW222353   2.029   6.573   0.103
 7152SOL     OW22354   1.201   2.389   4.883
 7152SOL    HW122355   1.110   2.365   4.917
 7152SOL    HW222356   1.197   2.476   4.835
 7153SOL     OW22357   4.323   1.965   2.829
 7153SOL    HW122358   4.344   2.020   2.747
 7153SOL    HW222359   4.224   1.966   2.845
 7154SOL     OW22360   3.281   0.109   4.826
 7154SOL    HW122361   3.358   0.052   4.854
 7154SOL    HW222362   3.316   0.192   4.782
 7155SOL     OW22363   2.246   1.392   3.642
 7155SOL    HW122364   2.330   1.439   3.670
 7155SOL    HW222365   2.169   1.456   3.647
 7156SOL     OW22366   2.175   5.876   5.592
 7156SOL    HW122367   2.196   5.786   5.629
 7156SOL    HW222368   2.137   5.933   5.665
 7157SOL     OW22369   4.623   4.368   0.313
 7157SOL    HW122370   4.697   4.372   0.246
 7157SOL    HW222371   4.639   4.293   0.377
 7158SOL     OW22372   4.046   0.331   3.516
 7158SOL    HW122373   4.025   0.357   3.421
 7158SOL    HW222374   4.139   0.292   3.519
 7159SOL     OW22375   1.795   6.024   6.900
 7159SOL    HW122376   1.719   6.065   6.950
 7159SOL    HW222377   1.880   6.040   6.951
 7160SOL     OW22378   6.709   0.749   1.666
 7160SOL    HW122379   6.626   0.800   1.690
 7160SOL    HW222380   6.684   0.666   1.617
 7161SOL     OW22381   3.780   4.181   4.906
 7161SOL    HW122382   3.742   4.261   4.861
 7161SOL    HW222383   3.815   4.117   4.837
 7162SOL     OW22384   3.466   4.913   3.881
 7162SOL    HW122385   3.491   5.010   3.886
 7162SOL    HW222386   3.370   4.903   3.906
 7163SOL     OW22387   1.067   6.466   3.498
 7163SOL    HW122388   1.158   6.440   3.465
 7163SOL    HW222389   1.044   6.557   3.465
 7164SOL     OW22390   2.717   1.733   4.455
 7164SOL    HW122391   2.673   1.646   4.431
 7164SOL    HW222392   2.768   1.767   4.377
 7165SOL     OW22393   4.695   5.122   2.163
 7165SOL    HW122394   4.617   5.068   2.195
 7165SOL    HW222395   4.676   5.157   2.071
 7166SOL     OW22396   3.803   6.269   2.223
 7166SOL    HW122397   3.794   6.204   2.147
 7166SOL    HW222398   3.795   6.219   2.310
 7167SOL     OW22399   5.421   3.439   0.036
 7167SOL    HW122400   5.410   3.346   0.001
 7167SOL    HW222401   5.360   3.452   0.114
 7168SOL     OW22402   0.089   1.743   4.004
 7168SOL    HW122403   0.066   1.654   3.964
 7168SOL    HW222404   0.096   1.811   3.932
 7169SOL     OW22405   2.496   2.593   6.453
 7169SOL    HW122406   2.443   2.546   6.382
 7169SOL    HW222407   2.581   2.543   6.469
 7170SOL     OW22408   5.126   4.229   4.108
 7170SOL    HW122409   5.188   4.250   4.184
 7170SOL    HW222410   5.162   4.268   4.024
 7171SOL     OW22411   3.932   3.838   5.829
 7171SOL    HW122412   3.880   3.764   5.872
 7171SOL    HW222413   4.007   3.800   5.775
 7172SOL     OW22414   0.004   6.277   1.295
 7172SOL    HW122415   6.969   6.210   1.336
 7172SOL    HW222416   6.983   6.365   1.288
 7173SOL     OW22417   6.442   6.235   4.739
 7173SOL    HW122418   6.353   6.235   4.693
 7173SOL    HW222419   6.438   6.295   4.819
 7174SOL     OW22420   1.225   6.072   5.991
 7174SOL    HW122421   1.235   6.050   6.088
 7174SOL    HW222422   1.292   6.020   5.938
 7175SOL     OW22423   6.293   3.814   5.332
 7175SOL    HW122424   6.247   3.897   5.302
 7175SOL    HW222425   6.249   3.780   5.415
 7176SOL     OW22426   1.008   3.134   1.582
 7176SOL    HW122427   1.063   3.216   1.599
 7176SOL    HW222428   0.913   3.161   1.568
 7177SOL     OW22429   1.042   4.875   1.842
 7177SOL    HW122430   1.027   4.961   1.891
 7177SOL    HW222431   0.954   4.831   1.825
 7178SOL     OW22432   6.102   0.599   6.553
 7178SOL    HW122433   6.132   0.591   6.458
 7178SOL    HW222434   6.181   0.593   6.614
 7179SOL     OW22435   0.684   3.901   6.045
 7179SOL    HW122436   0.709   3.877   5.951
 7179SOL    HW222437   0.597   3.857   6.068
 7180SOL     OW22438   6.597   0.305   2.328
 7180SOL    HW122439   6.635   0.386   2.284
 7180SOL    HW222440   6.670   0.258   2.379
 7181SOL     OW22441   5.413   5.781   2.436
 7181SOL    HW122442   5.325   5.764   2.480
 7181SOL    HW222443   5.436   5.878   2.442
 7182SOL     OW22444   4.499   3.714   6.002
 7182SOL    HW122445   4.522   3.697   6.098
 7182SOL    HW222446   4.567   3.774   5.961
 7183SOL     OW22447   2.145   3.049   3.097
 7183SOL    HW122448   2.143   3.057   3.197
 7183SOL    HW222449   2.240   3.035   3.067
 7184SOL     OW22450   2.345   5.387   3.193
 7184SOL    HW122451   2.288   5.392   3.111
 7184SOL    HW222452   2.293   5.346   3.268
 7185SOL     OW22453   5.025   2.078   6.895
 7185SOL    HW122454   5.074   2.165   6.890
 7185SOL    HW222455   5.002   2.057   6.990
 7186SOL     OW22456   0.952   6.373   4.613
 7186SOL    HW122457   0.992   6.351   4.524
 7186SOL    HW222458   0.853   6.357   4.610
 7187SOL     OW22459   1.742   5.094   1.057
 7187SOL    HW122460   1.745   5.007   1.107
 7187SOL    HW222461   1.822   5.102   0.998
 7188SOL     OW22462   5.200   0.338   1.632
 7188SOL    HW122463   5.211   0.427   1.675
 7188SOL    HW222464   5.283   0.284   1.644
 7189SOL     OW22465   6.086   0.874   5.477
 7189SOL    HW122466   6.029   0.838   5.403
 7189SOL    HW222467   6.034   0.941   5.530
 7190SOL     OW22468   4.387   5.414   3.121
 7190SOL    HW122469   4.362   5.338   3.060
 7190SOL    HW222470   4.455   5.471   3.077
 7191SOL     OW22471   0.755   2.994   1.430
 7191SOL    HW122472   0.761   3.033   1.521
 7191SOL    HW222473   0.835   3.020   1.377
 7192SOL     OW22474   3.206   3.942   6.230
 7192SOL    HW122475   3.209   3.992   6.317
 7192SOL    HW222476   3.275   3.978   6.168
 7193SOL     OW22477   5.914   2.154   4.830
 7193SOL    HW122478   5.896   2.098   4.749
 7193SOL    HW222479   5.998   2.124   4.874
 7194SOL     OW22480   2.897   0.908   2.277
 7194SOL    HW122481   2.933   0.857   2.356
 7194SOL    HW222482   2.875   1.001   2.305
 7195SOL     OW22483   0.568   0.041   2.754
 7195SOL    HW122484   0.588   0.039   2.656
 7195SOL    HW222485   0.651   0.068   2.804
 7196SOL     OW22486   3.726   3.567   1.706
 7196SOL    HW122487   3.801   3.548   1.769
 7196SOL    HW222488   3.661   3.491   1.708
 7197SOL     OW22489   1.692   1.170   4.468
 7197SOL    HW122490   1.669   1.118   4.386
 7197SOL    HW222491   1.782   1.143   4.502
 7198SOL     OW22492   0.380   6.847   6.045
 7198SOL    HW122493   0.282   6.843   6.024
 7198SOL    HW222494   0.399   6.792   6.126
 7199SOL     OW22495   5.966   5.690   2.182
 7199SOL    HW122496   5.897   5.762   2.190
 7199SOL    HW222497   6.015   5.700   2.095
 7200SOL     OW22498   1.458   2.354   2.345
 7200SOL    HW122499   1.530   2.422   2.356
 7200SOL    HW222500   1.418   2.332   2.434
 7201SOL     OW22501   2.276   4.102   4.150
 7201SOL    HW122502   2.296   4.177   4.087
 7201SOL    HW222503   2.316   4.017   4.115
 7202SOL     OW22504   2.528   0.063   5.886
 7202SOL    HW122505   2.549   7.006   5.939
 7202SOL    HW222506   2.538   0.143   5.945
 7203SOL     OW22507   5.676   6.845   6.915
 7203SOL    HW122508   5.647   6.889   7.000
 7203SOL    HW222509   5.775   6.851   6.906
 7204SOL     OW22510   6.608   2.195   3.009
 7204SOL    HW122511   6.581   2.133   2.935
 7204SOL    HW222512   6.539   2.266   3.019
 7205SOL     OW22513   1.361   4.056   1.605
 7205SOL    HW122514   1.401   4.136   1.560
 7205SOL    HW222515   1.262   4.055   1.591
 7206SOL     OW22516   6.213   1.139   1.590
 7206SOL    HW122517   6.285   1.208   1.590
 7206SOL    HW222518   6.205   1.099   1.499
 7207SOL     OW22519   4.148   0.280   1.736
 7207SOL    HW122520   4.079   0.226   1.782
 7207SOL    HW222521   4.109   0.321   1.653
 7208SOL     OW22522   2.420   0.664   5.302
 7208SOL    HW122523   2.343   0.689   5.245
 7208SOL    HW222524   2.439   0.736   5.368
 7209SOL     OW22525   3.286   3.787   5.191
 7209SOL    HW122526   3.307   3.882   5.215
 7209SOL    HW222527   3.205   3.757   5.242
 7210SOL     OW22528   4.081   6.747   4.352
 7210SOL    HW122529   4.059   6.844   4.364
 7210SOL    HW222530   4.180   6.734   4.361
 7211SOL     OW22531   0.902   5.107   2.445
 7211SOL    HW122532   0.968   5.034   2.461
 7211SOL    HW222533   0.950   5.190   2.418
 7212SOL     OW22534   5.465   6.944   3.381
 7212SOL    HW122535   5.560   6.919   3.400
 7212SOL    HW222536   5.456   6.970   3.285
 7213SOL     OW22537   5.735   6.322   5.764
 7213SOL    HW122538   5.752   6.279   5.675
 7213SOL    HW222539   5.718   6.252   5.833
 7214SOL     OW22540   1.291   5.017   5.919
 7214SOL    HW122541   1.276   4.921   5.894
 7214SOL    HW222542   1.296   5.025   6.019
 7215SOL     OW22543   1.262   3.010   1.590
 7215SOL    HW122544   1.307   3.079   1.532
 7215SOL    HW222545   1.164   3.026   1.591
 7216SOL     OW22546   2.972   2.171   2.517
 7216SOL    HW122547   2.897   2.234   2.541
 7216SOL    HW222548   2.968   2.151   2.419
 7217SOL     OW22549   0.631   3.676   1.918
 7217SOL    HW122550   0.538   3.638   1.918
 7217SOL    HW222551   0.694   3.608   1.957
 7218SOL     OW22552   6.310   2.792   4.154
 7218SOL    HW122553   6.391   2.841   4.120
 7218SOL    HW222554   6.319   2.779   4.253
 7219SOL     OW22555   2.920   1.499   0.839
 7219SOL    HW122556   2.888   1.436   0.769
 7219SOL    HW222557   2.884   1.471   0.928
 7220SOL     OW22558   6.785   1.668   3.152
 7220SOL    HW122559   6.808   1.593   3.214
 7220SOL    HW222560   6.839   1.748   3.176
 7221SOL     OW22561   6.780   4.225   5.203
 7221SOL    HW122562   6.723   4.228   5.285
 7221SOL    HW222563   6.814   4.132   5.190
 7222SOL     OW22564   6.830   0.183   2.770
 7222SOL    HW122565   6.908   0.174   2.831
 7222SOL    HW222566   6.752   0.132   2.807
 7223SOL     OW22567   4.320   1.211   4.375
 7223SOL    HW122568   4.317   1.124   4.423
 7223SOL    HW222569   4.248   1.213   4.305
 7224SOL     OW22570   5.582   1.510   3.461
 7224SOL    HW122571   5.594   1.576   3.536
 7224SOL    HW222572   5.495   1.461   3.473
 7225SOL     OW22573   2.595   0.057   1.829
 7225SOL    HW122574   2.555   0.144   1.798
 7225SOL    HW222575   2.653   0.075   1.909
 7226SOL     OW22576   6.166   6.356   5.237
 7226SOL    HW122577   6.153   6.439   5.182
 7226SOL    HW222578   6.092   6.291   5.217
 7227SOL     OW22579   0.136   3.138   6.208
 7227SOL    HW122580   0.207   3.068   6.211
 7227SOL    HW222581   0.176   3.224   6.175
 7228SOL     OW22582   1.737   0.405   2.580
 7228SOL    HW122583   1.659   0.466   2.561
 7228SOL    HW222584   1.767   0.418   2.675
 7229SOL     OW22585   0.019   0.319   3.051
 7229SOL    HW122586   0.048   0.304   3.145
 7229SOL    HW222587   0.027   0.234   2.999
 7230SOL     OW22588   6.573   5.225   1.236
 7230SOL    HW122589   6.512   5.287   1.286
 7230SOL    HW222590   6.525   5.190   1.156
 7231SOL     OW22591   5.653   0.680   0.303
 7231SOL    HW122592   5.562   0.641   0.320
 7231SOL    HW222593   5.683   0.654   0.211
 7232SOL     OW22594   3.409   4.172   0.931
 7232SOL    HW122595   3.378   4.092   0.881
 7232SOL    HW222596   3.454   4.143   1.016
 7233SOL     OW22597   1.102   2.208   5.666
 7233SOL    HW122598   1.177   2.222   5.731
 7233SOL    HW222599   1.028   2.158   5.711
 7234SOL     OW22600   5.437   2.639   3.869
 7234SOL    HW122601   5.507   2.569   3.882
 7234SOL    HW222602   5.465   2.701   3.795
 7235SOL     OW22603   6.067   2.716   5.039
 7235SOL    HW122604   5.994   2.749   4.978
 7235SOL    HW222605   6.105   2.794   5.089
 7236SOL     OW22606   1.091   1.829   3.297
 7236SOL    HW122607   1.048   1.894   3.234
 7236SOL    HW222608   1.132   1.754   3.244
 7237SOL     OW22609   5.652   6.060   4.723
 7237SOL    HW122610   5.701   6.003   4.789
 7237SOL    HW222611   5.685   6.041   4.631
 7238SOL     OW22612   1.779   6.997   2.302
 7238SOL    HW122613   1.848   6.974   2.234
 7238SOL    HW222614   1.750   0.067   2.289
 7239SOL     OW22615   4.671   1.980   2.128
 7239SOL    HW122616   4.669   2.003   2.030
 7239SOL    HW222617   4.612   2.045   2.178
 7240SOL     OW22618   3.226   3.573   3.037
 7240SOL    HW122619   3.265   3.488   3.002
 7240SOL    HW222620   3.126   3.565   3.042
 7241SOL     OW22621   4.789   6.971   4.361
 7241SOL    HW122622   4.735   0.007   4.418
 7241SOL    HW222623   4.789   6.880   4.402
 7242SOL     OW22624   6.717   5.925   0.626
 7242SOL    HW122625   6.778   5.854   0.591
 7242SOL    HW222626   6.629   5.920   0.580
 7243SOL     OW22627   0.534   6.008   1.277
 7243SOL    HW122628   0.567   5.951   1.201
 7243SOL    HW222629   0.508   5.949   1.354
 7244SOL     OW22630   5.888   1.817   1.710
 7244SOL    HW122631   5.836   1.842   1.629
 7244SOL    HW222632   5.975   1.866   1.712
 7245SOL     OW22633   5.601   1.760   3.608
 7245SOL    HW122634   5.590   1.817   3.690
 7245SOL    HW222635   5.692   1.774   3.569
 7246SOL     OW22636   1.591   5.717   5.627
 7246SOL    HW122637   1.580   5.776   5.546
 7246SOL    HW222638   1.542   5.757   5.704
 7247SOL     OW22639   4.092   5.849   3.913
 7247SOL    HW122640   4.175   5.796   3.901
 7247SOL    HW222641   4.015   5.787   3.929
 7248SOL     OW22642   3.243   1.191   5.020
 7248SOL    HW122643   3.285   1.260   4.961
 7248SOL    HW222644   3.282   1.101   4.999
 7249SOL     OW22645   4.653   3.220   5.751
 7249SOL    HW122646   4.584   3.261   5.690
 7249SOL    HW222647   4.617   3.217   5.844
 7250SOL     OW22648   3.047   3.064   0.139
 7250SOL    HW122649   2.970   3.016   0.182
 7250SOL    HW222650   3.090   3.124   0.206
 7251SOL     OW22651   5.865   1.429   5.136
 7251SOL    HW122652   5.808   1.374   5.198
 7251SOL    HW222653   5.947   1.377   5.111
 7252SOL     OW22654   4.719   3.367   5.306
 7252SOL    HW122655   4.726   3.456   5.262
 7252SOL    HW222656   4.792   3.308   5.273
 7253SOL     OW22657   5.015   4.937   0.021
 7253SOL    HW122658   4.937   4.879   0.045
 7253SOL    HW222659   5.098   4.900   0.063
 7254SOL     OW22660   4.850   6.394   5.362
 7254SOL    HW122661   4.844   6.487   5.400
 7254SOL    HW222662   4.938   6.383   5.316
 7255SOL     OW22663   3.591   3.070   3.152
 7255SOL    HW122664   3.524   3.117   3.210
 7255SOL    HW222665   3.585   3.104   3.058
 7256SOL     OW22666   3.010   5.535   3.526
 7256SOL    HW122667   3.089   5.502   3.578
 7256SOL    HW222668   2.986   5.467   3.456
 7257SOL     OW22669   5.888   5.507   2.854
 7257SOL    HW122670   5.800   5.462   2.870
 7257SOL    HW222671   5.875   5.583   2.791
 7258SOL     OW22672   2.263   6.995   5.791
 7258SOL    HW122673   2.255   6.971   5.694
 7258SOL    HW222674   2.343   0.028   5.805
 7259SOL     OW22675   3.217   4.241   5.949
 7259SOL    HW122676   3.311   4.271   5.964
 7259SOL    HW222677   3.210   4.143   5.969
 7260SOL     OW22678   4.524   2.456   2.749
 7260SOL    HW122679   4.567   2.504   2.672
 7260SOL    HW222680   4.586   2.457   2.827
 7261SOL     OW22681   2.582   4.864   1.437
 7261SOL    HW122682   2.541   4.810   1.364
 7261SOL    HW222683   2.544   4.835   1.525
 7262SOL     OW22684   6.331   0.624   4.731
 7262SOL    HW122685   6.346   0.532   4.769
 7262SOL    HW222686   6.259   0.670   4.782
 7263SOL     OW22687   5.628   5.258   1.334
 7263SOL    HW122688   5.612   5.333   1.271
 7263SOL    HW222689   5.541   5.214   1.357
 7264SOL     OW22690   0.264   6.760   4.655
 7264SOL    HW122691   0.168   6.789   4.663
 7264SOL    HW222692   0.286   6.747   4.558
 7265SOL     OW22693   4.908   3.000   6.551
 7265SOL    HW122694   4.981   2.947   6.593
 7265SOL    HW222695   4.822   2.984   6.601
 7266SOL     OW22696   4.161   1.479   2.913
 7266SOL    HW122697   4.200   1.443   2.997
 7266SOL    HW222698   4.079   1.533   2.934
 7267SOL     OW22699   4.982   1.650   3.829
 7267SOL    HW122700   4.982   1.705   3.913
 7267SOL    HW222701   4.936   1.701   3.756
 7268SOL     OW22702   4.217   6.627   0.018
 7268SOL    HW122703   4.234   6.721   7.016
 7268SOL    HW222704   4.141   6.590   6.989
 7269SOL     OW22705   1.528   0.046   2.499
 7269SOL    HW122706   1.584   7.016   2.560
 7269SOL    HW222707   1.586   0.109   2.447
 7270SOL     OW22708   3.132   2.521   1.696
 7270SOL    HW122709   3.083   2.492   1.778
 7270SOL    HW222710   3.230   2.524   1.715
 7271SOL     OW22711   5.741   5.275   3.592
 7271SOL    HW122712   5.826   5.327   3.600
 7271SOL    HW222713   5.707   5.282   3.498
 7272SOL     OW22714   5.953   1.403   1.600
 7272SOL    HW122715   5.968   1.315   1.646
 7272SOL    HW222716   6.030   1.464   1.619
 7273SOL     OW22717   6.183   5.207   4.966
 7273SOL    HW122718   6.103   5.149   4.953
 7273SOL    HW222719   6.153   5.303   4.974
 7274SOL     OW22720   5.646   5.084   3.777
 7274SOL    HW122721   5.698   5.147   3.717
 7274SOL    HW222722   5.582   5.031   3.721
 7275SOL     OW22723   5.727   6.834   1.729
 7275SOL    HW122724   5.720   6.857   1.826
 7275SOL    HW222725   5.722   6.735   1.717
 7276SOL     OW22726   4.014   1.945   2.883
 7276SOL    HW122727   3.972   1.857   2.861
 7276SOL    HW222728   3.945   2.003   2.928
 7277SOL     OW22729   6.009   2.260   3.992
 7277SOL    HW122730   6.016   2.222   4.084
 7277SOL    HW222731   5.963   2.349   3.996
 7278SOL     OW22732   3.367   1.024   3.380
 7278SOL    HW122733   3.421   1.040   3.462
 7278SOL    HW222734   3.420   0.969   3.315
 7279SOL     OW22735   3.794   3.748   1.514
 7279SOL    HW122736   3.891   3.767   1.525
 7279SOL    HW222737   3.765   3.681   1.583
 7280SOL     OW22738   6.942   1.357   5.569
 7280SOL    HW122739   6.959   1.441   5.621
 7280SOL    HW222740   6.856   1.317   5.599
 7281SOL     OW22741   3.590   6.687   3.255
 7281SOL    HW122742   3.590   6.686   3.355
 7281SOL    HW222743   3.658   6.753   3.223
 7282SOL     OW22744   0.260   3.806   1.069
 7282SOL    HW122745   0.269   3.888   1.125
 7282SOL    HW222746   0.280   3.725   1.124
 7283SOL     OW22747   2.833   6.093   3.010
 7283SOL    HW122748   2.856   6.176   2.960
 7283SOL    HW222749   2.904   6.024   2.995
 7284SOL     OW22750   0.762   0.555   3.864
 7284SOL    HW122751   0.690   0.486   3.863
 7284SOL    HW222752   0.808   0.555   3.953
 7285SOL     OW22753   5.433   2.552   1.647
 7285SOL    HW122754   5.337   2.524   1.644
 7285SOL    HW222755   5.444   2.640   1.602
 7286SOL     OW22756   6.873   1.272   4.647
 7286SOL    HW122757   6.964   1.277   4.608
 7286SOL    HW222758   6.863   1.187   4.700
 7287SOL     OW22759   3.228   1.904   4.062
 7287SOL    HW122760   3.171   1.838   4.111
 7287SOL    HW222761   3.324   1.890   4.087
 7288SOL     OW22762   2.831   1.956   1.777
 7288SOL    HW122763   2.825   1.998   1.686
 7288SOL    HW222764   2.923   1.970   1.814
 7289SOL     OW22765   6.469   2.322   1.186
 7289SOL    HW122766   6.490   2.338   1.090
 7289SOL    HW222767   6.527   2.379   1.243
 7290SOL     OW22768   3.322   2.159   4.812
 7290SOL    HW122769   3.415   2.153   4.850
 7290SOL    HW222770   3.277   2.241   4.846
 7291SOL     OW22771   1.372   1.031   0.264
 7291SOL    HW122772   1.369   1.079   0.176
 7291SOL    HW222773   1.308   1.075   0.328
 7292SOL     OW22774   3.657   1.360   2.068
 7292SOL    HW122775   3.583   1.386   2.131
 7292SOL    HW222776   3.619   1.345   1.977
 7293SOL     OW22777   6.558   1.147   4.128
 7293SOL    HW122778   6.551   1.208   4.050
 7293SOL    HW222779   6.468   1.137   4.171
 7294SOL     OW22780   2.785   1.100   2.968
 7294SOL    HW122781   2.759   1.161   2.893
 7294SOL    HW222782   2.715   1.103   3.039
 7295SOL     OW22783   5.436   4.142   1.684
 7295SOL    HW122784   5.512   4.132   1.620
 7295SOL    HW222785   5.458   4.098   1.771
 7296SOL     OW22786   3.053   6.853   2.733
 7296SOL    HW122787   3.000   6.790   2.677
 7296SOL    HW222788   3.066   6.814   2.824
 7297SOL     OW22789   4.105   0.195   0.328
 7297SOL    HW122790   4.148   0.141   0.255
 7297SOL    HW222791   4.164   0.272   0.352
 7298SOL     OW22792   3.997   4.447   1.145
 7298SOL    HW122793   3.989   4.499   1.060
 7298SOL    HW222794   4.082   4.394   1.144
 7299SOL     OW22795   6.827   3.094   0.271
 7299SOL    HW122796   6.865   3.021   0.214
 7299SOL    HW222797   6.813   3.175   0.216
 7300SOL     OW22798   0.921   4.370   1.487
 7300SOL    HW122799   0.873   4.453   1.458
 7300SOL    HW222800   1.014   4.370   1.451
 7301SOL     OW22801   4.449   1.524   0.189
 7301SOL    HW122802   4.415   1.504   0.281
 7301SOL    HW222803   4.536   1.572   0.195
 7302SOL     OW22804   5.601   1.707   6.470
 7302SOL    HW122805   5.558   1.617   6.473
 7302SOL    HW222806   5.626   1.729   6.376
 7303SOL     OW22807   3.515   2.151   1.526
 7303SOL    HW122808   3.533   2.240   1.486
 7303SOL    HW222809   3.446   2.103   1.471
 7304SOL     OW22810   2.422   6.966   0.609
 7304SOL    HW122811   2.484   6.936   0.681
 7304SOL    HW222812   2.463   6.948   0.520
 7305SOL     OW22813   6.943   0.118   6.269
 7305SOL    HW122814   7.001   0.057   6.213
 7305SOL    HW222815   6.989   0.137   6.355
 7306SOL     OW22816   1.854   3.769   0.634
 7306SOL    HW122817   1.794   3.833   0.584
 7306SOL    HW222818   1.800   3.719   0.701
 7307SOL     OW22819   4.392   6.620   2.162
 7307SOL    HW122820   4.325   6.562   2.209
 7307SOL    HW222821   4.455   6.660   2.228
 7308SOL     OW22822   3.504   1.837   2.773
 7308SOL    HW122823   3.424   1.785   2.805
 7308SOL    HW222824   3.553   1.784   2.704
 7309SOL     OW22825   2.695   4.758   4.315
 7309SOL    HW122826   2.733   4.741   4.406
 7309SOL    HW222827   2.765   4.742   4.246
 7310SOL     OW22828   4.040   3.170   0.291
 7310SOL    HW122829   3.949   3.157   0.332
 7310SOL    HW222830   4.053   3.105   0.216
 7311SOL     OW22831   1.287   6.593   5.559
 7311SOL    HW122832   1.362   6.627   5.502
 7311SOL    HW222833   1.269   6.659   5.632
 7312SOL     OW22834   6.136   1.981   4.353
 7312SOL    HW122835   6.082   2.052   4.308
 7312SOL    HW222836   6.111   1.976   4.449
 7313SOL     OW22837   3.208   1.232   3.196
 7313SOL    HW122838   3.255   1.222   3.108
 7313SOL    HW222839   3.268   1.198   3.269
 7314SOL     OW22840   2.543   5.866   4.711
 7314SOL    HW122841   2.495   5.846   4.626
 7314SOL    HW222842   2.557   5.965   4.718
 7315SOL     OW22843   2.277   4.695   2.538
 7315SOL    HW122844   2.237   4.753   2.609
 7315SOL    HW222845   2.204   4.651   2.486
 7316SOL     OW22846   3.826   0.806   2.132
 7316SOL    HW122847   3.831   0.846   2.223
 7316SOL    HW222848   3.881   0.723   2.129
 7317SOL     OW22849   6.447   1.911   1.890
 7317SOL    HW122850   6.412   1.936   1.980
 7317SOL    HW222851   6.425   1.816   1.870
 7318SOL     OW22852   4.737   6.012   1.705
 7318SOL    HW122853   4.753   6.080   1.777
 7318SOL    HW222854   4.725   5.922   1.746
 7319SOL     OW22855   4.419   4.743   5.765
 7319SOL    HW122856   4.394   4.717   5.671
 7319SOL    HW222857   4.519   4.741   5.774
 7320SOL     OW22858   1.496   2.924   0.413
 7320SOL    HW122859   1.421   2.981   0.446
 7320SOL    HW222860   1.479   2.898   0.318
 7321SOL     OW22861   2.353   2.205   5.376
 7321SOL    HW122862   2.325   2.175   5.467
 7321SOL    HW222863   2.452   2.199   5.368
 7322SOL     OW22864   2.136   2.034   4.068
 7322SOL    HW122865   2.109   2.128   4.083
 7322SOL    HW222866   2.114   2.007   3.974
 7323SOL     OW22867   2.320   1.576   0.567
 7323SOL    HW122868   2.319   1.524   0.653
 7323SOL    HW222869   2.323   1.513   0.490
 7324SOL     OW22870   5.248   3.825   4.606
 7324SOL    HW122871   5.156   3.824   4.567
 7324SOL    HW222872   5.288   3.734   4.599
 7325SOL     OW22873   3.576   0.378   6.383
 7325SOL    HW122874   3.524   0.293   6.375
 7325SOL    HW222875   3.612   0.387   6.476
 7326SOL     OW22876   3.675   6.305   6.910
 7326SOL    HW122877   3.593   6.249   6.922
 7326SOL    HW222878   3.677   6.341   6.817
 7327SOL     OW22879   1.424   4.666   3.348
 7327SOL    HW122880   1.436   4.679   3.250
 7327SOL    HW222881   1.328   4.680   3.372
 7328SOL     OW22882   4.416   5.292   6.948
 7328SOL    HW122883   4.426   5.383   6.988
 7328SOL    HW222884   4.441   5.223   7.016
 7329SOL     OW22885   2.642   3.848   6.490
 7329SOL    HW122886   2.669   3.849   6.394
 7329SOL    HW222887   2.694   3.916   6.541
 7330SOL     OW22888   2.124   3.913   1.380
 7330SOL    HW122889   2.061   3.929   1.456
 7330SOL    HW222890   2.149   3.817   1.377
 7331SOL     OW22891   5.325   1.027   2.584
 7331SOL    HW122892   5.318   0.985   2.493
 7331SOL    HW222893   5.267   1.108   2.587
 7332SOL     OW22894   2.328   6.994   5.253
 7332SOL    HW122895   2.363   0.058   5.223
 7332SOL    HW222896   2.274   6.954   5.179
 7333SOL     OW22897   6.587   1.184   1.702
 7333SOL    HW122898   6.576   1.193   1.603
 7333SOL    HW222899   6.655   1.251   1.733
 7334SOL     OW22900   1.146   4.931   4.790
 7334SOL    HW122901   1.115   4.966   4.879
 7334SOL    HW222902   1.153   5.007   4.725
 7335SOL     OW22903   0.200   2.919   2.477
 7335SOL    HW122904   0.252   2.995   2.515
 7335SOL    HW222905   0.108   2.950   2.453
 7336SOL     OW22906   2.973   0.223   1.126
 7336SOL    HW122907   2.891   0.172   1.098
 7336SOL    HW222908   2.946   0.301   1.182
 7337SOL     OW22909   3.150   1.557   2.327
 7337SOL    HW122910   3.112   1.626   2.265
 7337SOL    HW222911   3.156   1.594   2.419
 7338SOL     OW22912   5.284   2.854   0.490
 7338SOL    HW122913   5.298   2.938   0.437
 7338SOL    HW222914   5.229   2.790   0.438
 7339SOL     OW22915   6.724   0.048   4.305
 7339SOL    HW122916   6.649   0.084   4.250
 7339SOL    HW222917   6.772   0.124   4.349
 7340SOL     OW22918   2.961   6.537   0.603
 7340SOL    HW122919   2.959   6.636   0.615
 7340SOL    HW222920   3.054   6.503   0.620
 7341SOL     OW22921   6.624   5.343   3.243
 7341SOL    HW122922   6.597   5.247   3.248
 7341SOL    HW222923   6.543   5.401   3.231
 7342SOL     OW22924   0.067   5.179   0.261
 7342SOL    HW122925   0.152   5.127   0.270
 7342SOL    HW222926   0.023   5.188   0.350
 7343SOL     OW22927   0.722   2.208   2.861
 7343SOL    HW122928   0.760   2.183   2.772
 7343SOL    HW222929   0.651   2.277   2.849
 7344SOL     OW22930   2.216   1.423   5.943
 7344SOL    HW122931   2.227   1.365   6.024
 7344SOL    HW222932   2.306   1.452   5.911
 7345SOL     OW22933   1.184   6.870   6.907
 7345SOL    HW122934   1.113   6.837   6.846
 7345SOL    HW222935   1.262   6.807   6.904
 7346SOL     OW22936   3.597   5.275   3.246
 7346SOL    HW122937   3.527   5.238   3.307
 7346SOL    HW222938   3.679   5.217   3.250
 7347SOL     OW22939   5.411   2.990   3.502
 7347SOL    HW122940   5.320   2.964   3.531
 7347SOL    HW222941   5.444   2.926   3.433
 7348SOL     OW22942   5.307   6.971   6.312
 7348SOL    HW122943   5.318   6.896   6.247
 7348SOL    HW222944   5.323   6.937   6.405
 7349SOL     OW22945   3.245   2.191   1.265
 7349SOL    HW122946   3.154   2.167   1.233
 7349SOL    HW222947   3.278   2.121   1.328
 7350SOL     OW22948   1.668   1.701   2.991
 7350SOL    HW122949   1.720   1.644   2.928
 7350SOL    HW222950   1.730   1.756   3.047
 7351SOL     OW22951   5.995   4.940   0.170
 7351SOL    HW122952   6.054   4.879   0.118
 7351SOL    HW222953   5.899   4.922   0.147
 7352SOL     OW22954   6.689   1.359   2.925
 7352SOL    HW122955   6.614   1.349   2.860
 7352SOL    HW222956   6.661   1.419   3.000
 7353SOL     OW22957   5.845   1.854   4.965
 7353SOL    HW122958   5.782   1.793   4.916
 7353SOL    HW222959   5.794   1.933   5.001
 7354SOL     OW22960   5.457   4.276   5.056
 7354SOL    HW122961   5.375   4.305   5.006
 7354SOL    HW222962   5.441   4.283   5.154
 7355SOL     OW22963   0.073   5.497   0.331
 7355SOL    HW122964   0.021   5.468   0.411
 7355SOL    HW222965   0.024   5.472   0.248
 7356SOL     OW22966   0.125   1.783   6.146
 7356SOL    HW122967   0.058   1.856   6.163
 7356SOL    HW222968   0.217   1.816   6.166
 7357SOL     OW22969   0.272   1.425   0.592
 7357SOL    HW122970   0.225   1.471   0.667
 7357SOL    HW222971   0.228   1.337   0.574
 7358SOL     OW22972   3.143   1.133   3.702
 7358SOL    HW122973   3.098   1.079   3.632
 7358SOL    HW222974   3.117   1.229   3.693
 7359SOL     OW22975   3.063   3.557   4.111
 7359SOL    HW122976   3.015   3.527   4.029
 7359SOL    HW222977   3.160   3.571   4.090
 7360SOL     OW22978   1.505   4.438   5.972
 7360SOL    HW122979   1.502   4.364   6.039
 7360SOL    HW222980   1.562   4.513   6.007
 7361SOL     OW22981   4.818   0.233   1.930
 7361SOL    HW122982   4.846   0.229   1.834
 7361SOL    HW222983   4.792   0.141   1.960
 7362SOL     OW22984   1.469   5.071   0.043
 7362SOL    HW122985   1.400   5.002   0.022
 7362SOL    HW222986   1.507   5.054   0.133
 7363SOL     OW22987   4.688   1.934   5.875
 7363SOL    HW122988   4.696   2.014   5.933
 7363SOL    HW222989   4.778   1.907   5.841
 7364SOL     OW22990   5.371   6.998   0.745
 7364SOL    HW122991   5.374   6.954   0.656
 7364SOL    HW222992   5.280   6.985   0.785
 7365SOL     OW22993   5.499   6.931   1.169
 7365SOL    HW122994   5.559   6.955   1.092
 7365SOL    HW222995   5.445   7.011   1.195
 7366SOL     OW22996   2.588   6.736   0.511
 7366SOL    HW122997   2.513   6.780   0.461
 7366SOL    HW222998   2.606   6.646   0.472
 7367SOL     OW22999   4.677   2.902   6.226
 7367SOL    HW123000   4.605   2.968   6.249
 7367SOL    HW223001   4.705   2.853   6.309
 7368SOL     OW23002   3.195   3.153   4.780
 7368SOL    HW123003   3.213   3.237   4.833
 7368SOL    HW223004   3.197   3.174   4.683
 7369SOL     OW23005   6.713   6.801   6.483
 7369SOL    HW123006   6.678   6.825   6.574
 7369SOL    HW223007   6.637   6.778   6.423
 7370SOL     OW23008   0.264   5.951   1.042
 7370SOL    HW123009   0.359   5.946   1.014
 7370SOL    HW223010   0.236   5.865   1.085
 7371SOL     OW23011   2.142   4.750   3.852
 7371SOL    HW123012   2.112   4.747   3.948
 7371SOL    HW223013   2.062   4.768   3.794
 7372SOL     OW23014   2.675   0.462   5.436
 7372SOL    HW123015   2.740   0.387   5.434
 7372SOL    HW223016   2.644   0.477   5.530
 7373SOL     OW23017   3.774   1.355   0.862
 7373SOL    HW123018   3.722   1.419   0.918
 7373SOL    HW223019   3.805   1.402   0.779
 7374SOL     OW23020   2.290   3.576   0.903
 7374SOL    HW123021   2.198   3.576   0.864
 7374SOL    HW223022   2.300   3.654   0.964
 7375SOL     OW23023   2.500   5.668   3.316
 7375SOL    HW123024   2.559   5.732   3.266
 7375SOL    HW223025   2.517   5.575   3.283
 7376SOL     OW23026   3.289   4.023   7.025
 7376SOL    HW123027   3.358   3.981   0.059
 7376SOL    HW223028   3.198   3.999   0.032
 7377SOL     OW23029   5.753   6.099   1.448
 7377SOL    HW123030   5.699   6.149   1.380
 7377SOL    HW223031   5.782   6.012   1.409
 7378SOL     OW23032   0.799   1.761   6.196
 7378SOL    HW123033   0.843   1.675   6.221
 7378SOL    HW223034   0.840   1.836   6.247
 7379SOL     OW23035   4.538   0.470   0.402
 7379SOL    HW123036   4.460   0.497   0.459
 7379SOL    HW223037   4.516   0.386   0.353
 7380SOL     OW23038   0.095   2.713   6.965
 7380SOL    HW123039   0.045   2.773   0.003
 7380SOL    HW223040   0.029   2.662   6.910
 7381SOL     OW23041   4.969   2.529   0.737
 7381SOL    HW123042   5.002   2.621   0.719
 7381SOL    HW223043   4.894   2.533   0.804
 7382SOL     OW23044   1.149   5.394   3.706
 7382SOL    HW123045   1.213   5.318   3.716
 7382SOL    HW223046   1.059   5.366   3.738
 7383SOL     OW23047   1.512   4.811   2.590
 7383SOL    HW123048   1.572   4.799   2.669
 7383SOL    HW223049   1.480   4.906   2.587
 7384SOL     OW23050   6.122   1.611   1.623
 7384SOL    HW123051   6.099   1.694   1.673
 7384SOL    HW223052   6.204   1.627   1.567
 7385SOL     OW23053   5.799   0.495   2.036
 7385SOL    HW123054   5.897   0.513   2.038
 7385SOL    HW223055   5.768   0.485   1.941
 7386SOL     OW23056   6.610   1.682   5.591
 7386SOL    HW123057   6.587   1.746   5.517
 7386SOL    HW223058   6.656   1.731   5.665
 7387SOL     OW23059   4.545   5.834   3.551
 7387SOL    HW123060   4.571   5.930   3.540
 7387SOL    HW223061   4.447   5.828   3.573
 7388SOL     OW23062   5.170   3.510   4.880
 7388SOL    HW123063   5.091   3.452   4.900
 7388SOL    HW223064   5.140   3.603   4.861
 7389SOL     OW23065   1.739   2.835   5.448
 7389SOL    HW123066   1.697   2.881   5.526
 7389SOL    HW223067   1.767   2.904   5.380
 7390SOL     OW23068   4.701   6.678   0.573
 7390SOL    HW123069   4.783   6.625   0.592
 7390SOL    HW223070   4.629   6.617   0.541
 7391SOL     OW23071   6.834   5.363   0.689
 7391SOL    HW123072   6.789   5.310   0.762
 7391SOL    HW223073   6.893   5.432   0.731
 7392SOL     OW23074   1.819   4.466   2.525
 7392SOL    HW123075   1.728   4.495   2.496
 7392SOL    HW223076   1.812   4.390   2.589
 7393SOL     OW23077   1.079   3.778   0.485
 7393SOL    HW123078   1.038   3.747   0.400
 7393SOL    HW223079   1.162   3.725   0.503
 7394SOL     OW23080   3.005   3.584   6.822
 7394SOL    HW123081   3.020   3.674   6.779
 7394SOL    HW223082   2.914   3.550   6.797
 7395SOL     OW23083   2.524   0.250   0.262
 7395SOL    HW123084   2.532   0.301   0.348
 7395SOL    HW223085   2.609   0.258   0.210
 7396SOL     OW23086   6.500   6.819   2.280
 7396SOL    HW123087   6.578   6.779   2.329
 7396SOL    HW223088   6.419   6.817   2.338
 7397SOL     OW23089   6.613   4.333   3.857
 7397SOL    HW123090   6.675   4.406   3.885
 7397SOL    HW223091   6.583   4.283   3.938
 7398SOL     OW23092   4.544   6.495   2.514
 7398SOL    HW123093   4.460   6.478   2.566
 7398SOL    HW223094   4.616   6.433   2.546
 7399SOL     OW23095   4.966   5.997   4.211
 7399SOL    HW123096   4.946   6.016   4.115
 7399SOL    HW223097   4.902   6.047   4.269
 7400SOL     OW23098   2.507   4.479   6.904
 7400SOL    HW123099   2.533   4.478   7.001
 7400SOL    HW223100   2.484   4.387   6.875
 7401SOL     OW23101   6.383   2.896   3.785
 7401SOL    HW123102   6.422   2.915   3.695
 7401SOL    HW223103   6.335   2.809   3.783
 7402SOL     OW23104   1.969   6.229   4.494
 7402SOL    HW123105   1.978   6.296   4.420
 7402SOL    HW223106   1.999   6.269   4.580
 7403SOL     OW23107   2.412   3.226   1.669
 7403SOL    HW123108   2.384   3.293   1.738
 7403SOL    HW223109   2.373   3.137   1.691
 7404SOL     OW23110   1.308   3.059   2.748
 7404SOL    HW123111   1.348   3.063   2.840
 7404SOL    HW223112   1.341   2.977   2.701
 7405SOL     OW23113   3.607   4.689   6.066
 7405SOL    HW123114   3.537   4.634   6.113
 7405SOL    HW223115   3.684   4.706   6.129
 7406SOL     OW23116   6.424   6.094   3.000
 7406SOL    HW123117   6.459   6.123   2.911
 7406SOL    HW223118   6.326   6.073   2.991
 7407SOL     OW23119   3.750   1.158   5.696
 7407SOL    HW123120   3.710   1.245   5.724
 7407SOL    HW223121   3.790   1.113   5.776
 7408SOL     OW23122   1.166   3.853   5.229
 7408SOL    HW123123   1.150   3.773   5.286
 7408SOL    HW223124   1.253   3.842   5.180
 7409SOL     OW23125   2.144   0.024   4.332
 7409SOL    HW123126   2.108   6.966   4.373
 7409SOL    HW223127   2.236   0.007   4.297
 7410SOL     OW23128   4.968   5.772   6.079
 7410SOL    HW123129   4.883   5.784   6.130
 7410SOL    HW223130   4.975   5.678   6.048
 7411SOL     OW23131   6.120   3.815   5.584
 7411SOL    HW123132   6.087   3.898   5.628
 7411SOL    HW223133   6.055   3.740   5.598
 7412SOL     OW23134   1.329   0.787   0.421
 7412SOL    HW123135   1.332   0.714   0.353
 7412SOL    HW223136   1.345   0.875   0.376
 7413SOL     OW23137   6.327   3.821   3.472
 7413SOL    HW123138   6.402   3.758   3.451
 7413SOL    HW223139   6.288   3.799   3.561
 7414SOL     OW23140   0.286   6.076   2.056
 7414SOL    HW123141   0.296   6.055   1.959
 7414SOL    HW223142   0.376   6.094   2.096
 7415SOL     OW23143   2.927   1.671   2.941
 7415SOL    HW123144   2.976   1.605   2.997
 7415SOL    HW223145   2.986   1.750   2.922
 7416SOL     OW23146   6.002   0.222   2.667
 7416SOL    HW123147   5.913   0.178   2.659
 7416SOL    HW223148   6.048   0.188   2.749
 7417SOL     OW23149   0.451   5.375   1.519
 7417SOL    HW123150   0.367   5.347   1.471
 7417SOL    HW223151   0.523   5.391   1.452
 7418SOL     OW23152   2.085   3.876   0.983
 7418SOL    HW123153   2.164   3.818   1.006
 7418SOL    HW223154   2.027   3.887   1.064
 7419SOL     OW23155   6.276   2.248   5.802
 7419SOL    HW123156   6.275   2.153   5.831
 7419SOL    HW223157   6.254   2.307   5.879
 7420SOL     OW23158   0.304   5.633   2.094
 7420SOL    HW123159   0.369   5.659   2.022
 7420SOL    HW223160   0.298   5.706   2.161
 7421SOL     OW23161   4.154   2.363   1.242
 7421SOL    HW123162   4.106   2.349   1.329
 7421SOL    HW223163   4.210   2.283   1.221
 7422SOL     OW23164   1.067   2.462   0.658
 7422SOL    HW123165   1.087   2.374   0.701
 7422SOL    HW223166   1.016   2.447   0.574
 7423SOL     OW23167   2.947   4.160   0.652
 7423SOL    HW123168   2.905   4.198   0.569
 7423SOL    HW223169   3.045   4.182   0.652
 7424SOL     OW23170   4.901   0.647   3.848
 7424SOL    HW123171   4.853   0.577   3.901
 7424SOL    HW223172   4.990   0.666   3.892
 7425SOL     OW23173   3.172   0.405   4.759
 7425SOL    HW123174   3.158   0.500   4.732
 7425SOL    HW223175   3.249   0.367   4.708
 7426SOL     OW23176   0.291   0.643   6.324
 7426SOL    HW123177   0.237   0.697   6.259
 7426SOL    HW223178   0.268   0.671   6.418
 7427SOL     OW23179   5.689   5.162   5.751
 7427SOL    HW123180   5.788   5.171   5.751
 7427SOL    HW223181   5.663   5.066   5.764
 7428SOL     OW23182   5.105   1.368   5.361
 7428SOL    HW123183   5.072   1.429   5.288
 7428SOL    HW223184   5.093   1.273   5.332
 7429SOL     OW23185   6.088   6.227   3.834
 7429SOL    HW123186   6.019   6.277   3.887
 7429SOL    HW223187   6.171   6.282   3.828
 7430SOL     OW23188   0.760   3.831   4.395
 7430SOL    HW123189   0.825   3.830   4.470
 7430SOL    HW223190   0.808   3.815   4.308
 7431SOL     OW23191   6.907   4.139   2.630
 7431SOL    HW123192   7.004   4.127   2.651
 7431SOL    HW223193   6.896   4.157   2.532
 7432SOL     OW23194   2.139   6.050   5.811
 7432SOL    HW123195   2.040   6.056   5.796
 7432SOL    HW223196   2.157   6.003   5.897
 7433SOL     OW23197   0.574   6.935   0.785
 7433SOL    HW123198   0.610   0.003   0.779
 7433SOL    HW223199   0.475   6.938   0.800
 7434SOL     OW23200   4.445   6.979   0.463
 7434SOL    HW123201   4.433   6.962   0.365
 7434SOL    HW223202   4.535   7.019   0.479
 7435SOL     OW23203   1.281   4.879   6.987
 7435SOL    HW123204   1.264   4.795   0.011
 7435SOL    HW223205   1.294   4.858   6.890
 7436SOL     OW23206   5.428   3.658   6.891
 7436SOL    HW123207   5.414   3.578   6.948
 7436SOL    HW223208   5.519   3.697   6.910
 7437SOL     OW23209   0.211   6.236   5.358
 7437SOL    HW123210   0.176   6.314   5.410
 7437SOL    HW223211   0.166   6.233   5.269
 7438SOL     OW23212   5.421   4.288   0.379
 7438SOL    HW123213   5.346   4.352   0.398
 7438SOL    HW223214   5.454   4.249   0.465
 7439SOL     OW23215   1.072   6.501   3.062
 7439SOL    HW123216   1.126   6.566   3.009
 7439SOL    HW223217   1.089   6.516   3.160
 7440SOL     OW23218   0.835   0.839   4.621
 7440SOL    HW123219   0.776   0.778   4.569
 7440SOL    HW223220   0.908   0.786   4.664
 7441SOL     OW23221   6.331   0.447   4.352
 7441SOL    HW123222   6.327   0.353   4.385
 7441SOL    HW223223   6.296   0.451   4.259
 7442SOL     OW23224   1.977   0.975   6.989
 7442SOL    HW123225   1.894   1.001   0.014
 7442SOL    HW223226   1.956   0.972   6.892
 7443SOL     OW23227   6.933   1.767   1.907
 7443SOL    HW123228   6.850   1.823   1.913
 7443SOL    HW223229   6.930   1.712   1.824
 7444SOL     OW23230   1.469   2.515   5.484
 7444SOL    HW123231   1.435   2.483   5.572
 7444SOL    HW223232   1.464   2.440   5.418
 7445SOL     OW23233   5.833   3.023   2.011
 7445SOL    HW123234   5.786   3.100   2.055
 7445SOL    HW223235   5.930   3.026   2.033
 7446SOL     OW23236   4.742   4.096   2.792
 7446SOL    HW123237   4.689   4.180   2.793
 7446SOL    HW223238   4.731   4.048   2.880
 7447SOL     OW23239   1.474   3.894   6.275
 7447SOL    HW123240   1.464   3.877   6.373
 7447SOL    HW223241   1.469   3.992   6.258
 7448SOL     OW23242   0.574   1.335   5.759
 7448SOL    HW123243   0.507   1.317   5.831
 7448SOL    HW223244   0.530   1.325   5.670
 7449SOL     OW23245   3.341   0.717   3.100
 7449SOL    HW123246   3.364   0.693   3.006
 7449SOL    HW223247   3.394   0.661   3.163
 7450SOL     OW23248   4.030   1.765   1.788
 7450SOL    HW123249   4.104   1.808   1.838
 7450SOL    HW223250   4.023   1.804   1.696
 7451SOL     OW23251   1.264   0.865   2.068
 7451SOL    HW123252   1.249   0.881   2.166
 7451SOL    HW223253   1.278   0.952   2.021
 7452SOL     OW23254   1.993   5.772   3.081
 7452SOL    HW123255   1.947   5.708   3.020
 7452SOL    HW223256   2.085   5.739   3.101
 7453SOL     OW23257   6.563   4.514   4.876
 7453SOL    HW123258   6.654   4.555   4.871
 7453SOL    HW223259   6.555   4.441   4.808
 7454SOL     OW23260   2.752   1.880   6.862
 7454SOL    HW123261   2.815   1.944   6.818
 7454SOL    HW223262   2.796   1.791   6.870
 7455SOL     OW23263   4.560   6.921   1.011
 7455SOL    HW123264   4.529   7.014   1.034
 7455SOL    HW223265   4.659   6.920   1.002
 7456SOL     OW23266   1.515   3.770   5.616
 7456SOL    HW123267   1.461   3.852   5.595
 7456SOL    HW223268   1.460   3.689   5.599
 7457SOL     OW23269   0.139   6.106   5.956
 7457SOL    HW123270   0.214   6.171   5.955
 7457SOL    HW223271   0.096   6.104   5.865
 7458SOL     OW23272   2.671   0.242   1.480
 7458SOL    HW123273   2.653   0.252   1.383
 7458SOL    HW223274   2.593   0.276   1.532
 7459SOL     OW23275   3.894   6.039   3.446
 7459SOL    HW123276   3.848   6.119   3.485
 7459SOL    HW223277   3.826   5.972   3.416
 7460SOL     OW23278   0.669   5.407   6.459
 7460SOL    HW123279   0.569   5.398   6.454
 7460SOL    HW223280   0.701   5.458   6.380
 7461SOL     OW23281   3.887   1.396   3.372
 7461SOL    HW123282   3.793   1.362   3.383
 7461SOL    HW223283   3.930   1.404   3.462
 7462SOL     OW23284   1.851   1.329   3.852
 7462SOL    HW123285   1.869   1.233   3.832
 7462SOL    HW223286   1.798   1.369   3.777
 7463SOL     OW23287   3.888   3.962   2.867
 7463SOL    HW123288   3.844   3.874   2.883
 7463SOL    HW223289   3.941   3.958   2.783
 7464SOL     OW23290   4.319   5.764   0.526
 7464SOL    HW123291   4.414   5.736   0.517
 7464SOL    HW223292   4.259   5.692   0.491
 7465SOL     OW23293   3.774   1.461   2.927
 7465SOL    HW123294   3.792   1.382   2.985
 7465SOL    HW223295   3.776   1.433   2.831
 7466SOL     OW23296   6.501   6.974   0.578
 7466SOL    HW123297   6.508   6.898   0.643
 7466SOL    HW223298   6.592   7.013   0.562
 7467SOL     OW23299   4.630   2.658   0.869
 7467SOL    HW123300   4.712   2.611   0.900
 7467SOL    HW223301   4.655   2.730   0.804
 7468SOL     OW23302   5.283   4.607   4.579
 7468SOL    HW123303   5.233   4.586   4.662
 7468SOL    HW223304   5.336   4.527   4.550
 7469SOL     OW23305   5.754   1.868   1.440
 7469SOL    HW123306   5.729   1.771   1.442
 7469SOL    HW223307   5.824   1.883   1.371
 7470SOL     OW23308   0.394   3.386   3.234
 7470SOL    HW123309   0.399   3.422   3.141
 7470SOL    HW223310   0.403   3.461   3.299
 7471SOL     OW23311   6.605   4.324   5.810
 7471SOL    HW123312   6.580   4.300   5.903
 7471SOL    HW223313   6.561   4.261   5.746
 7472SOL     OW23314   4.180   5.501   3.278
 7472SOL    HW123315   4.124   5.423   3.306
 7472SOL    HW223316   4.261   5.467   3.229
 7473SOL     OW23317   1.720   2.530   6.504
 7473SOL    HW123318   1.774   2.568   6.429
 7473SOL    HW223319   1.694   2.435   6.482
 7474SOL     OW23320   2.777   1.173   2.140
 7474SOL    HW123321   2.814   1.121   2.063
 7474SOL    HW223322   2.839   1.248   2.162
 7475SOL     OW23323   5.230   0.766   5.996
 7475SOL    HW123324   5.197   0.853   5.957
 7475SOL    HW223325   5.255   0.704   5.922
 7476SOL     OW23326   1.951   6.621   4.525
 7476SOL    HW123327   1.943   6.605   4.623
 7476SOL    HW223328   1.986   6.714   4.509
 7477SOL     OW23329   4.533   4.508   4.464
 7477SOL    HW123330   4.453   4.450   4.453
 7477SOL    HW223331   4.602   4.483   4.396
 7478SOL     OW23332   0.316   4.423   1.337
 7478SOL    HW123333   0.338   4.447   1.242
 7478SOL    HW223334   0.225   4.384   1.341
 7479SOL     OW23335   3.700   0.492   5.073
 7479SOL    HW123336   3.658   0.579   5.096
 7479SOL    HW223337   3.630   0.421   5.066
 7480SOL     OW23338   5.567   5.355   0.093
 7480SOL    HW123339   5.526   5.365   0.183
 7480SOL    HW223340   5.643   5.291   0.097
 7481SOL     OW23341   6.080   6.527   0.316
 7481SOL    HW123342   6.109   6.471   0.238
 7481SOL    HW223343   6.101   6.623   0.298
 7482SOL     OW23344   4.648   0.225   4.874
 7482SOL    HW123345   4.646   0.286   4.795
 7482SOL    HW223346   4.709   0.148   4.855
 7483SOL     OW23347   3.601   6.933   6.863
 7483SOL    HW123348   3.569   6.935   6.958
 7483SOL    HW223349   3.545   6.997   6.809
 7484SOL     OW23350   3.502   6.923   0.933
 7484SOL    HW123351   3.586   6.912   0.880
 7484SOL    HW223352   3.522   6.974   1.017
 7485SOL     OW23353   0.919   6.876   5.178
 7485SOL    HW123354   0.910   6.810   5.103
 7485SOL    HW223355   0.870   6.960   5.154
 7486SOL     OW23356   1.288   2.001   5.126
 7486SOL    HW123357   1.220   1.975   5.058
 7486SOL    HW223358   1.243   2.041   5.205
 7487SOL     OW23359   3.206   5.206   2.871
 7487SOL    HW123360   3.193   5.111   2.901
 7487SOL    HW223361   3.293   5.240   2.908
 7488SOL     OW23362   4.464   1.425   5.014
 7488SOL    HW123363   4.518   1.509   5.007
 7488SOL    HW223364   4.388   1.429   4.949
 7489SOL     OW23365   0.505   3.217   3.491
 7489SOL    HW123366   0.441   3.170   3.431
 7489SOL    HW223367   0.455   3.281   3.550
 7490SOL     OW23368   5.807   6.737   2.742
 7490SOL    HW123369   5.715   6.754   2.779
 7490SOL    HW223370   5.826   6.803   2.670
 7491SOL     OW23371   0.933   6.856   0.848
 7491SOL    HW123372   0.968   6.764   0.869
 7491SOL    HW223373   0.859   6.849   0.781
 7492SOL     OW23374   2.111   1.652   2.671
 7492SOL    HW123375   2.203   1.616   2.688
 7492SOL    HW223376   2.095   1.657   2.573
 7493SOL     OW23377   5.561   4.475   6.923
 7493SOL    HW123378   5.571   4.561   6.873
 7493SOL    HW223379   5.651   4.443   6.953
 7494SOL     OW23380   4.740   1.982   1.031
 7494SOL    HW123381   4.700   1.932   1.108
 7494SOL    HW223382   4.835   1.954   1.019
 7495SOL     OW23383   1.396   1.584   3.424
 7495SOL    HW123384   1.412   1.594   3.523
 7495SOL    HW223385   1.477   1.546   3.381
 7496SOL     OW23386   0.930   4.982   6.231
 7496SOL    HW123387   0.936   5.072   6.188
 7496SOL    HW223388   0.850   4.980   6.292
 7497SOL     OW23389   1.245   5.096   2.833
 7497SOL    HW123390   1.299   5.150   2.769
 7497SOL    HW223391   1.288   5.008   2.849
 7498SOL     OW23392   5.514   1.928   4.360
 7498SOL    HW123393   5.478   1.927   4.266
 7498SOL    HW223394   5.612   1.947   4.358
 7499SOL     OW23395   3.869   5.093   3.779
 7499SOL    HW123396   3.910   5.043   3.703
 7499SOL    HW223397   3.816   5.030   3.836
 7500SOL     OW23398   4.998   3.933   1.492
 7500SOL    HW123399   4.967   4.021   1.456
 7500SOL    HW223400   4.964   3.921   1.585
 7501SOL     OW23401   0.922   4.104   3.615
 7501SOL    HW123402   0.995   4.161   3.576
 7501SOL    HW223403   0.889   4.145   3.700
 7502SOL     OW23404   1.537   1.831   3.810
 7502SOL    HW123405   1.549   1.928   3.791
 7502SOL    HW223406   1.600   1.803   3.883
 7503SOL     OW23407   2.557   1.665   0.103
 7503SOL    HW123408   2.585   1.757   0.132
 7503SOL    HW223409   2.519   1.670   0.010
 7504SOL     OW23410   4.980   5.695   5.142
 7504SOL    HW123411   4.952   5.703   5.238
 7504SOL    HW223412   4.943   5.611   5.103
 7505SOL     OW23413   1.776   1.957   3.344
 7505SOL    HW123414   1.819   2.046   3.361
 7505SOL    HW223415   1.681   1.959   3.376
 7506SOL     OW23416   3.533   0.915   3.191
 7506SOL    HW123417   3.585   0.833   3.217
 7506SOL    HW223418   3.479   0.895   3.109
 7507SOL     OW23419   1.544   0.212   5.292
 7507SOL    HW123420   1.632   0.247   5.324
 7507SOL    HW223421   1.505   0.275   5.225
 7508SOL     OW23422   5.362   6.119   3.407
 7508SOL    HW123423   5.368   6.081   3.315
 7508SOL    HW223424   5.276   6.169   3.417
 7509SOL     OW23425   3.497   4.276   6.029
 7509SOL    HW123426   3.595   4.287   6.045
 7509SOL    HW223427   3.446   4.334   6.093
 7510SOL     OW23428   3.927   3.134   4.952
 7510SOL    HW123429   3.861   3.200   4.916
 7510SOL    HW223430   3.993   3.111   4.881
 7511SOL     OW23431   1.132   1.458   2.463
 7511SOL    HW123432   1.125   1.384   2.530
 7511SOL    HW223433   1.165   1.540   2.508
 7512SOL     OW23434   2.265   2.702   2.518
 7512SOL    HW123435   2.265   2.801   2.507
 7512SOL    HW223436   2.299   2.678   2.609
 7513SOL     OW23437   2.212   2.857   6.591
 7513SOL    HW123438   2.152   2.934   6.570
 7513SOL    HW223439   2.212   2.842   6.690
 7514SOL     OW23440   3.148   5.139   3.260
 7514SOL    HW123441   3.198   5.056   3.235
 7514SOL    HW223442   3.115   5.130   3.354
 7515SOL     OW23443   0.391   4.946   3.364
 7515SOL    HW123444   0.408   5.038   3.329
 7515SOL    HW223445   0.301   4.943   3.408
 7516SOL     OW23446   1.959   3.185   1.262
 7516SOL    HW123447   1.859   3.180   1.257
 7516SOL    HW223448   1.998   3.105   1.217
 7517SOL     OW23449   1.321   5.134   2.296
 7517SOL    HW123450   1.405   5.101   2.254
 7517SOL    HW223451   1.339   5.219   2.345
 7518SOL     OW23452   4.865   3.955   2.606
 7518SOL    HW123453   4.827   3.983   2.518
 7518SOL    HW223454   4.856   4.030   2.672
 7519SOL     OW23455   1.880   6.945   5.020
 7519SOL    HW123456   1.826   6.964   4.938
 7519SOL    HW223457   1.852   6.857   5.059
 7520SOL     OW23458   1.942   6.819   4.305
 7520SOL    HW123459   1.890   6.866   4.233
 7520SOL    HW223460   2.029   6.787   4.267
 7521SOL     OW23461   4.504   2.990   5.838
 7521SOL    HW123462   4.424   2.932   5.851
 7521SOL    HW223463   4.500   3.066   5.903
 7522SOL     OW23464   1.975   6.618   2.597
 7522SOL    HW123465   1.909   6.657   2.532
 7522SOL    HW223466   2.016   6.691   2.651
 7523SOL     OW23467   6.904   6.564   6.918
 7523SOL    HW123468   6.865   6.655   6.932
 7523SOL    HW223469   6.886   6.534   6.824
 7524SOL     OW23470   6.410   1.324   5.050
 7524SOL    HW123471   6.444   1.326   4.956
 7524SOL    HW223472   6.410   1.417   5.087
 7525SOL     OW23473   0.812   0.449   0.854
 7525SOL    HW123474   0.800   0.442   0.755
 7525SOL    HW223475   0.876   0.523   0.875
 7526SOL     OW23476   3.944   2.993   5.626
 7526SOL    HW123477   3.948   2.905   5.674
 7526SOL    HW223478   4.008   3.057   5.669
 7527SOL     OW23479   2.911   6.302   1.900
 7527SOL    HW123480   2.905   6.217   1.952
 7527SOL    HW223481   2.998   6.304   1.851
 7528SOL     OW23482   6.251   3.235   0.200
 7528SOL    HW123483   6.192   3.291   0.142
 7528SOL    HW223484   6.286   3.158   0.148
 7529SOL     OW23485   1.706   6.862   4.111
 7529SOL    HW123486   1.659   6.775   4.098
 7529SOL    HW223487   1.656   6.917   4.177
 7530SOL     OW23488   0.059   3.231   2.756
 7530SOL    HW123489   0.114   3.308   2.725
 7530SOL    HW223490   7.006   3.265   2.808
 7531SOL     OW23491   1.976   1.756   3.985
 7531SOL    HW123492   2.034   1.817   3.932
 7531SOL    HW223493   2.032   1.683   4.025
 7532SOL     OW23494   4.658   4.505   2.084
 7532SOL    HW123495   4.708   4.550   2.009
 7532SOL    HW223496   4.605   4.428   2.047
 7533SOL     OW23497   3.324   0.694   5.053
 7533SOL    HW123498   3.419   0.716   5.075
 7533SOL    HW223499   3.318   0.599   5.023
 7534SOL     OW23500   3.725   6.693   4.106
 7534SOL    HW123501   3.700   6.635   4.028
 7534SOL    HW223502   3.814   6.665   4.141
 7535SOL     OW23503   2.824   5.272   6.939
 7535SOL    HW123504   2.816   5.288   0.012
 7535SOL    HW223505   2.733   5.250   6.902
 7536SOL     OW23506   4.607   5.324   6.330
 7536SOL    HW123507   4.677   5.274   6.382
 7536SOL    HW223508   4.516   5.297   6.363
 7537SOL     OW23509   2.444   4.639   5.352
 7537SOL    HW123510   2.415   4.589   5.270
 7537SOL    HW223511   2.543   4.653   5.348
 7538SOL     OW23512   3.658   4.013   5.289
 7538SOL    HW123513   3.675   3.923   5.330
 7538SOL    HW223514   3.565   4.042   5.308
 7539SOL     OW23515   0.742   2.378   4.776
 7539SOL    HW123516   0.662   2.334   4.736
 7539SOL    HW223517   0.713   2.448   4.841
 7540SOL     OW23518   2.716   0.757   0.311
 7540SOL    HW123519   2.678   0.803   0.231
 7540SOL    HW223520   2.738   0.824   0.382
 7541SOL     OW23521   0.263   2.509   5.764
 7541SOL    HW123522   0.298   2.525   5.672
 7541SOL    HW223523   0.322   2.554   5.831
 7542SOL     OW23524   1.407   0.269   4.776
 7542SOL    HW123525   1.390   0.366   4.756
 7542SOL    HW223526   1.485   0.262   4.839
 7543SOL     OW23527   2.483   2.420   1.197
 7543SOL    HW123528   2.454   2.487   1.129
 7543SOL    HW223529   2.451   2.329   1.170
 7544SOL     OW23530   1.169   2.116   2.412
 7544SOL    HW123531   1.201   2.164   2.330
 7544SOL    HW223532   1.216   2.152   2.492
 7545SOL     OW23533   4.679   0.332   3.569
 7545SOL    HW123534   4.744   0.314   3.643
 7545SOL    HW223535   4.728   0.359   3.486
 7546SOL     OW23536   5.466   0.139   5.629
 7546SOL    HW123537   5.431   0.232   5.622
 7546SOL    HW223538   5.425   0.083   5.557
 7547SOL     OW23539   2.447   6.881   0.319
 7547SOL    HW123540   2.380   6.944   0.283
 7547SOL    HW223541   2.487   6.828   0.244
 7548SOL     OW23542   2.346   3.776   1.054
 7548SOL    HW123543   2.353   3.748   1.150
 7548SOL    HW223544   2.387   3.866   1.042
 7549SOL     OW23545   5.955   0.442   2.504
 7549SOL    HW123546   5.969   0.509   2.576
 7549SOL    HW223547   5.964   0.350   2.542
 7550SOL     OW23548   0.882   5.328   1.061
 7550SOL    HW123549   0.896   5.367   1.152
 7550SOL    HW223550   0.785   5.320   1.042
 7551SOL     OW23551   5.190   3.848   6.140
 7551SOL    HW123552   5.106   3.817   6.095
 7551SOL    HW223553   5.205   3.944   6.118
 7552SOL     OW23554   3.590   6.044   3.910
 7552SOL    HW123555   3.566   5.977   3.980
 7552SOL    HW223556   3.629   5.997   3.831
 7553SOL     OW23557   4.380   3.958   6.209
 7553SOL    HW123558   4.402   3.943   6.113
 7553SOL    HW223559   4.289   3.999   6.216
 7554SOL     OW23560   0.225   1.675   1.052
 7554SOL    HW123561   0.312   1.702   1.093
 7554SOL    HW223562   0.154   1.740   1.080
 7555SOL     OW23563   1.774   6.639   5.982
 7555SOL    HW123564   1.720   6.683   6.053
 7555SOL    HW223565   1.797   6.706   5.911
 7556SOL     OW23566   6.789   3.672   2.840
 7556SOL    HW123567   6.763   3.753   2.788
 7556SOL    HW223568   6.725   3.660   2.916
 7557SOL     OW23569   4.273   3.964   0.610
 7557SOL    HW123570   4.215   3.901   0.662
 7557SOL    HW223571   4.225   3.990   0.526
 7558SOL     OW23572   1.694   3.385   3.588
 7558SOL    HW123573   1.701   3.289   3.562
 7558SOL    HW223574   1.615   3.398   3.648
 7559SOL     OW23575   0.929   4.555   0.259
 7559SOL    HW123576   0.830   4.563   0.251
 7559SOL    HW223577   0.952   4.481   0.323
 7560SOL     OW23578   4.778   0.170   5.464
 7560SOL    HW123579   4.830   0.100   5.513
 7560SOL    HW223580   4.779   0.256   5.516
 7561SOL     OW23581   0.917   3.348   6.760
 7561SOL    HW123582   1.007   3.314   6.785
 7561SOL    HW223583   0.883   3.409   6.832
 7562SOL     OW23584   4.463   6.212   5.211
 7562SOL    HW123585   4.481   6.292   5.153
 7562SOL    HW223586   4.461   6.130   5.154
 7563SOL     OW23587   2.073   1.399   3.395
 7563SOL    HW123588   2.040   1.466   3.461
 7563SOL    HW223589   2.099   1.315   3.444
 7564SOL     OW23590   6.129   5.511   4.090
 7564SOL    HW123591   6.106   5.463   4.005
 7564SOL    HW223592   6.066   5.588   4.102
 7565SOL     OW23593   5.198   5.012   6.660
 7565SOL    HW123594   5.133   5.065   6.714
 7565SOL    HW223595   5.236   5.070   6.587
 7566SOL     OW23596   1.935   5.361   4.294
 7566SOL    HW123597   1.836   5.362   4.282
 7566SOL    HW223598   1.969   5.267   4.286
 7567SOL     OW23599   2.736   3.611   0.202
 7567SOL    HW123600   2.831   3.581   0.189
 7567SOL    HW223601   2.677   3.531   0.213
 7568SOL     OW23602   4.183   4.722   3.705
 7568SOL    HW123603   4.101   4.752   3.753
 7568SOL    HW223604   4.240   4.667   3.766
 7569SOL     OW23605   3.867   0.117   2.533
 7569SOL    HW123606   3.893   0.108   2.437
 7569SOL    HW223607   3.811   0.199   2.545
 7570SOL     OW23608   5.856   4.765   5.293
 7570SOL    HW123609   5.793   4.700   5.336
 7570SOL    HW223610   5.835   4.770   5.195
 7571SOL     OW23611   6.679   3.932   0.136
 7571SOL    HW123612   6.767   3.884   0.145
 7571SOL    HW223613   6.659   3.979   0.222
 7572SOL     OW23614   6.268   1.491   3.446
 7572SOL    HW123615   6.295   1.501   3.350
 7572SOL    HW223616   6.183   1.542   3.461
 7573SOL     OW23617   3.557   5.161   3.759
 7573SOL    HW123618   3.598   5.240   3.714
 7573SOL    HW223619   3.522   5.097   3.690
 7574SOL     OW23620   4.015   5.952   1.439
 7574SOL    HW123621   4.097   6.008   1.427
 7574SOL    HW223622   4.001   5.935   1.537
 7575SOL     OW23623   4.904   3.043   4.496
 7575SOL    HW123624   4.860   2.985   4.428
 7575SOL    HW223625   4.853   3.039   4.582
 7576SOL     OW23626   0.267   4.092   1.605
 7576SOL    HW123627   0.242   4.074   1.700
 7576SOL    HW223628   0.367   4.098   1.598
 7577SOL     OW23629   3.944   1.465   4.431
 7577SOL    HW123630   3.883   1.463   4.351
 7577SOL    HW223631   3.932   1.381   4.483
 7578SOL     OW23632   2.300   5.466   5.170
 7578SOL    HW123633   2.339   5.558   5.177
 7578SOL    HW223634   2.369   5.398   5.195
 7579SOL     OW23635   4.634   2.062   4.342
 7579SOL    HW123636   4.638   2.015   4.254
 7579SOL    HW223637   4.596   2.154   4.329
 7580SOL     OW23638   2.121   3.262   2.091
 7580SOL    HW123639   2.169   3.341   2.053
 7580SOL    HW223640   2.029   3.257   2.051
 7581SOL     OW23641   5.881   0.990   0.759
 7581SOL    HW123642   5.873   1.067   0.823
 7581SOL    HW223643   5.789   0.959   0.733
 7582SOL     OW23644   4.053   2.808   1.423
 7582SOL    HW123645   4.075   2.739   1.355
 7582SOL    HW223646   3.953   2.815   1.432
 7583SOL     OW23647   6.916   4.164   2.911
 7583SOL    HW123648   6.900   4.181   2.814
 7583SOL    HW223649   6.965   4.077   2.922
 7584SOL     OW23650   1.978   1.959   1.947
 7584SOL    HW123651   2.017   2.046   1.976
 7584SOL    HW223652   1.989   1.948   1.848
 7585SOL     OW23653   2.666   4.260   0.610
 7585SOL    HW123654   2.638   4.178   0.659
 7585SOL    HW223655   2.728   4.235   0.536
 7586SOL     OW23656   1.928   2.430   3.635
 7586SOL    HW123657   1.930   2.509   3.697
 7586SOL    HW223658   1.834   2.404   3.617
 7587SOL     OW23659   2.416   1.359   5.565
 7587SOL    HW123660   2.322   1.325   5.558
 7587SOL    HW223661   2.443   1.398   5.477
 7588SOL     OW23662   0.551   4.842   2.011
 7588SOL    HW123663   0.462   4.886   2.005
 7588SOL    HW223664   0.540   4.744   2.021
 7589SOL     OW23665   4.970   5.483   6.084
 7589SOL    HW123666   4.900   5.414   6.067
 7589SOL    HW223667   5.048   5.467   6.023
 7590SOL     OW23668   1.846   0.758   5.314
 7590SOL    HW123669   1.904   0.680   5.335
 7590SOL    HW223670   1.765   0.727   5.264
 7591SOL     OW23671   6.591   5.899   6.612
 7591SOL    HW123672   6.570   5.995   6.593
 7591SOL    HW223673   6.567   5.879   6.707
 7592SOL     OW23674   4.384   4.470   5.870
 7592SOL    HW123675   4.304   4.433   5.917
 7592SOL    HW223676   4.363   4.561   5.835
 7593SOL     OW23677   6.374   4.622   0.074
 7593SOL    HW123678   6.386   4.655   0.168
 7593SOL    HW223679   6.445   4.554   0.054
 7594SOL     OW23680   0.817   6.834   3.956
 7594SOL    HW123681   0.838   6.776   4.035
 7594SOL    HW223682   0.799   6.776   3.876
 7595SOL     OW23683   6.912   3.451   6.925
 7595SOL    HW123684   6.981   3.516   6.957
 7595SOL    HW223685   6.843   3.499   6.870
 7596SOL     OW23686   4.985   5.542   2.368
 7596SOL    HW123687   4.964   5.550   2.466
 7596SOL    HW223688   4.924   5.474   2.327
 7597SOL     OW23689   2.317   4.765   1.969
 7597SOL    HW123690   2.296   4.688   2.030
 7597SOL    HW223691   2.413   4.791   1.979
 7598SOL     OW23692   6.143   0.752   2.815
 7598SOL    HW123693   6.091   0.837   2.804
 7598SOL    HW223694   6.241   0.772   2.809
 7599SOL     OW23695   5.417   3.478   2.246
 7599SOL    HW123696   5.451   3.477   2.340
 7599SOL    HW223697   5.491   3.503   2.184
 7600SOL     OW23698   2.421   2.593   2.704
 7600SOL    HW123699   2.461   2.599   2.796
 7600SOL    HW223700   2.472   2.526   2.650
 7601SOL     OW23701   1.574   0.552   4.941
 7601SOL    HW123702   1.569   0.648   4.913
 7601SOL    HW223703   1.635   0.503   4.879
 7602SOL     OW23704   2.001   3.072   5.386
 7602SOL    HW123705   1.970   3.011   5.313
 7602SOL    HW223706   2.088   3.113   5.360
 7603SOL     OW23707   6.722   1.738   2.193
 7603SOL    HW123708   6.750   1.816   2.137
 7603SOL    HW223709   6.800   1.707   2.248
 7604SOL     OW23710   5.752   5.631   6.582
 7604SOL    HW123711   5.733   5.536   6.609
 7604SOL    HW223712   5.713   5.649   6.492
 7605SOL     OW23713   5.841   3.147   6.044
 7605SOL    HW123714   5.875   3.129   5.951
 7605SOL    HW223715   5.862   3.069   6.103
 7606SOL     OW23716   5.491   1.266   3.759
 7606SOL    HW123717   5.504   1.226   3.668
 7606SOL    HW223718   5.543   1.351   3.766
 7607SOL     OW23719   5.091   6.496   5.592
 7607SOL    HW123720   5.054   6.421   5.646
 7607SOL    HW223721   5.015   6.549   5.552
 7608SOL     OW23722   3.779   3.726   4.948
 7608SOL    HW123723   3.727   3.805   4.916
 7608SOL    HW223724   3.854   3.758   5.007
 7609SOL     OW23725   1.295   2.679   3.185
 7609SOL    HW123726   1.243   2.675   3.270
 7609SOL    HW223727   1.385   2.718   3.203
 7610SOL     OW23728   5.439   0.560   2.238
 7610SOL    HW123729   5.386   0.496   2.293
 7610SOL    HW223730   5.381   0.637   2.210
 7611SOL     OW23731   1.640   1.785   1.381
 7611SOL    HW123732   1.586   1.869   1.384
 7611SOL    HW223733   1.615   1.732   1.300
 7612SOL     OW23734   4.518   1.681   2.675
 7612SOL    HW123735   4.463   1.665   2.593
 7612SOL    HW223736   4.465   1.657   2.756
 7613SOL     OW23737   6.398   0.746   2.150
 7613SOL    HW123738   6.391   0.809   2.227
 7613SOL    HW223739   6.387   0.652   2.182
 7614SOL     OW23740   4.741   0.769   0.653
 7614SOL    HW123741   4.703   0.860   0.669
 7614SOL    HW223742   4.744   0.751   0.554
 7615SOL     OW23743   3.489   5.316   5.348
 7615SOL    HW123744   3.490   5.397   5.290
 7615SOL    HW223745   3.449   5.239   5.299
 7616SOL     OW23746   0.170   5.808   3.195
 7616SOL    HW123747   0.215   5.729   3.236
 7616SOL    HW223748   0.135   5.868   3.267
 7617SOL     OW23749   3.889   5.649   3.832
 7617SOL    HW123750   3.866   5.557   3.863
 7617SOL    HW223751   3.940   5.644   3.746
 7618SOL     OW23752   3.450   1.876   6.845
 7618SOL    HW123753   3.467   1.974   6.855
 7618SOL    HW223754   3.360   1.861   6.805
 7619SOL     OW23755   5.627   2.892   5.918
 7619SOL    HW123756   5.584   2.832   5.851
 7619SOL    HW223757   5.649   2.980   5.876
 7620SOL     OW23758   3.461   5.580   1.601
 7620SOL    HW123759   3.482   5.673   1.572
 7620SOL    HW223760   3.487   5.568   1.697
 7621SOL     OW23761   2.594   2.623   0.860
 7621SOL    HW123762   2.612   2.713   0.822
 7621SOL    HW223763   2.524   2.630   0.932
 7622SOL     OW23764   4.884   2.250   0.917
 7622SOL    HW123765   4.845   2.188   0.849
 7622SOL    HW223766   4.984   2.243   0.915
 7623SOL     OW23767   6.716   6.228   5.097
 7623SOL    HW123768   6.639   6.292   5.104
 7623SOL    HW223769   6.683   6.135   5.117
 7624SOL     OW23770   6.847   0.745   4.665
 7624SOL    HW123771   6.938   0.707   4.650
 7624SOL    HW223772   6.815   0.719   4.757
 7625SOL     OW23773   2.782   5.068   0.894
 7625SOL    HW123774   2.878   5.093   0.901
 7625SOL    HW223775   2.769   4.975   0.929
 7626SOL     OW23776   2.800   4.098   5.423
 7626SOL    HW123777   2.840   4.101   5.515
 7626SOL    HW223778   2.818   4.184   5.376
 7627SOL     OW23779   7.004   1.044   0.381
 7627SOL    HW123780   0.029   1.021   0.298
 7627SOL    HW223781   6.974   0.960   0.426
 7628SOL     OW23782   4.593   1.625   0.778
 7628SOL    HW123783   4.570   1.540   0.825
 7628SOL    HW223784   4.528   1.696   0.805
 7629SOL     OW23785   6.120   5.723   3.153
 7629SOL    HW123786   6.097   5.627   3.141
 7629SOL    HW223787   6.206   5.730   3.204
 7630SOL     OW23788   5.899   1.600   1.895
 7630SOL    HW123789   5.977   1.554   1.853
 7630SOL    HW223790   5.857   1.661   1.827
 7631SOL     OW23791   1.227   0.528   3.770
 7631SOL    HW123792   1.284   0.553   3.848
 7631SOL    HW223793   1.205   0.430   3.775
 7632SOL     OW23794   4.282   1.029   4.765
 7632SOL    HW123795   4.342   0.961   4.808
 7632SOL    HW223796   4.252   1.095   4.835
 7633SOL     OW23797   6.187   3.601   6.321
 7633SOL    HW123798   6.095   3.604   6.281
 7633SOL    HW223799   6.185   3.543   6.403
 7634SOL     OW23800   1.243   2.316   2.178
 7634SOL    HW123801   1.178   2.392   2.178
 7634SOL    HW223802   1.328   2.345   2.221
 7635SOL     OW23803   2.490   4.926   5.908
 7635SOL    HW123804   2.529   4.834   5.898
 7635SOL    HW223805   2.562   4.995   5.900
 7636SOL     OW23806   0.959   0.923   3.763
 7636SOL    HW123807   0.898   0.987   3.716
 7636SOL    HW223808   0.997   0.859   3.696
 7637SOL     OW23809   2.689   6.044   4.050
 7637SOL    HW123810   2.757   5.988   4.005
 7637SOL    HW223811   2.694   6.138   4.015
 7638SOL     OW23812   4.568   4.430   1.767
 7638SOL    HW123813   4.505   4.402   1.695
 7638SOL    HW223814   4.540   4.389   1.854
 7639SOL     OW23815   0.702   2.161   4.212
 7639SOL    HW123816   0.755   2.231   4.261
 7639SOL    HW223817   0.752   2.133   4.131
 7640SOL     OW23818   2.337   3.261   6.044
 7640SOL    HW123819   2.375   3.319   5.972
 7640SOL    HW223820   2.291   3.183   6.003
 7641SOL     OW23821   5.767   3.635   2.373
 7641SOL    HW123822   5.807   3.578   2.302
 7641SOL    HW223823   5.685   3.590   2.409
 7642SOL     OW23824   1.561   2.192   2.643
 7642SOL    HW123825   1.618   2.274   2.656
 7642SOL    HW223826   1.610   2.113   2.679
 7643SOL     OW23827   5.440   3.721   3.081
 7643SOL    HW123828   5.476   3.664   3.007
 7643SOL    HW223829   5.343   3.740   3.065
 7644SOL     OW23830   6.227   3.329   4.047
 7644SOL    HW123831   6.160   3.333   3.973
 7644SOL    HW223832   6.315   3.296   4.011
 7645SOL     OW23833   3.796   3.179   0.908
 7645SOL    HW123834   3.831   3.211   0.820
 7645SOL    HW223835   3.712   3.127   0.894
 7646SOL     OW23836   1.056   6.934   2.152
 7646SOL    HW123837   1.071   6.845   2.196
 7646SOL    HW223838   1.101   6.935   2.063
 7647SOL     OW23839   2.131   4.848   0.201
 7647SOL    HW123840   2.222   4.872   0.236
 7647SOL    HW223841   2.061   4.893   0.256
 7648SOL     OW23842   2.635   0.479   3.616
 7648SOL    HW123843   2.609   0.398   3.564
 7648SOL    HW223844   2.554   0.532   3.638
 7649SOL     OW23845   3.320   1.959   1.374
 7649SOL    HW123846   3.237   1.917   1.412
 7649SOL    HW223847   3.375   1.888   1.330
 7650SOL     OW23848   6.498   4.888   0.917
 7650SOL    HW123849   6.594   4.882   0.889
 7650SOL    HW223850   6.440   4.848   0.845
 7651SOL     OW23851   5.730   1.662   5.972
 7651SOL    HW123852   5.789   1.583   5.957
 7651SOL    HW223853   5.692   1.693   5.885
 7652SOL     OW23854   0.722   3.560   2.644
 7652SOL    HW123855   0.776   3.625   2.698
 7652SOL    HW223856   0.661   3.611   2.584
 7653SOL     OW23857   4.680   2.265   2.014
 7653SOL    HW123858   4.720   2.296   2.100
 7653SOL    HW223859   4.674   2.342   1.951
 7654SOL     OW23860   5.334   3.725   5.153
 7654SOL    HW123861   5.323   3.669   5.235
 7654SOL    HW223862   5.377   3.670   5.081
 7655SOL     OW23863   4.720   4.952   6.822
 7655SOL    HW123864   4.768   5.033   6.855
 7655SOL    HW223865   4.743   4.936   6.726
 7656SOL     OW23866   0.570   0.434   5.159
 7656SOL    HW123867   0.589   0.515   5.103
 7656SOL    HW223868   0.524   0.365   5.103
 7657SOL     OW23869   4.013   1.862   3.542
 7657SOL    HW123870   3.957   1.809   3.606
 7657SOL    HW223871   4.075   1.922   3.594
 7658SOL     OW23872   4.266   0.736   5.622
 7658SOL    HW123873   4.353   0.727   5.573
 7658SOL    HW223874   4.205   0.796   5.571
 7659SOL     OW23875   5.175   6.184   6.218
 7659SOL    HW123876   5.269   6.149   6.219
 7659SOL    HW223877   5.121   6.133   6.151
 7660SOL     OW23878   5.538   5.283   3.899
 7660SOL    HW123879   5.477   5.258   3.974
 7660SOL    HW223880   5.587   5.202   3.867
 7661SOL     OW23881   6.014   3.297   3.876
 7661SOL    HW123882   5.986   3.241   3.799
 7661SOL    HW223883   5.943   3.297   3.946
 7662SOL     OW23884   6.317   5.416   3.458
 7662SOL    HW123885   6.311   5.425   3.557
 7662SOL    HW223886   6.286   5.324   3.431
 7663SOL     OW23887   0.831   5.911   0.368
 7663SOL    HW123888   0.788   5.986   0.419
 7663SOL    HW223889   0.930   5.920   0.372
 7664SOL     OW23890   3.787   5.350   4.700
 7664SOL    HW123891   3.836   5.362   4.786
 7664SOL    HW223892   3.830   5.276   4.647
 7665SOL     OW23893   1.859   5.557   3.684
 7665SOL    HW123894   1.907   5.622   3.625
 7665SOL    HW223895   1.853   5.594   3.777
 7666SOL     OW23896   1.982   0.515   2.445
 7666SOL    HW123897   1.916   0.451   2.484
 7666SOL    HW223898   1.945   0.553   2.360
 7667SOL     OW23899   5.995   0.095   5.599
 7667SOL    HW123900   5.945   0.168   5.553
 7667SOL    HW223901   5.939   0.012   5.602
 7668SOL     OW23902   3.241   3.607   2.045
 7668SOL    HW123903   3.163   3.620   2.107
 7668SOL    HW223904   3.246   3.511   2.018
 7669SOL     OW23905   4.502   6.534   5.070
 7669SOL    HW123906   4.505   6.503   4.975
 7669SOL    HW223907   4.407   6.534   5.102
 7670SOL     OW23908   1.791   5.805   1.021
 7670SOL    HW123909   1.766   5.857   1.103
 7670SOL    HW223910   1.715   5.806   0.956
 7671SOL     OW23911   4.617   2.588   4.784
 7671SOL    HW123912   4.711   2.559   4.764
 7671SOL    HW223913   4.557   2.557   4.710
 7672SOL     OW23914   6.278   6.915   1.709
 7672SOL    HW123915   6.304   7.009   1.733
 7672SOL    HW223916   6.179   6.904   1.718
 7673SOL     OW23917   1.416   3.348   0.391
 7673SOL    HW123918   1.464   3.289   0.456
 7673SOL    HW223919   1.346   3.295   0.342
 7674SOL     OW23920   6.286   1.015   5.335
 7674SOL    HW123921   6.210   0.961   5.372
 7674SOL    HW223922   6.261   1.112   5.338
 7675SOL     OW23923   4.987   0.575   3.164
 7675SOL    HW123924   4.922   0.650   3.155
 7675SOL    HW223925   5.066   0.605   3.217
 7676SOL     OW23926   1.821   6.782   0.994
 7676SOL    HW123927   1.920   6.787   1.002
 7676SOL    HW223928   1.784   6.731   1.071
 7677SOL     OW23929   1.954   2.946   2.670
 7677SOL    HW123930   1.924   3.040   2.684
 7677SOL    HW223931   2.040   2.945   2.620
 7678SOL     OW23932   5.104   6.753   5.988
 7678SOL    HW123933   5.019   6.803   6.009
 7678SOL    HW223934   5.137   6.780   5.898
 7679SOL     OW23935   1.397   5.055   4.323
 7679SOL    HW123936   1.401   5.014   4.414
 7679SOL    HW223937   1.365   4.986   4.257
 7680SOL     OW23938   4.797   0.394   0.528
 7680SOL    HW123939   4.779   0.305   0.569
 7680SOL    HW223940   4.711   0.436   0.500
 7681SOL     OW23941   4.035   2.380   5.743
 7681SOL    HW123942   4.013   2.308   5.678
 7681SOL    HW223943   4.125   2.419   5.722
 7682SOL     OW23944   2.804   0.517   0.422
 7682SOL    HW123945   2.726   0.473   0.467
 7682SOL    HW223946   2.772   0.597   0.371
 7683SOL     OW23947   6.638   3.400   3.625
 7683SOL    HW123948   6.734   3.371   3.618
 7683SOL    HW223949   6.628   3.462   3.703
 7684SOL     OW23950   3.853   1.627   5.669
 7684SOL    HW123951   3.762   1.632   5.711
 7684SOL    HW223952   3.920   1.671   5.729
 7685SOL     OW23953   4.324   3.826   1.456
 7685SOL    HW123954   4.264   3.884   1.402
 7685SOL    HW223955   4.394   3.786   1.397
 7686SOL     OW23956   2.102   0.897   2.324
 7686SOL    HW123957   2.005   0.918   2.340
 7686SOL    HW223958   2.111   0.808   2.280
 7687SOL     OW23959   4.673   4.144   5.554
 7687SOL    HW123960   4.661   4.225   5.611
 7687SOL    HW223961   4.718   4.072   5.607
 7688SOL     OW23962   6.654   0.884   2.944
 7688SOL    HW123963   6.641   0.786   2.952
 7688SOL    HW223964   6.687   0.920   3.031
 7689SOL     OW23965   3.444   6.963   4.971
 7689SOL    HW123966   3.491   6.931   5.054
 7689SOL    HW223967   3.397   6.886   4.927
 7690SOL     OW23968   0.938   5.486   3.008
 7690SOL    HW123969   0.958   5.388   3.009
 7690SOL    HW223970   0.865   5.505   3.074
 7691SOL     OW23971   6.752   3.589   5.576
 7691SOL    HW123972   6.809   3.666   5.548
 7691SOL    HW223973   6.708   3.549   5.496
 7692SOL     OW23974   1.350   6.094   1.086
 7692SOL    HW123975   1.382   6.000   1.100
 7692SOL    HW223976   1.254   6.101   1.114
 7693SOL     OW23977   5.057   0.948   0.579
 7693SOL    HW123978   5.032   0.956   0.675
 7693SOL    HW223979   5.154   0.970   0.567
 7694SOL     OW23980   5.869   4.701   3.169
 7694SOL    HW123981   5.894   4.607   3.192
 7694SOL    HW223982   5.773   4.704   3.141
 7695SOL     OW23983   4.519   0.560   6.751
 7695SOL    HW123984   4.586   0.635   6.746
 7695SOL    HW223985   4.440   0.584   6.695
 7696SOL     OW23986   1.185   3.842   5.593
 7696SOL    HW123987   1.196   3.918   5.657
 7696SOL    HW223988   1.104   3.789   5.617
 7697SOL     OW23989   4.758   1.337   2.450
 7697SOL    HW123990   4.666   1.335   2.489
 7697SOL    HW223991   4.778   1.248   2.408
 7698SOL     OW23992   0.269   2.116   6.061
 7698SOL    HW123993   0.316   2.125   6.149
 7698SOL    HW223994   0.202   2.189   6.050
 7699SOL     OW23995   3.073   3.287   0.893
 7699SOL    HW123996   3.071   3.192   0.862
 7699SOL    HW223997   3.045   3.291   0.989
 7700SOL     OW23998   5.552   0.128   4.834
 7700SOL    HW123999   5.613   0.100   4.908
 7700SOL    HW224000   5.580   0.219   4.801
 7701SOL     OW24001   6.624   2.225   5.539
 7701SOL    HW124002   6.676   2.149   5.576
 7701SOL    HW224003   6.680   2.275   5.472
 7702SOL     OW24004   1.438   6.512   6.770
 7702SOL    HW124005   1.355   6.558   6.802
 7702SOL    HW224006   1.413   6.430   6.720
 7703SOL     OW24007   0.909   1.959   6.341
 7703SOL    HW124008   0.936   2.055   6.350
 7703SOL    HW224009   0.960   1.904   6.407
 7704SOL     OW24010   3.103   3.364   1.213
 7704SOL    HW124011   3.115   3.269   1.240
 7704SOL    HW224012   3.034   3.407   1.272
 7705SOL     OW24013   3.996   3.649   4.435
 7705SOL    HW124014   3.896   3.647   4.427
 7705SOL    HW224015   4.036   3.619   4.348
 7706SOL     OW24016   6.435   0.873   5.525
 7706SOL    HW124017   6.395   0.940   5.462
 7706SOL    HW224018   6.405   0.781   5.499
 7707SOL     OW24019   6.766   5.630   6.237
 7707SOL    HW124020   6.812   5.652   6.323
 7707SOL    HW224021   6.828   5.648   6.161
 7708SOL     OW24022   5.155   1.481   5.024
 7708SOL    HW124023   5.062   1.479   5.058
 7708SOL    HW224024   5.201   1.395   5.045
 7709SOL     OW24025   3.746   2.462   1.355
 7709SOL    HW124026   3.692   2.456   1.439
 7709SOL    HW224027   3.689   2.498   1.281
 7710SOL     OW24028   3.392   2.257   6.563
 7710SOL    HW124029   3.368   2.298   6.651
 7710SOL    HW224030   3.348   2.308   6.489
 7711SOL     OW24031   4.446   5.974   4.968
 7711SOL    HW124032   4.499   5.894   4.993
 7711SOL    HW224033   4.361   5.977   5.020
 7712SOL     OW24034   6.372   4.233   6.251
 7712SOL    HW124035   6.398   4.256   6.345
 7712SOL    HW224036   6.324   4.146   6.249
 7713SOL     OW24037   0.116   5.445   6.711
 7713SOL    HW124038   0.031   5.498   6.703
 7713SOL    HW224039   0.163   5.471   6.796
 7714SOL     OW24040   5.407   4.142   4.655
 7714SOL    HW124041   5.311   4.119   4.673
 7714SOL    HW224042   5.466   4.097   4.722
 7715SOL     OW24043   3.963   2.329   1.767
 7715SOL    HW124044   3.883   2.299   1.818
 7715SOL    HW224045   4.044   2.281   1.799
 7716SOL     OW24046   4.232   2.318   4.322
 7716SOL    HW124047   4.134   2.318   4.340
 7716SOL    HW224048   4.272   2.233   4.357
 7717SOL     OW24049   2.871   0.195   6.681
 7717SOL    HW124050   2.872   0.293   6.660
 7717SOL    HW224051   2.879   0.143   6.596
 7718SOL     OW24052   2.491   6.310   3.441
 7718SOL    HW124053   2.577   6.349   3.474
 7718SOL    HW224054   2.493   6.211   3.452
 7719SOL     OW24055   5.696   2.495   5.046
 7719SOL    HW124056   5.642   2.420   5.084
 7719SOL    HW224057   5.748   2.540   5.119
 7720SOL     OW24058   4.869   6.479   1.358
 7720SOL    HW124059   4.820   6.485   1.445
 7720SOL    HW224060   4.805   6.490   1.282
 7721SOL     OW24061   0.653   5.063   2.992
 7721SOL    HW124062   0.586   5.003   3.036
 7721SOL    HW224063   0.740   5.056   3.041
 7722SOL     OW24064   0.723   5.797   3.974
 7722SOL    HW124065   0.641   5.793   4.032
 7722SOL    HW224066   0.755   5.892   3.969
 7723SOL     OW24067   6.690   1.932   6.989
 7723SOL    HW124068   6.781   1.970   6.998
 7723SOL    HW224069   6.650   1.917   0.054
 7724SOL     OW24070   2.587   6.471   6.552
 7724SOL    HW124071   2.501   6.423   6.537
 7724SOL    HW224072   2.653   6.442   6.482
 7725SOL     OW24073   5.425   3.907   3.999
 7725SOL    HW124074   5.414   3.830   3.937
 7725SOL    HW224075   5.391   3.882   4.090
 7726SOL     OW24076   5.212   5.375   3.416
 7726SOL    HW124077   5.248   5.460   3.455
 7726SOL    HW224078   5.250   5.297   3.466
 7727SOL     OW24079   6.023   3.771   1.845
 7727SOL    HW124080   6.094   3.718   1.799
 7727SOL    HW224081   5.934   3.730   1.825
 7728SOL     OW24082   1.846   2.700   2.755
 7728SOL    HW124083   1.865   2.797   2.740
 7728SOL    HW224084   1.926   2.646   2.729
 7729SOL     OW24085   5.469   1.529   6.128
 7729SOL    HW124086   5.378   1.569   6.124
 7729SOL    HW224087   5.535   1.597   6.160
 7730SOL     OW24088   4.509   6.957   2.407
 7730SOL    HW124089   4.578   0.004   2.401
 7730SOL    HW224090   4.459   6.967   2.493
 7731SOL     OW24091   6.022   1.634   3.520
 7731SOL    HW124092   5.934   1.673   3.492
 7731SOL    HW224093   6.009   1.582   3.605
 7732SOL     OW24094   4.592   5.052   0.784
 7732SOL    HW124095   4.558   5.070   0.692
 7732SOL    HW224096   4.667   4.987   0.780
 7733SOL     OW24097   3.299   5.314   1.132
 7733SOL    HW124098   3.367   5.296   1.061
 7733SOL    HW224099   3.343   5.313   1.222
 7734SOL     OW24100   1.415   3.046   2.238
 7734SOL    HW124101   1.494   3.036   2.177
 7734SOL    HW224102   1.339   3.086   2.187
 7735SOL     OW24103   5.239   4.504   0.417
 7735SOL    HW124104   5.168   4.475   0.353
 7735SOL    HW224105   5.288   4.582   0.378
 7736SOL     OW24106   5.890   4.478   6.875
 7736SOL    HW124107   5.955   4.428   6.933
 7736SOL    HW224108   5.930   4.565   6.847
 7737SOL     OW24109   4.952   2.735   6.900
 7737SOL    HW124110   5.042   2.697   6.879
 7737SOL    HW224111   4.961   2.807   6.969
 7738SOL     OW24112   2.005   5.384   6.833
 7738SOL    HW124113   1.944   5.305   6.843
 7738SOL    HW224114   1.967   5.448   6.766
 7739SOL     OW24115   5.228   4.149   2.613
 7739SOL    HW124116   5.263   4.075   2.671
 7739SOL    HW224117   5.243   4.126   2.517
 7740SOL     OW24118   6.756   5.909   3.718
 7740SOL    HW124119   6.812   5.979   3.763
 7740SOL    HW224120   6.811   5.862   3.649
 7741SOL     OW24121   3.050   5.235   3.594
 7741SOL    HW124122   3.130   5.291   3.618
 7741SOL    HW224123   3.000   5.212   3.677
 7742SOL     OW24124   6.773   0.462   4.507
 7742SOL    HW124125   6.847   0.501   4.562
 7742SOL    HW224126   6.722   0.536   4.464
 7743SOL     OW24127   4.883   3.181   2.308
 7743SOL    HW124128   4.876   3.091   2.265
 7743SOL    HW224129   4.895   3.170   2.407
 7744SOL     OW24130   0.474   6.586   4.694
 7744SOL    HW124131   0.398   6.649   4.681
 7744SOL    HW224132   0.450   6.496   4.658
 7745SOL     OW24133   5.274   2.827   5.639
 7745SOL    HW124134   5.308   2.829   5.545
 7745SOL    HW224135   5.174   2.820   5.638
 7746SOL     OW24136   1.948   0.642   6.380
 7746SOL    HW124137   1.869   0.657   6.439
 7746SOL    HW224138   2.022   0.702   6.408
 7747SOL     OW24139   4.447   5.157   0.580
 7747SOL    HW124140   4.425   5.171   0.484
 7747SOL    HW224141   4.410   5.232   0.635
 7748SOL     OW24142   2.122   4.012   6.828
 7748SOL    HW124143   2.064   4.014   6.747
 7748SOL    HW224144   2.073   3.970   6.904
 7749SOL     OW24145   6.095   3.095   6.384
 7749SOL    HW124146   6.065   3.062   6.295
 7749SOL    HW224147   6.026   3.157   6.422
 7750SOL     OW24148   4.503   5.303   3.348
 7750SOL    HW124149   4.485   5.327   3.253
 7750SOL    HW224150   4.526   5.385   3.400
 7751SOL     OW24151   0.682   2.396   1.234
 7751SOL    HW124152   0.674   2.495   1.220
 7751SOL    HW224153   0.640   2.372   1.321
 7752SOL     OW24154   3.339   1.189   2.962
 7752SOL    HW124155   3.426   1.218   2.921
 7752SOL    HW224156   3.288   1.134   2.896
 7753SOL     OW24157   4.098   0.872   5.437
 7753SOL    HW124158   4.071   0.955   5.389
 7753SOL    HW224159   4.027   0.802   5.424
 7754SOL     OW24160   4.500   5.690   1.180
 7754SOL    HW124161   4.515   5.736   1.267
 7754SOL    HW224162   4.407   5.710   1.147
 7755SOL     OW24163   0.451   4.439   6.424
 7755SOL    HW124164   0.444   4.478   6.332
 7755SOL    HW224165   0.380   4.369   6.437
 7756SOL     OW24166   2.184   3.793   2.419
 7756SOL    HW124167   2.283   3.799   2.409
 7756SOL    HW224168   2.154   3.700   2.399
 7757SOL     OW24169   0.701   4.517   6.971
 7757SOL    HW124170   0.757   4.471   0.014
 7757SOL    HW224171   0.756   4.533   6.889
 7758SOL     OW24172   0.645   0.896   5.612
 7758SOL    HW124173   0.649   0.871   5.709
 7758SOL    HW224174   0.678   0.820   5.556
 7759SOL     OW24175   3.657   0.829   2.605
 7759SOL    HW124176   3.721   0.879   2.664
 7759SOL    HW224177   3.567   0.873   2.608
 7760SOL     OW24178   4.227   2.813   0.317
 7760SOL    HW124179   4.201   2.819   0.413
 7760SOL    HW224180   4.175   2.880   0.264
 7761SOL     OW24181   5.525   5.504   3.278
 7761SOL    HW124182   5.494   5.570   3.347
 7761SOL    HW224183   5.446   5.459   3.236
 7762SOL     OW24184   4.643   1.842   1.359
 7762SOL    HW124185   4.568   1.823   1.296
 7762SOL    HW224186   4.709   1.766   1.357
 7763SOL     OW24187   1.879   0.765   3.432
 7763SOL    HW124188   1.852   0.759   3.528
 7763SOL    HW224189   1.827   0.699   3.378
 7764SOL     OW24190   3.946   4.816   5.246
 7764SOL    HW124191   3.900   4.888   5.195
 7764SOL    HW224192   3.880   4.770   5.306
 7765SOL     OW24193   6.463   4.213   4.979
 7765SOL    HW124194   6.481   4.130   4.925
 7765SOL    HW224195   6.509   4.291   4.935
 7766SOL     OW24196   6.948   2.019   6.157
 7766SOL    HW124197   6.950   2.092   6.088
 7766SOL    HW224198   6.856   1.980   6.161
 7767SOL     OW24199   4.524   0.366   4.135
 7767SOL    HW124200   4.468   0.336   4.058
 7767SOL    HW224201   4.486   0.450   4.173
 7768SOL     OW24202   3.295   5.600   3.413
 7768SOL    HW124203   3.281   5.610   3.511
 7768SOL    HW224204   3.392   5.586   3.395
 7769SOL     OW24205   4.205   2.513   6.362
 7769SOL    HW124206   4.124   2.455   6.351
 7769SOL    HW224207   4.180   2.608   6.339
 7770SOL     OW24208   0.847   3.415   3.672
 7770SOL    HW124209   0.791   3.498   3.662
 7770SOL    HW224210   0.822   3.349   3.601
 7771SOL     OW24211   1.064   3.978   5.003
 7771SOL    HW124212   1.098   4.070   5.024
 7771SOL    HW224213   1.099   3.914   5.071
 7772SOL     OW24214   4.849   5.396   1.889
 7772SOL    HW124215   4.933   5.433   1.928
 7772SOL    HW224216   4.794   5.353   1.961
 7773SOL     OW24217   2.589   6.519   6.832
 7773SOL    HW124218   2.594   6.489   6.737
 7773SOL    HW224219   2.493   6.519   6.861
 7774SOL     OW24220   5.167   1.187   2.952
 7774SOL    HW124221   5.208   1.211   3.040
 7774SOL    HW224222   5.200   1.097   2.923
 7775SOL     OW24223   3.367   2.014   0.946
 7775SOL    HW124224   3.308   1.974   1.017
 7775SOL    HW224225   3.311   2.042   0.868
 7776SOL     OW24226   2.602   1.313   3.926
 7776SOL    HW124227   2.674   1.310   3.995
 7776SOL    HW224228   2.526   1.253   3.953
 7777SOL     OW24229   5.058   5.426   3.200
 7777SOL    HW124230   5.101   5.396   3.286
 7777SOL    HW224231   4.976   5.479   3.221
 7778SOL     OW24232   1.369   3.267   2.021
 7778SOL    HW124233   1.275   3.300   2.033
 7778SOL    HW224234   1.371   3.197   1.950
 7779SOL     OW24235   2.683   0.411   3.036
 7779SOL    HW124236   2.748   0.455   3.098
 7779SOL    HW224237   2.686   0.457   2.947
 7780SOL     OW24238   6.392   5.534   4.189
 7780SOL    HW124239   6.425   5.569   4.101
 7780SOL    HW224240   6.299   5.501   4.178
 7781SOL     OW24241   3.084   3.001   0.906
 7781SOL    HW124242   3.127   2.991   0.996
 7781SOL    HW224243   3.033   2.917   0.884
 7782SOL     OW24244   5.560   4.551   4.231
 7782SOL    HW124245   5.462   4.533   4.230
 7782SOL    HW224246   5.607   4.474   4.276
 7783SOL     OW24247   0.576   6.367   3.960
 7783SOL    HW124248   0.500   6.321   4.006
 7783SOL    HW224249   0.575   6.345   3.862
 7784SOL     OW24250   1.209   2.823   2.618
 7784SOL    HW124251   1.299   2.838   2.578
 7784SOL    HW224252   1.147   2.896   2.590
 7785SOL     OW24253   5.840   6.935   2.522
 7785SOL    HW124254   5.778   6.986   2.582
 7785SOL    HW224255   5.885   6.999   2.460
 7786SOL     OW24256   5.426   0.644   0.098
 7786SOL    HW124257   5.432   0.595   0.185
 7786SOL    HW224258   5.375   0.589   0.032
 7787SOL     OW24259   1.060   2.434   1.061
 7787SOL    HW124260   1.096   2.470   1.147
 7787SOL    HW224261   1.115   2.470   0.985
 7788SOL     OW24262   1.204   4.295   2.154
 7788SOL    HW124263   1.212   4.278   2.252
 7788SOL    HW224264   1.179   4.211   2.107
 7789SOL     OW24265   3.203   0.320   6.183
 7789SOL    HW124266   3.288   0.269   6.195
 7789SOL    HW224267   3.176   0.362   6.270
 7790SOL     OW24268   4.147   5.297   4.635
 7790SOL    HW124269   4.068   5.273   4.579
 7790SOL    HW224270   4.186   5.214   4.675
 7791SOL     OW24271   2.570   6.109   1.554
 7791SOL    HW124272   2.537   6.203   1.545
 7791SOL    HW224273   2.663   6.109   1.590
 7792SOL     OW24274   0.896   1.169   2.144
 7792SOL    HW124275   0.965   1.183   2.073
 7792SOL    HW224276   0.889   1.251   2.200
 7793SOL     OW24277   4.932   1.701   0.389
 7793SOL    HW124278   4.903   1.735   0.478
 7793SOL    HW224279   4.966   1.607   0.398
 7794SOL     OW24280   1.136   1.261   2.689
 7794SOL    HW124281   1.064   1.246   2.757
 7794SOL    HW224282   1.178   1.174   2.665
 7795SOL     OW24283   4.049   3.549   1.276
 7795SOL    HW124284   4.138   3.540   1.321
 7795SOL    HW224285   4.050   3.499   1.189
 7796SOL     OW24286   4.302   1.419   1.002
 7796SOL    HW124287   4.384   1.436   0.948
 7796SOL    HW224288   4.289   1.320   1.015
 7797SOL     OW24289   1.463   6.210   2.965
 7797SOL    HW124290   1.486   6.180   2.873
 7797SOL    HW224291   1.371   6.249   2.965
 7798SOL     OW24292   1.711   3.576   1.294
 7798SOL    HW124293   1.654   3.653   1.323
 7798SOL    HW224294   1.765   3.603   1.214
 7799SOL     OW24295   2.025   6.052   4.015
 7799SOL    HW124296   2.105   6.030   3.959
 7799SOL    HW224297   2.050   6.049   4.112
 7800SOL     OW24298   0.546   0.765   2.262
 7800SOL    HW124299   0.604   0.695   2.304
 7800SOL    HW224300   0.563   0.768   2.164
 7801SOL     OW24301   1.906   2.035   0.880
 7801SOL    HW124302   1.931   1.988   0.796
 7801SOL    HW224303   1.813   2.009   0.906
 7802SOL     OW24304   6.343   5.257   3.728
 7802SOL    HW124305   6.368   5.236   3.823
 7802SOL    HW224306   6.415   5.226   3.666
 7803SOL     OW24307   3.205   1.996   6.013
 7803SOL    HW124308   3.241   2.073   5.961
 7803SOL    HW224309   3.189   2.024   6.108
 7804SOL     OW24310   2.825   1.063   5.568
 7804SOL    HW124311   2.740   1.117   5.566
 7804SOL    HW224312   2.802   0.965   5.569
 7805SOL     OW24313   6.444   2.037   6.757
 7805SOL    HW124314   6.414   2.109   6.820
 7805SOL    HW224315   6.442   1.949   6.803
 7806SOL     OW24316   6.480   2.136   5.232
 7806SOL    HW124317   6.528   2.213   5.274
 7806SOL    HW224318   6.384   2.160   5.219
 7807SOL     OW24319   1.856   5.795   5.388
 7807SOL    HW124320   1.895   5.757   5.472
 7807SOL    HW224321   1.929   5.827   5.328
 7808SOL     OW24322   7.010   2.932   4.623
 7808SOL    HW124323   0.018   2.858   4.564
 7808SOL    HW224324   6.910   2.929   4.627
 7809SOL     OW24325   3.215   0.302   3.250
 7809SOL    HW124326   3.260   0.379   3.295
 7809SOL    HW224327   3.190   0.327   3.156
 7810SOL     OW24328   1.884   6.644   6.251
 7810SOL    HW124329   1.806   6.705   6.235
 7810SOL    HW224330   1.884   6.571   6.182
 7811SOL     OW24331   1.358   5.386   2.751
 7811SOL    HW124332   1.417   5.390   2.832
 7811SOL    HW224333   1.333   5.479   2.724
 7812SOL     OW24334   2.836   0.998   6.108
 7812SOL    HW124335   2.915   1.032   6.057
 7812SOL    HW224336   2.827   1.050   6.193
 7813SOL     OW24337   6.057   0.852   0.590
 7813SOL    HW124338   5.997   0.802   0.527
 7813SOL    HW224339   6.004   0.921   0.639
 7814SOL     OW24340   7.003   2.745   1.850
 7814SOL    HW124341   6.922   2.767   1.905
 7814SOL    HW224342   0.059   2.751   1.908
 7815SOL     OW24343   4.900   5.937   3.074
 7815SOL    HW124344   4.821   5.975   3.025
 7815SOL    HW224345   4.969   6.009   3.085
 7816SOL     OW24346   1.229   1.609   5.636
 7816SOL    HW124347   1.319   1.650   5.650
 7816SOL    HW224348   1.223   1.522   5.686
 7817SOL     OW24349   5.028   0.884   5.651
 7817SOL    HW124350   4.983   0.887   5.562
 7817SOL    HW224351   5.000   0.801   5.700
 7818SOL     OW24352   4.784   0.883   2.717
 7818SOL    HW124353   4.830   0.971   2.707
 7818SOL    HW224354   4.692   0.898   2.754
 7819SOL     OW24355   2.460   2.701   4.787
 7819SOL    HW124356   2.460   2.753   4.702
 7819SOL    HW224357   2.373   2.653   4.797
 7820SOL     OW24358   1.764   0.793   6.111
 7820SOL    HW124359   1.812   0.824   6.193
 7820SOL    HW224360   1.805   0.708   6.078
 7821SOL     OW24361   3.844   5.449   6.465
 7821SOL    HW124362   3.757   5.404   6.445
 7821SOL    HW224363   3.885   5.408   6.547
 7822SOL     OW24364   0.568   1.325   4.784
 7822SOL    HW124365   0.587   1.353   4.689
 7822SOL    HW224366   0.588   1.401   4.846
 7823SOL     OW24367   2.784   2.817   5.855
 7823SOL    HW124368   2.707   2.755   5.844
 7823SOL    HW224369   2.846   2.782   5.925
 7824SOL     OW24370   5.856   4.287   2.519
 7824SOL    HW124371   5.885   4.194   2.539
 7824SOL    HW224372   5.897   4.350   2.585
 7825SOL     OW24373   3.403   3.216   3.898
 7825SOL    HW124374   3.419   3.294   3.838
 7825SOL    HW224375   3.361   3.142   3.846
 7826SOL     OW24376   6.487   6.782   1.051
 7826SOL    HW124377   6.526   6.809   1.139
 7826SOL    HW224378   6.426   6.704   1.064
 7827SOL     OW24379   4.865   3.929   0.411
 7827SOL    HW124380   4.861   3.993   0.334
 7827SOL    HW224381   4.849   3.836   0.378
 7828SOL     OW24382   0.419   6.430   0.656
 7828SOL    HW124383   0.517   6.439   0.635
 7828SOL    HW224384   0.371   6.392   0.578
 7829SOL     OW24385   3.386   4.099   2.776
 7829SOL    HW124386   3.477   4.086   2.738
 7829SOL    HW224387   3.321   4.115   2.701
 7830SOL     OW24388   6.960   4.624   6.927
 7830SOL    HW124389   7.013   4.557   6.979
 7830SOL    HW224390   6.892   4.666   6.987
 7831SOL     OW24391   2.760   2.632   7.021
 7831SOL    HW124392   2.795   2.557   6.965
 7831SOL    HW224393   2.745   2.600   0.089
 7832SOL     OW24394   3.655   2.984   5.686
 7832SOL    HW124395   3.626   2.937   5.769
 7832SOL    HW224396   3.755   2.979   5.678
 7833SOL     OW24397   6.397   0.061   1.405
 7833SOL    HW124398   6.309   0.047   1.450
 7833SOL    HW224399   6.471   0.026   1.463
 7834SOL     OW24400   5.344   1.196   1.317
 7834SOL    HW124401   5.343   1.107   1.270
 7834SOL    HW224402   5.398   1.189   1.400
 7835SOL     OW24403   2.446   2.526   4.380
 7835SOL    HW124404   2.433   2.427   4.374
 7835SOL    HW224405   2.398   2.561   4.460
 7836SOL     OW24406   2.578   0.646   6.923
 7836SOL    HW124407   2.522   0.594   6.988
 7836SOL    HW224408   2.618   0.584   6.856
 7837SOL     OW24409   5.580   6.315   2.084
 7837SOL    HW124410   5.657   6.360   2.039
 7837SOL    HW224411   5.613   6.259   2.160
 7838SOL     OW24412   3.582   5.604   3.791
 7838SOL    HW124413   3.522   5.575   3.867
 7838SOL    HW224414   3.658   5.658   3.827
 7839SOL     OW24415   6.812   5.453   3.421
 7839SOL    HW124416   6.887   5.387   3.413
 7839SOL    HW224417   6.742   5.433   3.352
 7840SOL     OW24418   4.464   2.645   6.328
 7840SOL    HW124419   4.456   2.610   6.234
 7840SOL    HW224420   4.406   2.590   6.389
 7841SOL     OW24421   1.195   2.020   6.023
 7841SOL    HW124422   1.118   1.958   6.007
 7841SOL    HW224423   1.246   1.989   6.104
 7842SOL     OW24424   1.654   0.813   2.827
 7842SOL    HW124425   1.723   0.748   2.795
 7842SOL    HW224426   1.700   0.888   2.875
 7843SOL     OW24427   0.085   2.227   2.028
 7843SOL    HW124428   0.099   2.262   1.935
 7843SOL    HW224429   0.141   2.279   2.092
 7844SOL     OW24430   3.184   2.039   3.295
 7844SOL    HW124431   3.090   2.072   3.305
 7844SOL    HW224432   3.225   2.078   3.212
 7845SOL     OW24433   0.740   0.687   4.387
 7845SOL    HW124434   0.820   0.629   4.403
 7845SOL    HW224435   0.660   0.629   4.372
 7846SOL     OW24436   4.943   0.130   2.635
 7846SOL    HW124437   4.893   0.213   2.609
 7846SOL    HW224438   4.921   0.106   2.729
 7847SOL     OW24439   0.539   6.651   6.597
 7847SOL    HW124440   0.454   6.699   6.574
 7847SOL    HW224441   0.611   6.680   6.535
 7848SOL     OW24442   4.274   3.713   1.690
 7848SOL    HW124443   4.313   3.746   1.604
 7848SOL    HW224444   4.262   3.790   1.753
 7849SOL     OW24445   5.388   3.926   4.875
 7849SOL    HW124446   5.299   3.950   4.913
 7849SOL    HW224447   5.376   3.857   4.804
 7850SOL     OW24448   1.140   2.605   5.178
 7850SOL    HW124449   1.224   2.607   5.123
 7850SOL    HW224450   1.160   2.635   5.271
 7851SOL     OW24451   3.539   6.660   0.596
 7851SOL    HW124452   3.504   6.741   0.642
 7851SOL    HW224453   3.635   6.646   0.621
 7852SOL     OW24454   2.604   6.392   0.506
 7852SOL    HW124455   2.509   6.410   0.532
 7852SOL    HW224456   2.665   6.433   0.574
 7853SOL     OW24457   2.341   1.414   0.342
 7853SOL    HW124458   2.352   1.325   0.298
 7853SOL    HW224459   2.285   1.473   0.285
 7854SOL     OW24460   4.097   3.810   4.128
 7854SOL    HW124461   4.084   3.711   4.141
 7854SOL    HW224462   4.091   3.832   4.031
 7855SOL     OW24463   2.717   0.143   4.883
 7855SOL    HW124464   2.619   0.165   4.880
 7855SOL    HW224465   2.729   0.047   4.860
 7856SOL     OW24466   3.438   2.591   6.618
 7856SOL    HW124467   3.498   2.513   6.602
 7856SOL    HW224468   3.492   2.674   6.629
 7857SOL     OW24469   7.020   2.573   4.826
 7857SOL    HW124470   0.009   2.671   4.839
 7857SOL    HW224471   0.070   2.523   4.868
 7858SOL     OW24472   5.340   3.201   3.177
 7858SOL    HW124473   5.321   3.285   3.228
 7858SOL    HW224474   5.432   3.207   3.137
 7859SOL     OW24475   0.202   0.367   0.464
 7859SOL    HW124476   0.286   0.419   0.453
 7859SOL    HW224477   0.221   0.280   0.510
 7860SOL     OW24478   4.576   6.252   1.124
 7860SOL    HW124479   4.653   6.315   1.136
 7860SOL    HW224480   4.592   6.170   1.179
 7861SOL     OW24481   6.302   3.559   0.549
 7861SOL    HW124482   6.363   3.633   0.576
 7861SOL    HW224483   6.333   3.520   0.463
 7862SOL     OW24484   2.669   4.555   1.716
 7862SOL    HW124485   2.730   4.527   1.790
 7862SOL    HW224486   2.675   4.488   1.642
 7863SOL     OW24487   4.159   6.279   2.850
 7863SOL    HW124488   4.186   6.192   2.891
 7863SOL    HW224489   4.136   6.344   2.922
 7864SOL     OW24490   1.862   5.617   5.160
 7864SOL    HW124491   1.793   5.558   5.119
 7864SOL    HW224492   1.817   5.686   5.217
 7865SOL     OW24493   4.199   0.797   3.492
 7865SOL    HW124494   4.158   0.882   3.524
 7865SOL    HW224495   4.298   0.802   3.503
 7866SOL     OW24496   2.722   0.830   5.468
 7866SOL    HW124497   2.624   0.825   5.447
 7866SOL    HW224498   2.749   0.748   5.520
 7867SOL     OW24499   6.301   3.264   0.837
 7867SOL    HW124500   6.230   3.200   0.866
 7867SOL    HW224501   6.384   3.250   0.891
 7868SOL     OW24502   4.197   6.637   0.952
 7868SOL    HW124503   4.172   6.609   0.859
 7868SOL    HW224504   4.133   6.707   0.984
 7869SOL     OW24505   5.960   1.656   4.011
 7869SOL    HW124506   6.025   1.730   4.028
 7869SOL    HW224507   6.006   1.580   3.965
 7870SOL     OW24508   6.639   0.131   3.596
 7870SOL    HW124509   6.671   0.173   3.511
 7870SOL    HW224510   6.697   0.160   3.672
 7871SOL     OW24511   5.775   3.244   3.667
 7871SOL    HW124512   5.687   3.248   3.620
 7871SOL    HW224513   5.849   3.250   3.600
 7872SOL     OW24514   6.721   4.051   4.110
 7872SOL    HW124515   6.787   4.026   4.181
 7872SOL    HW224516   6.651   4.110   4.150
 7873SOL     OW24517   0.014   5.594   4.787
 7873SOL    HW124518   0.018   5.494   4.774
 7873SOL    HW224519   6.979   5.615   4.863
 7874SOL     OW24520   5.945   6.925   6.930
 7874SOL    HW124521   6.030   6.951   6.976
 7874SOL    HW224522   5.912   7.001   6.875
 7875SOL     OW24523   5.365   3.052   0.319
 7875SOL    HW124524   5.288   3.099   0.276
 7875SOL    HW224525   5.411   2.995   0.251
 7876SOL     OW24526   6.983   1.736   4.395
 7876SOL    HW124527   6.899   1.756   4.445
 7876SOL    HW224528   6.999   1.808   4.327
 7877SOL     OW24529   5.594   3.971   1.854
 7877SOL    HW124530   5.622   3.880   1.886
 7877SOL    HW224531   5.616   4.039   1.924
 7878SOL     OW24532   3.819   3.753   2.112
 7878SOL    HW124533   3.917   3.756   2.092
 7878SOL    HW224534   3.768   3.778   2.030
 7879SOL     OW24535   0.095   1.235   4.894
 7879SOL    HW124536   0.158   1.171   4.938
 7879SOL    HW224537   0.134   1.267   4.808
 7880SOL     OW24538   1.996   5.905   6.602
 7880SOL    HW124539   2.019   5.994   6.640
 7880SOL    HW224540   1.944   5.917   6.517
 7881SOL     OW24541   0.555   5.238   4.873
 7881SOL    HW124542   0.535   5.333   4.895
 7881SOL    HW224543   0.653   5.221   4.882
 7882SOL     OW24544   1.437   5.140   1.318
 7882SOL    HW124545   1.466   5.190   1.399
 7882SOL    HW224546   1.368   5.072   1.344
 7883SOL     OW24547   3.298   2.089   2.096
 7883SOL    HW124548   3.329   2.184   2.088
 7883SOL    HW224549   3.221   2.074   2.034
 7884SOL     OW24550   0.717   2.266   6.026
 7884SOL    HW124551   0.719   2.361   6.055
 7884SOL    HW224552   0.666   2.211   6.093
 7885SOL     OW24553   5.997   5.219   2.768
 7885SOL    HW124554   5.912   5.237   2.720
 7885SOL    HW224555   6.047   5.146   2.722
 7886SOL     OW24556   3.825   4.911   2.969
 7886SOL    HW124557   3.819   4.881   2.874
 7886SOL    HW224558   3.737   4.898   3.014
 7887SOL     OW24559   0.690   3.091   0.595
 7887SOL    HW124560   0.621   3.019   0.581
 7887SOL    HW224561   0.646   3.171   0.635
 7888SOL     OW24562   0.217   1.773   5.485
 7888SOL    HW124563   0.192   1.765   5.389
 7888SOL    HW224564   0.293   1.837   5.494
 7889SOL     OW24565   5.210   4.937   0.500
 7889SOL    HW124566   5.301   4.899   0.487
 7889SOL    HW224567   5.167   4.953   0.411
 7890SOL     OW24568   2.050   2.807   1.905
 7890SOL    HW124569   2.132   2.864   1.909
 7890SOL    HW224570   2.073   2.713   1.928
 7891SOL     OW24571   5.984   1.266   4.368
 7891SOL    HW124572   5.924   1.296   4.294
 7891SOL    HW224573   5.957   1.174   4.397
 7892SOL     OW24574   1.191   2.244   4.034
 7892SOL    HW124575   1.109   2.287   4.072
 7892SOL    HW224576   1.226   2.176   4.099
 7893SOL     OW24577   5.279   6.046   1.298
 7893SOL    HW124578   5.279   6.081   1.392
 7893SOL    HW224579   5.187   6.014   1.274
 7894SOL     OW24580   3.096   0.357   6.855
 7894SOL    HW124581   3.191   0.350   6.825
 7894SOL    HW224582   3.049   0.425   6.800
 7895SOL     OW24583   5.523   6.521   2.984
 7895SOL    HW124584   5.555   6.539   3.077
 7895SOL    HW224585   5.587   6.458   2.938
 7896SOL     OW24586   2.671   2.229   0.718
 7896SOL    HW124587   2.770   2.246   0.720
 7896SOL    HW224588   2.624   2.313   0.690
 7897SOL     OW24589   4.999   1.308   1.695
 7897SOL    HW124590   4.901   1.314   1.678
 7897SOL    HW224591   5.045   1.272   1.614
 7898SOL     OW24592   4.508   6.346   2.943
 7898SOL    HW124593   4.493   6.292   2.860
 7898SOL    HW224594   4.426   6.399   2.964
 7899SOL     OW24595   5.971   4.708   2.687
 7899SOL    HW124596   5.920   4.632   2.729
 7899SOL    HW224597   6.025   4.754   2.757
 7900SOL     OW24598   0.302   3.274   0.735
 7900SOL    HW124599   0.253   3.201   0.687
 7900SOL    HW224600   0.382   3.301   0.682
 7901SOL     OW24601   0.591   2.112   6.932
 7901SOL    HW124602   0.553   2.108   7.024
 7901SOL    HW224603   0.687   2.082   6.935
 7902SOL     OW24604   1.917   0.124   1.274
 7902SOL    HW124605   1.940   0.179   1.193
 7902SOL    HW224606   1.990   0.058   1.291
 7903SOL     OW24607   3.101   1.769   5.880
 7903SOL    HW124608   3.156   1.837   5.927
 7903SOL    HW224609   3.039   1.815   5.816
 7904SOL     OW24610   5.407   3.424   2.726
 7904SOL    HW124611   5.345   3.477   2.786
 7904SOL    HW224612   5.359   3.400   2.642
 7905SOL     OW24613   6.247   2.205   1.773
 7905SOL    HW124614   6.191   2.269   1.720
 7905SOL    HW224615   6.342   2.211   1.744
 7906SOL     OW24616   0.202   5.991   6.199
 7906SOL    HW124617   0.179   5.989   6.102
 7906SOL    HW224618   0.299   6.015   6.210
 7907SOL     OW24619   5.715   5.985   3.643
 7907SOL    HW124620   5.750   6.068   3.686
 7907SOL    HW224621   5.709   5.999   3.544
 7908SOL     OW24622   1.902   0.112   5.972
 7908SOL    HW124623   1.907   0.024   6.019
 7908SOL    HW224624   1.873   0.098   5.877
 7909SOL     OW24625   6.661   3.773   1.953
 7909SOL    HW124626   6.663   3.712   1.875
 7909SOL    HW224627   6.738   3.836   1.948
 7910SOL     OW24628   1.456   4.005   4.804
 7910SOL    HW124629   1.379   4.034   4.747
 7910SOL    HW224630   1.512   4.085   4.827
 7911SOL     OW24631   6.078   3.758   5.893
 7911SOL    HW124632   6.136   3.808   5.829
 7911SOL    HW224633   6.130   3.736   5.976
 7912SOL     OW24634   5.502   5.966   1.638
 7912SOL    HW124635   5.479   5.876   1.676
 7912SOL    HW224636   5.536   5.954   1.544
 7913SOL     OW24637   1.397   4.880   6.308
 7913SOL    HW124638   1.336   4.931   6.370
 7913SOL    HW224639   1.459   4.823   6.362
 7914SOL     OW24640   1.043   6.965   4.793
 7914SOL    HW124641   1.059   0.036   4.769
 7914SOL    HW224642   1.038   6.911   4.709
 7915SOL     OW24643   3.374   5.512   1.999
 7915SOL    HW124644   3.351   5.458   2.080
 7915SOL    HW224645   3.311   5.590   1.992
 7916SOL     OW24646   1.630   0.766   4.259
 7916SOL    HW124647   1.659   0.845   4.205
 7916SOL    HW224648   1.694   0.752   4.334
 7917SOL     OW24649   4.885   1.996   2.820
 7917SOL    HW124650   4.801   2.048   2.835
 7917SOL    HW224651   4.961   2.059   2.805
 7918SOL     OW24652   1.582   2.608   2.323
 7918SOL    HW124653   1.656   2.632   2.386
 7918SOL    HW224654   1.616   2.611   2.229
 7919SOL     OW24655   0.777   7.021   4.840
 7919SOL    HW124656   0.871   7.006   4.868
 7919SOL    HW224657   0.771   7.025   4.740
 7920SOL     OW24658   5.182   6.768   0.867
 7920SOL    HW124659   5.093   6.736   0.837
 7920SOL    HW224660   5.198   6.739   0.962
 7921SOL     OW24661   5.397   3.442   0.795
 7921SOL    HW124662   5.363   3.519   0.741
 7921SOL    HW224663   5.323   3.378   0.813
 7922SOL     OW24664   2.241   6.295   3.658
 7922SOL    HW124665   2.151   6.337   3.648
 7922SOL    HW224666   2.302   6.329   3.585
 7923SOL     OW24667   5.077   6.981   1.191
 7923SOL    HW124668   5.126   6.894   1.176
 7923SOL    HW224669   5.127   0.030   1.148
 7924SOL     OW24670   5.678   5.914   6.906
 7924SOL    HW124671   5.651   5.915   6.810
 7924SOL    HW224672   5.718   5.826   6.929
 7925SOL     OW24673   1.946   5.106   6.091
 7925SOL    HW124674   1.991   5.058   6.015
 7925SOL    HW224675   1.957   5.053   6.175
 7926SOL     OW24676   4.397   5.610   5.977
 7926SOL    HW124677   4.351   5.522   5.985
 7926SOL    HW224678   4.342   5.672   5.921
 7927SOL     OW24679   4.893   0.404   3.377
 7927SOL    HW124680   4.903   0.469   3.302
 7927SOL    HW224681   4.981   0.392   3.423
 7928SOL     OW24682   5.692   2.084   4.146
 7928SOL    HW124683   5.735   2.060   4.060
 7928SOL    HW224684   5.725   2.024   4.219
 7929SOL     OW24685   4.456   3.733   5.326
 7929SOL    HW124686   4.475   3.812   5.385
 7929SOL    HW224687   4.538   3.712   5.272
 7930SOL     OW24688   4.066   5.330   0.688
 7930SOL    HW124689   4.038   5.261   0.621
 7930SOL    HW224690   4.057   5.421   0.647
 7931SOL     OW24691   4.859   0.534   0.747
 7931SOL    HW124692   4.815   0.620   0.720
 7931SOL    HW224693   4.868   0.475   0.667
 7932SOL     OW24694   1.057   3.581   0.930
 7932SOL    HW124695   1.142   3.629   0.907
 7932SOL    HW224696   0.985   3.648   0.948
 7933SOL     OW24697   1.593   1.661   0.633
 7933SOL    HW124698   1.682   1.675   0.590
 7933SOL    HW224699   1.522   1.705   0.577
 7934SOL     OW24700   6.700   5.330   0.928
 7934SOL    HW124701   6.635   5.255   0.930
 7934SOL    HW224702   6.711   5.368   1.020
 7935SOL     OW24703   6.032   3.588   3.402
 7935SOL    HW124704   6.078   3.675   3.386
 7935SOL    HW224705   5.933   3.602   3.399
 7936SOL     OW24706   2.193   6.055   3.480
 7936SOL    HW124707   2.284   6.055   3.439
 7936SOL    HW224708   2.183   6.136   3.538
 7937SOL     OW24709   3.693   1.589   1.011
 7937SOL    HW124710   3.677   1.686   0.991
 7937SOL    HW224711   3.779   1.580   1.061
 7938SOL     OW24712   2.391   6.578   3.510
 7938SOL    HW124713   2.411   6.492   3.464
 7938SOL    HW224714   2.440   6.582   3.597
 7939SOL     OW24715   1.420   0.174   2.699
 7939SOL    HW124716   1.474   0.141   2.777
 7939SOL    HW224717   1.450   0.129   2.616
 7940SOL     OW24718   6.660   1.843   5.361
 7940SOL    HW124719   6.665   1.888   5.272
 7940SOL    HW224720   6.747   1.797   5.380
 7941SOL     OW24721   3.305   0.121   0.548
 7941SOL    HW124722   3.247   0.155   0.623
 7941SOL    HW224723   3.263   0.144   0.461
 7942SOL     OW24724   0.998   3.938   1.166
 7942SOL    HW124725   0.946   4.003   1.222
 7942SOL    HW224726   1.026   3.861   1.222
 7943SOL     OW24727   2.098   5.496   0.219
 7943SOL    HW124728   2.041   5.575   0.196
 7943SOL    HW224729   2.155   5.518   0.299
 7944SOL     OW24730   1.085   1.816   0.925
 7944SOL    HW124731   1.030   1.872   0.863
 7944SOL    HW224732   1.091   1.860   1.014
 7945SOL     OW24733   6.366   3.997   3.025
 7945SOL    HW124734   6.459   3.963   3.036
 7945SOL    HW224735   6.342   4.053   3.104
 7946SOL     OW24736   4.753   1.383   5.926
 7946SOL    HW124737   4.782   1.436   5.847
 7946SOL    HW224738   4.779   1.288   5.914
 7947SOL     OW24739   0.753   3.784   6.754
 7947SOL    HW124740   0.666   3.817   6.717
 7947SOL    HW224741   0.789   3.850   6.819
 7948SOL     OW24742   1.253   5.463   1.338
 7948SOL    HW124743   1.225   5.558   1.326
 7948SOL    HW224744   1.265   5.420   1.248
 7949SOL     OW24745   3.249   5.521   5.328
 7949SOL    HW124746   3.207   5.432   5.310
 7949SOL    HW224747   3.342   5.523   5.291
 7950SOL     OW24748   6.616   3.147   5.754
 7950SOL    HW124749   6.621   3.129   5.853
 7950SOL    HW224750   6.567   3.233   5.739
 7951SOL     OW24751   3.670   0.464   3.050
 7951SOL    HW124752   3.732   0.501   2.981
 7951SOL    HW224753   3.605   0.402   3.006
 7952SOL     OW24754   6.895   3.209   5.242
 7952SOL    HW124755   6.927   3.304   5.235
 7952SOL    HW224756   6.943   3.163   5.317
 7953SOL     OW24757   1.745   6.813   0.419
 7953SOL    HW124758   1.661   6.758   0.418
 7953SOL    HW224759   1.797   6.792   0.502
 7954SOL     OW24760   3.561   2.632   6.994
 7954SOL    HW124761   3.629   2.581   6.941
 7954SOL    HW224762   3.605   2.713   0.008
 7955SOL     OW24763   6.572   0.819   6.347
 7955SOL    HW124764   6.499   0.836   6.412
 7955SOL    HW224765   6.606   0.725   6.358
 7956SOL     OW24766   0.277   0.195   0.684
 7956SOL    HW124767   0.344   0.255   0.729
 7956SOL    HW224768   0.190   0.200   0.732
 7957SOL     OW24769   5.585   1.507   5.613
 7957SOL    HW124770   5.491   1.485   5.588
 7957SOL    HW224771   5.587   1.596   5.659
 7958SOL     OW24772   4.875   2.399   6.655
 7958SOL    HW124773   4.888   2.410   6.753
 7958SOL    HW224774   4.877   2.301   6.632
 7959SOL     OW24775   5.194   3.159   6.744
 7959SOL    HW124776   5.133   3.221   6.695
 7959SOL    HW224777   5.168   3.064   6.724
 7960SOL     OW24778   0.602   1.570   4.923
 7960SOL    HW124779   0.662   1.614   4.856
 7960SOL    HW224780   0.557   1.640   4.978
 7961SOL     OW24781   6.387   0.144   6.703
 7961SOL    HW124782   6.391   0.045   6.720
 7961SOL    HW224783   6.387   0.160   6.605
 7962SOL     OW24784   5.795   7.012   4.933
 7962SOL    HW124785   5.871   0.050   4.922
 7962SOL    HW224786   5.828   6.918   4.922
 7963SOL     OW24787   5.327   6.072   2.763
 7963SOL    HW124788   5.328   6.145   2.694
 7963SOL    HW224789   5.345   6.112   2.853
 7964SOL     OW24790   0.043   3.931   1.516
 7964SOL    HW124791   0.110   4.002   1.537
 7964SOL    HW224792   7.021   3.955   1.431
 7965SOL     OW24793   4.407   1.857   6.567
 7965SOL    HW124794   4.419   1.783   6.501
 7965SOL    HW224795   4.448   1.831   6.655
 7966SOL     OW24796   5.755   3.519   5.206
 7966SOL    HW124797   5.789   3.614   5.205
 7966SOL    HW224798   5.755   3.486   5.300
 7967SOL     OW24799   1.720   4.242   1.842
 7967SOL    HW124800   1.654   4.170   1.861
 7967SOL    HW224801   1.680   4.331   1.864
 7968SOL     OW24802   2.483   2.511   3.857
 7968SOL    HW124803   2.454   2.416   3.845
 7968SOL    HW224804   2.510   2.526   3.952
 7969SOL     OW24805   3.208   4.219   6.702
 7969SOL    HW124806   3.298   4.205   6.743
 7969SOL    HW224807   3.201   4.313   6.669
 7970SOL     OW24808   6.552   3.383   3.001
 7970SOL    HW124809   6.557   3.320   3.079
 7970SOL    HW224810   6.535   3.330   2.918
 7971SOL     OW24811   3.040   0.325   0.088
 7971SOL    HW124812   3.040   0.345   7.015
 7971SOL    HW224813   3.067   0.407   0.138
 7972SOL     OW24814   3.998   3.463   4.693
 7972SOL    HW124815   4.051   3.530   4.745
 7972SOL    HW224816   3.961   3.505   4.610
 7973SOL     OW24817   0.296   5.226   2.004
 7973SOL    HW124818   0.312   5.280   1.922
 7973SOL    HW224819   0.231   5.274   2.064
 7974SOL     OW24820   6.963   2.626   4.532
 7974SOL    HW124821   6.960   2.630   4.632
 7974SOL    HW224822   0.032   2.619   4.502
 7975SOL     OW24823   4.034   0.029   6.787
 7975SOL    HW124824   3.959   7.001   6.827
 7975SOL    HW224825   4.018   0.126   6.804
 7976SOL     OW24826   0.826   0.785   0.488
 7976SOL    HW124827   0.900   0.806   0.552
 7976SOL    HW224828   0.858   0.800   0.395
 7977SOL     OW24829   4.768   5.392   3.236
 7977SOL    HW124830   4.726   5.481   3.254
 7977SOL    HW224831   4.697   5.327   3.208
 7978SOL     OW24832   0.154   4.264   0.951
 7978SOL    HW124833   0.179   4.259   0.854
 7978SOL    HW224834   0.222   4.216   1.005
 7979SOL     OW24835   3.246   2.796   5.588
 7979SOL    HW124836   3.166   2.849   5.614
 7979SOL    HW224837   3.218   2.723   5.525
 7980SOL     OW24838   3.779   6.238   2.497
 7980SOL    HW124839   3.824   6.282   2.574
 7980SOL    HW224840   3.765   6.141   2.517
 7981SOL     OW24841   1.257   3.161   4.992
 7981SOL    HW124842   1.187   3.232   4.993
 7981SOL    HW224843   1.319   3.176   4.915
 7982SOL     OW24844   6.725   0.062   0.445
 7982SOL    HW124845   6.813   0.037   0.485
 7982SOL    HW224846   6.710   0.160   0.457
 7983SOL     OW24847   3.507   1.316   1.448
 7983SOL    HW124848   3.571   1.290   1.376
 7983SOL    HW224849   3.415   1.323   1.410
 7984SOL     OW24850   6.331   3.000   2.774
 7984SOL    HW124851   6.321   3.071   2.843
 7984SOL    HW224852   6.305   2.912   2.812
 7985SOL     OW24853   3.358   3.490   5.743
 7985SOL    HW124854   3.376   3.392   5.731
 7985SOL    HW224855   3.368   3.536   5.655
 7986SOL     OW24856   2.905   0.838   3.865
 7986SOL    HW124857   2.996   0.878   3.857
 7986SOL    HW224858   2.846   0.876   3.794
 7987SOL     OW24859   1.608   2.929   5.690
 7987SOL    HW124860   1.536   2.998   5.698
 7987SOL    HW224861   1.674   2.939   5.764
 7988SOL     OW24862   6.657   0.519   1.529
 7988SOL    HW124863   6.706   0.518   1.442
 7988SOL    HW224864   6.604   0.435   1.539
 7989SOL     OW24865   0.684   4.629   1.186
 7989SOL    HW124866   0.764   4.687   1.172
 7989SOL    HW224867   0.601   4.684   1.174
 7990SOL     OW24868   4.298   5.358   5.261
 7990SOL    HW124869   4.369   5.405   5.314
 7990SOL    HW224870   4.227   5.324   5.324
 7991SOL     OW24871   5.412   0.936   4.523
 7991SOL    HW124872   5.373   0.969   4.608
 7991SOL    HW224873   5.379   0.992   4.447
 7992SOL     OW24874   1.892   0.554   0.071
 7992SOL    HW124875   1.965   0.494   0.102
 7992SOL    HW224876   1.903   0.572   6.999
 7993SOL     OW24877   6.309   6.559   0.987
 7993SOL    HW124878   6.210   6.557   0.974
 7993SOL    HW224879   6.354   6.568   0.898
 7994SOL     OW24880   0.765   1.631   4.725
 7994SOL    HW124881   0.865   1.631   4.712
 7994SOL    HW224882   0.726   1.711   4.679
 7995SOL     OW24883   0.229   6.541   1.446
 7995SOL    HW124884   0.177   6.485   1.511
 7995SOL    HW224885   0.256   6.486   1.368
 7996SOL     OW24886   2.264   6.628   3.796
 7996SOL    HW124887   2.357   6.659   3.815
 7996SOL    HW224888   2.247   6.543   3.846
 7997SOL     OW24889   2.853   0.829   5.754
 7997SOL    HW124890   2.818   0.762   5.819
 7997SOL    HW224891   2.810   0.918   5.772
 7998SOL     OW24892   2.473   0.907   1.208
 7998SOL    HW124893   2.383   0.890   1.168
 7998SOL    HW224894   2.463   0.966   1.287
 7999SOL     OW24895   0.131   1.293   2.628
 7999SOL    HW124896   0.072   1.215   2.648
 7999SOL    HW224897   0.191   1.310   2.707
 8000SOL     OW24898   4.824   5.746   0.979
 8000SOL    HW124899   4.757   5.818   0.963
 8000SOL    HW224900   4.779   5.657   0.977
 8001SOL     OW24901   5.003   4.708   2.074
 8001SOL    HW124902   4.987   4.806   2.087
 8001SOL    HW224903   5.049   4.671   2.155
 8002SOL     OW24904   1.337   0.797   4.668
 8002SOL    HW124905   1.430   0.800   4.631
 8002SOL    HW224906   1.307   0.889   4.692
 8003SOL     OW24907   2.602   5.469   2.987
 8003SOL    HW124908   2.698   5.449   2.970
 8003SOL    HW224909   2.569   5.535   2.919
 8004SOL     OW24910   2.144   3.639   4.043
 8004SOL    HW124911   2.153   3.660   3.946
 8004SOL    HW224912   2.060   3.589   4.060
 8005SOL     OW24913   2.981   0.457   4.517
 8005SOL    HW124914   2.900   0.493   4.471
 8005SOL    HW224915   2.955   0.384   4.580
 8006SOL     OW24916   4.757   5.092   6.333
 8006SOL    HW124917   4.856   5.078   6.330
 8006SOL    HW224918   4.717   5.066   6.246
 8007SOL     OW24919   0.157   0.827   1.232
 8007SOL    HW124920   0.227   0.760   1.258
 8007SOL    HW224921   0.201   0.910   1.199
 8008SOL     OW24922   5.361   5.197   0.833
 8008SOL    HW124923   5.425   5.121   0.842
 8008SOL    HW224924   5.406   5.275   0.791
 8009SOL     OW24925   6.292   0.931   1.099
 8009SOL    HW124926   6.366   0.994   1.077
 8009SOL    HW224927   6.257   0.950   1.190
 8010SOL     OW24928   2.659   0.201   6.381
 8010SOL    HW124929   2.608   0.202   6.467
 8010SOL    HW224930   2.734   0.136   6.387
 8011SOL     OW24931   3.799   1.958   2.522
 8011SOL    HW124932   3.865   2.026   2.555
 8011SOL    HW224933   3.743   1.999   2.450
 8012SOL     OW24934   6.651   0.806   5.299
 8012SOL    HW124935   6.637   0.859   5.216
 8012SOL    HW224936   6.727   0.846   5.352
 8013SOL     OW24937   3.681   0.687   3.255
 8013SOL    HW124938   3.721   0.652   3.339
 8013SOL    HW224939   3.688   0.618   3.183
 8014SOL     OW24940   2.237   2.985   3.334
 8014SOL    HW124941   2.225   3.021   3.427
 8014SOL    HW224942   2.297   2.905   3.338
 8015SOL     OW24943   3.462   6.062   4.681
 8015SOL    HW124944   3.489   5.971   4.648
 8015SOL    HW224945   3.494   6.132   4.617
 8016SOL     OW24946   3.034   3.044   5.202
 8016SOL    HW124947   3.097   3.118   5.227
 8016SOL    HW224948   2.971   3.077   5.132
 8017SOL     OW24949   5.294   6.563   1.708
 8017SOL    HW124950   5.366   6.502   1.741
 8017SOL    HW224951   5.310   6.656   1.742
 8018SOL     OW24952   2.935   2.772   0.824
 8018SOL    HW124953   2.936   2.677   0.794
 8018SOL    HW224954   2.866   2.823   0.774
 8019SOL     OW24955   2.729   3.557   1.155
 8019SOL    HW124956   2.824   3.580   1.175
 8019SOL    HW224957   2.680   3.639   1.125
 8020SOL     OW24958   0.729   0.142   0.491
 8020SOL    HW124959   0.637   0.116   0.519
 8020SOL    HW224960   0.781   0.060   0.466
 8021SOL     OW24961   0.791   2.390   0.718
 8021SOL    HW124962   0.711   2.387   0.778
 8021SOL    HW224963   0.856   2.457   0.753
 8022SOL     OW24964   4.266   0.703   2.757
 8022SOL    HW124965   4.172   0.671   2.773
 8022SOL    HW224966   4.330   0.628   2.774
 8023SOL     OW24967   3.817   4.899   2.059
 8023SOL    HW124968   3.897   4.855   2.018
 8023SOL    HW224969   3.735   4.847   2.038
 8024SOL     OW24970   2.535   0.780   5.852
 8024SOL    HW124971   2.487   0.710   5.904
 8024SOL    HW224972   2.528   0.868   5.899
 8025SOL     OW24973   1.312   6.858   1.152
 8025SOL    HW124974   1.283   6.872   1.057
 8025SOL    HW224975   1.233   6.868   1.212
 8026SOL     OW24976   0.514   6.682   5.862
 8026SOL    HW124977   0.534   6.702   5.766
 8026SOL    HW224978   0.464   6.758   5.903
 8027SOL     OW24979   4.388   6.752   6.380
 8027SOL    HW124980   4.334   6.836   6.377
 8027SOL    HW224981   4.484   6.776   6.398
 8028SOL     OW24982   4.249   5.794   6.354
 8028SOL    HW124983   4.157   5.755   6.342
 8028SOL    HW224984   4.258   5.834   6.445
 8029SOL     OW24985   0.970   6.798   1.529
 8029SOL    HW124986   1.052   6.743   1.515
 8029SOL    HW224987   0.987   6.865   1.601
 8030SOL     OW24988   0.625   3.807   1.175
 8030SOL    HW124989   0.623   3.709   1.195
 8030SOL    HW224990   0.624   3.858   1.261
 8031SOL     OW24991   6.877   0.655   3.591
 8031SOL    HW124992   6.796   0.663   3.533
 8031SOL    HW224993   6.916   0.564   3.582
 8032SOL     OW24994   0.518   3.284   1.424
 8032SOL    HW124995   0.438   3.338   1.449
 8032SOL    HW224996   0.489   3.191   1.400
 8033SOL     OW24997   4.271   5.021   1.050
 8033SOL    HW124998   4.235   5.077   1.125
 8033SOL    HW224999   4.216   5.036   0.968
 8034SOL     OW25000   1.441   1.267   5.330
 8034SOL    HW125001   1.406   1.360   5.324
 8034SOL    HW225002   1.413   1.215   5.250
 8035SOL     OW25003   5.754   0.751   4.830
 8035SOL    HW125004   5.675   0.811   4.819
 8035SOL    HW225005   5.725   0.667   4.878
 8036SOL     OW25006   4.964   4.394   4.359
 8036SOL    HW125007   4.985   4.485   4.322
 8036SOL    HW225008   5.038   4.331   4.335
 8037SOL     OW25009   2.671   1.404   6.599
 8037SOL    HW125010   2.762   1.436   6.627
 8037SOL    HW225011   2.679   1.315   6.555
 8038SOL     OW25012   6.536   5.396   1.733
 8038SOL    HW125013   6.443   5.376   1.703
 8038SOL    HW225014   6.594   5.316   1.719
 8039SOL     OW25015   1.994   2.724   5.200
 8039SOL    HW125016   2.090   2.751   5.187
 8039SOL    HW225017   1.988   2.659   5.276
 8040SOL     OW25018   0.904   6.820   5.849
 8040SOL    HW125019   0.858   6.881   5.785
 8040SOL    HW225020   0.962   6.873   5.911
 8041SOL     OW25021   3.203   1.766   2.891
 8041SOL    HW125022   3.244   1.716   2.968
 8041SOL    HW225023   3.188   1.704   2.815
 8042SOL     OW25024   4.541   3.990   5.925
 8042SOL    HW125025   4.451   4.024   5.899
 8042SOL    HW225026   4.584   4.055   5.988
 8043SOL     OW25027   5.321   5.187   0.041
 8043SOL    HW125028   5.416   5.215   0.046
 8043SOL    HW225029   5.262   5.268   0.035
 8044SOL     OW25030   0.987   3.053   1.296
 8044SOL    HW125031   1.041   2.993   1.237
 8044SOL    HW225032   1.042   3.080   1.375
 8045SOL     OW25033   5.814   3.450   4.910
 8045SOL    HW125034   5.732   3.446   4.968
 8045SOL    HW225035   5.895   3.453   4.968
 8046SOL     OW25036   0.315   4.282   0.674
 8046SOL    HW125037   0.341   4.344   0.600
 8046SOL    HW225038   0.249   4.215   0.640
 8047SOL     OW25039   3.563   6.516   6.476
 8047SOL    HW125040   3.581   6.569   6.559
 8047SOL    HW225041   3.620   6.434   6.475
 8048SOL     OW25042   4.241   2.100   6.477
 8048SOL    HW125043   4.160   2.112   6.535
 8048SOL    HW225044   4.288   2.016   6.502
 8049SOL     OW25045   1.990   1.387   1.074
 8049SOL    HW125046   1.977   1.299   1.029
 8049SOL    HW225047   2.002   1.459   1.005
 8050SOL     OW25048   0.346   5.550   5.720
 8050SOL    HW125049   0.249   5.562   5.699
 8050SOL    HW225050   0.363   5.454   5.743
 8051SOL     OW25051   4.304   6.531   2.973
 8051SOL    HW125052   4.257   6.546   3.060
 8051SOL    HW225053   4.355   6.614   2.948
 8052SOL     OW25054   2.510   1.365   3.030
 8052SOL    HW125055   2.554   1.344   3.117
 8052SOL    HW225056   2.421   1.319   3.026
 8053SOL     OW25057   1.344   1.706   6.652
 8053SOL    HW125058   1.376   1.673   6.564
 8053SOL    HW225059   1.328   1.805   6.647
 8054SOL     OW25060   5.090   3.858   5.157
 8054SOL    HW125061   5.171   3.801   5.141
 8054SOL    HW225062   5.084   3.927   5.085
 8055SOL     OW25063   6.733   0.578   6.351
 8055SOL    HW125064   6.823   0.564   6.391
 8055SOL    HW225065   6.724   0.521   6.269
 8056SOL     OW25066   2.379   2.343   2.942
 8056SOL    HW125067   2.432   2.427   2.929
 8056SOL    HW225068   2.387   2.286   2.861
 8057SOL     OW25069   3.351   1.829   1.656
 8057SOL    HW125070   3.306   1.898   1.713
 8057SOL    HW225071   3.285   1.790   1.592
 8058SOL     OW25072   3.693   6.591   1.561
 8058SOL    HW125073   3.736   6.672   1.601
 8058SOL    HW225074   3.615   6.563   1.618
 8059SOL     OW25075   4.503   3.937   5.515
 8059SOL    HW125076   4.554   3.870   5.569
 8059SOL    HW225077   4.526   4.029   5.547
 8060SOL     OW25078   0.343   1.355   5.394
 8060SOL    HW125079   0.373   1.424   5.328
 8060SOL    HW225080   0.413   1.283   5.401
 8061SOL     OW25081   6.791   0.853   1.274
 8061SOL    HW125082   6.862   0.787   1.299
 8061SOL    HW225083   6.830   0.945   1.269
 8062SOL     OW25084   4.125   4.545   6.417
 8062SOL    HW125085   4.135   4.513   6.512
 8062SOL    HW225086   4.214   4.541   6.372
 8063SOL     OW25087   2.512   4.571   2.819
 8063SOL    HW125088   2.528   4.599   2.724
 8063SOL    HW225089   2.497   4.473   2.822
 8064SOL     OW25090   0.216   2.841   0.526
 8064SOL    HW125091   0.219   2.846   0.426
 8064SOL    HW225092   0.185   2.750   0.553
 8065SOL     OW25093   4.756   0.503   6.303
 8065SOL    HW125094   4.778   0.594   6.337
 8065SOL    HW225095   4.709   0.451   6.375
 8066SOL     OW25096   6.541   0.916   6.097
 8066SOL    HW125097   6.610   0.973   6.054
 8066SOL    HW225098   6.568   0.898   6.192
 8067SOL     OW25099   5.159   1.002   4.359
 8067SOL    HW125100   5.131   1.081   4.414
 8067SOL    HW225101   5.186   1.033   4.268
 8068SOL     OW25102   6.886   4.659   1.325
 8068SOL    HW125103   6.956   4.653   1.254
 8068SOL    HW225104   6.922   4.622   1.411
 8069SOL     OW25105   1.246   2.784   1.876
 8069SOL    HW125106   1.331   2.756   1.831
 8069SOL    HW225107   1.171   2.725   1.845
 8070SOL     OW25108   5.203   4.256   1.699
 8070SOL    HW125109   5.190   4.227   1.794
 8070SOL    HW225110   5.280   4.207   1.659
 8071SOL     OW25111   2.071   0.350   6.028
 8071SOL    HW125112   2.091   0.342   6.126
 8071SOL    HW225113   2.038   0.262   5.994
 8072SOL     OW25114   2.461   2.493   5.628
 8072SOL    HW125115   2.451   2.393   5.623
 8072SOL    HW225116   2.440   2.533   5.539
 8073SOL     OW25117   5.453   6.824   6.734
 8073SOL    HW125118   5.528   6.861   6.789
 8073SOL    HW225119   5.393   6.770   6.792
 8074SOL     OW25120   6.396   0.690   1.045
 8074SOL    HW125121   6.361   0.777   1.080
 8074SOL    HW225122   6.384   0.688   0.945
 8075SOL     OW25123   0.507   0.484   0.947
 8075SOL    HW125124   0.422   0.458   0.994
 8075SOL    HW225125   0.586   0.455   1.001
 8076SOL     OW25126   6.890   5.758   0.505
 8076SOL    HW125127   6.871   5.732   0.410
 8076SOL    HW225128   6.977   5.718   0.534
 8077SOL     OW25129   6.458   3.885   1.232
 8077SOL    HW125130   6.382   3.863   1.292
 8077SOL    HW225131   6.478   3.983   1.238
 8078SOL     OW25132   6.122   1.922   1.679
 8078SOL    HW125133   6.143   1.945   1.584
 8078SOL    HW225134   6.150   1.998   1.738
 8079SOL     OW25135   6.995   1.052   6.823
 8079SOL    HW125136   0.064   1.083   6.815
 8079SOL    HW225137   6.939   1.124   6.863
 8080SOL     OW25138   0.444   3.622   3.806
 8080SOL    HW125139   0.356   3.650   3.767
 8080SOL    HW225140   0.438   3.526   3.834
 8081SOL     OW25141   6.006   0.476   5.349
 8081SOL    HW125142   6.004   0.526   5.436
 8081SOL    HW225143   5.975   0.383   5.364
 8082SOL     OW25144   5.201   2.117   4.828
 8082SOL    HW125145   5.223   2.210   4.857
 8082SOL    HW225146   5.282   2.059   4.837
 8083SOL     OW25147   6.625   2.882   4.237
 8083SOL    HW125148   6.715   2.844   4.217
 8083SOL    HW225149   6.578   2.903   4.151
 8084SOL     OW25150   5.360   1.653   6.993
 8084SOL    HW125151   5.381   1.714   0.043
 8084SOL    HW225152   5.427   1.665   6.920
 8085SOL     OW25153   1.477   6.263   4.672
 8085SOL    HW125154   1.514   6.202   4.602
 8085SOL    HW225155   1.483   6.358   4.641
 8086SOL     OW25156   0.384   2.547   2.135
 8086SOL    HW125157   0.376   2.599   2.220
 8086SOL    HW225158   0.476   2.555   2.099
 8087SOL     OW25159   6.447   0.373   6.043
 8087SOL    HW125160   6.425   0.457   5.993
 8087SOL    HW225161   6.426   0.294   5.986
 8088SOL     OW25162   0.210   6.885   5.170
 8088SOL    HW125163   0.128   6.932   5.138
 8088SOL    HW225164   0.261   6.850   5.091
 8089SOL     OW25165   6.216   1.111   0.348
 8089SOL    HW125166   6.278   1.034   0.359
 8089SOL    HW225167   6.266   1.190   0.313
 8090SOL     OW25168   4.531   2.227   4.680
 8090SOL    HW125169   4.616   2.186   4.713
 8090SOL    HW225170   4.552   2.302   4.617
 8091SOL     OW25171   1.111   3.520   5.009
 8091SOL    HW125172   1.044   3.564   5.069
 8091SOL    HW225173   1.063   3.462   4.943
 8092SOL     OW25174   4.631   7.003   5.372
 8092SOL    HW125175   4.533   7.019   5.356
 8092SOL    HW225176   4.671   0.059   5.414
 8093SOL     OW25177   3.521   0.084   3.405
 8093SOL    HW125178   3.497   0.172   3.448
 8093SOL    HW225179   3.469   0.011   3.448
 8094SOL     OW25180   1.656   4.520   3.896
 8094SOL    HW125181   1.692   4.448   3.836
 8094SOL    HW225182   1.693   4.608   3.868
 8095SOL     OW25183   1.129   5.644   4.330
 8095SOL    HW125184   1.084   5.732   4.314
 8095SOL    HW225185   1.103   5.580   4.258
 8096SOL     OW25186   0.613   4.876   0.893
 8096SOL    HW125187   0.654   4.948   0.949
 8096SOL    HW225188   0.684   4.818   0.856
 8097SOL     OW25189   4.824   6.888   0.504
 8097SOL    HW125190   4.761   6.812   0.518
 8097SOL    HW225191   4.917   6.860   0.529
 8098SOL     OW25192   2.637   6.365   4.828
 8098SOL    HW125193   2.696   6.311   4.768
 8098SOL    HW225194   2.665   6.352   4.923
 8099SOL     OW25195   1.924   3.611   2.610
 8099SOL    HW125196   1.989   3.584   2.681
 8099SOL    HW225197   1.964   3.597   2.520
 8100SOL     OW25198   6.884   6.641   0.541
 8100SOL    HW125199   6.962   6.588   0.509
 8100SOL    HW225200   6.893   6.736   0.511
 8101SOL     OW25201   2.331   4.938   0.351
 8101SOL    HW125202   2.346   5.037   0.351
 8101SOL    HW225203   2.318   4.906   0.445
 8102SOL     OW25204   1.412   4.389   3.778
 8102SOL    HW125205   1.494   4.395   3.721
 8102SOL    HW225206   1.403   4.472   3.833
 8103SOL     OW25207   4.394   0.543   1.636
 8103SOL    HW125208   4.391   0.531   1.735
 8103SOL    HW225209   4.306   0.580   1.604
 8104SOL     OW25210   1.260   6.001   0.004
 8104SOL    HW125211   1.173   5.976   6.987
 8104SOL    HW225212   1.332   5.941   6.996
 8105SOL     OW25213   6.837   0.201   2.502
 8105SOL    HW125214   6.920   0.149   2.485
 8105SOL    HW225215   6.817   0.201   2.600
 8106SOL     OW25216   3.388   6.308   6.577
 8106SOL    HW125217   3.410   6.359   6.494
 8106SOL    HW225218   3.399   6.367   6.657
 8107SOL     OW25219   0.836   6.279   0.580
 8107SOL    HW125220   0.758   6.334   0.550
 8107SOL    HW225221   0.888   6.249   0.501
 8108SOL     OW25222   1.865   1.071   1.051
 8108SOL    HW125223   1.785   1.118   1.088
 8108SOL    HW225224   1.860   0.974   1.074
 8109SOL     OW25225   0.429   3.847   2.191
 8109SOL    HW125226   0.453   3.787   2.114
 8109SOL    HW225227   0.490   3.829   2.268
 8110SOL     OW25228   4.561   4.215   6.937
 8110SOL    HW125229   4.581   4.224   0.009
 8110SOL    HW225230   4.625   4.150   6.896
 8111SOL     OW25231   5.555   2.117   2.306
 8111SOL    HW125232   5.462   2.123   2.344
 8111SOL    HW225233   5.600   2.035   2.341
 8112SOL     OW25234   2.096   4.761   6.605
 8112SOL    HW125235   2.071   4.803   6.692
 8112SOL    HW225236   2.164   4.689   6.621
 8113SOL     OW25237   5.658   5.138   6.513
 8113SOL    HW125238   5.568   5.138   6.470
 8113SOL    HW225239   5.679   5.047   6.548
 8114SOL     OW25240   2.096   3.525   2.811
 8114SOL    HW125241   2.097   3.425   2.805
 8114SOL    HW225242   2.052   3.553   2.896
 8115SOL     OW25243   2.379   1.668   6.109
 8115SOL    HW125244   2.424   1.734   6.049
 8115SOL    HW225245   2.408   1.576   6.084
 8116SOL     OW25246   3.915   3.278   2.381
 8116SOL    HW125247   3.880   3.369   2.362
 8116SOL    HW225248   3.988   3.256   2.317
 8117SOL     OW25249   0.901   0.280   3.968
 8117SOL    HW125250   0.889   0.370   4.009
 8117SOL    HW225251   0.813   0.235   3.960
 8118SOL     OW25252   6.752   2.343   6.414
 8118SOL    HW125253   6.751   2.419   6.349
 8118SOL    HW225254   6.751   2.256   6.364
 8119SOL     OW25255   5.381   4.822   6.613
 8119SOL    HW125256   5.368   4.777   6.525
 8119SOL    HW225257   5.305   4.885   6.630
 8120SOL     OW25258   2.039   6.407   2.256
 8120SOL    HW125259   1.956   6.359   2.284
 8120SOL    HW225260   2.113   6.341   2.243
 8121SOL     OW25261   1.614   2.678   2.915
 8121SOL    HW125262   1.572   2.769   2.926
 8121SOL    HW225263   1.700   2.687   2.866
 8122SOL     OW25264   1.248   4.967   1.414
 8122SOL    HW125265   1.285   4.878   1.443
 8122SOL    HW225266   1.193   5.006   1.488
 8123SOL     OW25267   6.772   1.532   6.018
 8123SOL    HW125268   6.744   1.440   6.043
 8123SOL    HW225269   6.694   1.595   6.028
 8124SOL     OW25270   6.450   6.084   5.298
 8124SOL    HW125271   6.437   6.182   5.281
 8124SOL    HW225272   6.451   6.068   5.397
 8125SOL     OW25273   0.745   6.291   2.203
 8125SOL    HW125274   0.699   6.379   2.217
 8125SOL    HW225275   0.830   6.305   2.154
 8126SOL     OW25276   3.629   5.467   4.523
 8126SOL    HW125277   3.689   5.422   4.590
 8126SOL    HW225278   3.676   5.545   4.482
 8127SOL     OW25279   4.362   1.078   5.934
 8127SOL    HW125280   4.327   1.144   6.000
 8127SOL    HW225281   4.315   1.089   5.847
 8128SOL     OW25282   3.485   2.979   1.179
 8128SOL    HW125283   3.541   2.929   1.244
 8128SOL    HW225284   3.389   2.955   1.192
 8129SOL     OW25285   6.808   2.716   3.329
 8129SOL    HW125286   6.711   2.737   3.340
 8129SOL    HW225287   6.818   2.642   3.263
 8130SOL     OW25288   6.879   6.740   0.175
 8130SOL    HW125289   6.914   6.649   0.197
 8130SOL    HW225290   6.956   6.803   0.166
 8131SOL     OW25291   2.043   2.776   0.726
 8131SOL    HW125292   2.075   2.847   0.664
 8131SOL    HW225293   2.031   2.690   0.676
 8132SOL     OW25294   6.255   1.691   4.385
 8132SOL    HW125295   6.235   1.608   4.436
 8132SOL    HW225296   6.170   1.740   4.366
 8133SOL     OW25297   3.985   5.406   1.406
 8133SOL    HW125298   4.073   5.446   1.434
 8133SOL    HW225299   3.933   5.475   1.356
 8134SOL     OW25300   5.549   1.713   6.757
 8134SOL    HW125301   5.627   1.663   6.795
 8134SOL    HW225302   5.566   1.732   6.660
 8135SOL     OW25303   2.469   6.149   1.898
 8135SOL    HW125304   2.501   6.077   1.838
 8135SOL    HW225305   2.466   6.116   1.992
 8136SOL     OW25306   4.360   4.933   2.463
 8136SOL    HW125307   4.275   4.976   2.433
 8136SOL    HW225308   4.416   5.001   2.512
 8137SOL     OW25309   4.694   0.795   5.557
 8137SOL    HW125310   4.629   0.870   5.543
 8137SOL    HW225311   4.709   0.783   5.656
 8138SOL     OW25312   6.031   0.720   2.352
 8138SOL    HW125313   6.036   0.726   2.253
 8138SOL    HW225314   6.031   0.624   2.380
 8139SOL     OW25315   0.566   1.429   4.240
 8139SOL    HW125316   0.493   1.483   4.200
 8139SOL    HW225317   0.564   1.337   4.202
 8140SOL     OW25318   4.715   2.778   3.200
 8140SOL    HW125319   4.629   2.731   3.180
 8140SOL    HW225320   4.747   2.826   3.118
 8141SOL     OW25321   5.785   3.994   3.643
 8141SOL    HW125322   5.869   3.941   3.647
 8141SOL    HW225323   5.708   3.932   3.627
 8142SOL     OW25324   0.249   6.110   0.495
 8142SOL    HW125325   0.286   6.073   0.580
 8142SOL    HW225326   0.150   6.094   0.492
 8143SOL     OW25327   6.640   2.773   5.822
 8143SOL    HW125328   6.697   2.699   5.856
 8143SOL    HW225329   6.614   2.833   5.899
 8144SOL     OW25330   4.996   5.989   0.134
 8144SOL    HW125331   5.001   5.951   0.042
 8144SOL    HW225332   5.062   6.064   0.142
 8145SOL     OW25333   4.785   6.370   4.260
 8145SOL    HW125334   4.718   6.385   4.333
 8145SOL    HW225335   4.762   6.286   4.211
 8146SOL     OW25336   3.535   1.679   3.523
 8146SOL    HW125337   3.607   1.740   3.492
 8146SOL    HW225338   3.538   1.594   3.471
 8147SOL     OW25339   4.725   1.414   3.190
 8147SOL    HW125340   4.771   1.462   3.264
 8147SOL    HW225341   4.754   1.453   3.102
 8148SOL     OW25342   0.057   3.659   3.074
 8148SOL    HW125343   0.027   3.581   3.130
 8148SOL    HW225344   0.156   3.672   3.086
 8149SOL     OW25345   4.085   5.398   4.140
 8149SOL    HW125346   4.152   5.348   4.086
 8149SOL    HW225347   4.007   5.423   4.082
 8150SOL     OW25348   1.281   6.325   1.408
 8150SOL    HW125349   1.373   6.334   1.369
 8150SOL    HW225350   1.253   6.412   1.449
 8151SOL     OW25351   0.509   1.952   4.711
 8151SOL    HW125352   0.597   1.944   4.663
 8151SOL    HW225353   0.467   1.861   4.719
 8152SOL     OW25354   0.973   0.628   3.701
 8152SOL    HW125355   0.893   0.614   3.759
 8152SOL    HW225356   1.055   0.595   3.749
 8153SOL     OW25357   2.293   5.913   0.490
 8153SOL    HW125358   2.346   5.884   0.570
 8153SOL    HW225359   2.337   5.992   0.447
 8154SOL     OW25360   1.872   6.119   3.720
 8154SOL    HW125361   1.776   6.132   3.745
 8154SOL    HW225362   1.912   6.048   3.778
 8155SOL     OW25363   3.258   3.687   4.937
 8155SOL    HW125364   3.253   3.707   5.034
 8155SOL    HW225365   3.349   3.711   4.903
 8156SOL     OW25366   0.574   6.881   5.015
 8156SOL    HW125367   0.637   6.956   5.000
 8156SOL    HW225368   0.480   6.914   5.008
 8157SOL     OW25369   5.776   2.303   6.572
 8157SOL    HW125370   5.869   2.271   6.553
 8157SOL    HW225371   5.712   2.226   6.567
 8158SOL     OW25372   1.160   5.851   2.520
 8158SOL    HW125373   1.109   5.844   2.434
 8158SOL    HW225374   1.179   5.947   2.539
 8159SOL     OW25375   0.451   6.027   0.298
 8159SOL    HW125376   0.470   5.929   0.311
 8159SOL    HW225377   0.352   6.041   0.291
 8160SOL     OW25378   4.999   2.052   1.558
 8160SOL    HW125379   4.980   2.090   1.648
 8160SOL    HW225380   4.919   2.066   1.499
 8161SOL     OW25381   3.963   3.408   1.539
 8161SOL    HW125382   4.033   3.409   1.610
 8161SOL    HW225383   3.984   3.477   1.470
 8162SOL     OW25384   6.293   1.197   2.227
 8162SOL    HW125385   6.321   1.153   2.142
 8162SOL    HW225386   6.361   1.265   2.254
 8163SOL     OW25387   2.193   2.578   5.443
 8163SOL    HW125388   2.284   2.564   5.404
 8163SOL    HW225389   2.188   2.670   5.483
 8164SOL     OW25390   4.969   3.914   1.768
 8164SOL    HW125391   4.995   3.817   1.767
 8164SOL    HW225392   5.029   3.963   1.831
 8165SOL     OW25393   1.560   3.991   1.902
 8165SOL    HW125394   1.657   3.969   1.915
 8165SOL    HW225395   1.526   3.944   1.821
 8166SOL     OW25396   3.060   6.632   1.512
 8166SOL    HW125397   3.071   6.569   1.435
 8166SOL    HW225398   2.996   6.594   1.578
 8167SOL     OW25399   5.746   2.845   4.574
 8167SOL    HW125400   5.729   2.797   4.488
 8167SOL    HW225401   5.831   2.812   4.615
 8168SOL     OW25402   2.796   1.670   2.626
 8168SOL    HW125403   2.844   1.668   2.714
 8168SOL    HW225404   2.802   1.761   2.586
 8169SOL     OW25405   5.288   3.912   5.403
 8169SOL    HW125406   5.367   3.894   5.344
 8169SOL    HW225407   5.204   3.908   5.348
 8170SOL     OW25408   1.368   5.149   3.798
 8170SOL    HW125409   1.407   5.074   3.744
 8170SOL    HW225410   1.441   5.197   3.847
 8171SOL     OW25411   2.061   0.786   0.145
 8171SOL    HW125412   2.005   0.703   0.141
 8171SOL    HW225413   2.037   0.845   0.068
 8172SOL     OW25414   0.214   6.571   2.453
 8172SOL    HW125415   0.312   6.550   2.458
 8172SOL    HW225416   0.163   6.487   2.434
 8173SOL     OW25417   6.542   3.158   0.390
 8173SOL    HW125418   6.521   3.201   0.477
 8173SOL    HW225419   6.638   3.128   0.389
 8174SOL     OW25420   4.921   6.452   2.433
 8174SOL    HW125421   4.839   6.420   2.384
 8174SOL    HW225422   5.001   6.437   2.375
 8175SOL     OW25423   1.466   2.793   3.699
 8175SOL    HW125424   1.456   2.835   3.609
 8175SOL    HW225425   1.515   2.706   3.690
 8176SOL     OW25426   4.060   5.670   3.584
 8176SOL    HW125427   4.128   5.608   3.545
 8176SOL    HW225428   4.094   5.764   3.580
 8177SOL     OW25429   1.508   6.426   6.450
 8177SOL    HW125430   1.472   6.347   6.499
 8177SOL    HW225431   1.607   6.431   6.463
 8178SOL     OW25432   1.844   6.806   6.503
 8178SOL    HW125433   1.795   6.886   6.467
 8178SOL    HW225434   1.844   6.733   6.436
 8179SOL     OW25435   3.996   0.520   6.704
 8179SOL    HW125436   3.983   0.583   6.627
 8179SOL    HW225437   4.018   0.572   6.786
 8180SOL     OW25438   4.895   4.811   4.863
 8180SOL    HW125439   4.920   4.907   4.874
 8180SOL    HW225440   4.892   4.788   4.766
 8181SOL     OW25441   2.496   2.078   2.044
 8181SOL    HW125442   2.555   1.998   2.046
 8181SOL    HW225443   2.533   2.148   2.105
 8182SOL     OW25444   5.546   2.539   5.349
 8182SOL    HW125445   5.566   2.631   5.315
 8182SOL    HW225446   5.471   2.543   5.415
 8183SOL     OW25447   2.059   3.345   3.186
 8183SOL    HW125448   2.102   3.349   3.276
 8183SOL    HW225449   2.006   3.261   3.178
 8184SOL     OW25450   6.203   6.242   4.189
 8184SOL    HW125451   6.189   6.339   4.171
 8184SOL    HW225452   6.301   6.222   4.193
 8185SOL     OW25453   1.058   1.990   3.765
 8185SOL    HW125454   0.981   2.048   3.738
 8185SOL    HW225455   1.024   1.901   3.794
 8186SOL     OW25456   4.334   3.735   6.998
 8186SOL    HW125457   4.423   3.694   6.978
 8186SOL    HW225458   4.326   3.750   0.071
 8187SOL     OW25459   2.289   1.244   6.145
 8187SOL    HW125460   2.219   1.286   6.204
 8187SOL    HW225461   2.378   1.283   6.167
 8188SOL     OW25462   5.170   3.174   2.717
 8188SOL    HW125463   5.195   3.101   2.653
 8188SOL    HW225464   5.182   3.263   2.672
 8189SOL     OW25465   6.560   5.095   3.200
 8189SOL    HW125466   6.481   5.116   3.141
 8189SOL    HW225467   6.621   5.033   3.152
 8190SOL     OW25468   5.762   3.356   2.808
 8190SOL    HW125469   5.752   3.356   2.709
 8190SOL    HW225470   5.843   3.303   2.833
 8191SOL     OW25471   5.476   4.913   1.572
 8191SOL    HW125472   5.451   4.900   1.668
 8191SOL    HW225473   5.434   4.842   1.516
 8192SOL     OW25474   1.383   2.542   0.909
 8192SOL    HW125475   1.477   2.553   0.876
 8192SOL    HW225476   1.377   2.459   0.965
 8193SOL     OW25477   4.092   6.252   5.749
 8193SOL    HW125478   4.112   6.266   5.846
 8193SOL    HW225479   4.099   6.155   5.726
 8194SOL     OW25480   1.381   0.984   2.956
 8194SOL    HW125481   1.382   0.922   2.878
 8194SOL    HW225482   1.286   1.012   2.974
 8195SOL     OW25483   5.766   1.100   1.675
 8195SOL    HW125484   5.854   1.141   1.699
 8195SOL    HW225485   5.700   1.117   1.748
 8196SOL     OW25486   2.199   0.826   1.123
 8196SOL    HW125487   2.128   0.772   1.169
 8196SOL    HW225488   2.217   0.786   1.033
 8197SOL     OW25489   0.588   7.000   1.144
 8197SOL    HW125490   0.680   6.967   1.124
 8197SOL    HW225491   0.548   6.946   1.218
 8198SOL     OW25492   3.040   1.046   3.037
 8198SOL    HW125493   3.074   1.079   3.125
 8198SOL    HW225494   2.945   1.075   3.026
 8199SOL     OW25495   5.500   4.530   1.369
 8199SOL    HW125496   5.590   4.574   1.372
 8199SOL    HW225497   5.431   4.597   1.340
 8200SOL     OW25498   3.966   4.164   1.650
 8200SOL    HW125499   3.991   4.261   1.650
 8200SOL    HW225500   3.914   4.143   1.733
 8201SOL     OW25501   0.822   0.937   5.072
 8201SOL    HW125502   0.800   0.992   4.991
 8201SOL    HW225503   0.760   0.960   5.147
 8202SOL     OW25504   1.889   3.504   3.967
 8202SOL    HW125505   1.902   3.511   3.868
 8202SOL    HW225506   1.888   3.408   3.994
 8203SOL     OW25507   6.605   4.663   6.323
 8203SOL    HW125508   6.652   4.576   6.308
 8203SOL    HW225509   6.637   4.730   6.257
 8204SOL     OW25510   3.542   0.213   0.700
 8204SOL    HW125511   3.586   0.126   0.681
 8204SOL    HW225512   3.445   0.198   0.722
 8205SOL     OW25513   4.259   6.845   3.138
 8205SOL    HW125514   4.203   6.928   3.144
 8205SOL    HW225515   4.321   6.840   3.217
 8206SOL     OW25516   3.652   2.044   4.816
 8206SOL    HW125517   3.714   1.969   4.839
 8206SOL    HW225518   3.627   2.093   4.900
 8207SOL     OW25519   2.976   5.743   0.145
 8207SOL    HW125520   2.897   5.805   0.142
 8207SOL    HW225521   2.950   5.654   0.110
 8208SOL     OW25522   1.565   5.568   1.207
 8208SOL    HW125523   1.569   5.468   1.195
 8208SOL    HW225524   1.636   5.596   1.272
 8209SOL     OW25525   0.997   5.826   5.148
 8209SOL    HW125526   0.903   5.792   5.144
 8209SOL    HW225527   1.037   5.802   5.236
 8210SOL     OW25528   2.579   0.355   1.199
 8210SOL    HW125529   2.644   0.427   1.174
 8210SOL    HW225530   2.612   0.267   1.164
 8211SOL     OW25531   3.443   4.207   4.023
 8211SOL    HW125532   3.382   4.173   4.094
 8211SOL    HW225533   3.516   4.261   4.064
 8212SOL     OW25534   4.404   4.739   6.781
 8212SOL    HW125535   4.350   4.784   6.851
 8212SOL    HW225536   4.482   4.797   6.757
 8213SOL     OW25537   4.784   4.228   2.108
 8213SOL    HW125538   4.747   4.318   2.087
 8213SOL    HW225539   4.795   4.175   2.024
 8214SOL     OW25540   4.281   5.499   3.569
 8214SOL    HW125541   4.376   5.478   3.590
 8214SOL    HW225542   4.271   5.512   3.470
 8215SOL     OW25543   2.927   6.427   5.717
 8215SOL    HW125544   2.910   6.457   5.623
 8215SOL    HW225545   2.839   6.419   5.765
 8216SOL     OW25546   5.945   5.443   0.867
 8216SOL    HW125547   5.953   5.360   0.923
 8216SOL    HW225548   5.979   5.521   0.918
 8217SOL     OW25549   3.067   6.006   3.390
 8217SOL    HW125550   3.089   6.054   3.475
 8217SOL    HW225551   3.148   5.958   3.357
 8218SOL     OW25552   1.939   6.435   4.305
 8218SOL    HW125553   1.949   6.509   4.372
 8218SOL    HW225554   1.845   6.436   4.269
 8219SOL     OW25555   3.817   3.589   3.720
 8219SOL    HW125556   3.786   3.573   3.814
 8219SOL    HW225557   3.762   3.661   3.678
 8220SOL     OW25558   4.561   4.323   5.734
 8220SOL    HW125559   4.522   4.387   5.800
 8220SOL    HW225560   4.487   4.280   5.682
 8221SOL     OW25561   0.010   4.020   3.797
 8221SOL    HW125562   6.978   3.946   3.762
 8221SOL    HW225563   6.979   4.093   3.833
 8222SOL     OW25564   5.040   1.883   6.125
 8222SOL    HW125565   5.082   1.970   6.152
 8222SOL    HW225566   5.083   1.850   6.041
 8223SOL     OW25567   1.375   6.068   5.752
 8223SOL    HW125568   1.285   6.111   5.762
 8223SOL    HW225569   1.402   6.071   5.656
 8224SOL     OW25570   5.832   0.738   6.008
 8224SOL    HW125571   5.764   0.669   5.984
 8224SOL    HW225572   5.827   0.759   6.105
 8225SOL     OW25573   5.955   2.397   0.334
 8225SOL    HW125574   5.875   2.452   0.356
 8225SOL    HW225575   5.929   2.301   0.325
 8226SOL     OW25576   3.976   0.783   6.839
 8226SOL    HW125577   3.879   0.765   6.859
 8226SOL    HW225578   4.022   0.812   6.922
 8227SOL     OW25579   5.350   3.997   1.996
 8227SOL    HW125580   5.369   3.963   2.088
 8227SOL    HW225581   5.392   3.936   1.928
 8228SOL     OW25582   2.502   1.638   4.052
 8228SOL    HW125583   2.565   1.685   3.990
 8228SOL    HW225584   2.470   1.703   4.121
 8229SOL     OW25585   3.929   4.390   0.548
 8229SOL    HW125586   3.941   4.358   0.454
 8229SOL    HW225587   3.831   4.400   0.567
 8230SOL     OW25588   6.281   0.481   6.247
 8230SOL    HW125589   6.211   0.546   6.217
 8230SOL    HW225590   6.329   0.446   6.167
 8231SOL     OW25591   3.324   1.553   2.057
 8231SOL    HW125592   3.326   1.653   2.055
 8231SOL    HW225593   3.283   1.519   1.973
 8232SOL     OW25594   3.542   6.514   3.539
 8232SOL    HW125595   3.574   6.532   3.632
 8232SOL    HW225596   3.442   6.513   3.538
 8233SOL     OW25597   2.780   0.443   6.379
 8233SOL    HW125598   2.821   0.481   6.296
 8233SOL    HW225599   2.736   0.356   6.358
 8234SOL     OW25600   0.887   2.932   6.830
 8234SOL    HW125601   0.964   2.983   6.868
 8234SOL    HW225602   0.913   2.893   6.742
 8235SOL     OW25603   0.938   6.340   0.335
 8235SOL    HW125604   0.855   6.331   0.281
 8235SOL    HW225605   1.001   6.404   0.291
 8236SOL     OW25606   1.308   6.889   0.886
 8236SOL    HW125607   1.278   6.874   0.791
 8236SOL    HW225608   1.407   6.880   0.891
 8237SOL     OW25609   4.135   5.219   5.423
 8237SOL    HW125610   4.183   5.164   5.491
 8237SOL    HW225611   4.044   5.242   5.457
 8238SOL     OW25612   6.470   5.282   0.310
 8238SOL    HW125613   6.479   5.295   0.409
 8238SOL    HW225614   6.495   5.367   0.263
 8239SOL     OW25615   4.303   2.313   4.028
 8239SOL    HW125616   4.365   2.385   4.059
 8239SOL    HW225617   4.268   2.263   4.107
 8240SOL     OW25618   3.901   3.518   5.209
 8240SOL    HW125619   3.897   3.543   5.305
 8240SOL    HW225620   3.982   3.462   5.192
 8241SOL     OW25621   0.809   3.089   5.588
 8241SOL    HW125622   0.888   3.028   5.597
 8241SOL    HW225623   0.737   3.042   5.536
 8242SOL     OW25624   0.328   3.054   3.393
 8242SOL    HW125625   0.251   3.003   3.432
 8242SOL    HW225626   0.317   3.060   3.294
 8243SOL     OW25627   1.697   5.921   3.831
 8243SOL    HW125628   1.653   5.832   3.834
 8243SOL    HW225629   1.710   5.949   3.736
 8244SOL     OW25630   5.694   0.265   4.502
 8244SOL    HW125631   5.663   0.228   4.414
 8244SOL    HW225632   5.775   0.214   4.532
 8245SOL     OW25633   5.673   4.489   2.412
 8245SOL    HW125634   5.750   4.427   2.429
 8245SOL    HW225635   5.596   4.464   2.470
 8246SOL     OW25636   2.077   4.438   6.941
 8246SOL    HW125637   2.007   4.504   6.970
 8246SOL    HW225638   2.072   4.426   6.842
 8247SOL     OW25639   1.875   4.831   3.251
 8247SOL    HW125640   1.801   4.874   3.302
 8247SOL    HW225641   1.873   4.732   3.266
 8248SOL     OW25642   6.130   6.859   2.728
 8248SOL    HW125643   6.045   6.816   2.758
 8248SOL    HW225644   6.158   6.821   2.640
 8249SOL     OW25645   3.455   0.282   5.827
 8249SOL    HW125646   3.371   0.228   5.834
 8249SOL    HW225647   3.432   0.379   5.838
 8250SOL     OW25648   1.285   1.422   0.354
 8250SOL    HW125649   1.260   1.490   0.423
 8250SOL    HW225650   1.308   1.469   0.268
 8251SOL     OW25651   1.405   2.006   6.668
 8251SOL    HW125652   1.362   2.090   6.700
 8251SOL    HW225653   1.492   2.027   6.624
 8252SOL     OW25654   0.851   1.347   6.784
 8252SOL    HW125655   0.834   1.321   6.880
 8252SOL    HW225656   0.821   1.273   6.724
 8253SOL     OW25657   0.373   4.400   5.758
 8253SOL    HW125658   0.403   4.319   5.708
 8253SOL    HW225659   0.298   4.444   5.708
 8254SOL     OW25660   5.147   4.327   0.137
 8254SOL    HW125661   5.201   4.248   0.107
 8254SOL    HW225662   5.171   4.407   0.080
 8255SOL     OW25663   1.818   6.620   5.536
 8255SOL    HW125664   1.816   6.673   5.621
 8255SOL    HW225665   1.726   6.619   5.496
 8256SOL     OW25666   1.611   5.622   2.785
 8256SOL    HW125667   1.689   5.563   2.806
 8256SOL    HW225668   1.604   5.694   2.854
 8257SOL     OW25669   4.860   4.483   3.591
 8257SOL    HW125670   4.840   4.476   3.689
 8257SOL    HW225671   4.773   4.487   3.540
 8258SOL     OW25672   0.218   3.275   4.771
 8258SOL    HW125673   0.270   3.197   4.737
 8258SOL    HW225674   0.211   3.270   4.871
 8259SOL     OW25675   5.865   3.099   4.190
 8259SOL    HW125676   5.830   3.179   4.141
 8259SOL    HW225677   5.793   3.061   4.249
 8260SOL     OW25678   5.045   1.769   6.551
 8260SOL    HW125679   5.090   1.791   6.465
 8260SOL    HW225680   5.078   1.830   6.623
 8261SOL     OW25681   5.411   2.544   2.552
 8261SOL    HW125682   5.510   2.554   2.558
 8261SOL    HW225683   5.373   2.617   2.495
 8262SOL     OW25684   4.999   4.287   2.250
 8262SOL    HW125685   4.920   4.238   2.211
 8262SOL    HW225686   5.028   4.357   2.186
 8263SOL     OW25687   6.571   1.480   6.803
 8263SOL    HW125688   6.627   1.563   6.802
 8263SOL    HW225689   6.624   1.403   6.769
 8264SOL     OW25690   3.514   1.094   1.860
 8264SOL    HW125691   3.448   1.037   1.811
 8264SOL    HW225692   3.587   1.037   1.897
 8265SOL     OW25693   4.895   5.523   0.101
 8265SOL    HW125694   4.840   5.511   0.018
 8265SOL    HW225695   4.834   5.530   0.180
 8266SOL     OW25696   4.788   2.946   2.983
 8266SOL    HW125697   4.742   2.922   2.897
 8266SOL    HW225698   4.886   2.928   2.974
 8267SOL     OW25699   1.857   3.170   3.103
 8267SOL    HW125700   1.901   3.106   3.040
 8267SOL    HW225701   1.805   3.238   3.050
 8268SOL     OW25702   2.642   5.365   1.612
 8268SOL    HW125703   2.696   5.357   1.528
 8268SOL    HW225704   2.700   5.399   1.686
 8269SOL     OW25705   6.729   1.910   3.946
 8269SOL    HW125706   6.749   1.813   3.956
 8269SOL    HW225707   6.640   1.921   3.901
 8270SOL     OW25708   3.980   4.637   0.288
 8270SOL    HW125709   3.885   4.663   0.270
 8270SOL    HW225710   3.995   4.543   0.258
 8271SOL     OW25711   2.702   0.058   5.289
 8271SOL    HW125712   2.782   7.025   5.294
 8271SOL    HW225713   2.730   0.152   5.273
 8272SOL     OW25714   0.897   0.691   2.167
 8272SOL    HW125715   0.905   0.778   2.215
 8272SOL    HW225716   0.974   0.681   2.104
 8273SOL     OW25717   5.112   0.111   5.932
 8273SOL    HW125718   5.062   0.133   5.848
 8273SOL    HW225719   5.210   0.106   5.913
 8274SOL     OW25720   4.925   6.664   4.404
 8274SOL    HW125721   5.003   6.686   4.464
 8274SOL    HW225722   4.956   6.604   4.330
 8275SOL     OW25723   4.393   0.666   4.487
 8275SOL    HW125724   4.324   0.618   4.541
 8275SOL    HW225725   4.483   0.655   4.530
 8276SOL     OW25726   5.586   2.668   1.000
 8276SOL    HW125727   5.538   2.726   0.934
 8276SOL    HW225728   5.547   2.576   0.999
 8277SOL     OW25729   1.388   6.998   2.129
 8277SOL    HW125730   1.437   6.984   2.043
 8277SOL    HW225731   1.311   6.934   2.133
 8278SOL     OW25732   1.632   0.586   1.431
 8278SOL    HW125733   1.572   0.565   1.354
 8278SOL    HW225734   1.709   0.521   1.431
 8279SOL     OW25735   6.313   5.133   5.834
 8279SOL    HW125736   6.242   5.105   5.899
 8279SOL    HW225737   6.282   5.115   5.741
 8280SOL     OW25738   0.174   4.578   6.649
 8280SOL    HW125739   0.130   4.565   6.738
 8280SOL    HW225740   0.273   4.572   6.660
 8281SOL     OW25741   3.133   4.696   6.954
 8281SOL    HW125742   3.217   4.720   7.003
 8281SOL    HW225743   3.065   4.768   6.969
 8282SOL     OW25744   4.139   3.318   0.732
 8282SOL    HW125745   4.235   3.331   0.711
 8282SOL    HW225746   4.130   3.279   0.824
 8283SOL     OW25747   0.694   1.304   3.696
 8283SOL    HW125748   0.615   1.284   3.639
 8283SOL    HW225749   0.684   1.257   3.784
 8284SOL     OW25750   5.085   2.529   1.152
 8284SOL    HW125751   5.132   2.451   1.110
 8284SOL    HW225752   5.152   2.588   1.197
 8285SOL     OW25753   0.836   4.788   0.035
 8285SOL    HW125754   0.883   4.822   6.979
 8285SOL    HW225755   0.775   4.713   0.010
 8286SOL     OW25756   6.364   2.045   6.493
 8286SOL    HW125757   6.352   2.136   6.453
 8286SOL    HW225758   6.377   2.054   6.592
 8287SOL     OW25759   0.563   1.157   3.222
 8287SOL    HW125760   0.547   1.221   3.297
 8287SOL    HW225761   0.645   1.104   3.240
 8288SOL     OW25762   2.480   6.741   2.656
 8288SOL    HW125763   2.482   6.718   2.754
 8288SOL    HW225764   2.397   6.703   2.615
 8289SOL     OW25765   6.299   6.787   0.169
 8289SOL    HW125766   6.381   6.807   0.116
 8289SOL    HW225767   6.323   6.727   0.246
 8290SOL     OW25768   4.615   2.817   1.717
 8290SOL    HW125769   4.590   2.768   1.800
 8290SOL    HW225770   4.644   2.910   1.739
 8291SOL     OW25771   5.614   5.645   5.620
 8291SOL    HW125772   5.679   5.710   5.658
 8291SOL    HW225773   5.622   5.557   5.668
 8292SOL     OW25774   0.014   4.255   5.551
 8292SOL    HW125775   0.059   4.193   5.487
 8292SOL    HW225776   6.965   4.303   5.506
 8293SOL     OW25777   2.889   5.584   4.263
 8293SOL    HW125778   2.795   5.552   4.280
 8293SOL    HW225779   2.912   5.656   4.328
 8294SOL     OW25780   6.653   3.784   5.988
 8294SOL    HW125781   6.607   3.729   5.918
 8294SOL    HW225782   6.715   3.726   6.040
 8295SOL     OW25783   4.268   4.546   1.518
 8295SOL    HW125784   4.176   4.583   1.528
 8295SOL    HW225785   4.266   4.448   1.537
 8296SOL     OW25786   3.219   0.761   2.046
 8296SOL    HW125787   3.185   0.853   2.024
 8296SOL    HW225788   3.216   0.704   1.964
 8297SOL     OW25789   6.121   4.303   1.788
 8297SOL    HW125790   6.117   4.401   1.811
 8297SOL    HW225791   6.077   4.250   1.861
 8298SOL     OW25792   6.741   6.656   0.798
 8298SOL    HW125793   6.802   6.676   0.722
 8298SOL    HW225794   6.791   6.608   0.870
 8299SOL     OW25795   0.720   1.919   6.730
 8299SOL    HW125796   0.662   1.927   6.811
 8299SOL    HW225797   0.692   1.839   6.677
 8300SOL     OW25798   4.535   6.055   4.472
 8300SOL    HW125799   4.586   6.043   4.387
 8300SOL    HW225800   4.598   6.052   4.549
 8301SOL     OW25801   6.245   5.433   0.548
 8301SOL    HW125802   6.162   5.402   0.502
 8301SOL    HW225803   6.284   5.358   0.601
 8302SOL     OW25804   3.544   6.675   5.815
 8302SOL    HW125805   3.623   6.700   5.871
 8302SOL    HW225806   3.567   6.686   5.718
 8303SOL     OW25807   0.550   4.933   4.015
 8303SOL    HW125808   0.534   4.848   3.965
 8303SOL    HW225809   0.613   4.916   4.091
 8304SOL     OW25810   5.525   2.855   3.698
 8304SOL    HW125811   5.465   2.914   3.644
 8304SOL    HW225812   5.620   2.886   3.689
 8305SOL     OW25813   4.432   5.906   5.409
 8305SOL    HW125814   4.338   5.938   5.421
 8305SOL    HW225815   4.468   5.941   5.322
 8306SOL     OW25816   5.183   1.412   3.967
 8306SOL    HW125817   5.242   1.335   3.989
 8306SOL    HW225818   5.106   1.415   4.032
 8307SOL     OW25819   6.760   4.909   4.230
 8307SOL    HW125820   6.806   4.996   4.214
 8307SOL    HW225821   6.750   4.860   4.144
 8308SOL     OW25822   2.268   5.527   0.481
 8308SOL    HW125823   2.214   5.610   0.492
 8308SOL    HW225824   2.365   5.551   0.476
 8309SOL     OW25825   5.764   5.302   2.595
 8309SOL    HW125826   5.742   5.395   2.566
 8309SOL    HW225827   5.805   5.252   2.518
 8310SOL     OW25828   1.652   5.814   2.981
 8310SOL    HW125829   1.730   5.858   2.936
 8310SOL    HW225830   1.618   5.874   3.054
 8311SOL     OW25831   4.636   6.754   1.721
 8311SOL    HW125832   4.662   6.851   1.721
 8311SOL    HW225833   4.578   6.735   1.799
 8312SOL     OW25834   6.572   1.095   0.564
 8312SOL    HW125835   6.651   1.156   0.565
 8312SOL    HW225836   6.602   1.000   0.573
 8313SOL     OW25837   4.904   2.427   5.808
 8313SOL    HW125838   4.950   2.408   5.721
 8313SOL    HW225839   4.945   2.371   5.880
 8314SOL     OW25840   5.121   6.094   4.718
 8314SOL    HW125841   5.186   6.068   4.646
 8314SOL    HW225842   5.081   6.183   4.696
 8315SOL     OW25843   3.283   1.660   0.855
 8315SOL    HW125844   3.262   1.699   0.945
 8315SOL    HW225845   3.317   1.732   0.795
 8316SOL     OW25846   1.552   1.781   4.691
 8316SOL    HW125847   1.519   1.861   4.642
 8316SOL    HW225848   1.478   1.740   4.744
 8317SOL     OW25849   2.259   1.909   6.542
 8317SOL    HW125850   2.230   2.003   6.558
 8317SOL    HW225851   2.306   1.904   6.454
 8318SOL     OW25852   4.191   6.013   5.433
 8318SOL    HW125853   4.095   5.989   5.418
 8318SOL    HW225854   4.206   6.107   5.406
 8319SOL     OW25855   2.755   5.768   6.198
 8319SOL    HW125856   2.716   5.805   6.114
 8319SOL    HW225857   2.836   5.714   6.175
 8320SOL     OW25858   4.296   5.090   5.625
 8320SOL    HW125859   4.362   5.096   5.700
 8320SOL    HW225860   4.332   5.029   5.554
 8321SOL     OW25861   0.505   0.416   0.682
 8321SOL    HW125862   0.483   0.451   0.774
 8321SOL    HW225863   0.556   0.486   0.632
 8322SOL     OW25864   2.362   0.572   1.609
 8322SOL    HW125865   2.394   0.625   1.688
 8322SOL    HW225866   2.265   0.588   1.596
 8323SOL     OW25867   5.920   5.268   6.739
 8323SOL    HW125868   5.850   5.322   6.785
 8323SOL    HW225869   5.922   5.292   6.642
 8324SOL     OW25870   6.065   6.196   6.170
 8324SOL    HW125871   6.129   6.272   6.164
 8324SOL    HW225872   5.973   6.228   6.147
 8325SOL     OW25873   1.755   6.194   4.767
 8325SOL    HW125874   1.743   6.148   4.679
 8325SOL    HW225875   1.668   6.198   4.816
 8326SOL     OW25876   2.772   1.146   6.501
 8326SOL    HW125877   2.767   1.151   6.601
 8326SOL    HW225878   2.865   1.126   6.473
 8327SOL     OW25879   0.803   5.487   5.504
 8327SOL    HW125880   0.801   5.489   5.404
 8327SOL    HW225881   0.799   5.393   5.536
 8328SOL     OW25882   1.298   0.571   0.227
 8328SOL    HW125883   1.397   0.554   0.233
 8328SOL    HW225884   1.249   0.494   0.267
 8329SOL     OW25885   1.798   2.452   5.374
 8329SOL    HW125886   1.742   2.533   5.354
 8329SOL    HW225887   1.739   2.371   5.378
 8330SOL     OW25888   3.364   6.380   0.244
 8330SOL    HW125889   3.375   6.461   0.187
 8330SOL    HW225890   3.275   6.338   0.226
 8331SOL     OW25891   2.189   2.147   5.832
 8331SOL    HW125892   2.136   2.231   5.842
 8331SOL    HW225893   2.182   2.093   5.915
 8332SOL     OW25894   5.407   4.295   0.817
 8332SOL    HW125895   5.320   4.291   0.767
 8332SOL    HW225896   5.424   4.207   0.860
 8333SOL     OW25897   2.532   4.351   6.580
 8333SOL    HW125898   2.503   4.269   6.629
 8333SOL    HW225899   2.462   4.376   6.513
 8334SOL     OW25900   3.150   2.663   5.358
 8334SOL    HW125901   3.181   2.580   5.312
 8334SOL    HW225902   3.178   2.743   5.305
 8335SOL     OW25903   5.915   3.351   6.348
 8335SOL    HW125904   5.822   3.389   6.349
 8335SOL    HW225905   5.962   3.380   6.264
 8336SOL     OW25906   1.179   4.893   3.946
 8336SOL    HW125907   1.088   4.921   3.976
 8336SOL    HW225908   1.171   4.823   3.876
 8337SOL     OW25909   6.047   0.189   3.940
 8337SOL    HW125910   6.073   0.165   4.034
 8337SOL    HW225911   6.068   0.113   3.879
 8338SOL     OW25912   2.776   5.378   1.378
 8338SOL    HW125913   2.832   5.461   1.373
 8338SOL    HW225914   2.820   5.305   1.326
 8339SOL     OW25915   0.129   0.351   1.904
 8339SOL    HW125916   0.053   0.285   1.902
 8339SOL    HW225917   0.206   0.310   1.952
 8340SOL     OW25918   6.237   2.789   6.289
 8340SOL    HW125919   6.165   2.846   6.328
 8340SOL    HW225920   6.305   2.768   6.360
 8341SOL     OW25921   3.179   6.837   1.126
 8341SOL    HW125922   3.192   6.830   1.225
 8341SOL    HW225923   3.237   6.770   1.080
 8342SOL     OW25924   3.795   0.997   1.127
 8342SOL    HW125925   3.821   1.026   1.035
 8342SOL    HW225926   3.705   0.954   1.124
 8343SOL     OW25927   4.739   6.107   2.905
 8343SOL    HW125928   4.797   6.109   2.823
 8343SOL    HW225929   4.660   6.047   2.889
 8344SOL     OW25930   2.275   4.650   5.554
 8344SOL    HW125931   2.278   4.736   5.606
 8344SOL    HW225932   2.344   4.653   5.481
 8345SOL     OW25933   6.177   0.155   4.173
 8345SOL    HW125934   6.097   0.129   4.227
 8345SOL    HW225935   6.257   0.164   4.233
 8346SOL     OW25936   5.620   4.205   3.531
 8346SOL    HW125937   5.566   4.158   3.461
 8346SOL    HW225938   5.695   4.146   3.560
 8347SOL     OW25939   1.223   1.277   6.481
 8347SOL    HW125940   1.209   1.301   6.385
 8347SOL    HW225941   1.199   1.182   6.496
 8348SOL     OW25942   3.498   5.840   0.929
 8348SOL    HW125943   3.419   5.823   0.988
 8348SOL    HW225944   3.578   5.863   0.985
 8349SOL     OW25945   4.232   5.729   1.156
 8349SOL    HW125946   4.164   5.714   1.084
 8349SOL    HW225947   4.239   5.827   1.175
 8350SOL     OW25948   2.231   0.306   6.680
 8350SOL    HW125949   2.240   0.402   6.654
 8350SOL    HW225950   2.230   0.249   6.599
 8351SOL     OW25951   6.859   3.283   2.878
 8351SOL    HW125952   6.850   3.342   2.959
 8351SOL    HW225953   6.865   3.188   2.907
 8352SOL     OW25954   2.314   6.696   5.795
 8352SOL    HW125955   2.338   6.763   5.725
 8352SOL    HW225956   2.278   6.743   5.876
 8353SOL     OW25957   0.515   5.832   2.401
 8353SOL    HW125958   0.588   5.809   2.336
 8353SOL    HW225959   0.544   5.909   2.458
 8354SOL     OW25960   4.624   2.379   3.466
 8354SOL    HW125961   4.724   2.377   3.471
 8354SOL    HW225962   4.587   2.420   3.549
 8355SOL     OW25963   3.292   4.766   5.898
 8355SOL    HW125964   3.331   4.723   5.979
 8355SOL    HW225965   3.247   4.851   5.924
 8356SOL     OW25966   2.974   2.774   1.681
 8356SOL    HW125967   2.875   2.788   1.680
 8356SOL    HW225968   2.995   2.677   1.694
 8357SOL     OW25969   2.708   6.889   4.843
 8357SOL    HW125970   2.659   6.819   4.791
 8357SOL    HW225971   2.679   6.887   4.938
 8358SOL     OW25972   6.969   0.584   4.340
 8358SOL    HW125973   6.971   0.683   4.323
 8358SOL    HW225974   6.889   0.545   4.294
 8359SOL     OW25975   4.780   2.144   4.787
 8359SOL    HW125976   4.833   2.151   4.702
 8359SOL    HW225977   4.788   2.052   4.823
 8360SOL     OW25978   2.946   0.279   2.533
 8360SOL    HW125979   2.967   0.210   2.464
 8360SOL    HW225980   2.960   0.371   2.494
 8361SOL     OW25981   4.709   1.218   0.344
 8361SOL    HW125982   4.724   1.260   0.255
 8361SOL    HW225983   4.769   1.139   0.354
 8362SOL     OW25984   0.660   4.791   1.570
 8362SOL    HW125985   0.732   4.774   1.636
 8362SOL    HW225986   0.572   4.761   1.607
 8363SOL     OW25987   2.182   2.045   0.888
 8363SOL    HW125988   2.206   1.973   0.822
 8363SOL    HW225989   2.085   2.065   0.881
 8364SOL     OW25990   0.381   1.047   3.531
 8364SOL    HW125991   0.358   1.043   3.628
 8364SOL    HW225992   0.465   0.996   3.515
 8365SOL     OW25993   1.821   2.923   0.906
 8365SOL    HW125994   1.779   2.999   0.856
 8365SOL    HW225995   1.899   2.888   0.854
 8366SOL     OW25996   4.964   5.894   1.922
 8366SOL    HW125997   5.017   5.934   1.847
 8366SOL    HW225998   4.933   5.802   1.896
 8367SOL     OW25999   1.954   4.498   3.575
 8367SOL    HW126000   1.953   4.587   3.621
 8367SOL    HW226001   1.971   4.426   3.642
 8368SOL     OW26002   0.980   3.274   6.358
 8368SOL    HW126003   0.926   3.279   6.274
 8368SOL    HW226004   0.923   3.240   6.432
 8369SOL     OW26005   1.205   0.342   0.358
 8369SOL    HW126006   1.185   0.356   0.455
 8369SOL    HW226007   1.268   0.266   0.347
 8370SOL     OW26008   2.882   2.584   0.549
 8370SOL    HW126009   2.905   2.547   0.459
 8370SOL    HW226010   2.840   2.674   0.538
 8371SOL     OW26011   3.047   4.347   5.563
 8371SOL    HW126012   2.994   4.427   5.590
 8371SOL    HW226013   3.096   4.366   5.477
 8372SOL     OW26014   1.653   6.959   2.736
 8372SOL    HW126015   1.705   6.875   2.753
 8372SOL    HW226016   1.676   0.002   2.805
 8373SOL     OW26017   5.421   0.747   4.311
 8373SOL    HW126018   5.416   0.650   4.336
 8373SOL    HW226019   5.425   0.802   4.394
 8374SOL     OW26020   0.909   1.981   3.426
 8374SOL    HW126021   0.979   1.914   3.401
 8374SOL    HW226022   0.949   2.073   3.426
 8375SOL     OW26023   1.906   2.738   5.989
 8375SOL    HW126024   1.933   2.651   6.029
 8375SOL    HW226025   1.926   2.738   5.892
 8376SOL     OW26026   0.651   1.619   3.962
 8376SOL    HW126027   0.611   1.675   4.034
 8376SOL    HW226028   0.579   1.565   3.918
 8377SOL     OW26029   3.383   4.758   1.152
 8377SOL    HW126030   3.294   4.790   1.186
 8377SOL    HW226031   3.412   4.815   1.075
 8378SOL     OW26032   4.498   5.672   4.765
 8378SOL    HW126033   4.461   5.643   4.853
 8378SOL    HW226034   4.430   5.728   4.718
 8379SOL     OW26035   5.576   2.762   1.956
 8379SOL    HW126036   5.651   2.697   1.962
 8379SOL    HW226037   5.493   2.715   1.924
 8380SOL     OW26038   1.861   5.161   3.145
 8380SOL    HW126039   1.791   5.205   3.088
 8380SOL    HW226040   1.816   5.113   3.221
 8381SOL     OW26041   1.313   2.300   2.587
 8381SOL    HW126042   1.275   2.384   2.627
 8381SOL    HW226043   1.404   2.284   2.626
 8382SOL     OW26044   1.430   0.269   1.841
 8382SOL    HW126045   1.419   0.369   1.841
 8382SOL    HW226046   1.396   0.232   1.755
 8383SOL     OW26047   2.171   6.934   5.028
 8383SOL    HW126048   2.224   6.930   4.944
 8383SOL    HW226049   2.089   6.990   5.013
 8384SOL     OW26050   0.444   3.936   3.589
 8384SOL    HW126051   0.513   3.966   3.655
 8384SOL    HW226052   0.354   3.932   3.633
 8385SOL     OW26053   4.514   2.391   2.351
 8385SOL    HW126054   4.465   2.308   2.378
 8385SOL    HW226055   4.515   2.399   2.252
 8386SOL     OW26056   6.892   5.571   1.632
 8386SOL    HW126057   6.837   5.614   1.704
 8386SOL    HW226058   6.832   5.518   1.571
 8387SOL     OW26059   0.233   1.802   3.428
 8387SOL    HW126060   0.286   1.844   3.502
 8387SOL    HW226061   0.163   1.866   3.397
 8388SOL     OW26062   3.836   5.631   2.102
 8388SOL    HW126063   3.894   5.556   2.133
 8388SOL    HW226064   3.773   5.598   2.032
 8389SOL     OW26065   1.276   2.711   4.520
 8389SOL    HW126066   1.261   2.793   4.575
 8389SOL    HW226067   1.374   2.702   4.500
 8390SOL     OW26068   1.847   0.151   6.308
 8390SOL    HW126069   1.759   0.104   6.300
 8390SOL    HW226070   1.870   0.162   6.405
 8391SOL     OW26071   4.815   6.298   0.825
 8391SOL    HW126072   4.831   6.221   0.887
 8391SOL    HW226073   4.729   6.343   0.849
 8392SOL     OW26074   3.934   5.476   0.300
 8392SOL    HW126075   3.946   5.385   0.260
 8392SOL    HW226076   3.910   5.541   0.228
 8393SOL     OW26077   1.433   6.346   1.819
 8393SOL    HW126078   1.476   6.317   1.904
 8393SOL    HW226079   1.351   6.292   1.803
 8394SOL     OW26080   1.832   1.174   3.488
 8394SOL    HW126081   1.785   1.262   3.491
 8394SOL    HW226082   1.766   1.100   3.491
 8395SOL     OW26083   2.464   5.877   6.277
 8395SOL    HW126084   2.439   5.973   6.266
 8395SOL    HW226085   2.476   5.835   6.188
 8396SOL     OW26086   4.371   2.065   0.862
 8396SOL    HW126087   4.283   2.054   0.816
 8396SOL    HW226088   4.399   2.161   0.857
 8397SOL     OW26089   0.539   4.262   3.375
 8397SOL    HW126090   0.534   4.169   3.337
 8397SOL    HW226091   0.482   4.267   3.457
 8398SOL     OW26092   5.525   1.170   6.889
 8398SOL    HW126093   5.557   1.223   6.811
 8398SOL    HW226094   5.457   1.103   6.859
 8399SOL     OW26095   5.749   6.340   5.322
 8399SOL    HW126096   5.833   6.288   5.312
 8399SOL    HW226097   5.692   6.299   5.393
 8400SOL     OW26098   5.976   6.125   3.334
 8400SOL    HW126099   6.061   6.110   3.285
 8400SOL    HW226100   5.995   6.161   3.425
 8401SOL     OW26101   3.035   3.596   5.230
 8401SOL    HW126102   3.004   3.503   5.246
 8401SOL    HW226103   2.978   3.639   5.160
 8402SOL     OW26104   5.142   1.115   5.311
 8402SOL    HW126105   5.217   1.148   5.254
 8402SOL    HW226106   5.144   1.015   5.313
 8403SOL     OW26107   0.612   2.032   6.241
 8403SOL    HW126108   0.711   2.025   6.254
 8403SOL    HW226109   0.566   2.031   6.330
 8404SOL     OW26110   4.858   4.915   5.567
 8404SOL    HW126111   4.922   4.989   5.588
 8404SOL    HW226112   4.772   4.953   5.534
 8405SOL     OW26113   0.829   2.746   6.063
 8405SOL    HW126114   0.852   2.803   6.142
 8405SOL    HW226115   0.885   2.663   6.066
 8406SOL     OW26116   5.666   3.930   1.239
 8406SOL    HW126117   5.570   3.915   1.264
 8406SOL    HW226118   5.725   3.881   1.303
 8407SOL     OW26119   4.982   3.804   2.429
 8407SOL    HW126120   4.947   3.872   2.493
 8407SOL    HW226121   4.924   3.722   2.432
 8408SOL     OW26122   4.840   4.223   4.082
 8408SOL    HW126123   4.837   4.139   4.136
 8408SOL    HW226124   4.909   4.284   4.120
 8409SOL     OW26125   2.105   2.166   3.689
 8409SOL    HW126126   2.050   2.243   3.720
 8409SOL    HW226127   2.092   2.154   3.590
 8410SOL     OW26128   2.111   5.093   2.548
 8410SOL    HW126129   2.114   5.106   2.647
 8410SOL    HW226130   2.196   5.048   2.518
 8411SOL     OW26131   1.774   3.358   2.887
 8411SOL    HW126132   1.811   3.449   2.903
 8411SOL    HW226133   1.715   3.359   2.807
 8412SOL     OW26134   5.932   2.692   2.436
 8412SOL    HW126135   5.886   2.776   2.465
 8412SOL    HW226136   5.879   2.648   2.364
 8413SOL     OW26137   2.301   5.803   1.533
 8413SOL    HW126138   2.237   5.866   1.489
 8413SOL    HW226139   2.368   5.771   1.465
 8414SOL     OW26140   6.044   0.531   3.978
 8414SOL    HW126141   6.123   0.517   4.039
 8414SOL    HW226142   5.975   0.586   4.025
 8415SOL     OW26143   0.274   5.286   1.050
 8415SOL    HW126144   0.283   5.365   1.110
 8415SOL    HW226145   0.346   5.220   1.070
 8416SOL     OW26146   4.360   4.570   3.334
 8416SOL    HW126147   4.435   4.635   3.347
 8416SOL    HW226148   4.398   4.478   3.318
 8417SOL     OW26149   1.159   5.470   0.314
 8417SOL    HW126150   1.076   5.516   0.346
 8417SOL    HW226151   1.149   5.447   0.217
 8418SOL     OW26152   5.196   5.687   2.627
 8418SOL    HW126153   5.190   5.774   2.676
 8418SOL    HW226154   5.190   5.612   2.692
 8419SOL     OW26155   3.568   1.407   3.432
 8419SOL    HW126156   3.550   1.355   3.349
 8419SOL    HW226157   3.600   1.345   3.504
 8420SOL     OW26158   4.812   1.773   5.339
 8420SOL    HW126159   4.738   1.830   5.303
 8420SOL    HW226160   4.813   1.779   5.439
 8421SOL     OW26161   0.403   0.755   0.659
 8421SOL    HW126162   0.466   0.814   0.609
 8421SOL    HW226163   0.442   0.663   0.667
 8422SOL     OW26164   2.572   0.582   1.826
 8422SOL    HW126165   2.630   0.510   1.865
 8422SOL    HW226166   2.623   0.631   1.755
 8423SOL     OW26167   2.089   4.511   1.084
 8423SOL    HW126168   2.029   4.564   1.143
 8423SOL    HW226169   2.036   4.441   1.036
 8424SOL     OW26170   2.662   2.303   1.886
 8424SOL    HW126171   2.741   2.327   1.942
 8424SOL    HW226172   2.640   2.206   1.899
 8425SOL     OW26173   0.752   4.788   5.854
 8425SOL    HW126174   0.842   4.749   5.838
 8425SOL    HW226175   0.761   4.883   5.882
 8426SOL     OW26176   3.615   3.186   2.491
 8426SOL    HW126177   3.566   3.215   2.408
 8426SOL    HW226178   3.702   3.145   2.465
 8427SOL     OW26179   2.225   1.664   6.822
 8427SOL    HW126180   2.317   1.699   6.807
 8427SOL    HW226181   2.225   1.564   6.812
 8428SOL     OW26182   5.985   3.707   0.766
 8428SOL    HW126183   6.017   3.789   0.718
 8428SOL    HW226184   6.062   3.666   0.816
 8429SOL     OW26185   1.261   6.668   2.915
 8429SOL    HW126186   1.347   6.720   2.920
 8429SOL    HW226187   1.239   6.650   2.819
 8430SOL     OW26188   3.677   6.043   2.736
 8430SOL    HW126189   3.702   5.972   2.802
 8430SOL    HW226190   3.678   6.132   2.781
 8431SOL     OW26191   2.990   3.167   2.514
 8431SOL    HW126192   3.075   3.114   2.509
 8431SOL    HW226193   2.923   3.128   2.451
 8432SOL     OW26194   4.501   6.022   7.003
 8432SOL    HW126195   4.576   6.004   0.041
 8432SOL    HW226196   4.423   5.964   0.001
 8433SOL     OW26197   6.789   1.611   3.961
 8433SOL    HW126198   6.878   1.586   3.924
 8433SOL    HW226199   6.783   1.584   4.057
 8434SOL     OW26200   5.592   6.429   6.731
 8434SOL    HW126201   5.684   6.413   6.768
 8434SOL    HW226202   5.563   6.522   6.753
 8435SOL     OW26203   4.553   3.153   0.872
 8435SOL    HW126204   4.631   3.191   0.920
 8435SOL    HW226205   4.501   3.093   0.933
 8436SOL     OW26206   2.945   4.284   1.726
 8436SOL    HW126207   2.954   4.369   1.779
 8436SOL    HW226208   3.009   4.216   1.762
 8437SOL     OW26209   0.193   2.760   1.217
 8437SOL    HW126210   0.261   2.687   1.224
 8437SOL    HW226211   0.103   2.723   1.239
 8438SOL     OW26212   1.943   5.461   1.501
 8438SOL    HW126213   1.877   5.454   1.576
 8438SOL    HW226214   2.017   5.522   1.527
 8439SOL     OW26215   5.698   0.471   1.782
 8439SOL    HW126216   5.763   0.485   1.707
 8439SOL    HW226217   5.605   0.479   1.748
 8440SOL     OW26218   1.090   3.426   4.545
 8440SOL    HW126219   1.019   3.454   4.481
 8440SOL    HW226220   1.167   3.490   4.540
 8441SOL     OW26221   3.870   5.811   1.255
 8441SOL    HW126222   3.832   5.721   1.277
 8441SOL    HW226223   3.906   5.853   1.338
 8442SOL     OW26224   2.008   2.555   0.525
 8442SOL    HW126225   2.022   2.508   0.437
 8442SOL    HW226226   1.915   2.591   0.528
 8443SOL     OW26227   0.116   2.423   1.417
 8443SOL    HW126228   0.110   2.333   1.461
 8443SOL    HW226229   0.142   2.492   1.484
 8444SOL     OW26230   4.953   2.027   3.226
 8444SOL    HW126231   4.932   2.104   3.166
 8444SOL    HW226232   5.042   1.989   3.201
 8445SOL     OW26233   4.449   5.579   2.299
 8445SOL    HW126234   4.510   5.626   2.235
 8445SOL    HW226235   4.357   5.619   2.292
 8446SOL     OW26236   6.595   3.840   3.017
 8446SOL    HW126237   6.664   3.797   3.075
 8446SOL    HW226238   6.533   3.771   2.982
 8447SOL     OW26239   4.842   4.548   1.388
 8447SOL    HW126240   4.778   4.553   1.311
 8447SOL    HW226241   4.810   4.480   1.454
 8448SOL     OW26242   2.006   4.509   5.736
 8448SOL    HW126243   2.037   4.489   5.643
 8448SOL    HW226244   1.909   4.531   5.735
 8449SOL     OW26245   1.175   0.362   5.111
 8449SOL    HW126246   1.151   0.268   5.086
 8449SOL    HW226247   1.173   0.420   5.029
 8450SOL     OW26248   1.559   5.113   0.726
 8450SOL    HW126249   1.576   5.205   0.760
 8450SOL    HW226250   1.588   5.046   0.795
 8451SOL     OW26251   2.916   4.333   1.190
 8451SOL    HW126252   2.847   4.261   1.190
 8451SOL    HW226253   2.926   4.370   1.097
 8452SOL     OW26254   6.305   5.645   2.559
 8452SOL    HW126255   6.294   5.566   2.620
 8452SOL    HW226256   6.288   5.729   2.610
 8453SOL     OW26257   0.355   4.931   5.438
 8453SOL    HW126258   0.332   4.842   5.477
 8453SOL    HW226259   0.319   5.004   5.496
 8454SOL     OW26260   2.041   0.034   5.295
 8454SOL    HW126261   2.013   6.965   5.308
 8454SOL    HW226262   2.139   0.042   5.314
 8455SOL     OW26263   6.106   2.643   0.739
 8455SOL    HW126264   6.060   2.568   0.691
 8455SOL    HW226265   6.202   2.621   0.753
 8456SOL     OW26266   5.723   4.816   3.616
 8456SOL    HW126267   5.648   4.752   3.601
 8456SOL    HW226268   5.800   4.792   3.557
 8457SOL     OW26269   6.231   6.152   6.431
 8457SOL    HW126270   6.234   6.234   6.375
 8457SOL    HW226271   6.209   6.073   6.374
 8458SOL     OW26272   1.408   1.830   1.028
 8458SOL    HW126273   1.360   1.797   1.109
 8458SOL    HW226274   1.355   1.905   0.987
 8459SOL     OW26275   2.789   5.082   3.346
 8459SOL    HW126276   2.727   5.042   3.414
 8459SOL    HW226277   2.839   5.158   3.387
 8460SOL     OW26278   3.700   1.232   1.276
 8460SOL    HW126279   3.731   1.138   1.266
 8460SOL    HW226280   3.772   1.287   1.318
 8461SOL     OW26281   5.515   4.176   3.259
 8461SOL    HW126282   5.417   4.188   3.247
 8461SOL    HW226283   5.544   4.090   3.217
 8462SOL     OW26284   1.759   4.059   0.956
 8462SOL    HW126285   1.821   4.090   1.028
 8462SOL    HW226286   1.812   4.024   0.879
 8463SOL     OW26287   6.995   6.779   1.583
 8463SOL    HW126288   6.951   6.861   1.621
 8463SOL    HW226289   0.049   6.806   1.529
 8464SOL     OW26290   0.223   3.173   6.760
 8464SOL    HW126291   0.201   3.139   6.668
 8464SOL    HW226292   0.281   3.108   6.807
 8465SOL     OW26293   5.559   4.532   0.551
 8465SOL    HW126294   5.524   4.574   0.467
 8465SOL    HW226295   5.511   4.570   0.630
 8466SOL     OW26296   0.858   1.466   5.041
 8466SOL    HW126297   0.791   1.513   4.983
 8466SOL    HW226298   0.896   1.388   4.992
 8467SOL     OW26299   3.232   1.248   0.705
 8467SOL    HW126300   3.208   1.341   0.677
 8467SOL    HW226301   3.300   1.252   0.778
 8468SOL     OW26302   6.256   4.195   0.783
 8468SOL    HW126303   6.333   4.133   0.767
 8468SOL    HW226304   6.219   4.180   0.874
 8469SOL     OW26305   3.433   2.963   5.224
 8469SOL    HW126306   3.451   2.954   5.322
 8469SOL    HW226307   3.348   2.916   5.201
 8470SOL     OW26308   2.198   5.261   1.246
 8470SOL    HW126309   2.274   5.285   1.306
 8470SOL    HW226310   2.176   5.339   1.187
 8471SOL     OW26311   4.059   1.520   3.985
 8471SOL    HW126312   4.077   1.449   3.916
 8471SOL    HW226313   4.127   1.513   4.058
 8472SOL     OW26314   5.940   1.681   6.754
 8472SOL    HW126315   5.939   1.763   6.812
 8472SOL    HW226316   5.860   1.625   6.775
 8473SOL     OW26317   4.691   4.832   5.852
 8473SOL    HW126318   4.723   4.776   5.929
 8473SOL    HW226319   4.731   4.798   5.767
 8474SOL     OW26320   3.695   3.426   5.725
 8474SOL    HW126321   3.652   3.366   5.793
 8474SOL    HW226322   3.780   3.383   5.692
 8475SOL     OW26323   0.421   1.879   2.761
 8475SOL    HW126324   0.411   1.792   2.809
 8475SOL    HW226325   0.332   1.909   2.727
 8476SOL     OW26326   6.992   0.922   2.350
 8476SOL    HW126327   6.988   0.851   2.421
 8476SOL    HW226328   0.038   0.987   2.373
 8477SOL     OW26329   5.628   6.889   0.912
 8477SOL    HW126330   5.635   6.972   0.858
 8477SOL    HW226331   5.557   6.829   0.874
 8478SOL     OW26332   1.717   6.525   6.876
 8478SOL    HW126333   1.626   6.494   6.849
 8478SOL    HW226334   1.757   6.458   6.939
 8479SOL     OW26335   0.872   2.514   6.978
 8479SOL    HW126336   0.898   2.505   0.049
 8479SOL    HW226337   0.824   2.431   6.949
 8480SOL     OW26338   3.300   4.280   1.592
 8480SOL    HW126339   3.305   4.379   1.605
 8480SOL    HW226340   3.220   4.258   1.536
 8481SOL     OW26341   4.890   3.449   2.419
 8481SOL    HW126342   4.844   3.367   2.452
 8481SOL    HW226343   4.837   3.489   2.345
 8482SOL     OW26344   5.005   0.596   5.468
 8482SOL    HW126345   4.967   0.674   5.420
 8482SOL    HW226346   5.085   0.625   5.521
 8483SOL     OW26347   4.514   5.455   3.735
 8483SOL    HW126348   4.585   5.450   3.665
 8483SOL    HW226349   4.506   5.366   3.780
 8484SOL     OW26350   6.650   6.931   5.128
 8484SOL    HW126351   6.658   6.928   5.228
 8484SOL    HW226352   6.655   6.839   5.091
 8485SOL     OW26353   3.777   0.458   5.700
 8485SOL    HW126354   3.864   0.507   5.710
 8485SOL    HW226355   3.717   0.479   5.776
 8486SOL     OW26356   4.832   2.496   4.483
 8486SOL    HW126357   4.828   2.490   4.582
 8486SOL    HW226358   4.760   2.557   4.450
 8487SOL     OW26359   0.034   2.036   5.771
 8487SOL    HW126360   0.111   1.983   5.807
 8487SOL    HW226361   0.005   2.103   5.840
 8488SOL     OW26362   4.015   5.099   3.175
 8488SOL    HW126363   3.987   5.147   3.092
 8488SOL    HW226364   4.063   5.014   3.150
 8489SOL     OW26365   6.597   2.186   2.126
 8489SOL    HW126366   6.527   2.212   2.059
 8489SOL    HW226367   6.685   2.176   2.079
 8490SOL     OW26368   3.845   6.521   0.384
 8490SOL    HW126369   3.807   6.438   0.342
 8490SOL    HW226370   3.945   6.515   0.385
 8491SOL     OW26371   3.373   6.023   2.682
 8491SOL    HW126372   3.468   5.992   2.671
 8491SOL    HW226373   3.332   6.039   2.593
 8492SOL     OW26374   5.446   0.017   4.096
 8492SOL    HW126375   5.393   6.972   4.142
 8492SOL    HW226376   5.400   0.044   4.011
 8493SOL     OW26377   5.295   0.365   5.673
 8493SOL    HW126378   5.328   0.442   5.727
 8493SOL    HW226379   5.199   0.347   5.694
 8494SOL     OW26380   6.926   3.716   2.297
 8494SOL    HW126381   6.943   3.668   2.210
 8494SOL    HW226382   6.860   3.664   2.351
 8495SOL     OW26383   5.175   6.080   5.188
 8495SOL    HW126384   5.123   6.034   5.260
 8495SOL    HW226385   5.269   6.094   5.218
 8496SOL     OW26386   4.023   2.116   2.651
 8496SOL    HW126387   4.030   2.080   2.744
 8496SOL    HW226388   4.053   2.212   2.651
 8497SOL     OW26389   6.317   0.628   3.061
 8497SOL    HW126390   6.285   0.722   3.071
 8497SOL    HW226391   6.349   0.613   2.967
 8498SOL     OW26392   4.705   6.701   4.211
 8498SOL    HW126393   4.761   6.687   4.129
 8498SOL    HW226394   4.765   6.723   4.289
 8499SOL     OW26395   6.323   0.038   5.525
 8499SOL    HW126396   6.282   7.003   5.456
 8499SOL    HW226397   6.350   7.010   5.605
 8500SOL     OW26398   0.994   0.736   6.625
 8500SOL    HW126399   1.076   0.684   6.646
 8500SOL    HW226400   0.913   0.683   6.648
 8501SOL     OW26401   3.673   0.910   5.342
 8501SOL    HW126402   3.677   0.991   5.282
 8501SOL    HW226403   3.633   0.936   5.430
 8502SOL     OW26404   6.542   2.936   0.160
 8502SOL    HW126405   6.568   2.995   0.237
 8502SOL    HW226406   6.443   2.927   0.157
 8503SOL     OW26407   4.354   1.989   5.696
 8503SOL    HW126408   4.335   1.891   5.693
 8503SOL    HW226409   4.368   2.023   5.603
 8504SOL     OW26410   1.184   0.556   3.355
 8504SOL    HW126411   1.089   0.550   3.383
 8504SOL    HW226412   1.191   0.611   3.272
 8505SOL     OW26413   5.719   2.048   2.718
 8505SOL    HW126414   5.732   1.964   2.771
 8505SOL    HW226415   5.669   2.115   2.774
 8506SOL     OW26416   2.112   0.796   5.011
 8506SOL    HW126417   2.207   0.766   5.017
 8506SOL    HW226418   2.101   0.881   5.062
 8507SOL     OW26419   4.569   4.548   6.544
 8507SOL    HW126420   4.583   4.458   6.584
 8507SOL    HW226421   4.651   4.604   6.555
 8508SOL     OW26422   3.800   0.582   6.258
 8508SOL    HW126423   3.894   0.576   6.291
 8508SOL    HW226424   3.743   0.514   6.304
 8509SOL     OW26425   4.413   2.012   2.317
 8509SOL    HW126426   4.460   1.966   2.393
 8509SOL    HW226427   4.375   2.099   2.349
 8510SOL     OW26428   0.894   1.987   4.701
 8510SOL    HW126429   0.994   1.979   4.709
 8510SOL    HW226430   0.855   2.007   4.791
 8511SOL     OW26431   5.498   2.282   4.111
 8511SOL    HW126432   5.470   2.317   4.201
 8511SOL    HW226433   5.549   2.197   4.123
 8512SOL     OW26434   1.710   6.302   6.163
 8512SOL    HW126435   1.613   6.326   6.168
 8512SOL    HW226436   1.753   6.353   6.089
 8513SOL     OW26437   4.081   5.568   6.668
 8513SOL    HW126438   4.166   5.549   6.619
 8513SOL    HW226439   4.066   5.497   6.737
 8514SOL     OW26440   4.110   5.633   4.466
 8514SOL    HW126441   4.127   5.604   4.561
 8514SOL    HW226442   4.090   5.553   4.410
 8515SOL     OW26443   5.281   3.189   1.610
 8515SOL    HW126444   5.242   3.097   1.610
 8515SOL    HW226445   5.377   3.185   1.582
 8516SOL     OW26446   6.790   2.308   1.344
 8516SOL    HW126447   6.845   2.293   1.427
 8516SOL    HW226448   6.843   2.361   1.278
 8517SOL     OW26449   1.138   4.136   4.373
 8517SOL    HW126450   1.165   4.129   4.469
 8517SOL    HW226451   1.220   4.145   4.316
 8518SOL     OW26452   3.691   5.630   0.635
 8518SOL    HW126453   3.675   5.729   0.637
 8518SOL    HW226454   3.609   5.584   0.601
 8519SOL     OW26455   2.724   5.473   3.550
 8519SOL    HW126456   2.812   5.518   3.565
 8519SOL    HW226457   2.688   5.498   3.460
 8520SOL     OW26458   3.564   5.646   6.600
 8520SOL    HW126459   3.601   5.689   6.517
 8520SOL    HW226460   3.632   5.651   6.673
 8521SOL     OW26461   0.951   0.781   2.715
 8521SOL    HW126462   0.924   0.854   2.778
 8521SOL    HW226463   0.877   0.715   2.706
 8522SOL     OW26464   2.366   6.516   4.335
 8522SOL    HW126465   2.415   6.456   4.272
 8522SOL    HW226466   2.340   6.465   4.417
 8523SOL     OW26467   1.917   6.157   6.698
 8523SOL    HW126468   1.989   6.219   6.728
 8523SOL    HW226469   1.889   6.099   6.775
 8524SOL     OW26470   1.848   1.519   6.976
 8524SOL    HW126471   1.911   1.499   6.901
 8524SOL    HW226472   1.759   1.477   6.957
 8525SOL     OW26473   5.855   4.618   4.403
 8525SOL    HW126474   5.768   4.613   4.453
 8525SOL    HW226475   5.845   4.680   4.325
 8526SOL     OW26476   0.339   3.247   2.062
 8526SOL    HW126477   0.313   3.340   2.086
 8526SOL    HW226478   0.378   3.201   2.141
 8527SOL     OW26479   4.998   0.454   4.809
 8527SOL    HW126480   5.012   0.440   4.907
 8527SOL    HW226481   5.010   0.551   4.787
 8528SOL     OW26482   5.393   0.152   0.265
 8528SOL    HW126483   5.373   0.113   0.175
 8528SOL    HW226484   5.308   0.186   0.306
 8529SOL     OW26485   0.012   0.241   4.689
 8529SOL    HW126486   6.993   0.222   4.777
 8529SOL    HW226487   0.014   0.340   4.674
 8530SOL     OW26488   2.054   4.710   6.245
 8530SOL    HW126489   2.050   4.689   6.148
 8530SOL    HW226490   2.149   4.727   6.271
 8531SOL     OW26491   3.708   5.854   2.929
 8531SOL    HW126492   3.733   5.758   2.930
 8531SOL    HW226493   3.760   5.903   2.999
 8532SOL     OW26494   1.411   4.068   6.796
 8532SOL    HW126495   1.372   4.003   6.861
 8532SOL    HW226496   1.432   4.021   6.711
 8533SOL     OW26497   3.062   0.200   6.013
 8533SOL    HW126498   3.114   0.263   6.072
 8533SOL    HW226499   3.011   0.135   6.070
 8534SOL     OW26500   2.333   2.295   0.727
 8534SOL    HW126501   2.381   2.382   0.725
 8534SOL    HW226502   2.251   2.303   0.784
 8535SOL     OW26503   0.207   2.776   5.935
 8535SOL    HW126504   0.274   2.703   5.952
 8535SOL    HW226505   0.239   2.861   5.976
 8536SOL     OW26506   6.334   0.600   5.933
 8536SOL    HW126507   6.423   0.644   5.945
 8536SOL    HW226508   6.261   0.665   5.953
 8537SOL     OW26509   3.804   6.315   3.269
 8537SOL    HW126510   3.798   6.353   3.361
 8537SOL    HW226511   3.737   6.360   3.210
 8538SOL     OW26512   4.185   1.157   4.986
 8538SOL    HW126513   4.222   1.247   4.961
 8538SOL    HW226514   4.198   1.141   5.084
 8539SOL     OW26515   0.875   3.190   3.221
 8539SOL    HW126516   0.810   3.223   3.152
 8539SOL    HW226517   0.852   3.096   3.245
 8540SOL     OW26518   5.059   6.011   6.016
 8540SOL    HW126519   5.061   5.914   6.041
 8540SOL    HW226520   5.079   6.021   5.918
 8541SOL     OW26521   3.344   5.840   5.500
 8541SOL    HW126522   3.245   5.827   5.487
 8541SOL    HW226523   3.361   5.934   5.529
 8542SOL     OW26524   2.300   4.791   6.275
 8542SOL    HW126525   2.368   4.814   6.344
 8542SOL    HW226526   2.339   4.805   6.184
 8543SOL     OW26527   3.547   1.438   5.207
 8543SOL    HW126528   3.459   1.458   5.165
 8543SOL    HW226529   3.540   1.451   5.306
 8544SOL     OW26530   5.164   3.696   5.764
 8544SOL    HW126531   5.199   3.782   5.726
 8544SOL    HW226532   5.230   3.623   5.749
 8545SOL     OW26533   2.300   0.450   5.892
 8545SOL    HW126534   2.272   0.536   5.849
 8545SOL    HW226535   2.218   0.398   5.918
 8546SOL     OW26536   2.901   1.378   4.304
 8546SOL    HW126537   2.918   1.379   4.403
 8546SOL    HW226538   2.804   1.395   4.287
 8547SOL     OW26539   5.814   5.495   5.476
 8547SOL    HW126540   5.767   5.409   5.494
 8547SOL    HW226541   5.746   5.568   5.467
 8548SOL     OW26542   1.488   4.250   4.513
 8548SOL    HW126543   1.567   4.297   4.553
 8548SOL    HW226544   1.435   4.315   4.459
 8549SOL     OW26545   3.008   0.518   3.559
 8549SOL    HW126546   3.076   0.448   3.581
 8549SOL    HW226547   3.053   0.607   3.551
 8550SOL     OW26548   0.586   3.475   4.984
 8550SOL    HW126549   0.646   3.441   5.056
 8550SOL    HW226550   0.557   3.398   4.927
 8551SOL     OW26551   3.732   1.426   3.747
 8551SOL    HW126552   3.800   1.475   3.693
 8551SOL    HW226553   3.653   1.485   3.763
 8552SOL     OW26554   4.342   1.478   1.753
 8552SOL    HW126555   4.278   1.521   1.816
 8552SOL    HW226556   4.385   1.548   1.696
 8553SOL     OW26557   5.265   3.465   0.268
 8553SOL    HW126558   5.344   3.454   0.328
 8553SOL    HW226559   5.197   3.395   0.288
 8554SOL     OW26560   0.904   1.068   6.996
 8554SOL    HW126561   0.847   1.138   0.012
 8554SOL    HW226562   0.972   1.036   0.036
 8555SOL     OW26563   3.263   1.519   3.462
 8555SOL    HW126564   3.325   1.595   3.482
 8555SOL    HW226565   3.273   1.493   3.366
 8556SOL     OW26566   0.360   3.997   5.228
 8556SOL    HW126567   0.420   3.998   5.308
 8556SOL    HW226568   0.415   4.010   5.145
 8557SOL     OW26569   6.386   0.733   0.757
 8557SOL    HW126570   6.407   0.679   0.676
 8557SOL    HW226571   6.362   0.826   0.731
 8558SOL     OW26572   2.448   6.019   3.390
 8558SOL    HW126573   2.521   5.999   3.455
 8558SOL    HW226574   2.465   5.969   3.305
 8559SOL     OW26575   1.447   3.115   3.443
 8559SOL    HW126576   1.422   3.080   3.353
 8559SOL    HW226577   1.389   3.193   3.466
 8560SOL     OW26578   3.572   4.250   1.477
 8560SOL    HW126579   3.647   4.185   1.489
 8560SOL    HW226580   3.492   4.217   1.527
 8561SOL     OW26581   4.154   1.149   2.045
 8561SOL    HW126582   4.181   1.157   1.949
 8561SOL    HW226583   4.111   1.059   2.059
 8562SOL     OW26584   5.593   2.869   6.207
 8562SOL    HW126585   5.591   2.887   6.109
 8562SOL    HW226586   5.511   2.819   6.234
 8563SOL     OW26587   0.671   4.706   2.849
 8563SOL    HW126588   0.594   4.769   2.856
 8563SOL    HW226589   0.659   4.631   2.913
 8564SOL     OW26590   4.330   6.395   6.884
 8564SOL    HW126591   4.236   6.361   6.896
 8564SOL    HW226592   4.354   6.453   6.962
 8565SOL     OW26593   0.933   4.724   1.159
 8565SOL    HW126594   1.001   4.782   1.204
 8565SOL    HW226595   0.914   4.760   1.067
 8566SOL     OW26596   1.838   0.882   3.121
 8566SOL    HW126597   1.885   0.925   3.198
 8566SOL    HW226598   1.805   0.952   3.059
 8567SOL     OW26599   1.591   3.443   0.909
 8567SOL    HW126600   1.535   3.427   0.990
 8567SOL    HW226601   1.536   3.487   0.838
 8568SOL     OW26602   5.626   6.694   6.342
 8568SOL    HW126603   5.542   6.729   6.382
 8568SOL    HW226604   5.662   6.760   6.276
 8569SOL     OW26605   4.569   1.443   6.154
 8569SOL    HW126606   4.528   1.518   6.102
 8569SOL    HW226607   4.639   1.398   6.099
 8570SOL     OW26608   1.567   2.710   4.454
 8570SOL    HW126609   1.606   2.756   4.534
 8570SOL    HW226610   1.640   2.673   4.397
 8571SOL     OW26611   1.234   0.918   3.866
 8571SOL    HW126612   1.268   0.985   3.801
 8571SOL    HW226613   1.134   0.910   3.856
 8572SOL     OW26614   2.623   3.432   6.112
 8572SOL    HW126615   2.687   3.483   6.054
 8572SOL    HW226616   2.666   3.346   6.141
 8573SOL     OW26617   1.828   5.900   6.380
 8573SOL    HW126618   1.832   5.969   6.308
 8573SOL    HW226619   1.831   5.809   6.339
 8574SOL     OW26620   5.634   2.285   5.586
 8574SOL    HW126621   5.678   2.304   5.673
 8574SOL    HW226622   5.625   2.369   5.534
 8575SOL     OW26623   2.595   6.306   4.531
 8575SOL    HW126624   2.540   6.389   4.535
 8575SOL    HW226625   2.600   6.273   4.437
 8576SOL     OW26626   1.405   3.817   5.038
 8576SOL    HW126627   1.407   3.881   4.961
 8576SOL    HW226628   1.496   3.815   5.081
 8577SOL     OW26629   1.697   0.983   0.820
 8577SOL    HW126630   1.613   1.030   0.851
 8577SOL    HW226631   1.772   1.007   0.880
 8578SOL     OW26632   1.329   0.251   5.554
 8578SOL    HW126633   1.329   0.263   5.455
 8578SOL    HW226634   1.384   0.171   5.578
 8579SOL     OW26635   2.822   0.032   2.119
 8579SOL    HW126636   2.884   6.983   2.097
 8579SOL    HW226637   2.728   7.022   2.124
 8580SOL     OW26638   1.701   0.880   1.862
 8580SOL    HW126639   1.640   0.957   1.840
 8580SOL    HW226640   1.664   0.796   1.821
 8581SOL     OW26641   4.046   3.570   3.561
 8581SOL    HW126642   3.961   3.537   3.601
 8581SOL    HW226643   4.112   3.588   3.634
 8582SOL     OW26644   4.880   5.229   5.597
 8582SOL    HW126645   4.827   5.263   5.675
 8582SOL    HW226646   4.912   5.306   5.542
 8583SOL     OW26647   3.091   0.273   2.996
 8583SOL    HW126648   3.005   0.223   3.010
 8583SOL    HW226649   3.167   0.208   2.999
 8584SOL     OW26650   5.603   2.028   5.512
 8584SOL    HW126651   5.614   2.127   5.522
 8584SOL    HW226652   5.692   1.985   5.511
 8585SOL     OW26653   4.886   2.269   3.079
 8585SOL    HW126654   4.787   2.257   3.074
 8585SOL    HW226655   4.914   2.343   3.018
 8586SOL     OW26656   6.673   6.926   5.416
 8586SOL    HW126657   6.771   6.908   5.424
 8586SOL    HW226658   6.626   6.894   5.498
 8587SOL     OW26659   6.960   0.352   1.007
 8587SOL    HW126660   6.864   0.325   1.000
 8587SOL    HW226661   6.997   0.318   1.094
 8588SOL     OW26662   1.683   1.569   5.726
 8588SOL    HW126663   1.771   1.616   5.732
 8588SOL    HW226664   1.687   1.501   5.652
 8589SOL     OW26665   5.734   2.986   6.686
 8589SOL    HW126666   5.712   3.075   6.726
 8589SOL    HW226667   5.706   2.985   6.590
 8590SOL     OW26668   1.099   1.077   3.061
 8590SOL    HW126669   1.042   1.128   2.997
 8590SOL    HW226670   1.042   1.025   3.123
 8591SOL     OW26671   0.799   3.905   5.799
 8591SOL    HW126672   0.885   3.944   5.833
 8591SOL    HW226673   0.772   3.951   5.715
 8592SOL     OW26674   0.195   2.338   4.926
 8592SOL    HW126675   0.157   2.260   4.976
 8592SOL    HW226676   0.290   2.318   4.901
 8593SOL     OW26677   6.401   0.899   0.332
 8593SOL    HW126678   6.496   0.869   0.338
 8593SOL    HW226679   6.360   0.863   0.248
 8594SOL     OW26680   6.124   3.542   6.739
 8594SOL    HW126681   6.034   3.501   6.728
 8594SOL    HW226682   6.118   3.641   6.733
 8595SOL     OW26683   5.523   6.488   2.592
 8595SOL    HW126684   5.452   6.418   2.593
 8595SOL    HW226685   5.493   6.567   2.645
 8596SOL     OW26686   0.444   2.763   5.611
 8596SOL    HW126687   0.356   2.810   5.623
 8596SOL    HW226688   0.428   2.668   5.585
 8597SOL     OW26689   6.452   2.545   5.677
 8597SOL    HW126690   6.523   2.565   5.745
 8597SOL    HW226691   6.495   2.536   5.587
 8598SOL     OW26692   6.967   0.738   5.820
 8598SOL    HW126693   7.002   0.768   5.732
 8598SOL    HW226694   6.949   0.817   5.878
 8599SOL     OW26695   5.581   4.107   4.909
 8599SOL    HW126696   5.528   4.179   4.954
 8599SOL    HW226697   5.521   4.030   4.888
 8600SOL     OW26698   4.105   2.865   1.700
 8600SOL    HW126699   4.195   2.902   1.722
 8600SOL    HW226700   4.104   2.834   1.605
 8601SOL     OW26701   4.286   5.322   2.111
 8601SOL    HW126702   4.277   5.223   2.116
 8601SOL    HW226703   4.352   5.354   2.178
 8602SOL     OW26704   1.997   6.275   4.828
 8602SOL    HW126705   2.047   6.245   4.910
 8602SOL    HW226706   1.918   6.215   4.813
 8603SOL     OW26707   0.997   1.250   0.237
 8603SOL    HW126708   1.005   1.156   0.204
 8603SOL    HW226709   1.072   1.304   0.199
 8604SOL     OW26710   1.565   5.490   5.983
 8604SOL    HW126711   1.602   5.581   6.003
 8604SOL    HW226712   1.636   5.421   5.996
 8605SOL     OW26713   6.501   4.521   4.328
 8605SOL    HW126714   6.426   4.538   4.264
 8605SOL    HW226715   6.502   4.592   4.398
 8606SOL     OW26716   0.843   0.483   6.690
 8606SOL    HW126717   0.828   0.432   6.605
 8606SOL    HW226718   0.757   0.488   6.741
 8607SOL     OW26719   2.753   2.904   1.363
 8607SOL    HW126720   2.770   2.914   1.266
 8607SOL    HW226721   2.773   2.810   1.391
 8608SOL     OW26722   1.994   5.033   1.805
 8608SOL    HW126723   1.943   5.070   1.727
 8608SOL    HW226724   2.070   4.977   1.772
 8609SOL     OW26725   4.893   2.284   4.306
 8609SOL    HW126726   4.877   2.343   4.385
 8609SOL    HW226727   4.843   2.320   4.227
 8610SOL     OW26728   0.102   5.479   2.418
 8610SOL    HW126729   0.117   5.525   2.506
 8610SOL    HW226730   0.068   5.387   2.433
 8611SOL     OW26731   2.024   1.476   5.627
 8611SOL    HW126732   2.072   1.512   5.547
 8611SOL    HW226733   1.965   1.547   5.665
 8612SOL     OW26734   3.111   3.196   5.697
 8612SOL    HW126735   3.207   3.213   5.719
 8612SOL    HW226736   3.080   3.260   5.627
 8613SOL     OW26737   2.892   3.773   3.429
 8613SOL    HW126738   2.953   3.833   3.480
 8613SOL    HW226739   2.905   3.678   3.459
 8614SOL     OW26740   0.541   3.012   4.206
 8614SOL    HW126741   0.521   3.069   4.286
 8614SOL    HW226742   0.573   2.922   4.236
 8615SOL     OW26743   3.931   0.929   5.162
 8615SOL    HW126744   4.019   0.906   5.120
 8615SOL    HW226745   3.858   0.920   5.095
 8616SOL     OW26746   6.087   4.326   5.345
 8616SOL    HW126747   6.180   4.360   5.335
 8616SOL    HW226748   6.031   4.359   5.269
 8617SOL     OW26749   0.924   0.092   3.422
 8617SOL    HW126750   0.944   0.051   3.333
 8617SOL    HW226751   0.825   0.090   3.438
 8618SOL     OW26752   6.597   5.044   0.583
 8618SOL    HW126753   6.591   4.950   0.618
 8618SOL    HW226754   6.670   5.050   0.515
 8619SOL     OW26755   5.889   5.348   6.442
 8619SOL    HW126756   5.811   5.402   6.411
 8619SOL    HW226757   5.875   5.252   6.418
 8620SOL     OW26758   1.248   6.620   4.123
 8620SOL    HW126759   1.284   6.707   4.090
 8620SOL    HW226760   1.250   6.553   4.048
 8621SOL     OW26761   6.187   3.490   1.356
 8621SOL    HW126762   6.192   3.401   1.400
 8621SOL    HW226763   6.117   3.487   1.284
 8622SOL     OW26764   0.917   5.976   1.663
 8622SOL    HW126765   1.016   5.976   1.670
 8622SOL    HW226766   0.890   5.991   1.567
 8623SOL     OW26767   2.272   1.939   3.068
 8623SOL    HW126768   2.221   2.021   3.044
 8623SOL    HW226769   2.351   1.929   3.007
 8624SOL     OW26770   3.315   3.720   5.870
 8624SOL    HW126771   3.223   3.724   5.832
 8624SOL    HW226772   3.352   3.628   5.861
 8625SOL     OW26773   4.505   3.230   6.015
 8625SOL    HW126774   4.489   3.328   6.002
 8625SOL    HW226775   4.472   3.202   6.105
 8626SOL     OW26776   5.339   1.714   1.152
 8626SOL    HW126777   5.428   1.670   1.166
 8626SOL    HW226778   5.297   1.733   1.241
 8627SOL     OW26779   0.080   0.083   2.485
 8627SOL    HW126780   0.117   0.150   2.549
 8627SOL    HW226781   0.108   0.107   2.392
 8628SOL     OW26782   1.023   6.425   0.713
 8628SOL    HW126783   1.107   6.382   0.747
 8628SOL    HW226784   0.963   6.354   0.675
 8629SOL     OW26785   0.215   1.103   4.410
 8629SOL    HW126786   0.313   1.099   4.431
 8629SOL    HW226787   0.186   1.016   4.370
 8630SOL     OW26788   5.197   2.922   1.676
 8630SOL    HW126789   5.207   2.837   1.728
 8630SOL    HW226790   5.111   2.921   1.626
 8631SOL     OW26791   1.628   5.807   6.764
 8631SOL    HW126792   1.684   5.801   6.847
 8631SOL    HW226793   1.631   5.900   6.729
 8632SOL     OW26794   6.212   5.967   4.058
 8632SOL    HW126795   6.205   5.918   3.971
 8632SOL    HW226796   6.201   6.065   4.041
 8633SOL     OW26797   6.847   4.078   5.674
 8633SOL    HW126798   6.771   4.134   5.706
 8633SOL    HW226799   6.932   4.131   5.680
 8634SOL     OW26800   5.118   4.794   6.329
 8634SOL    HW126801   5.076   4.729   6.266
 8634SOL    HW226802   5.166   4.745   6.402
 8635SOL     OW26803   5.319   1.836   6.333
 8635SOL    HW126804   5.296   1.741   6.356
 8635SOL    HW226805   5.415   1.853   6.355
 8636SOL     OW26806   3.858   6.224   0.415
 8636SOL    HW126807   3.924   6.270   0.473
 8636SOL    HW226808   3.794   6.171   0.472
 8637SOL     OW26809   2.899   2.335   0.661
 8637SOL    HW126810   2.990   2.331   0.703
 8637SOL    HW226811   2.876   2.430   0.640
 8638SOL     OW26812   5.453   2.106   4.561
 8638SOL    HW126813   5.459   2.043   4.484
 8638SOL    HW226814   5.450   2.200   4.528
 8639SOL     OW26815   3.727   4.132   0.268
 8639SOL    HW126816   3.662   4.163   0.338
 8639SOL    HW226817   3.744   4.034   0.279
 8640SOL     OW26818   3.189   2.125   6.251
 8640SOL    HW126819   3.170   2.223   6.257
 8640SOL    HW226820   3.129   2.075   6.313
 8641SOL     OW26821   3.589   4.972   3.273
 8641SOL    HW126822   3.539   4.945   3.190
 8641SOL    HW226823   3.523   5.002   3.342
 8642SOL     OW26824   2.160   6.324   3.239
 8642SOL    HW126825   2.097   6.247   3.229
 8642SOL    HW226826   2.245   6.304   3.191
 8643SOL     OW26827   3.874   6.255   1.342
 8643SOL    HW126828   3.912   6.293   1.426
 8643SOL    HW226829   3.790   6.304   1.317
 8644SOL     OW26830   5.223   2.067   6.195
 8644SOL    HW126831   5.295   2.136   6.195
 8644SOL    HW226832   5.257   1.984   6.240
 8645SOL     OW26833   4.649   5.307   2.706
 8645SOL    HW126834   4.669   5.362   2.787
 8645SOL    HW226835   4.637   5.367   2.626
 8646SOL     OW26836   6.939   2.085   4.069
 8646SOL    HW126837   6.907   2.179   4.082
 8646SOL    HW226838   6.895   2.046   3.989
 8647SOL     OW26839   2.011   4.537   1.808
 8647SOL    HW126840   1.936   4.568   1.866
 8647SOL    HW226841   1.980   4.462   1.750
 8648SOL     OW26842   5.657   5.551   6.298
 8648SOL    HW126843   5.642   5.452   6.297
 8648SOL    HW226844   5.574   5.597   6.330
 8649SOL     OW26845   5.674   2.392   2.262
 8649SOL    HW126846   5.623   2.460   2.208
 8649SOL    HW226847   5.630   2.303   2.254
 8650SOL     OW26848   0.981   0.623   4.760
 8650SOL    HW126849   1.077   0.598   4.750
 8650SOL    HW226850   0.957   0.627   4.857
 8651SOL     OW26851   4.621   1.375   1.429
 8651SOL    HW126852   4.528   1.397   1.401
 8651SOL    HW226853   4.652   1.292   1.381
 8652SOL     OW26854   6.479   3.250   4.999
 8652SOL    HW126855   6.539   3.266   4.921
 8652SOL    HW226856   6.387   3.283   4.978
 8653SOL     OW26857   4.942   0.358   0.299
 8653SOL    HW126858   5.013   0.424   0.272
 8653SOL    HW226859   4.889   0.396   0.375
 8654SOL     OW26860   0.037   4.491   2.771
 8654SOL    HW126861   0.121   4.441   2.750
 8654SOL    HW226862   7.024   4.455   2.856
 8655SOL     OW26863   1.310   6.856   5.171
 8655SOL    HW126864   1.368   6.787   5.215
 8655SOL    HW226865   1.242   6.810   5.114
 8656SOL     OW26866   3.949   6.056   0.832
 8656SOL    HW126867   3.929   6.016   0.922
 8656SOL    HW226868   3.927   5.989   0.761
 8657SOL     OW26869   3.164   1.742   2.534
 8657SOL    HW126870   3.255   1.729   2.574
 8657SOL    HW226871   3.129   1.832   2.561
 8658SOL     OW26872   6.511   4.376   0.534
 8658SOL    HW126873   6.438   4.383   0.466
 8658SOL    HW226874   6.589   4.327   0.495
 8659SOL     OW26875   3.527   0.351   3.546
 8659SOL    HW126876   3.626   0.340   3.553
 8659SOL    HW226877   3.483   0.316   3.629
 8660SOL     OW26878   6.751   4.257   1.113
 8660SOL    HW126879   6.843   4.291   1.091
 8660SOL    HW226880   6.706   4.322   1.174
 8661SOL     OW26881   6.075   3.401   1.824
 8661SOL    HW126882   6.106   3.307   1.805
 8661SOL    HW226883   5.996   3.422   1.766
 8662SOL     OW26884   1.785   2.413   2.481
 8662SOL    HW126885   1.862   2.477   2.485
 8662SOL    HW226886   1.767   2.378   2.573
 8663SOL     OW26887   3.110   4.858   2.659
 8663SOL    HW126888   3.039   4.788   2.654
 8663SOL    HW226889   3.079   4.941   2.615
 8664SOL     OW26890   3.492   5.839   4.075
 8664SOL    HW126891   3.540   5.761   4.115
 8664SOL    HW226892   3.394   5.821   4.074
 8665SOL     OW26893   0.588   3.436   6.727
 8665SOL    HW126894   0.662   3.471   6.669
 8665SOL    HW226895   0.596   3.337   6.735
 8666SOL     OW26896   4.769   6.812   2.672
 8666SOL    HW126897   4.826   6.858   2.605
 8666SOL    HW226898   4.731   6.728   2.633
 8667SOL     OW26899   4.788   2.370   2.280
 8667SOL    HW126900   4.819   2.327   2.364
 8667SOL    HW226901   4.692   2.396   2.289
 8668SOL     OW26902   3.652   2.076   3.287
 8668SOL    HW126903   3.608   2.093   3.199
 8668SOL    HW226904   3.744   2.116   3.285
 8669SOL     OW26905   0.572   5.943   5.681
 8669SOL    HW126906   0.605   5.896   5.599
 8669SOL    HW226907   0.626   6.025   5.697
 8670SOL     OW26908   0.082   5.179   5.234
 8670SOL    HW126909   0.173   5.158   5.197
 8670SOL    HW226910   0.091   5.236   5.315
 8671SOL     OW26911   0.416   3.341   3.827
 8671SOL    HW126912   0.385   3.354   3.921
 8671SOL    HW226913   0.506   3.296   3.828
 8672SOL     OW26914   6.482   1.358   2.307
 8672SOL    HW126915   6.564   1.311   2.275
 8672SOL    HW226916   6.496   1.457   2.302
 8673SOL     OW26917   0.532   1.584   1.524
 8673SOL    HW126918   0.570   1.608   1.613
 8673SOL    HW226919   0.441   1.624   1.514
 8674SOL     OW26920   0.158   3.140   4.375
 8674SOL    HW126921   0.147   3.057   4.430
 8674SOL    HW226922   0.253   3.147   4.345
 8675SOL     OW26923   4.997   2.514   4.974
 8675SOL    HW126924   5.044   2.499   5.061
 8675SOL    HW226925   4.958   2.606   4.973
 8676SOL     OW26926   4.703   2.844   0.708
 8676SOL    HW126927   4.713   2.815   0.613
 8676SOL    HW226928   4.752   2.930   0.722
 8677SOL     OW26929   3.301   0.905   0.354
 8677SOL    HW126930   3.292   0.946   0.263
 8677SOL    HW226931   3.275   0.808   0.350
 8678SOL     OW26932   3.256   2.042   0.170
 8678SOL    HW126933   3.273   2.047   0.071
 8678SOL    HW226934   3.338   2.073   0.219
 8679SOL     OW26935   1.628   2.224   6.641
 8679SOL    HW126936   1.619   2.255   6.736
 8679SOL    HW226937   1.719   2.247   6.608
 8680SOL     OW26938   0.295   6.869   1.556
 8680SOL    HW126939   0.272   6.800   1.624
 8680SOL    HW226940   0.274   6.960   1.592
 8681SOL     OW26941   5.312   5.386   1.036
 8681SOL    HW126942   5.342   5.295   1.009
 8681SOL    HW226943   5.242   5.419   0.972
 8682SOL     OW26944   1.669   1.485   2.256
 8682SOL    HW126945   1.715   1.499   2.168
 8682SOL    HW226946   1.700   1.553   2.322
 8683SOL     OW26947   2.388   4.407   4.305
 8683SOL    HW126948   2.438   4.435   4.388
 8683SOL    HW226949   2.360   4.312   4.314
 8684SOL     OW26950   2.211   3.953   3.764
 8684SOL    HW126951   2.209   4.044   3.805
 8684SOL    HW226952   2.186   3.959   3.667
 8685SOL     OW26953   5.153   3.342   5.711
 8685SOL    HW126954   5.059   3.335   5.677
 8685SOL    HW226955   5.217   3.323   5.636
 8686SOL     OW26956   1.266   5.062   2.540
 8686SOL    HW126957   1.345   5.083   2.597
 8686SOL    HW226958   1.285   5.090   2.445
 8687SOL     OW26959   6.147   4.264   5.598
 8687SOL    HW126960   6.120   4.291   5.505
 8687SOL    HW226961   6.076   4.205   5.637
 8688SOL     OW26962   0.822   3.666   4.809
 8688SOL    HW126963   0.892   3.673   4.738
 8688SOL    HW226964   0.738   3.630   4.770
 8689SOL     OW26965   5.140   3.353   1.453
 8689SOL    HW126966   5.214   3.299   1.494
 8689SOL    HW226967   5.172   3.447   1.438
 8690SOL     OW26968   1.612   2.262   2.066
 8690SOL    HW126969   1.524   2.256   2.115
 8690SOL    HW226970   1.682   2.296   2.129
 8691SOL     OW26971   3.301   1.029   0.105
 8691SOL    HW126972   3.364   0.963   0.065
 8691SOL    HW226973   3.343   1.119   0.107
 8692SOL     OW26974   5.761   2.372   4.266
 8692SOL    HW126975   5.736   2.288   4.217
 8692SOL    HW226976   5.718   2.451   4.222
 8693SOL     OW26977   0.586   6.715   5.595
 8693SOL    HW126978   0.643   6.635   5.579
 8693SOL    HW226979   0.633   6.797   5.561
 8694SOL     OW26980   3.988   4.078   5.333
 8694SOL    HW126981   3.967   4.146   5.262
 8694SOL    HW226982   3.914   4.077   5.400
 8695SOL     OW26983   4.178   3.992   1.152
 8695SOL    HW126984   4.228   3.918   1.105
 8695SOL    HW226985   4.173   4.071   1.092
 8696SOL     OW26986   2.967   5.069   6.521
 8696SOL    HW126987   3.012   5.110   6.600
 8696SOL    HW226988   2.876   5.108   6.510
 8697SOL     OW26989   0.829   2.941   4.941
 8697SOL    HW126990   0.747   2.930   4.884
 8697SOL    HW226991   0.906   2.893   4.897
 8698SOL     OW26992   5.839   4.220   6.749
 8698SOL    HW126993   5.845   4.314   6.782
 8698SOL    HW226994   5.918   4.199   6.692
 8699SOL     OW26995   2.119   2.330   1.438
 8699SOL    HW126996   2.182   2.268   1.483
 8699SOL    HW226997   2.053   2.277   1.385
 8700SOL     OW26998   0.300   2.025   4.291
 8700SOL    HW126999   0.268   2.116   4.319
 8700SOL    HW227000   0.222   1.966   4.272
 8701SOL     OW27001   2.532   3.140   6.952
 8701SOL    HW127002   2.464   3.071   6.978
 8701SOL    HW227003   2.608   3.138   7.017
 8702SOL     OW27004   5.413   4.044   0.987
 8702SOL    HW127005   5.447   4.014   1.076
 8702SOL    HW227006   5.387   3.963   0.933
 8703SOL     OW27007   2.293   4.952   1.491
 8703SOL    HW127008   2.285   4.906   1.580
 8703SOL    HW227009   2.202   4.971   1.455
 8704SOL     OW27010   6.440   0.853   3.447
 8704SOL    HW127011   6.364   0.910   3.480
 8704SOL    HW227012   6.495   0.906   3.383
 8705SOL     OW27013   3.954   2.240   0.257
 8705SOL    HW127014   4.002   2.157   0.227
 8705SOL    HW227015   3.925   2.293   0.177
 8706SOL     OW27016   4.768   2.917   5.189
 8706SOL    HW127017   4.718   2.837   5.159
 8706SOL    HW227018   4.857   2.890   5.227
 8707SOL     OW27019   1.325   1.077   4.444
 8707SOL    HW127020   1.386   1.086   4.523
 8707SOL    HW227021   1.360   1.132   4.369
 8708SOL     OW27022   5.484   2.388   0.978
 8708SOL    HW127023   5.386   2.369   0.969
 8708SOL    HW227024   5.536   2.312   0.941
 8709SOL     OW27025   6.520   6.143   4.198
 8709SOL    HW127026   6.578   6.206   4.251
 8709SOL    HW227027   6.493   6.066   4.256
 8710SOL     OW27028   2.082   2.973   3.568
 8710SOL    HW127029   2.126   2.963   3.657
 8710SOL    HW227030   2.091   2.887   3.517
 8711SOL     OW27031   0.766   1.802   2.424
 8711SOL    HW127032   0.718   1.849   2.498
 8711SOL    HW227033   0.862   1.828   2.424
 8712SOL     OW27034   1.337   3.808   4.040
 8712SOL    HW127035   1.312   3.760   4.124
 8712SOL    HW227036   1.427   3.779   4.010
 8713SOL     OW27037   0.206   4.749   3.730
 8713SOL    HW127038   0.125   4.798   3.761
 8713SOL    HW227039   0.285   4.809   3.734
 8714SOL     OW27040   0.843   4.673   6.305
 8714SOL    HW127041   0.774   4.651   6.236
 8714SOL    HW227042   0.870   4.769   6.296
 8715SOL     OW27043   1.940   4.822   1.236
 8715SOL    HW127044   2.025   4.815   1.184
 8715SOL    HW227045   1.904   4.730   1.253
 8716SOL     OW27046   5.207   0.242   2.596
 8716SOL    HW127047   5.111   0.215   2.593
 8716SOL    HW227048   5.219   0.311   2.668
 8717SOL     OW27049   3.730   2.569   6.397
 8717SOL    HW127050   3.694   2.516   6.474
 8717SOL    HW227051   3.787   2.643   6.431
 8718SOL     OW27052   3.347   5.253   5.975
 8718SOL    HW127053   3.309   5.340   5.943
 8718SOL    HW227054   3.389   5.266   6.065
 8719SOL     OW27055   2.951   2.280   4.554
 8719SOL    HW127056   2.880   2.339   4.514
 8719SOL    HW227057   2.966   2.305   4.649
 8720SOL     OW27058   0.087   6.415   4.977
 8720SOL    HW127059   0.187   6.417   4.976
 8720SOL    HW227060   0.051   6.482   4.912
 8721SOL     OW27061   0.737   0.688   1.594
 8721SOL    HW127062   0.687   0.773   1.613
 8721SOL    HW227063   0.740   0.673   1.496
 8722SOL     OW27064   4.043   1.289   0.489
 8722SOL    HW127065   4.082   1.197   0.481
 8722SOL    HW227066   3.959   1.294   0.434
 8723SOL     OW27067   3.664   6.957   2.675
 8723SOL    HW127068   3.637   6.889   2.607
 8723SOL    HW227069   3.600   6.955   2.751
 8724SOL     OW27070   4.499   0.628   5.461
 8724SOL    HW127071   4.555   0.693   5.511
 8724SOL    HW227072   4.554   0.587   5.387
 8725SOL     OW27073   6.693   0.887   2.433
 8725SOL    HW127074   6.692   0.830   2.515
 8725SOL    HW227075   6.787   0.909   2.409
 8726SOL     OW27076   0.161   1.162   0.579
 8726SOL    HW127077   0.183   1.118   0.666
 8726SOL    HW227078   0.092   1.108   0.531
 8727SOL     OW27079   4.977   5.556   6.354
 8727SOL    HW127080   4.916   5.634   6.363
 8727SOL    HW227081   4.971   5.520   6.260
 8728SOL     OW27082   5.686   6.908   4.126
 8728SOL    HW127083   5.613   6.971   4.100
 8728SOL    HW227084   5.658   6.856   4.207
 8729SOL     OW27085   5.862   6.709   5.978
 8729SOL    HW127086   5.932   6.755   5.923
 8729SOL    HW227087   5.900   6.627   6.019
 8730SOL     OW27088   4.057   4.790   1.540
 8730SOL    HW127089   4.031   4.765   1.446
 8730SOL    HW227090   4.058   4.890   1.548
 8731SOL     OW27091   0.088   2.229   3.844
 8731SOL    HW127092   0.152   2.274   3.906
 8731SOL    HW227093   7.022   2.267   3.858
 8732SOL     OW27094   5.045   6.062   5.457
 8732SOL    HW127095   5.087   6.134   5.513
 8732SOL    HW227096   4.998   5.997   5.516
 8733SOL     OW27097   5.356   4.731   2.559
 8733SOL    HW127098   5.301   4.752   2.479
 8733SOL    HW227099   5.377   4.816   2.608
 8734SOL     OW27100   0.831   6.068   1.412
 8734SOL    HW127101   0.803   6.014   1.332
 8734SOL    HW227102   0.923   6.105   1.398
 8735SOL     OW27103   1.371   2.266   6.600
 8735SOL    HW127104   1.471   2.262   6.604
 8735SOL    HW227105   1.339   2.337   6.662
 8736SOL     OW27106   0.956   6.174   4.012
 8736SOL    HW127107   0.922   6.117   3.937
 8736SOL    HW227108   0.891   6.247   4.031
 8737SOL     OW27109   0.621   5.440   0.002
 8737SOL    HW127110   0.592   5.535   7.025
 8737SOL    HW227111   0.665   5.420   0.090
 8738SOL     OW27112   2.014   2.579   2.543
 8738SOL    HW127113   2.101   2.624   2.523
 8738SOL    HW227114   2.031   2.491   2.586
 8739SOL     OW27115   4.774   4.769   3.627
 8739SOL    HW127116   4.864   4.743   3.593
 8739SOL    HW227117   4.753   4.863   3.598
 8740SOL     OW27118   2.091   0.656   3.652
 8740SOL    HW127119   2.086   0.562   3.686
 8740SOL    HW227120   2.080   0.656   3.552
 8741SOL     OW27121   2.374   2.191   2.716
 8741SOL    HW127122   2.361   2.198   2.617
 8741SOL    HW227123   2.390   2.095   2.740
 8742SOL     OW27124   1.456   3.435   1.171
 8742SOL    HW127125   1.523   3.499   1.210
 8742SOL    HW227126   1.435   3.364   1.238
 8743SOL     OW27127   1.504   2.845   0.049
 8743SOL    HW127128   1.456   2.758   0.048
 8743SOL    HW227129   1.596   2.833   0.013
 8744SOL     OW27130   2.475   4.218   6.030
 8744SOL    HW127131   2.515   4.308   6.044
 8744SOL    HW227132   2.483   4.164   6.114
 8745SOL     OW27133   5.729   1.519   6.825
 8745SOL    HW127134   5.795   1.483   6.891
 8745SOL    HW227135   5.665   1.447   6.800
 8746SOL     OW27136   4.626   4.747   4.501
 8746SOL    HW127137   4.589   4.798   4.578
 8746SOL    HW227138   4.577   4.660   4.491
 8747SOL     OW27139   0.280   6.686   1.785
 8747SOL    HW127140   0.369   6.644   1.769
 8747SOL    HW227141   0.208   6.625   1.751
 8748SOL     OW27142   5.992   1.450   4.751
 8748SOL    HW127143   6.089   1.475   4.752
 8748SOL    HW227144   5.983   1.353   4.728
 8749SOL     OW27145   2.282   1.222   3.916
 8749SOL    HW127146   2.297   1.273   3.831
 8749SOL    HW227147   2.346   1.146   3.920
 8750SOL     OW27148   3.907   3.374   2.045
 8750SOL    HW127149   3.913   3.440   1.970
 8750SOL    HW227150   3.896   3.423   2.131
 8751SOL     OW27151   1.940   6.795   6.748
 8751SOL    HW127152   1.862   6.773   6.806
 8751SOL    HW227153   1.909   6.811   6.655
 8752SOL     OW27154   1.263   3.131   6.507
 8752SOL    HW127155   1.214   3.213   6.479
 8752SOL    HW227156   1.354   3.155   6.539
 8753SOL     OW27157   1.604   1.679   0.909
 8753SOL    HW127158   1.601   1.680   0.809
 8753SOL    HW227159   1.529   1.734   0.946
 8754SOL     OW27160   1.424   6.059   6.634
 8754SOL    HW127161   1.364   5.988   6.673
 8754SOL    HW227162   1.516   6.021   6.622
 8755SOL     OW27163   0.243   1.775   1.905
 8755SOL    HW127164   0.242   1.851   1.969
 8755SOL    HW227165   0.179   1.704   1.936
 8756SOL     OW27166   1.776   1.780   2.235
 8756SOL    HW127167   1.859   1.745   2.192
 8756SOL    HW227168   1.784   1.878   2.250
 8757SOL     OW27169   5.303   5.866   4.904
 8757SOL    HW127170   5.205   5.851   4.893
 8757SOL    HW227171   5.322   5.963   4.912
 8758SOL     OW27172   3.556   4.823   6.439
 8758SOL    HW127173   3.474   4.823   6.382
 8758SOL    HW227174   3.530   4.832   6.535
 8759SOL     OW27175   6.704   1.416   1.361
 8759SOL    HW127176   6.797   1.429   1.396
 8759SOL    HW227177   6.667   1.331   1.398
 8760SOL     OW27178   1.277   2.934   4.677
 8760SOL    HW127179   1.202   2.882   4.717
 8760SOL    HW227180   1.343   2.957   4.749
 8761SOL     OW27181   5.390   2.879   3.238
 8761SOL    HW127182   5.292   2.871   3.217
 8761SOL    HW227183   5.424   2.968   3.207
 8762SOL     OW27184   4.152   6.261   2.399
 8762SOL    HW127185   4.069   6.237   2.449
 8762SOL    HW227186   4.146   6.355   2.367
 8763SOL     OW27187   6.972   1.836   5.433
 8763SOL    HW127188   6.944   1.782   5.354
 8763SOL    HW227189   0.020   1.789   5.481
 8764SOL     OW27190   2.797   5.306   6.103
 8764SOL    HW127191   2.729   5.366   6.147
 8764SOL    HW227192   2.809   5.224   6.159
 8765SOL     OW27193   4.257   6.859   3.599
 8765SOL    HW127194   4.339   6.824   3.643
 8765SOL    HW227195   4.211   6.923   3.660
 8766SOL     OW27196   6.375   6.913   4.703
 8766SOL    HW127197   6.311   6.839   4.723
 8766SOL    HW227198   6.425   6.936   4.787
 8767SOL     OW27199   1.974   1.356   4.759
 8767SOL    HW127200   1.936   1.393   4.844
 8767SOL    HW227201   1.913   1.378   4.683
 8768SOL     OW27202   6.992   2.163   1.058
 8768SOL    HW127203   0.004   2.256   1.059
 8768SOL    HW227204   6.892   2.168   1.057
 8769SOL     OW27205   6.794   0.046   6.739
 8769SOL    HW127206   6.818   0.083   6.649
 8769SOL    HW227207   6.875   0.008   6.782
 8770SOL     OW27208   4.593   2.024   0.643
 8770SOL    HW127209   4.527   2.020   0.568
 8770SOL    HW227210   4.545   2.040   0.729
 8771SOL     OW27211   1.148   2.642   6.579
 8771SOL    HW127212   1.095   2.725   6.597
 8771SOL    HW227213   1.233   2.666   6.532
 8772SOL     OW27214   0.607   6.420   3.649
 8772SOL    HW127215   0.508   6.405   3.655
 8772SOL    HW227216   0.630   6.458   3.559
 8773SOL     OW27217   6.395   1.545   4.195
 8773SOL    HW127218   6.398   1.588   4.105
 8773SOL    HW227219   6.352   1.606   4.260
 8774SOL     OW27220   1.386   2.328   0.071
 8774SOL    HW127221   1.405   2.231   0.082
 8774SOL    HW227222   1.292   2.340   0.039
 8775SOL     OW27223   4.889   1.864   2.254
 8775SOL    HW127224   4.798   1.905   2.243
 8775SOL    HW227225   4.900   1.829   2.347
 8776SOL     OW27226   5.383   3.470   1.630
 8776SOL    HW127227   5.390   3.511   1.721
 8776SOL    HW227228   5.382   3.543   1.561
 8777SOL     OW27229   6.429   2.080   3.635
 8777SOL    HW127230   6.342   2.034   3.652
 8777SOL    HW227231   6.416   2.153   3.568
 8778SOL     OW27232   1.657   4.296   6.363
 8778SOL    HW127233   1.731   4.351   6.324
 8778SOL    HW227234   1.606   4.350   6.430
 8779SOL     OW27235   3.682   6.564   2.880
 8779SOL    HW127236   3.626   6.601   2.954
 8779SOL    HW227237   3.773   6.605   2.882
 8780SOL     OW27238   0.992   3.370   4.826
 8780SOL    HW127239   1.017   3.389   4.731
 8780SOL    HW227240   0.913   3.427   4.850
 8781SOL     OW27241   4.131   1.545   1.924
 8781SOL    HW127242   4.070   1.493   1.984
 8781SOL    HW227243   4.093   1.637   1.910
 8782SOL     OW27244   6.338   2.542   0.192
 8782SOL    HW127245   6.388   2.484   0.127
 8782SOL    HW227246   6.283   2.608   0.142
 8783SOL     OW27247   3.754   3.946   6.109
 8783SOL    HW127248   3.676   3.995   6.149
 8783SOL    HW227249   3.817   4.012   6.070
 8784SOL     OW27250   4.487   0.955   5.477
 8784SOL    HW127251   4.407   0.988   5.526
 8784SOL    HW227252   4.513   1.021   5.407
 8785SOL     OW27253   0.205   6.224   6.345
 8785SOL    HW127254   0.198   6.149   6.279
 8785SOL    HW227255   0.115   6.241   6.386
 8786SOL     OW27256   5.709   2.482   3.178
 8786SOL    HW127257   5.621   2.477   3.131
 8786SOL    HW227258   5.707   2.424   3.260
 8787SOL     OW27259   3.366   4.923   2.596
 8787SOL    HW127260   3.273   4.888   2.604
 8787SOL    HW227261   3.370   5.016   2.631
 8788SOL     OW27262   0.178   6.856   3.710
 8788SOL    HW127263   0.093   6.813   3.742
 8788SOL    HW227264   0.166   6.955   3.706
 8789SOL     OW27265   2.076   3.045   6.889
 8789SOL    HW127266   2.116   2.960   6.922
 8789SOL    HW227267   2.036   3.030   6.798
 8790SOL     OW27268   4.892   3.218   5.161
 8790SOL    HW127269   4.981   3.182   5.133
 8790SOL    HW227270   4.825   3.145   5.162
 8791SOL     OW27271   4.081   6.593   5.355
 8791SOL    HW127272   4.078   6.506   5.404
 8791SOL    HW227273   4.152   6.589   5.284
 8792SOL     OW27274   5.457   4.672   0.746
 8792SOL    HW127275   5.495   4.754   0.704
 8792SOL    HW227276   5.443   4.687   0.844
 8793SOL     OW27277   6.550   0.481   5.558
 8793SOL    HW127278   6.552   0.493   5.657
 8793SOL    HW227279   6.476   0.417   5.534
 8794SOL     OW27280   0.071   2.910   3.408
 8794SOL    HW127281   0.039   2.907   3.314
 8794SOL    HW227282   7.024   2.944   3.467
 8795SOL     OW27283   1.303   0.706   6.899
 8795SOL    HW127284   1.284   0.691   6.995
 8795SOL    HW227285   1.284   0.802   6.876
 8796SOL     OW27286   5.817   5.270   4.252
 8796SOL    HW127287   5.746   5.264   4.321
 8796SOL    HW227288   5.792   5.339   4.183
 8797SOL     OW27289   5.569   5.980   5.060
 8797SOL    HW127290   5.656   6.009   5.022
 8797SOL    HW227291   5.496   6.041   5.029
 8798SOL     OW27292   1.728   5.495   6.903
 8798SOL    HW127293   1.774   5.442   6.974
 8798SOL    HW227294   1.780   5.487   6.818
 8799SOL     OW27295   1.396   6.514   2.139
 8799SOL    HW127296   1.449   6.429   2.139
 8799SOL    HW227297   1.455   6.589   2.111
 8800SOL     OW27298   6.720   6.212   4.415
 8800SOL    HW127299   6.719   6.156   4.497
 8800SOL    HW227300   6.790   6.178   4.352
 8801SOL     OW27301   5.018   3.271   6.243
 8801SOL    HW127302   5.051   3.304   6.154
 8801SOL    HW227303   4.970   3.184   6.230
 8802SOL     OW27304   1.017   6.771   0.099
 8802SOL    HW127305   1.074   6.763   0.180
 8802SOL    HW227306   1.059   6.836   0.034
 8803SOL     OW27307   4.849   4.682   5.226
 8803SOL    HW127308   4.864   4.779   5.243
 8803SOL    HW227309   4.938   4.635   5.224
 8804SOL     OW27310   2.342   6.334   1.466
 8804SOL    HW127311   2.272   6.403   1.445
 8804SOL    HW227312   2.333   6.305   1.561
 8805SOL     OW27313   4.475   5.184   0.995
 8805SOL    HW127314   4.413   5.121   1.041
 8805SOL    HW227315   4.493   5.152   0.902
 8806SOL     OW27316   1.543   1.317   1.898
 8806SOL    HW127317   1.616   1.354   1.842
 8806SOL    HW227318   1.487   1.392   1.935
 8807SOL     OW27319   5.818   2.376   1.738
 8807SOL    HW127320   5.860   2.378   1.829
 8807SOL    HW227321   5.807   2.281   1.709
 8808SOL     OW27322   1.931   1.232   0.791
 8808SOL    HW127323   1.901   1.214   0.698
 8808SOL    HW227324   1.856   1.213   0.855
 8809SOL     OW27325   0.491   3.211   2.940
 8809SOL    HW127326   0.583   3.233   2.972
 8809SOL    HW227327   0.494   3.134   2.876
 8810SOL     OW27328   6.186   2.355   3.785
 8810SOL    HW127329   6.169   2.302   3.701
 8810SOL    HW227330   6.109   2.342   3.848
 8811SOL     OW27331   3.802   5.622   3.034
 8811SOL    HW127332   3.849   5.601   3.119
 8811SOL    HW227333   3.747   5.543   3.006
 8812SOL     OW27334   5.444   0.513   0.339
 8812SOL    HW127335   5.527   0.472   0.378
 8812SOL    HW227336   5.364   0.477   0.387
 8813SOL     OW27337   1.282   2.396   1.664
 8813SOL    HW127338   1.250   2.444   1.582
 8813SOL    HW227339   1.381   2.405   1.671
 8814SOL     OW27340   6.123   6.591   5.109
 8814SOL    HW127341   6.053   6.629   5.170
 8814SOL    HW227342   6.093   6.603   5.014
 8815SOL     OW27343   4.511   0.150   1.098
 8815SOL    HW127344   4.501   0.149   1.197
 8815SOL    HW227345   4.435   0.201   1.057
 8816SOL     OW27346   0.319   0.868   2.921
 8816SOL    HW127347   0.366   0.891   3.006
 8816SOL    HW227348   0.344   0.775   2.893
 8817SOL     OW27349   0.913   2.320   4.264
 8817SOL    HW127350   0.996   2.312   4.319
 8817SOL    HW227351   0.880   2.414   4.266
 8818SOL     OW27352   1.420   5.583   6.388
 8818SOL    HW127353   1.352   5.513   6.411
 8818SOL    HW227354   1.403   5.617   6.296
 8819SOL     OW27355   5.336   6.536   6.336
 8819SOL    HW127356   5.348   6.583   6.424
 8819SOL    HW227357   5.424   6.503   6.303
 8820SOL     OW27358   3.437   6.551   6.123
 8820SOL    HW127359   3.377   6.471   6.132
 8820SOL    HW227360   3.485   6.547   6.036
 8821SOL     OW27361   1.911   5.405   5.362
 8821SOL    HW127362   1.895   5.472   5.290
 8821SOL    HW227363   1.934   5.316   5.321
 8822SOL     OW27364   6.739   0.726   4.920
 8822SOL    HW127365   6.658   0.763   4.966
 8822SOL    HW227366   6.813   0.717   4.986
 8823SOL     OW27367   4.193   2.224   3.252
 8823SOL    HW127368   4.226   2.132   3.271
 8823SOL    HW227369   4.237   2.289   3.315
 8824SOL     OW27370   1.870   0.448   4.029
 8824SOL    HW127371   1.938   0.511   3.991
 8824SOL    HW227372   1.875   0.360   3.981
 8825SOL     OW27373   1.158   6.901   0.633
 8825SOL    HW127374   1.105   6.986   0.635
 8825SOL    HW227375   1.103   6.828   0.592
 8826SOL     OW27376   0.363   4.025   0.160
 8826SOL    HW127377   0.368   3.926   0.160
 8826SOL    HW227378   0.453   4.063   0.142
 8827SOL     OW27379   5.210   5.879   4.140
 8827SOL    HW127380   5.133   5.916   4.193
 8827SOL    HW227381   5.230   5.786   4.170
 8828SOL     OW27382   5.332   2.518   5.503
 8828SOL    HW127383   5.240   2.557   5.494
 8828SOL    HW227384   5.325   2.421   5.523
 8829SOL     OW27385   6.405   0.836   2.800
 8829SOL    HW127386   6.441   0.744   2.786
 8829SOL    HW227387   6.468   0.888   2.858
 8830SOL     OW27388   2.606   0.783   2.569
 8830SOL    HW127389   2.553   0.841   2.507
 8830SOL    HW227390   2.582   0.805   2.664
 8831SOL     OW27391   0.999   2.378   2.687
 8831SOL    HW127392   0.967   2.431   2.608
 8831SOL    HW227393   1.088   2.413   2.716
 8832SOL     OW27394   6.198   0.158   4.628
 8832SOL    HW127395   6.231   0.069   4.659
 8832SOL    HW227396   6.268   0.201   4.572
 8833SOL     OW27397   5.104   2.804   1.060
 8833SOL    HW127398   5.063   2.811   1.151
 8833SOL    HW227399   5.098   2.709   1.028
 8834SOL     OW27400   6.405   4.765   5.936
 8834SOL    HW127401   6.461   4.841   5.968
 8834SOL    HW227402   6.395   4.697   6.010
 8835SOL     OW27403   6.829   0.987   5.373
 8835SOL    HW127404   6.916   1.011   5.328
 8835SOL    HW227405   6.773   1.069   5.381
 8836SOL     OW27406   4.390   1.795   0.892
 8836SOL    HW127407   4.387   1.893   0.875
 8836SOL    HW227408   4.297   1.760   0.904
 8837SOL     OW27409   5.737   4.877   0.023
 8837SOL    HW127410   5.723   4.878   6.950
 8837SOL    HW227411   5.716   4.787   0.059
 8838SOL     OW27412   1.556   3.449   2.149
 8838SOL    HW127413   1.489   3.398   2.095
 8838SOL    HW227414   1.508   3.515   2.207
 8839SOL     OW27415   4.514   4.684   1.429
 8839SOL    HW127416   4.549   4.646   1.344
 8839SOL    HW227417   4.428   4.639   1.453
 8840SOL     OW27418   0.279   0.185   1.334
 8840SOL    HW127419   0.362   0.197   1.281
 8840SOL    HW227420   0.301   0.143   1.422
 8841SOL     OW27421   4.726   2.052   0.256
 8841SOL    HW127422   4.667   2.128   0.228
 8841SOL    HW227423   4.669   1.979   0.295
 8842SOL     OW27424   3.515   2.891   3.840
 8842SOL    HW127425   3.527   2.794   3.819
 8842SOL    HW227426   3.578   2.918   3.913
 8843SOL     OW27427   2.764   6.243   5.049
 8843SOL    HW127428   2.738   6.151   5.077
 8843SOL    HW227429   2.832   6.238   4.975
 8844SOL     OW27430   4.066   2.797   5.311
 8844SOL    HW127431   4.114   2.720   5.267
 8844SOL    HW227432   4.011   2.845   5.243
 8845SOL     OW27433   0.489   4.062   2.413
 8845SOL    HW127434   0.435   4.108   2.343
 8845SOL    HW227435   0.560   4.006   2.370
 8846SOL     OW27436   6.144   5.485   4.960
 8846SOL    HW127437   6.157   5.549   4.884
 8846SOL    HW227438   6.050   5.490   4.993
 8847SOL     OW27439   0.902   2.629   3.905
 8847SOL    HW127440   0.921   2.688   3.826
 8847SOL    HW227441   0.836   2.673   3.965
 8848SOL     OW27442   5.794   2.674   1.229
 8848SOL    HW127443   5.761   2.766   1.205
 8848SOL    HW227444   5.888   2.680   1.263
 8849SOL     OW27445   3.301   4.948   4.547
 8849SOL    HW127446   3.398   4.936   4.566
 8849SOL    HW227447   3.258   4.998   4.622
 8850SOL     OW27448   3.821   2.180   0.995
 8850SOL    HW127449   3.895   2.125   0.957
 8850SOL    HW227450   3.852   2.275   1.005
 8851SOL     OW27451   6.952   5.623   3.108
 8851SOL    HW127452   6.964   5.721   3.124
 8851SOL    HW227453   6.965   5.573   3.194
 8852SOL     OW27454   5.832   3.983   4.502
 8852SOL    HW127455   5.762   3.916   4.528
 8852SOL    HW227456   5.834   4.057   4.570
 8853SOL     OW27457   4.615   1.891   4.535
 8853SOL    HW127458   4.555   1.820   4.496
 8853SOL    HW227459   4.618   1.969   4.472
 8854SOL     OW27460   3.117   0.425   6.412
 8854SOL    HW127461   3.050   0.426   6.487
 8854SOL    HW227462   3.145   0.519   6.391
 8855SOL     OW27463   6.262   5.010   6.202
 8855SOL    HW127464   6.331   4.958   6.251
 8855SOL    HW227465   6.250   5.100   6.244
 8856SOL     OW27466   5.224   1.956   5.419
 8856SOL    HW127467   5.263   1.989   5.505
 8856SOL    HW227468   5.196   1.861   5.429
 8857SOL     OW27469   1.721   2.813   4.677
 8857SOL    HW127470   1.755   2.819   4.771
 8857SOL    HW227471   1.674   2.898   4.654
 8858SOL     OW27472   0.559   3.332   5.443
 8858SOL    HW127473   0.543   3.321   5.541
 8858SOL    HW227474   0.616   3.257   5.410
 8859SOL     OW27475   2.560   6.221   5.243
 8859SOL    HW127476   2.629   6.188   5.307
 8859SOL    HW227477   2.554   6.158   5.166
 8860SOL     OW27478   2.020   1.285   1.674
 8860SOL    HW127479   2.069   1.239   1.748
 8860SOL    HW227480   2.015   1.225   1.594
 8861SOL     OW27481   1.793   1.787   0.005
 8861SOL    HW127482   1.776   1.696   6.993
 8861SOL    HW227483   1.892   1.799   0.018
 8862SOL     OW27484   6.875   2.746   4.269
 8862SOL    HW127485   6.846   2.729   4.363
 8862SOL    HW227486   6.971   2.776   4.269
 8863SOL     OW27487   2.045   5.668   4.953
 8863SOL    HW127488   1.991   5.673   5.037
 8863SOL    HW227489   2.094   5.754   4.940
 8864SOL     OW27490   2.052   4.796   5.518
 8864SOL    HW127491   2.007   4.825   5.603
 8864SOL    HW227492   2.131   4.740   5.541
 8865SOL     OW27493   2.949   1.902   5.706
 8865SOL    HW127494   2.851   1.881   5.703
 8865SOL    HW227495   2.969   1.979   5.644
 8866SOL     OW27496   4.958   6.994   5.513
 8866SOL    HW127497   4.945   6.935   5.592
 8866SOL    HW227498   5.005   6.943   5.440
 8867SOL     OW27499   5.549   0.524   3.519
 8867SOL    HW127500   5.620   0.491   3.581
 8867SOL    HW227501   5.576   0.505   3.425
 8868SOL     OW27502   5.806   2.742   0.285
 8868SOL    HW127503   5.896   2.768   0.249
 8868SOL    HW227504   5.778   2.808   0.354
 8869SOL     OW27505   2.960   1.875   3.157
 8869SOL    HW127506   3.056   1.887   3.182
 8869SOL    HW227507   2.929   1.785   3.189
 8870SOL     OW27508   3.983   6.773   1.941
 8870SOL    HW127509   3.960   6.705   2.011
 8870SOL    HW227510   4.059   6.740   1.886
 8871SOL     OW27511   1.639   2.389   4.200
 8871SOL    HW127512   1.598   2.395   4.291
 8871SOL    HW227513   1.737   2.369   4.208
 8872SOL     OW27514   1.028   1.861   2.464
 8872SOL    HW127515   1.069   1.826   2.548
 8872SOL    HW227516   1.062   1.953   2.446
 8873SOL     OW27517   6.642   5.421   4.856
 8873SOL    HW127518   6.718   5.409   4.921
 8873SOL    HW227519   6.567   5.360   4.882
 8874SOL     OW27520   1.356   1.198   5.985
 8874SOL    HW127521   1.318   1.278   5.938
 8874SOL    HW227522   1.339   1.116   5.931
 8875SOL     OW27523   1.383   1.246   4.244
 8875SOL    HW127524   1.294   1.272   4.209
 8875SOL    HW227525   1.429   1.326   4.282
 8876SOL     OW27526   2.517   1.294   4.803
 8876SOL    HW127527   2.508   1.215   4.864
 8876SOL    HW227528   2.609   1.333   4.812
 8877SOL     OW27529   3.239   6.497   4.668
 8877SOL    HW127530   3.221   6.418   4.728
 8877SOL    HW227531   3.155   6.549   4.655
 8878SOL     OW27532   5.689   4.608   5.449
 8878SOL    HW127533   5.595   4.639   5.438
 8878SOL    HW227534   5.692   4.508   5.451
 8879SOL     OW27535   5.761   5.671   4.818
 8879SOL    HW127536   5.818   5.608   4.871
 8879SOL    HW227537   5.669   5.673   4.856
 8880SOL     OW27538   1.178   6.731   4.956
 8880SOL    HW127539   1.208   6.652   4.903
 8880SOL    HW227540   1.200   6.815   4.906
 8881SOL     OW27541   6.709   2.242   2.481
 8881SOL    HW127542   6.627   2.199   2.443
 8881SOL    HW227543   6.769   2.271   2.407
 8882SOL     OW27544   5.284   2.142   0.413
 8882SOL    HW127545   5.299   2.173   0.507
 8882SOL    HW227546   5.351   2.072   0.390
 8883SOL     OW27547   5.874   1.646   5.576
 8883SOL    HW127548   5.839   1.602   5.493
 8883SOL    HW227549   5.799   1.663   5.639
 8884SOL     OW27550   0.061   1.302   6.404
 8884SOL    HW127551   7.009   1.347   6.449
 8884SOL    HW227552   0.097   1.230   6.464
 8885SOL     OW27553   6.172   4.027   1.004
 8885SOL    HW127554   6.076   3.998   1.006
 8885SOL    HW227555   6.231   3.947   1.016
 8886SOL     OW27556   3.354   5.874   6.112
 8886SOL    HW127557   3.304   5.872   6.025
 8886SOL    HW227558   3.447   5.840   6.098
 8887SOL     OW27559   1.384   1.170   1.146
 8887SOL    HW127560   1.373   1.270   1.139
 8887SOL    HW227561   1.315   1.133   1.208
 8888SOL     OW27562   2.662   2.434   3.121
 8888SOL    HW127563   2.628   2.349   3.163
 8888SOL    HW227564   2.668   2.505   3.191
 8889SOL     OW27565   3.384   1.474   4.563
 8889SOL    HW127566   3.386   1.411   4.641
 8889SOL    HW227567   3.476   1.505   4.543
 8890SOL     OW27568   6.688   4.813   3.979
 8890SOL    HW127569   6.648   4.900   3.950
 8890SOL    HW227570   6.675   4.745   3.906
 8891SOL     OW27571   3.546   1.616   6.198
 8891SOL    HW127572   3.608   1.667   6.258
 8891SOL    HW227573   3.574   1.521   6.194
 8892SOL     OW27574   1.161   6.770   3.211
 8892SOL    HW127575   1.208   6.719   3.139
 8892SOL    HW227576   1.227   6.827   3.260
 8893SOL     OW27577   0.319   1.074   0.330
 8893SOL    HW127578   0.274   1.016   0.262
 8893SOL    HW227579   0.252   1.107   0.396
 8894SOL     OW27580   4.480   2.162   5.877
 8894SOL    HW127581   4.472   2.128   5.970
 8894SOL    HW227582   4.444   2.095   5.813
 8895SOL     OW27583   1.138   1.039   3.353
 8895SOL    HW127584   1.192   0.956   3.338
 8895SOL    HW227585   1.150   1.070   3.448
 8896SOL     OW27586   1.431   4.288   5.143
 8896SOL    HW127587   1.469   4.272   5.234
 8896SOL    HW227588   1.500   4.267   5.074
 8897SOL     OW27589   1.160   2.123   1.995
 8897SOL    HW127590   1.234   2.069   1.954
 8897SOL    HW227591   1.199   2.202   2.043
 8898SOL     OW27592   6.531   2.900   5.359
 8898SOL    HW127593   6.512   2.806   5.329
 8898SOL    HW227594   6.535   2.903   5.459
 8899SOL     OW27595   3.368   5.688   2.267
 8899SOL    HW127596   3.323   5.664   2.181
 8899SOL    HW227597   3.467   5.678   2.256
 8900SOL     OW27598   6.774   1.775   3.501
 8900SOL    HW127599   6.718   1.845   3.456
 8900SOL    HW227600   6.715   1.705   3.540
 8901SOL     OW27601   2.043   0.229   2.133
 8901SOL    HW127602   2.085   0.279   2.057
 8901SOL    HW227603   2.111   0.214   2.205
 8902SOL     OW27604   3.838   6.782   5.870
 8902SOL    HW127605   3.808   6.734   5.952
 8902SOL    HW227606   3.917   6.735   5.831
 8903SOL     OW27607   6.749   1.117   2.836
 8903SOL    HW127608   6.710   1.043   2.890
 8903SOL    HW227609   6.737   1.204   2.885
 8904SOL     OW27610   1.609   3.602   4.014
 8904SOL    HW127611   1.569   3.576   4.102
 8904SOL    HW227612   1.679   3.536   3.989
 8905SOL     OW27613   1.898   4.266   5.061
 8905SOL    HW127614   1.995   4.255   5.082
 8905SOL    HW227615   1.879   4.363   5.043
 8906SOL     OW27616   2.306   5.208   4.631
 8906SOL    HW127617   2.323   5.282   4.698
 8906SOL    HW227618   2.238   5.238   4.565
 8907SOL     OW27619   3.787   2.836   6.264
 8907SOL    HW127620   3.753   2.769   6.198
 8907SOL    HW227621   3.834   2.910   6.216
 8908SOL     OW27622   0.428   3.437   2.782
 8908SOL    HW127623   0.481   3.513   2.821
 8908SOL    HW227624   0.447   3.353   2.833
 8909SOL     OW27625   3.369   6.661   5.539
 8909SOL    HW127626   3.464   6.686   5.558
 8909SOL    HW227627   3.358   6.640   5.442
 8910SOL     OW27628   4.508   2.654   6.943
 8910SOL    HW127629   4.425   2.637   6.998
 8910SOL    HW227630   4.519   2.581   6.876
 8911SOL     OW27631   5.028   2.715   4.440
 8911SOL    HW127632   5.007   2.620   4.417
 8911SOL    HW227633   4.978   2.776   4.378
 8912SOL     OW27634   4.220   1.005   0.256
 8912SOL    HW127635   4.150   0.938   0.278
 8912SOL    HW227636   4.200   1.046   0.167
 8913SOL     OW27637   4.087   4.254   0.721
 8913SOL    HW127638   4.123   4.171   0.680
 8913SOL    HW227639   4.045   4.312   0.651
 8914SOL     OW27640   4.781   2.996   3.827
 8914SOL    HW127641   4.773   3.070   3.893
 8914SOL    HW227642   4.782   2.908   3.876
 8915SOL     OW27643   0.860   5.545   1.986
 8915SOL    HW127644   0.781   5.484   1.976
 8915SOL    HW227645   0.842   5.632   1.940
 8916SOL     OW27646   5.756   3.694   1.811
 8916SOL    HW127647   5.767   3.600   1.778
 8916SOL    HW227648   5.685   3.696   1.881
 8917SOL     OW27649   5.702   4.253   5.888
 8917SOL    HW127650   5.755   4.256   5.972
 8917SOL    HW227651   5.646   4.335   5.881
 8918SOL     OW27652   4.805   4.236   5.853
 8918SOL    HW127653   4.727   4.265   5.798
 8918SOL    HW227654   4.802   4.279   5.942
 8919SOL     OW27655   1.923   3.355   1.468
 8919SOL    HW127656   1.834   3.330   1.506
 8919SOL    HW227657   1.943   3.295   1.390
 8920SOL     OW27658   6.304   5.870   5.905
 8920SOL    HW127659   6.309   5.800   5.833
 8920SOL    HW227660   6.324   5.828   5.994
 8921SOL     OW27661   1.038   5.728   3.424
 8921SOL    HW127662   1.121   5.675   3.443
 8921SOL    HW227663   1.031   5.804   3.489
 8922SOL     OW27664   0.858   2.611   6.728
 8922SOL    HW127665   0.761   2.628   6.741
 8922SOL    HW227666   0.900   2.590   6.817
 8923SOL     OW27667   2.026   4.844   4.438
 8923SOL    HW127668   1.938   4.796   4.440
 8923SOL    HW227669   2.011   4.938   4.406
 8924SOL     OW27670   2.279   6.721   4.578
 8924SOL    HW127671   2.270   6.674   4.666
 8924SOL    HW227672   2.256   6.657   4.504
 8925SOL     OW27673   4.365   5.367   0.719
 8925SOL    HW127674   4.276   5.320   0.723
 8925SOL    HW227675   4.353   5.462   0.749
 8926SOL     OW27676   5.825   0.111   6.835
 8926SOL    HW127677   5.899   0.179   6.836
 8926SOL    HW227678   5.739   0.156   6.860
 8927SOL     OW27679   2.706   2.232   4.912
 8927SOL    HW127680   2.626   2.177   4.934
 8927SOL    HW227681   2.679   2.313   4.860
 8928SOL     OW27682   1.445   0.429   5.146
 8928SOL    HW127683   1.486   0.460   5.060
 8928SOL    HW227684   1.359   0.381   5.126
 8929SOL     OW27685   4.785   4.244   3.144
 8929SOL    HW127686   4.828   4.155   3.159
 8929SOL    HW227687   4.851   4.306   3.103
 8930SOL     OW27688   0.110   5.648   5.380
 8930SOL    HW127689   0.059   5.681   5.301
 8930SOL    HW227690   0.125   5.549   5.371
 8931SOL     OW27691   4.725   1.037   1.863
 8931SOL    HW127692   4.688   1.085   1.784
 8931SOL    HW227693   4.663   0.964   1.889
 8932SOL     OW27694   4.606   0.767   0.407
 8932SOL    HW127695   4.540   0.692   0.407
 8932SOL    HW227696   4.569   0.845   0.358
 8933SOL     OW27697   1.915   6.928   5.558
 8933SOL    HW127698   1.925   6.858   5.487
 8933SOL    HW227699   1.981   7.001   5.541
 8934SOL     OW27700   3.347   6.611   4.121
 8934SOL    HW127701   3.432   6.665   4.123
 8934SOL    HW227702   3.335   6.566   4.210
 8935SOL     OW27703   5.729   2.282   2.558
 8935SOL    HW127704   5.662   2.292   2.484
 8935SOL    HW227705   5.729   2.188   2.591
 8936SOL     OW27706   1.094   3.995   1.973
 8936SOL    HW127707   1.094   3.913   2.030
 8936SOL    HW227708   1.155   3.981   1.895
 8937SOL     OW27709   3.025   6.468   5.136
 8937SOL    HW127710   2.934   6.501   5.161
 8937SOL    HW227711   3.083   6.546   5.112
 8938SOL     OW27712   5.337   6.835   1.806
 8938SOL    HW127713   5.305   6.781   1.885
 8938SOL    HW227714   5.306   6.929   1.816
 8939SOL     OW27715   6.551   3.169   4.661
 8939SOL    HW127716   6.508   3.244   4.611
 8939SOL    HW227717   6.574   3.095   4.598
 8940SOL     OW27718   6.052   3.698   2.686
 8940SOL    HW127719   6.045   3.713   2.587
 8940SOL    HW227720   5.982   3.632   2.714
 8941SOL     OW27721   5.697   2.261   3.359
 8941SOL    HW127722   5.640   2.179   3.350
 8941SOL    HW227723   5.646   2.332   3.407
 8942SOL     OW27724   4.809   6.062   4.488
 8942SOL    HW127725   4.876   6.136   4.481
 8942SOL    HW227726   4.813   6.022   4.580
 8943SOL     OW27727   4.110   3.740   0.419
 8943SOL    HW127728   4.092   3.661   0.478
 8943SOL    HW227729   4.048   3.814   0.444
 8944SOL     OW27730   4.622   5.698   5.436
 8944SOL    HW127731   4.530   5.734   5.420
 8944SOL    HW227732   4.628   5.662   5.529
 8945SOL     OW27733   6.851   4.995   2.217
 8945SOL    HW127734   6.912   5.062   2.176
 8945SOL    HW227735   6.846   4.914   2.158
 8946SOL     OW27736   3.513   2.003   3.781
 8946SOL    HW127737   3.595   1.962   3.821
 8946SOL    HW227738   3.536   2.042   3.691
 8947SOL     OW27739   2.735   5.518   0.641
 8947SOL    HW127740   2.796   5.596   0.625
 8947SOL    HW227741   2.662   5.546   0.704
 8948SOL     OW27742   5.565   0.329   2.662
 8948SOL    HW127743   5.592   0.365   2.573
 8948SOL    HW227744   5.486   0.380   2.695
 8949SOL     OW27745   4.069   6.484   0.691
 8949SOL    HW127746   4.099   6.496   0.596
 8949SOL    HW227747   4.107   6.399   0.728
 8950SOL     OW27748   3.627   3.733   3.557
 8950SOL    HW127749   3.621   3.828   3.530
 8950SOL    HW227750   3.610   3.674   3.478
 8951SOL     OW27751   0.816   0.939   3.990
 8951SOL    HW127752   0.857   0.935   3.899
 8951SOL    HW227753   0.882   0.974   4.056
 8952SOL     OW27754   1.462   3.595   4.801
 8952SOL    HW127755   1.451   3.676   4.742
 8952SOL    HW227756   1.438   3.619   4.895
 8953SOL     OW27757   0.848   5.931   1.113
 8953SOL    HW127758   0.934   5.884   1.134
 8953SOL    HW227759   0.868   6.024   1.081
 8954SOL     OW27760   2.671   4.455   5.554
 8954SOL    HW127761   2.659   4.553   5.539
 8954SOL    HW227762   2.585   4.408   5.535
 8955SOL     OW27763   6.202   3.413   5.536
 8955SOL    HW127764   6.195   3.319   5.503
 8955SOL    HW227765   6.140   3.471   5.482
 8956SOL     OW27766   0.944   6.525   1.357
 8956SOL    HW127767   1.036   6.564   1.354
 8956SOL    HW227768   0.889   6.572   1.427
 8957SOL     OW27769   0.653   0.061   3.435
 8957SOL    HW127770   0.631   7.014   3.370
 8957SOL    HW227771   0.606   0.044   3.521
 8958SOL     OW27772   6.994   3.186   4.729
 8958SOL    HW127773   6.988   3.091   4.698
 8958SOL    HW227774   0.064   3.215   4.732
 8959SOL     OW27775   4.850   1.418   3.733
 8959SOL    HW127776   4.864   1.329   3.777
 8959SOL    HW227777   4.910   1.486   3.776
 8960SOL     OW27778   4.201   6.102   2.154
 8960SOL    HW127779   4.189   6.114   2.252
 8960SOL    HW227780   4.147   6.171   2.105
 8961SOL     OW27781   2.627   1.950   5.564
 8961SOL    HW127782   2.549   1.906   5.609
 8961SOL    HW227783   2.596   2.031   5.514
 8962SOL     OW27784   6.608   6.133   1.564
 8962SOL    HW127785   6.636   6.062   1.628
 8962SOL    HW227786   6.563   6.092   1.485
 8963SOL     OW27787   2.358   5.029   6.117
 8963SOL    HW127788   2.422   5.012   6.192
 8963SOL    HW227789   2.394   4.987   6.033
 8964SOL     OW27790   1.143   3.052   4.369
 8964SOL    HW127791   1.205   3.083   4.297
 8964SOL    HW227792   1.183   3.073   4.458
 8965SOL     OW27793   2.865   5.734   6.769
 8965SOL    HW127794   2.892   5.640   6.788
 8965SOL    HW227795   2.903   5.762   6.680
 8966SOL     OW27796   5.084   6.782   5.318
 8966SOL    HW127797   5.175   6.804   5.353
 8966SOL    HW227798   5.082   6.796   5.220
 8967SOL     OW27799   2.430   0.425   2.974
 8967SOL    HW127800   2.401   0.521   2.977
 8967SOL    HW227801   2.522   0.418   3.013
 8968SOL     OW27802   2.880   5.719   2.016
 8968SOL    HW127803   2.951   5.653   1.990
 8968SOL    HW227804   2.885   5.736   2.114
 8969SOL     OW27805   0.227   1.215   2.090
 8969SOL    HW127806   0.239   1.241   1.994
 8969SOL    HW227807   0.186   1.124   2.095
 8970SOL     OW27808   2.386   1.852   4.198
 8970SOL    HW127809   2.471   1.903   4.201
 8970SOL    HW227810   2.315   1.906   4.152
 8971SOL     OW27811   3.429   5.194   1.367
 8971SOL    HW127812   3.490   5.123   1.334
 8971SOL    HW227813   3.364   5.155   1.433
 8972SOL     OW27814   6.322   3.805   5.992
 8972SOL    HW127815   6.347   3.787   5.896
 8972SOL    HW227816   6.374   3.743   6.051
 8973SOL     OW27817   2.489   1.735   3.417
 8973SOL    HW127818   2.559   1.735   3.346
 8973SOL    HW227819   2.435   1.651   3.410
 8974SOL     OW27820   1.425   4.905   5.143
 8974SOL    HW127821   1.340   4.875   5.099
 8974SOL    HW227822   1.473   4.826   5.180
 8975SOL     OW27823   0.722   4.081   6.392
 8975SOL    HW127824   0.780   4.014   6.345
 8975SOL    HW227825   0.639   4.035   6.426
 8976SOL     OW27826   5.679   0.267   1.298
 8976SOL    HW127827   5.755   0.316   1.341
 8976SOL    HW227828   5.714   0.189   1.248
 8977SOL     OW27829   0.792   5.058   5.900
 8977SOL    HW127830   0.763   5.117   5.976
 8977SOL    HW227831   0.889   5.075   5.880
 8978SOL     OW27832   6.562   5.038   5.317
 8978SOL    HW127833   6.573   4.951   5.365
 8978SOL    HW227834   6.477   5.036   5.263
 8979SOL     OW27835   1.897   4.242   3.705
 8979SOL    HW127836   1.923   4.156   3.661
 8979SOL    HW227837   1.925   4.240   3.801
 8980SOL     OW27838   5.214   0.441   0.510
 8980SOL    HW127839   5.278   0.393   0.569
 8980SOL    HW227840   5.209   0.537   0.538
 8981SOL     OW27841   3.996   2.136   6.600
 8981SOL    HW127842   4.019   2.225   6.637
 8981SOL    HW227843   3.938   2.087   6.664
 8982SOL     OW27844   0.578   0.583   3.175
 8982SOL    HW127845   0.666   0.590   3.223
 8982SOL    HW227846   0.504   0.581   3.242
 8983SOL     OW27847   1.816   6.363   2.405
 8983SOL    HW127848   1.782   6.350   2.499
 8983SOL    HW227849   1.829   6.461   2.388
 8984SOL     OW27850   6.114   0.599   3.711
 8984SOL    HW127851   6.090   0.595   3.808
 8984SOL    HW227852   6.098   0.691   3.676
 8985SOL     OW27853   4.918   0.612   1.601
 8985SOL    HW127854   5.008   0.600   1.643
 8985SOL    HW227855   4.897   0.533   1.544
 8986SOL     OW27856   1.138   6.950   6.608
 8986SOL    HW127857   1.066   6.886   6.633
 8986SOL    HW227858   1.197   6.910   6.538
 8987SOL     OW27859   2.621   6.586   2.451
 8987SOL    HW127860   2.557   6.542   2.387
 8987SOL    HW227861   2.576   6.665   2.493
 8988SOL     OW27862   2.261   6.734   0.569
 8988SOL    HW127863   2.303   6.822   0.589
 8988SOL    HW227864   2.187   6.716   0.634
 8989SOL     OW27865   6.725   1.285   2.250
 8989SOL    HW127866   6.756   1.299   2.344
 8989SOL    HW227867   6.797   1.315   2.187
 8990SOL     OW27868   3.766   1.204   3.038
 8990SOL    HW127869   3.858   1.168   3.029
 8990SOL    HW227870   3.727   1.176   3.126
 8991SOL     OW27871   1.319   2.031   0.798
 8991SOL    HW127872   1.287   1.970   0.725
 8991SOL    HW227873   1.361   2.112   0.758
 8992SOL     OW27874   1.036   5.399   5.055
 8992SOL    HW127875   1.056   5.484   5.005
 8992SOL    HW227876   1.108   5.333   5.038
 8993SOL     OW27877   5.694   4.213   3.908
 8993SOL    HW127878   5.701   4.274   3.829
 8993SOL    HW227879   5.729   4.122   3.883
 8994SOL     OW27880   1.520   6.276   2.085
 8994SOL    HW127881   1.456   6.201   2.068
 8994SOL    HW227882   1.595   6.244   2.142
 8995SOL     OW27883   1.990   4.217   3.950
 8995SOL    HW127884   1.980   4.187   4.045
 8995SOL    HW227885   2.081   4.257   3.937
 8996SOL     OW27886   2.715   3.279   1.066
 8996SOL    HW127887   2.733   3.376   1.082
 8996SOL    HW227888   2.659   3.243   1.140
 8997SOL     OW27889   4.410   1.604   4.624
 8997SOL    HW127890   4.451   1.672   4.684
 8997SOL    HW227891   4.313   1.625   4.611
 8998SOL     OW27892   0.826   1.308   0.024
 8998SOL    HW127893   0.898   1.334   0.088
 8998SOL    HW227894   0.752   1.376   0.028
 8999SOL     OW27895   5.698   2.867   5.463
 8999SOL    HW127896   5.766   2.891   5.394
 8999SOL    HW227897   5.642   2.947   5.484
 9000SOL     OW27898   4.945   4.907   1.336
 9000SOL    HW127899   4.999   4.896   1.419
 9000SOL    HW227900   4.848   4.911   1.359
 9001SOL     OW27901   0.451   3.183   4.410
 9001SOL    HW127902   0.432   3.281   4.420
 9001SOL    HW227903   0.498   3.150   4.492
 9002SOL     OW27904   5.014   2.862   5.706
 9002SOL    HW127905   5.025   2.808   5.790
 9002SOL    HW227906   4.921   2.851   5.672
 9003SOL     OW27907   0.478   3.541   6.965
 9003SOL    HW127908   0.414   3.615   6.940
 9003SOL    HW227909   0.532   3.516   6.884
 9004SOL     OW27910   4.682   5.632   0.250
 9004SOL    HW127911   4.686   5.561   0.321
 9004SOL    HW227912   4.705   5.720   0.291
 9005SOL     OW27913   4.975   3.757   3.806
 9005SOL    HW127914   4.962   3.659   3.792
 9005SOL    HW227915   5.070   3.782   3.784
 9006SOL     OW27916   3.437   6.491   1.981
 9006SOL    HW127917   3.533   6.498   2.008
 9006SOL    HW227918   3.379   6.501   2.061
 9007SOL     OW27919   2.190   6.319   5.777
 9007SOL    HW127920   2.127   6.361   5.711
 9007SOL    HW227921   2.172   6.221   5.781
 9008SOL     OW27922   0.224   4.605   1.955
 9008SOL    HW127923   0.206   4.649   1.867
 9008SOL    HW227924   0.210   4.671   2.029
 9009SOL     OW27925   3.692   6.585   7.025
 9009SOL    HW127926   3.678   6.487   7.016
 9009SOL    HW227927   3.619   6.625   0.055
 9010SOL     OW27928   0.074   5.899   4.723
 9010SOL    HW127929   0.166   5.910   4.685
 9010SOL    HW227930   0.044   5.804   4.710
 9011SOL     OW27931   4.483   2.469   2.110
 9011SOL    HW127932   4.410   2.448   2.045
 9011SOL    HW227933   4.537   2.546   2.076
 9012SOL     OW27934   4.276   5.183   2.981
 9012SOL    HW127935   4.322   5.099   2.952
 9012SOL    HW227936   4.193   5.196   2.927
 9013SOL     OW27937   3.781   6.085   2.019
 9013SOL    HW127938   3.696   6.066   1.970
 9013SOL    HW227939   3.857   6.082   1.955
 9014SOL     OW27940   2.380   1.262   1.913
 9014SOL    HW127941   2.292   1.215   1.909
 9014SOL    HW227942   2.408   1.272   2.008
 9015SOL     OW27943   6.265   2.359   4.561
 9015SOL    HW127944   6.171   2.349   4.527
 9015SOL    HW227945   6.268   2.436   4.625
 9016SOL     OW27946   6.991   5.353   6.479
 9016SOL    HW127947   7.005   5.383   6.573
 9016SOL    HW227948   6.897   5.320   6.469
 9017SOL     OW27949   6.046   3.282   2.625
 9017SOL    HW127950   6.124   3.340   2.650
 9017SOL    HW227951   6.078   3.187   2.615
 9018SOL     OW27952   5.313   0.973   6.816
 9018SOL    HW127953   5.277   1.045   6.876
 9018SOL    HW227954   5.243   0.903   6.802
 9019SOL     OW27955   1.817   5.314   0.052
 9019SOL    HW127956   1.741   5.311   0.116
 9019SOL    HW227957   1.903   5.316   0.104
 9020SOL     OW27958   0.915   4.966   4.427
 9020SOL    HW127959   0.952   4.940   4.517
 9020SOL    HW227960   0.900   5.064   4.424
 9021SOL     OW27961   6.207   5.376   5.493
 9021SOL    HW127962   6.126   5.351   5.439
 9021SOL    HW227963   6.266   5.436   5.439
 9022SOL     OW27964   1.270   6.855   6.105
 9022SOL    HW127965   1.179   6.896   6.111
 9022SOL    HW227966   1.328   6.911   6.044
 9023SOL     OW27967   3.598   3.719   4.152
 9023SOL    HW127968   3.531   3.765   4.210
 9023SOL    HW227969   3.645   3.787   4.096
 9024SOL     OW27970   0.995   0.088   0.254
 9024SOL    HW127971   1.082   0.040   0.264
 9024SOL    HW227972   1.010   0.175   0.207
 9025SOL     OW27973   0.576   2.768   0.288
 9025SOL    HW127974   0.493   2.820   0.307
 9025SOL    HW227975   0.656   2.822   0.313
 9026SOL     OW27976   3.002   3.877   6.016
 9026SOL    HW127977   3.023   3.879   6.114
 9026SOL    HW227978   3.055   3.805   5.971
 9027SOL     OW27979   1.720   3.227   2.236
 9027SOL    HW127980   1.785   3.190   2.169
 9027SOL    HW227981   1.673   3.306   2.196
 9028SOL     OW27982   1.675   4.618   4.838
 9028SOL    HW127983   1.727   4.700   4.816
 9028SOL    HW227984   1.724   4.565   4.907
 9029SOL     OW27985   5.470   5.391   2.766
 9029SOL    HW127986   5.542   5.348   2.820
 9029SOL    HW227987   5.487   5.490   2.762
 9030SOL     OW27988   4.939   2.448   2.888
 9030SOL    HW127989   4.878   2.528   2.891
 9030SOL    HW227990   4.913   2.389   2.812
 9031SOL     OW27991   2.524   0.987   2.130
 9031SOL    HW127992   2.465   1.034   2.196
 9031SOL    HW227993   2.610   1.036   2.123
 9032SOL     OW27994   0.330   3.757   2.633
 9032SOL    HW127995   0.249   3.780   2.688
 9032SOL    HW227996   0.301   3.704   2.553
 9033SOL     OW27997   1.233   3.783   2.615
 9033SOL    HW127998   1.272   3.695   2.589
 9033SOL    HW227999   1.271   3.812   2.703
 9034SOL     OW28000   1.524   6.549   0.093
 9034SOL    HW128001   1.538   6.571   0.189
 9034SOL    HW228002   1.598   6.490   0.062
 9035SOL     OW28003   6.294   1.105   4.255
 9035SOL    HW128004   6.294   1.005   4.253
 9035SOL    HW228005   6.311   1.136   4.348
 9036SOL     OW28006   0.295   1.421   4.753
 9036SOL    HW128007   0.378   1.367   4.766
 9036SOL    HW228008   0.296   1.463   4.663
 9037SOL     OW28009   2.642   4.449   5.852
 9037SOL    HW128010   2.683   4.467   5.763
 9037SOL    HW228011   2.547   4.419   5.840
 9038SOL     OW28012   4.164   5.464   5.664
 9038SOL    HW128013   4.186   5.488   5.759
 9038SOL    HW228014   4.129   5.370   5.661
 9039SOL     OW28015   2.728   5.003   0.185
 9039SOL    HW128016   2.684   4.935   0.126
 9039SOL    HW228017   2.720   5.093   0.142
 9040SOL     OW28018   3.162   1.161   2.349
 9040SOL    HW128019   3.256   1.138   2.322
 9040SOL    HW228020   3.147   1.133   2.444
 9041SOL     OW28021   1.990   2.417   5.549
 9041SOL    HW128022   2.065   2.468   5.507
 9041SOL    HW228023   1.909   2.423   5.491
 9042SOL     OW28024   1.946   5.453   2.305
 9042SOL    HW128025   1.936   5.421   2.211
 9042SOL    HW228026   2.042   5.471   2.325
 9043SOL     OW28027   0.523   1.672   0.350
 9043SOL    HW128028   0.568   1.711   0.430
 9043SOL    HW228029   0.503   1.746   0.285
 9044SOL     OW28030   0.529   4.208   0.418
 9044SOL    HW128031   0.503   4.112   0.421
 9044SOL    HW228032   0.447   4.265   0.418
 9045SOL     OW28033   2.106   4.678   4.838
 9045SOL    HW128034   2.067   4.745   4.902
 9045SOL    HW228035   2.123   4.722   4.750
 9046SOL     OW28036   3.471   4.110   5.773
 9046SOL    HW128037   3.452   4.204   5.743
 9046SOL    HW228038   3.445   4.099   5.869
 9047SOL     OW28039   0.829   4.060   4.095
 9047SOL    HW128040   0.820   4.079   4.192
 9047SOL    HW228041   0.882   3.976   4.082
 9048SOL     OW28042   1.592   2.655   5.293
 9048SOL    HW128043   1.540   2.604   5.362
 9048SOL    HW228044   1.634   2.735   5.336
 9049SOL     OW28045   4.809   6.470   5.807
 9049SOL    HW128046   4.756   6.409   5.866
 9049SOL    HW228047   4.878   6.417   5.758
 9050SOL     OW28048   0.003   3.974   6.471
 9050SOL    HW128049   0.067   3.931   6.408
 9050SOL    HW228050   0.052   4.003   6.554
 9051SOL     OW28051   6.861   6.321   6.649
 9051SOL    HW128052   6.901   6.261   6.580
 9051SOL    HW228053   6.900   6.300   6.738
 9052SOL     OW28054   2.457   4.835   4.810
 9052SOL    HW128055   2.453   4.832   4.710
 9052SOL    HW228056   2.501   4.751   4.844
 9053SOL     OW28057   1.391   0.809   2.730
 9053SOL    HW128058   1.363   0.724   2.686
 9053SOL    HW228059   1.485   0.800   2.764
 9054SOL     OW28060   1.764   0.125   1.785
 9054SOL    HW128061   1.846   0.166   1.823
 9054SOL    HW228062   1.716   0.192   1.729
 9055SOL     OW28063   1.616   2.233   5.328
 9055SOL    HW128064   1.686   2.202   5.264
 9055SOL    HW228065   1.532   2.255   5.279
 9056SOL     OW28066   5.267   2.055   1.808
 9056SOL    HW128067   5.234   2.148   1.793
 9056SOL    HW228068   5.248   2.028   1.903
 9057SOL     OW28069   3.459   6.808   6.201
 9057SOL    HW128070   3.429   6.714   6.184
 9057SOL    HW228071   3.532   6.809   6.269
 9058SOL     OW28072   2.214   2.928   3.803
 9058SOL    HW128073   2.213   2.846   3.860
 9058SOL    HW228074   2.182   3.007   3.856
 9059SOL     OW28075   0.148   0.771   2.112
 9059SOL    HW128076   0.135   0.715   2.030
 9059SOL    HW228077   0.085   0.848   2.111
 9060SOL     OW28078   0.282   4.932   0.180
 9060SOL    HW128079   0.263   4.943   0.082
 9060SOL    HW228080   0.377   4.905   0.192
 9061SOL     OW28081   4.410   4.527   2.811
 9061SOL    HW128082   4.381   4.589   2.739
 9061SOL    HW228083   4.348   4.536   2.889
 9062SOL     OW28084   0.280   5.929   2.749
 9062SOL    HW128085   0.215   5.880   2.690
 9062SOL    HW228086   0.239   5.942   2.839
 9063SOL     OW28087   5.994   6.756   1.015
 9063SOL    HW128088   6.041   6.725   1.097
 9063SOL    HW228089   5.922   6.821   1.039
 9064SOL     OW28090   1.446   5.652   3.096
 9064SOL    HW128091   1.366   5.683   3.046
 9064SOL    HW228092   1.519   5.720   3.087
 9065SOL     OW28093   2.950   4.202   6.765
 9065SOL    HW128094   3.045   4.179   6.742
 9065SOL    HW228095   2.949   4.286   6.819
 9066SOL     OW28096   5.186   4.579   4.053
 9066SOL    HW128097   5.257   4.521   4.014
 9066SOL    HW228098   5.125   4.611   3.981
 9067SOL     OW28099   2.111   6.794   3.943
 9067SOL    HW128100   2.155   6.728   3.882
 9067SOL    HW228101   2.140   6.775   4.037
 9068SOL     OW28102   5.032   0.327   5.691
 9068SOL    HW128103   5.001   0.340   5.785
 9068SOL    HW228104   4.977   0.384   5.630
 9069SOL     OW28105   4.576   2.155   1.780
 9069SOL    HW128106   4.492   2.112   1.813
 9069SOL    HW228107   4.632   2.183   1.858
 9070SOL     OW28108   1.534   0.866   6.600
 9070SOL    HW128109   1.591   0.871   6.682
 9070SOL    HW228110   1.534   0.955   6.553
 9071SOL     OW28111   5.126   2.878   6.705
 9071SOL    HW128112   5.141   2.811   6.777
 9071SOL    HW228113   5.196   2.867   6.634
 9072SOL     OW28114   6.439   1.112   2.011
 9072SOL    HW128115   6.385   1.063   1.942
 9072SOL    HW228116   6.533   1.124   1.977
 9073SOL     OW28117   4.894   2.687   5.885
 9073SOL    HW128118   4.802   2.722   5.901
 9073SOL    HW228119   4.889   2.590   5.859
 9074SOL     OW28120   2.017   0.990   3.328
 9074SOL    HW128121   2.018   1.070   3.389
 9074SOL    HW228122   1.961   0.918   3.369
 9075SOL     OW28123   5.040   5.455   0.814
 9075SOL    HW128124   5.067   5.546   0.844
 9075SOL    HW228125   4.947   5.436   0.845
 9076SOL     OW28126   1.169   6.414   2.215
 9076SOL    HW128127   1.246   6.470   2.184
 9076SOL    HW228128   1.203   6.327   2.249
 9077SOL     OW28129   6.629   1.413   6.385
 9077SOL    HW128130   6.673   1.393   6.297
 9077SOL    HW228131   6.569   1.337   6.410
 9078SOL     OW28132   5.080   6.842   6.637
 9078SOL    HW128133   4.990   6.798   6.643
 9078SOL    HW228134   5.073   6.936   6.670
 9079SOL     OW28135   1.890   1.645   6.371
 9079SOL    HW128136   1.988   1.644   6.352
 9079SOL    HW228137   1.839   1.637   6.285
 9080SOL     OW28138   6.281   4.437   0.912
 9080SOL    HW128139   6.290   4.371   0.838
 9080SOL    HW228140   6.255   4.389   0.996
 9081SOL     OW28141   4.765   1.328   0.103
 9081SOL    HW128142   4.800   1.408   0.055
 9081SOL    HW228143   4.706   1.276   0.041
 9082SOL     OW28144   3.153   4.659   6.671
 9082SOL    HW128145   3.149   4.653   6.771
 9082SOL    HW228146   3.189   4.749   6.644
 9083SOL     OW28147   3.986   0.445   0.553
 9083SOL    HW128148   3.898   0.401   0.536
 9083SOL    HW228149   3.977   0.511   0.627
 9084SOL     OW28150   6.828   4.821   4.535
 9084SOL    HW128151   6.754   4.882   4.561
 9084SOL    HW228152   6.875   4.858   4.455
 9085SOL     OW28153   3.187   4.581   1.143
 9085SOL    HW128154   3.141   4.631   1.217
 9085SOL    HW228155   3.283   4.610   1.138
 9086SOL     OW28156   6.363   2.057   0.622
 9086SOL    HW128157   6.275   2.011   0.610
 9086SOL    HW228158   6.375   2.125   0.550
 9087SOL     OW28159   5.004   1.356   0.830
 9087SOL    HW128160   5.062   1.312   0.761
 9087SOL    HW228161   5.022   1.454   0.831
 9088SOL     OW28162   5.146   6.457   6.800
 9088SOL    HW128163   5.121   6.363   6.826
 9088SOL    HW228164   5.152   6.513   6.882
 9089SOL     OW28165   5.198   5.727   3.019
 9089SOL    HW128166   5.213   5.629   3.027
 9089SOL    HW228167   5.106   5.744   2.982
 9090SOL     OW28168   5.883   5.508   5.078
 9090SOL    HW128169   5.879   5.593   5.131
 9090SOL    HW228170   5.811   5.447   5.108
 9091SOL     OW28171   2.318   2.147   1.546
 9091SOL    HW128172   2.344   2.157   1.642
 9091SOL    HW228173   2.291   2.052   1.529
 9092SOL     OW28174   3.039   1.994   5.054
 9092SOL    HW128175   3.065   2.089   5.072
 9092SOL    HW228176   3.086   1.963   4.971
 9093SOL     OW28177   2.149   3.314   0.522
 9093SOL    HW128178   2.197   3.401   0.516
 9093SOL    HW228179   2.088   3.304   0.443
 9094SOL     OW28180   6.504   2.371   0.057
 9094SOL    HW128181   6.494   2.347   6.987
 9094SOL    HW228182   6.583   2.324   0.096
 9095SOL     OW28183   2.162   2.753   0.228
 9095SOL    HW128184   2.248   2.773   0.275
 9095SOL    HW228185   2.095   2.825   0.248
 9096SOL     OW28186   6.857   4.257   2.378
 9096SOL    HW128187   6.889   4.217   2.293
 9096SOL    HW228188   6.922   4.327   2.409
 9097SOL     OW28189   6.928   5.917   5.964
 9097SOL    HW128190   7.008   5.863   5.990
 9097SOL    HW228191   6.849   5.857   5.954
 9098SOL     OW28192   4.187   3.348   5.386
 9098SOL    HW128193   4.225   3.322   5.297
 9098SOL    HW228194   4.109   3.290   5.408
 9099SOL     OW28195   2.307   2.526   6.711
 9099SOL    HW128196   2.376   2.566   6.772
 9099SOL    HW228197   2.328   2.552   6.616
 9100SOL     OW28198   1.279   3.075   0.511
 9100SOL    HW128199   1.225   3.005   0.558
 9100SOL    HW228200   1.227   3.110   0.434
 9101SOL     OW28201   2.391   2.412   0.049
 9101SOL    HW128202   2.471   2.361   0.083
 9101SOL    HW228203   2.314   2.398   0.111
 9102SOL     OW28204   4.755   6.405   2.649
 9102SOL    HW128205   4.825   6.404   2.578
 9102SOL    HW228206   4.785   6.461   2.726
 9103SOL     OW28207   0.995   4.335   5.867
 9103SOL    HW128208   1.074   4.380   5.826
 9103SOL    HW228209   0.990   4.357   5.964
 9104SOL     OW28210   4.447   6.978   2.697
 9104SOL    HW128211   4.390   0.035   2.701
 9104SOL    HW228212   4.409   6.909   2.760
 9105SOL     OW28213   3.308   2.248   5.899
 9105SOL    HW128214   3.407   2.261   5.906
 9105SOL    HW228215   3.275   2.298   5.819
 9106SOL     OW28216   6.262   5.399   1.659
 9106SOL    HW128217   6.188   5.451   1.701
 9106SOL    HW228218   6.250   5.302   1.678
 9107SOL     OW28219   5.094   6.225   6.487
 9107SOL    HW128220   5.130   6.193   6.399
 9107SOL    HW228221   5.168   6.266   6.540
 9108SOL     OW28222   3.440   5.583   0.234
 9108SOL    HW128223   3.406   5.662   0.184
 9108SOL    HW228224   3.449   5.505   0.172
 9109SOL     OW28225   3.505   1.608   3.775
 9109SOL    HW128226   3.411   1.633   3.801
 9109SOL    HW228227   3.521   1.636   3.680
 9110SOL     OW28228   0.661   3.615   3.649
 9110SOL    HW128229   0.588   3.627   3.717
 9110SOL    HW228230   0.729   3.687   3.659
 9111SOL     OW28231   3.902   4.098   1.350
 9111SOL    HW128232   3.992   4.108   1.391
 9111SOL    HW228233   3.843   4.047   1.413
 9112SOL     OW28234   1.011   6.339   2.452
 9112SOL    HW128235   1.045   6.337   2.358
 9112SOL    HW228236   0.924   6.291   2.457
 9113SOL     OW28237   2.652   5.551   6.890
 9113SOL    HW128238   2.572   5.504   6.927
 9113SOL    HW228239   2.629   5.588   6.799
 9114SOL     OW28240   2.522   3.527   1.575
 9114SOL    HW128241   2.549   3.622   1.580
 9114SOL    HW228242   2.476   3.500   1.660
 9115SOL     OW28243   1.515   3.822   4.620
 9115SOL    HW128244   1.535   3.865   4.532
 9115SOL    HW228245   1.506   3.892   4.691
 9116SOL     OW28246   2.656   2.055   5.873
 9116SOL    HW128247   2.677   2.084   5.780
 9116SOL    HW228248   2.736   2.073   5.932
 9117SOL     OW28249   0.938   2.827   0.239
 9117SOL    HW128250   0.870   2.767   0.197
 9117SOL    HW228251   1.029   2.802   0.206
 9118SOL     OW28252   0.220   6.737   2.058
 9118SOL    HW128253   0.238   6.642   2.082
 9118SOL    HW228254   0.217   6.747   1.959
 9119SOL     OW28255   6.276   0.018   1.130
 9119SOL    HW128256   6.218   0.067   1.196
 9119SOL    HW228257   6.222   7.022   1.048
 9120SOL     OW28258   6.220   0.441   6.959
 9120SOL    HW128259   6.243   0.486   0.019
 9120SOL    HW228260   6.193   0.346   6.977
 9121SOL     OW28261   1.397   1.418   6.629
 9121SOL    HW128262   1.344   1.502   6.622
 9121SOL    HW228263   1.346   1.343   6.586
 9122SOL     OW28264   0.509   2.994   1.354
 9122SOL    HW128265   0.601   2.979   1.391
 9122SOL    HW228266   0.508   2.969   1.258
 9123SOL     OW28267   1.484   6.708   6.449
 9123SOL    HW128268   1.548   6.756   6.509
 9123SOL    HW228269   1.466   6.617   6.486
 9124SOL     OW28270   0.294   4.301   5.220
 9124SOL    HW128271   0.275   4.204   5.203
 9124SOL    HW228272   0.392   4.318   5.207
 9125SOL     OW28273   4.870   6.091   0.990
 9125SOL    HW128274   4.781   6.044   0.991
 9125SOL    HW228275   4.932   6.045   1.054
 9126SOL     OW28276   5.700   0.209   3.427
 9126SOL    HW128277   5.604   0.232   3.443
 9126SOL    HW228278   5.716   0.204   3.328
 9127SOL     OW28279   5.901   5.570   5.945
 9127SOL    HW128280   5.991   5.535   5.974
 9127SOL    HW228281   5.903   5.670   5.944
 9128SOL     OW28282   4.699   2.675   5.552
 9128SOL    HW128283   4.613   2.696   5.507
 9128SOL    HW228284   4.727   2.752   5.610
 9129SOL     OW28285   3.121   1.384   0.280
 9129SOL    HW128286   3.027   1.393   0.313
 9129SOL    HW228287   3.123   1.401   0.181
 9130SOL     OW28288   5.707   5.727   0.886
 9130SOL    HW128289   5.744   5.657   0.825
 9130SOL    HW228290   5.776   5.799   0.900
 9131SOL     OW28291   1.445   4.861   3.958
 9131SOL    HW128292   1.439   4.782   4.019
 9131SOL    HW228293   1.354   4.901   3.946
 9132SOL     OW28294   1.554   2.856   4.203
 9132SOL    HW128295   1.535   2.858   4.301
 9132SOL    HW228296   1.535   2.765   4.167
 9133SOL     OW28297   1.412   5.065   1.065
 9133SOL    HW128298   1.435   5.059   1.162
 9133SOL    HW228299   1.472   5.006   1.012
 9134SOL     OW28300   2.573   4.985   6.284
 9134SOL    HW128301   2.570   4.997   6.384
 9134SOL    HW228302   2.666   5.001   6.252
 9135SOL     OW28303   1.036   6.438   3.834
 9135SOL    HW128304   0.961   6.423   3.898
 9135SOL    HW228305   1.015   6.516   3.775
 9136SOL     OW28306   3.289   5.287   4.951
 9136SOL    HW128307   3.248   5.307   5.041
 9136SOL    HW228308   3.377   5.333   4.944
 9137SOL     OW28309   4.109   0.390   2.393
 9137SOL    HW128310   4.033   0.364   2.334
 9137SOL    HW228311   4.108   0.489   2.406
 9138SOL     OW28312   3.303   4.407   0.864
 9138SOL    HW128313   3.204   4.397   0.854
 9138SOL    HW228314   3.343   4.319   0.890
 9139SOL     OW28315   3.572   0.626   5.826
 9139SOL    HW128316   3.524   0.691   5.767
 9139SOL    HW228317   3.506   0.563   5.866
 9140SOL     OW28318   6.221   2.938   3.106
 9140SOL    HW128319   6.277   2.868   3.061
 9140SOL    HW228320   6.260   3.028   3.088
 9141SOL     OW28321   5.577   0.580   5.999
 9141SOL    HW128322   5.625   0.517   6.060
 9141SOL    HW228323   5.518   0.640   6.053
 9142SOL     OW28324   1.436   4.002   6.538
 9142SOL    HW128325   1.355   4.053   6.507
 9142SOL    HW228326   1.413   3.905   6.544
 9143SOL     OW28327   5.746   4.352   0.451
 9143SOL    HW128328   5.723   4.430   0.510
 9143SOL    HW228329   5.678   4.280   0.464
 9144SOL     OW28330   1.129   5.444   4.531
 9144SOL    HW128331   1.143   5.524   4.473
 9144SOL    HW228332   1.150   5.361   4.478
 9145SOL     OW28333   0.905   3.581   6.319
 9145SOL    HW128334   0.848   3.524   6.260
 9145SOL    HW228335   0.884   3.677   6.304
 9146SOL     OW28336   0.808   1.236   1.016
 9146SOL    HW128337   0.777   1.318   0.968
 9146SOL    HW228338   0.742   1.163   1.002
 9147SOL     OW28339   4.295   5.541   6.516
 9147SOL    HW128340   4.295   5.606   6.441
 9147SOL    HW228341   4.362   5.569   6.585
 9148SOL     OW28342   3.483   4.916   3.017
 9148SOL    HW128343   3.532   4.901   2.931
 9148SOL    HW228344   3.385   4.924   2.999
 9149SOL     OW28345   6.615   3.277   5.222
 9149SOL    HW128346   6.582   3.263   5.128
 9149SOL    HW228347   6.715   3.269   5.223
 9150SOL     OW28348   4.196   1.330   2.687
 9150SOL    HW128349   4.231   1.364   2.600
 9150SOL    HW228350   4.167   1.407   2.744
 9151SOL     OW28351   6.761   3.111   2.239
 9151SOL    HW128352   6.741   3.206   2.263
 9151SOL    HW228353   6.813   3.109   2.153
 9152SOL     OW28354   2.366   4.857   3.274
 9152SOL    HW128355   2.415   4.792   3.217
 9152SOL    HW228356   2.398   4.849   3.369
 9153SOL     OW28357   2.120   2.798   6.968
 9153SOL    HW128358   2.073   2.722   6.924
 9153SOL    HW228359   2.114   2.787   0.042
 9154SOL     OW28360   0.888   5.530   0.804
 9154SOL    HW128361   0.902   5.483   0.891
 9154SOL    HW228362   0.961   5.507   0.740
 9155SOL     OW28363   1.655   4.508   0.203
 9155SOL    HW128364   1.722   4.521   0.276
 9155SOL    HW228365   1.563   4.521   0.239
 9156SOL     OW28366   4.652   2.620   1.536
 9156SOL    HW128367   4.629   2.692   1.602
 9156SOL    HW228368   4.570   2.595   1.485
 9157SOL     OW28369   5.489   3.653   5.526
 9157SOL    HW128370   5.418   3.697   5.470
 9157SOL    HW228371   5.448   3.578   5.578
 9158SOL     OW28372   0.835   3.837   3.668
 9158SOL    HW128373   0.892   3.802   3.742
 9158SOL    HW228374   0.865   3.930   3.645
 9159SOL     OW28375   6.789   4.790   2.039
 9159SOL    HW128376   6.762   4.715   1.979
 9159SOL    HW228377   6.868   4.837   2.001
 9160SOL     OW28378   0.521   0.225   1.238
 9160SOL    HW128379   0.556   0.133   1.220
 9160SOL    HW228380   0.588   0.292   1.208
 9161SOL     OW28381   4.873   4.323   2.496
 9161SOL    HW128382   4.779   4.342   2.467
 9161SOL    HW228383   4.935   4.334   2.418
 9162SOL     OW28384   5.120   2.818   3.217
 9162SOL    HW128385   5.058   2.752   3.261
 9162SOL    HW228386   5.091   2.833   3.123
 9163SOL     OW28387   3.600   0.734   5.139
 9163SOL    HW128388   3.630   0.777   5.224
 9163SOL    HW228389   3.640   0.783   5.061
 9164SOL     OW28390   3.038   0.264   0.848
 9164SOL    HW128391   2.961   0.324   0.823
 9164SOL    HW228392   3.025   0.232   0.942
 9165SOL     OW28393   4.721   5.883   0.429
 9165SOL    HW128394   4.815   5.899   0.398
 9165SOL    HW228395   4.720   5.807   0.494
 9166SOL     OW28396   3.268   5.685   1.365
 9166SOL    HW128397   3.218   5.771   1.359
 9166SOL    HW228398   3.366   5.703   1.372
 9167SOL     OW28399   0.541   3.655   4.781
 9167SOL    HW128400   0.469   3.600   4.739
 9167SOL    HW228401   0.553   3.626   4.877
 9168SOL     OW28402   3.522   0.570   0.463
 9168SOL    HW128403   3.581   0.577   0.383
 9168SOL    HW228404   3.556   0.498   0.524
 9169SOL     OW28405   0.355   6.792   3.492
 9169SOL    HW128406   0.435   6.843   3.525
 9169SOL    HW228407   0.280   6.802   3.556
 9170SOL     OW28408   6.517   6.107   0.196
 9170SOL    HW128409   6.612   6.091   0.224
 9170SOL    HW228410   6.455   6.057   0.257
 9171SOL     OW28411   3.806   5.895   5.126
 9171SOL    HW128412   3.827   5.799   5.106
 9171SOL    HW228413   3.707   5.906   5.138
 9172SOL     OW28414   2.561   2.541   4.118
 9172SOL    HW128415   2.647   2.491   4.106
 9172SOL    HW228416   2.533   2.536   4.214
 9173SOL     OW28417   0.174   5.345   5.410
 9173SOL    HW128418   0.272   5.324   5.407
 9173SOL    HW228419   0.141   5.331   5.503
 9174SOL     OW28420   0.328   5.761   6.540
 9174SOL    HW128421   0.360   5.668   6.562
 9174SOL    HW228422   0.228   5.764   6.550
 9175SOL     OW28423   2.503   6.216   5.604
 9175SOL    HW128424   2.441   6.180   5.533
 9175SOL    HW228425   2.486   6.168   5.690
 9176SOL     OW28426   1.584   2.041   5.773
 9176SOL    HW128427   1.682   2.020   5.772
 9176SOL    HW228428   1.551   2.055   5.680
 9177SOL     OW28429   1.174   4.949   3.064
 9177SOL    HW128430   1.155   5.008   2.985
 9177SOL    HW228431   1.090   4.936   3.117
 9178SOL     OW28432   2.146   3.979   0.565
 9178SOL    HW128433   2.207   3.908   0.601
 9178SOL    HW228434   2.052   3.959   0.594
 9179SOL     OW28435   2.691   5.112   5.178
 9179SOL    HW128436   2.740   5.162   5.250
 9179SOL    HW228437   2.633   5.042   5.220
 9180SOL     OW28438   5.271   1.925   2.619
 9180SOL    HW128439   5.341   1.891   2.682
 9180SOL    HW228440   5.209   1.987   2.668
 9181SOL     OW28441   3.923   1.140   2.319
 9181SOL    HW128442   3.980   1.221   2.321
 9181SOL    HW228443   3.827   1.167   2.326
 9182SOL     OW28444   2.362   6.626   1.843
 9182SOL    HW128445   2.372   6.536   1.801
 9182SOL    HW228446   2.451   6.672   1.845
 9183SOL     OW28447   5.217   5.081   6.102
 9183SOL    HW128448   5.315   5.092   6.086
 9183SOL    HW228449   5.175   5.038   6.023
 9184SOL     OW28450   5.121   6.650   0.055
 9184SOL    HW128451   5.101   6.741   0.090
 9184SOL    HW228452   5.038   6.594   0.056
 9185SOL     OW28453   5.188   1.733   4.760
 9185SOL    HW128454   5.162   1.805   4.824
 9185SOL    HW228455   5.287   1.734   4.747
 9186SOL     OW28456   5.399   0.630   6.280
 9186SOL    HW128457   5.349   0.551   6.244
 9186SOL    HW228458   5.343   0.712   6.270
 9187SOL     OW28459   2.380   6.454   2.823
 9187SOL    HW128460   2.417   6.475   2.913
 9187SOL    HW228461   2.437   6.386   2.778
 9188SOL     OW28462   2.538   5.587   0.841
 9188SOL    HW128463   2.604   5.568   0.913
 9188SOL    HW228464   2.451   5.544   0.864
 9189SOL     OW28465   5.191   5.297   2.032
 9189SOL    HW128466   5.199   5.282   2.131
 9189SOL    HW228467   5.221   5.216   1.983
 9190SOL     OW28468   1.387   5.717   0.195
 9190SOL    HW128469   1.369   5.758   0.106
 9190SOL    HW228470   1.370   5.619   0.191
 9191SOL     OW28471   0.183   1.091   5.657
 9191SOL    HW128472   0.103   1.115   5.712
 9191SOL    HW228473   0.181   1.142   5.571
 9192SOL     OW28474   1.153   3.635   5.416
 9192SOL    HW128475   1.059   3.617   5.446
 9192SOL    HW228476   1.190   3.712   5.468
 9193SOL     OW28477   2.940   3.834   0.469
 9193SOL    HW128478   2.862   3.848   0.409
 9193SOL    HW228479   2.949   3.736   0.489
 9194SOL     OW28480   2.994   1.005   4.141
 9194SOL    HW128481   3.000   0.905   4.148
 9194SOL    HW228482   3.033   1.046   4.224
 9195SOL     OW28483   1.616   1.093   4.184
 9195SOL    HW128484   1.609   1.055   4.092
 9195SOL    HW228485   1.547   1.166   4.195
 9196SOL     OW28486   5.288   1.317   6.109
 9196SOL    HW128487   5.315   1.249   6.040
 9196SOL    HW228488   5.341   1.401   6.095
 9197SOL     OW28489   2.216   3.573   0.502
 9197SOL    HW128490   2.125   3.605   0.476
 9197SOL    HW228491   2.266   3.647   0.549
 9198SOL     OW28492   0.795   4.563   4.332
 9198SOL    HW128493   0.871   4.529   4.278
 9198SOL    HW228494   0.773   4.497   4.404
 9199SOL     OW28495   5.974   4.396   5.102
 9199SOL    HW128496   5.874   4.399   5.100
 9199SOL    HW228497   6.010   4.488   5.086
 9200SOL     OW28498   2.749   0.008   0.230
 9200SOL    HW128499   2.767   6.989   0.142
 9200SOL    HW228500   2.658   0.049   0.229
 9201SOL     OW28501   2.105   4.264   0.558
 9201SOL    HW128502   2.108   4.169   0.592
 9201SOL    HW228503   2.049   4.319   0.620
 9202SOL     OW28504   2.473   0.813   3.537
 9202SOL    HW128505   2.549   0.815   3.602
 9202SOL    HW228506   2.475   0.894   3.480
 9203SOL     OW28507   6.477   6.528   0.753
 9203SOL    HW128508   6.563   6.575   0.773
 9203SOL    HW228509   6.496   6.436   0.719
 9204SOL     OW28510   6.320   0.671   5.136
 9204SOL    HW128511   6.320   0.691   5.234
 9204SOL    HW228512   6.323   0.572   5.123
 9205SOL     OW28513   7.023   5.386   1.883
 9205SOL    HW128514   0.023   5.458   1.948
 9205SOL    HW228515   0.017   5.416   1.790
 9206SOL     OW28516   3.862   6.852   6.808
 9206SOL    HW128517   3.899   6.800   6.885
 9206SOL    HW228518   3.766   6.875   6.826
 9207SOL     OW28519   5.920   5.858   5.982
 9207SOL    HW128520   5.981   5.913   5.926
 9207SOL    HW228521   5.889   5.911   6.061
 9208SOL     OW28522   1.147   4.060   2.610
 9208SOL    HW128523   1.142   4.098   2.702
 9208SOL    HW228524   1.164   3.961   2.616
 9209SOL     OW28525   2.151   6.611   6.694
 9209SOL    HW128526   2.138   6.592   6.596
 9209SOL    HW228527   2.075   6.667   6.727
 9210SOL     OW28528   6.239   0.424   4.107
 9210SOL    HW128529   6.298   0.422   4.026
 9210SOL    HW228530   6.219   0.330   4.135
 9211SOL     OW28531   0.327   1.615   2.863
 9211SOL    HW128532   0.292   1.580   2.776
 9211SOL    HW228533   0.255   1.607   2.932
 9212SOL     OW28534   3.683   5.381   4.262
 9212SOL    HW128535   3.660   5.285   4.243
 9212SOL    HW228536   3.659   5.403   4.356
 9213SOL     OW28537   6.091   3.816   6.757
 9213SOL    HW128538   6.021   3.795   6.690
 9213SOL    HW228539   6.081   3.911   6.788
 9214SOL     OW28540   0.448   5.183   0.255
 9214SOL    HW128541   0.451   5.103   0.315
 9214SOL    HW228542   0.533   5.189   0.203
 9215SOL     OW28543   1.601   1.384   0.652
 9215SOL    HW128544   1.608   1.483   0.660
 9215SOL    HW228545   1.579   1.345   0.742
 9216SOL     OW28546   2.064   0.397   3.702
 9216SOL    HW128547   2.023   0.389   3.611
 9216SOL    HW228548   2.153   0.351   3.703
 9217SOL     OW28549   0.406   2.413   0.608
 9217SOL    HW128550   0.327   2.415   0.670
 9217SOL    HW228551   0.453   2.500   0.612
 9218SOL     OW28552   2.127   0.757   0.857
 9218SOL    HW128553   2.051   0.694   0.842
 9218SOL    HW228554   2.100   0.850   0.830
 9219SOL     OW28555   5.859   1.908   0.471
 9219SOL    HW128556   5.874   1.857   0.386
 9219SOL    HW228557   5.943   1.909   0.525
 9220SOL     OW28558   3.183   6.403   0.671
 9220SOL    HW128559   3.160   6.308   0.692
 9220SOL    HW228560   3.267   6.405   0.617
 9221SOL     OW28561   2.600   4.621   4.891
 9221SOL    HW128562   2.674   4.618   4.958
 9221SOL    HW228563   2.544   4.538   4.900
 9222SOL     OW28564   3.001   2.089   6.805
 9222SOL    HW128565   2.964   2.071   6.896
 9222SOL    HW228566   3.100   2.098   6.810
 9223SOL     OW28567   2.947   3.265   5.015
 9223SOL    HW128568   2.906   3.208   4.944
 9223SOL    HW228569   2.992   3.344   4.973
 9224SOL     OW28570   2.131   4.754   5.243
 9224SOL    HW128571   2.221   4.794   5.226
 9224SOL    HW228572   2.084   4.806   5.314
 9225SOL     OW28573   1.736   6.333   0.052
 9225SOL    HW128574   1.700   6.276   0.125
 9225SOL    HW228575   1.832   6.310   0.036
 9226SOL     OW28576   4.490   6.656   1.003
 9226SOL    HW128577   4.509   6.751   0.979
 9226SOL    HW228578   4.392   6.642   1.012
 9227SOL     OW28579   1.225   6.585   1.729
 9227SOL    HW128580   1.296   6.515   1.735
 9227SOL    HW228581   1.135   6.542   1.736
 9228SOL     OW28582   0.629   6.714   6.848
 9228SOL    HW128583   0.609   6.687   6.754
 9228SOL    HW228584   0.701   6.654   6.884
 9229SOL     OW28585   0.844   5.780   5.557
 9229SOL    HW128586   0.770   5.797   5.493
 9229SOL    HW228587   0.849   5.683   5.578
 9230SOL     OW28588   4.558   1.767   3.607
 9230SOL    HW128589   4.543   1.668   3.611
 9230SOL    HW228590   4.504   1.806   3.532
 9231SOL     OW28591   2.119   3.548   3.514
 9231SOL    HW128592   2.165   3.624   3.468
 9231SOL    HW228593   2.148   3.462   3.473
 9232SOL     OW28594   4.308   5.297   1.449
 9232SOL    HW128595   4.402   5.333   1.445
 9232SOL    HW228596   4.307   5.202   1.418
 9233SOL     OW28597   5.894   4.489   0.255
 9233SOL    HW128598   5.989   4.498   0.281
 9233SOL    HW228599   5.843   4.443   0.328
 9234SOL     OW28600   1.295   6.373   3.952
 9234SOL    HW128601   1.215   6.387   3.894
 9234SOL    HW228602   1.329   6.280   3.941
 9235SOL     OW28603   0.837   2.580   3.482
 9235SOL    HW128604   0.820   2.659   3.423
 9235SOL    HW228605   0.923   2.593   3.531
 9236SOL     OW28606   3.529   2.499   5.707
 9236SOL    HW128607   3.510   2.526   5.612
 9236SOL    HW228608   3.519   2.578   5.767
 9237SOL     OW28609   1.712   3.665   3.117
 9237SOL    HW128610   1.650   3.743   3.115
 9237SOL    HW228611   1.710   3.623   3.208
 9238SOL     OW28612   4.345   3.390   6.692
 9238SOL    HW128613   4.318   3.369   6.786
 9238SOL    HW228614   4.440   3.363   6.679
 9239SOL     OW28615   2.183   2.995   6.202
 9239SOL    HW128616   2.148   3.075   6.250
 9239SOL    HW228617   2.266   2.963   6.247
 9240SOL     OW28618   4.892   0.728   2.509
 9240SOL    HW128619   4.868   0.766   2.598
 9240SOL    HW228620   4.907   0.803   2.444
 9241SOL     OW28621   0.600   5.503   6.038
 9241SOL    HW128622   0.515   5.525   6.087
 9241SOL    HW228623   0.618   5.574   5.970
 9242SOL     OW28624   5.394   6.267   1.843
 9242SOL    HW128625   5.461   6.239   1.774
 9242SOL    HW228626   5.440   6.277   1.931
 9243SOL     OW28627   5.559   0.203   4.274
 9243SOL    HW128628   5.511   0.136   4.218
 9243SOL    HW228629   5.624   0.253   4.217
 9244SOL     OW28630   3.757   5.882   0.425
 9244SOL    HW128631   3.676   5.879   0.483
 9244SOL    HW228632   3.732   5.916   0.334
 9245SOL     OW28633   0.032   6.998   2.020
 9245SOL    HW128634   0.003   0.034   1.947
 9245SOL    HW228635   6.980   6.941   2.048
 9246SOL     OW28636   6.939   5.078   4.009
 9246SOL    HW128637   6.961   4.981   3.997
 9246SOL    HW228638   6.989   5.114   4.088
 9247SOL     OW28639   1.179   0.198   3.383
 9247SOL    HW128640   1.199   0.294   3.365
 9247SOL    HW228641   1.081   0.188   3.401
 9248SOL     OW28642   3.816   1.532   6.039
 9248SOL    HW128643   3.914   1.529   6.021
 9248SOL    HW228644   3.798   1.491   6.129
 9249SOL     OW28645   4.060   6.667   3.562
 9249SOL    HW128646   4.109   6.754   3.570
 9249SOL    HW228647   4.000   6.656   3.641
 9250SOL     OW28648   5.165   4.007   3.035
 9250SOL    HW128649   5.258   4.043   3.033
 9250SOL    HW228650   5.116   4.035   2.953
 9251SOL     OW28651   3.831   1.754   2.324
 9251SOL    HW128652   3.811   1.814   2.402
 9251SOL    HW228653   3.764   1.680   2.321
 9252SOL     OW28654   1.425   6.807   4.333
 9252SOL    HW128655   1.491   6.742   4.370
 9252SOL    HW228656   1.405   6.877   4.402
 9253SOL     OW28657   1.278   6.847   6.362
 9253SOL    HW128658   1.284   6.848   6.262
 9253SOL    HW228659   1.353   6.793   6.400
 9254SOL     OW28660   5.225   2.295   1.063
 9254SOL    HW128661   5.212   2.214   1.005
 9254SOL    HW228662   5.267   2.269   1.149
 9255SOL     OW28663   0.054   5.583   0.622
 9255SOL    HW128664   0.143   5.545   0.597
 9255SOL    HW228665   0.049   5.593   0.721
 9256SOL     OW28666   3.759   5.363   2.700
 9256SOL    HW128667   3.701   5.330   2.625
 9256SOL    HW228668   3.825   5.428   2.665
 9257SOL     OW28669   0.543   3.425   0.966
 9257SOL    HW128670   0.505   3.334   0.981
 9257SOL    HW228671   0.487   3.474   0.899
 9258SOL     OW28672   3.165   3.121   4.240
 9258SOL    HW128673   3.159   3.093   4.145
 9258SOL    HW228674   3.087   3.180   4.263
 9259SOL     OW28675   1.651   2.469   0.243
 9259SOL    HW128676   1.677   2.473   0.147
 9259SOL    HW228677   1.559   2.506   0.254
 9260SOL     OW28678   6.789   3.705   6.814
 9260SOL    HW128679   6.700   3.674   6.782
 9260SOL    HW228680   6.777   3.782   6.878
 9261SOL     OW28681   3.038   6.806   5.933
 9261SOL    HW128682   3.110   6.745   5.900
 9261SOL    HW228683   3.071   6.854   6.015
 9262SOL     OW28684   5.656   0.711   6.258
 9262SOL    HW128685   5.691   0.620   6.237
 9262SOL    HW228686   5.564   0.703   6.295
 9263SOL     OW28687   5.627   4.153   2.055
 9263SOL    HW128688   5.696   4.125   2.122
 9263SOL    HW228689   5.567   4.221   2.095
 9264SOL     OW28690   5.621   2.687   0.030
 9264SOL    HW128691   5.538   2.731   7.022
 9264SOL    HW228692   5.653   2.735   0.112
 9265SOL     OW28693   1.506   2.044   5.511
 9265SOL    HW128694   1.549   2.108   5.447
 9265SOL    HW228695   1.552   1.955   5.504
 9266SOL     OW28696   2.548   6.131   2.173
 9266SOL    HW128697   2.642   6.163   2.168
 9266SOL    HW228698   2.529   6.093   2.263
 9267SOL     OW28699   2.749   5.143   5.883
 9267SOL    HW128700   2.818   5.075   5.909
 9267SOL    HW228701   2.755   5.221   5.946
 9268SOL     OW28702   1.218   1.607   3.180
 9268SOL    HW128703   1.167   1.529   3.144
 9268SOL    HW228704   1.283   1.575   3.249
 9269SOL     OW28705   4.432   1.446   5.345
 9269SOL    HW128706   4.458   1.416   5.254
 9269SOL    HW228707   4.362   1.385   5.382
 9270SOL     OW28708   1.318   0.574   5.619
 9270SOL    HW128709   1.402   0.533   5.586
 9270SOL    HW228710   1.243   0.553   5.556
 9271SOL     OW28711   0.542   5.067   6.191
 9271SOL    HW128712   0.506   4.997   6.130
 9271SOL    HW228713   0.561   5.150   6.139
 9272SOL     OW28714   2.409   5.373   6.676
 9272SOL    HW128715   2.372   5.377   6.583
 9272SOL    HW228716   2.335   5.388   6.742
 9273SOL     OW28717   4.179   5.754   5.856
 9273SOL    HW128718   4.084   5.725   5.869
 9273SOL    HW228719   4.184   5.815   5.777
 9274SOL     OW28720   5.454   2.546   2.145
 9274SOL    HW128721   5.463   2.532   2.046
 9274SOL    HW228722   5.472   2.642   2.167
 9275SOL     OW28723   0.337   0.286   5.978
 9275SOL    HW128724   0.354   0.284   6.077
 9275SOL    HW228725   0.259   0.345   5.959
 9276SOL     OW28726   4.389   6.646   3.748
 9276SOL    HW128727   4.334   6.563   3.755
 9276SOL    HW228728   4.485   6.625   3.769
 9277SOL     OW28729   4.343   2.637   0.152
 9277SOL    HW128730   4.393   2.588   0.223
 9277SOL    HW228731   4.302   2.719   0.191
 9278SOL     OW28732   1.341   2.399   1.130
 9278SOL    HW128733   1.294   2.444   1.206
 9278SOL    HW228734   1.414   2.341   1.166
 9279SOL     OW28735   2.129   6.335   0.471
 9279SOL    HW128736   2.088   6.386   0.546
 9279SOL    HW228737   2.067   6.337   0.392
 9280SOL     OW28738   1.309   0.404   2.813
 9280SOL    HW128739   1.365   0.327   2.780
 9280SOL    HW228740   1.285   0.463   2.736
 9281SOL     OW28741   2.400   2.306   0.399
 9281SOL    HW128742   2.424   2.345   0.487
 9281SOL    HW228743   2.330   2.362   0.355
 9282SOL     OW28744   4.162   1.395   6.389
 9282SOL    HW128745   4.162   1.461   6.465
 9282SOL    HW228746   4.107   1.316   6.415
 9283SOL     OW28747   5.385   2.598   2.828
 9283SOL    HW128748   5.379   2.581   2.729
 9283SOL    HW228749   5.463   2.658   2.846
 9284SOL     OW28750   3.705   3.817   1.856
 9284SOL    HW128751   3.748   3.739   1.810
 9284SOL    HW228752   3.615   3.835   1.814
 9285SOL     OW28753   6.732   2.821   6.331
 9285SOL    HW128754   6.828   2.841   6.351
 9285SOL    HW228755   6.674   2.870   6.396
 9286SOL     OW28756   5.661   5.382   4.664
 9286SOL    HW128757   5.705   5.465   4.628
 9286SOL    HW228758   5.724   5.305   4.657
 9287SOL     OW28759   2.669   6.930   2.551
 9287SOL    HW128760   2.596   6.878   2.594
 9287SOL    HW228761   2.726   6.972   2.621
 9288SOL     OW28762   4.751   2.132   6.062
 9288SOL    HW128763   4.663   2.170   6.088
 9288SOL    HW228764   4.782   2.067   6.132
 9289SOL     OW28765   5.580   4.405   2.774
 9289SOL    HW128766   5.505   4.382   2.836
 9289SOL    HW228767   5.546   4.460   2.698
 9290SOL     OW28768   4.597   1.902   4.135
 9290SOL    HW128769   4.593   1.904   4.035
 9290SOL    HW228770   4.591   1.807   4.167
 9291SOL     OW28771   0.864   2.089   4.984
 9291SOL    HW128772   0.766   2.100   4.997
 9291SOL    HW228773   0.908   2.179   4.984
 9292SOL     OW28774   0.092   4.021   0.294
 9292SOL    HW128775   0.091   4.079   0.375
 9292SOL    HW228776   0.185   4.018   0.256
 9293SOL     OW28777   6.335   3.894   5.708
 9293SOL    HW128778   6.404   3.927   5.644
 9293SOL    HW228779   6.274   3.829   5.661
 9294SOL     OW28780   5.400   6.001   6.187
 9294SOL    HW128781   5.498   5.999   6.170
 9294SOL    HW228782   5.384   6.003   6.286
 9295SOL     OW28783   4.952   2.636   3.341
 9295SOL    HW128784   4.872   2.682   3.304
 9295SOL    HW228785   4.937   2.537   3.339
 9296SOL     OW28786   6.932   0.186   4.952
 9296SOL    HW128787   6.928   0.260   5.020
 9296SOL    HW228788   6.973   0.105   4.993
 9297SOL     OW28789   0.943   0.758   1.746
 9297SOL    HW128790   0.945   0.852   1.779
 9297SOL    HW228791   0.863   0.745   1.687
 9298SOL     OW28792   0.885   6.631   4.957
 9298SOL    HW128793   0.826   6.652   4.879
 9298SOL    HW228794   0.976   6.672   4.942
 9299SOL     OW28795   1.651   3.116   4.267
 9299SOL    HW128796   1.573   3.176   4.284
 9299SOL    HW228797   1.619   3.030   4.227
 9300SOL     OW28798   5.511   4.591   3.542
 9300SOL    HW128799   5.492   4.522   3.613
 9300SOL    HW228800   5.425   4.633   3.514
 9301SOL     OW28801   6.415   4.530   1.434
 9301SOL    HW128802   6.407   4.435   1.463
 9301SOL    HW228803   6.325   4.566   1.412
 9302SOL     OW28804   1.514   2.055   2.347
 9302SOL    HW128805   1.442   2.010   2.294
 9302SOL    HW228806   1.485   2.148   2.370
 9303SOL     OW28807   4.647   4.113   0.468
 9303SOL    HW128808   4.728   4.054   0.475
 9303SOL    HW228809   4.592   4.105   0.551
 9304SOL     OW28810   4.408   3.402   0.818
 9304SOL    HW128811   4.448   3.451   0.896
 9304SOL    HW228812   4.452   3.312   0.810
 9305SOL     OW28813   4.876   3.928   2.098
 9305SOL    HW128814   4.852   3.983   2.018
 9305SOL    HW228815   4.971   3.945   2.122
 9306SOL     OW28816   6.561   5.812   4.124
 9306SOL    HW128817   6.485   5.816   4.189
 9306SOL    HW228818   6.528   5.828   4.032
 9307SOL     OW28819   2.312   0.806   5.704
 9307SOL    HW128820   2.316   0.719   5.655
 9307SOL    HW228821   2.402   0.826   5.743
 9308SOL     OW28822   6.670   2.364   0.709
 9308SOL    HW128823   6.770   2.357   0.707
 9308SOL    HW228824   6.635   2.371   0.616
 9309SOL     OW28825   5.170   2.619   6.433
 9309SOL    HW128826   5.220   2.670   6.363
 9309SOL    HW228827   5.087   2.670   6.459
 9310SOL     OW28828   3.999   0.094   1.416
 9310SOL    HW128829   4.089   0.091   1.459
 9310SOL    HW228830   3.954   0.180   1.440
 9311SOL     OW28831   0.210   3.660   1.518
 9311SOL    HW128832   0.208   3.736   1.583
 9311SOL    HW228833   0.123   3.610   1.523
 9312SOL     OW28834   1.964   4.127   4.812
 9312SOL    HW128835   2.061   4.101   4.816
 9312SOL    HW228836   1.941   4.182   4.893
 9313SOL     OW28837   6.218   6.778   2.483
 9313SOL    HW128838   6.174   6.827   2.407
 9313SOL    HW228839   6.224   6.681   2.461
 9314SOL     OW28840   6.605   4.084   0.370
 9314SOL    HW128841   6.648   4.171   0.346
 9314SOL    HW228842   6.505   4.096   0.369
 9315SOL     OW28843   0.563   6.363   6.688
 9315SOL    HW128844   0.589   6.368   6.784
 9315SOL    HW228845   0.560   6.455   6.649
 9316SOL     OW28846   3.353   5.470   4.475
 9316SOL    HW128847   3.446   5.456   4.510
 9316SOL    HW228848   3.289   5.475   4.551
 9317SOL     OW28849   4.275   4.015   5.328
 9317SOL    HW128850   4.329   4.027   5.411
 9317SOL    HW228851   4.178   4.016   5.351
 9318SOL     OW28852   6.759   6.621   5.882
 9318SOL    HW128853   6.662   6.599   5.873
 9318SOL    HW228854   6.810   6.539   5.906
 9319SOL     OW28855   6.117   3.564   4.414
 9319SOL    HW128856   6.039   3.620   4.387
 9319SOL    HW228857   6.176   3.549   4.335
 9320SOL     OW28858   4.197   2.961   5.971
 9320SOL    HW128859   4.263   2.907   6.023
 9320SOL    HW228860   4.207   2.940   5.874
 9321SOL     OW28861   6.035   6.035   4.298
 9321SOL    HW128862   6.048   5.936   4.285
 9321SOL    HW228863   6.109   6.084   4.253
 9322SOL     OW28864   1.067   5.943   0.522
 9322SOL    HW128865   1.128   6.009   0.478
 9322SOL    HW228866   1.042   5.977   0.613
 9323SOL     OW28867   0.760   1.062   6.671
 9323SOL    HW128868   0.718   1.033   6.585
 9323SOL    HW228869   0.858   1.041   6.668
 9324SOL     OW28870   1.741   5.265   6.701
 9324SOL    HW128871   1.669   5.199   6.724
 9324SOL    HW228872   1.746   5.275   6.602
 9325SOL     OW28873   6.890   2.717   0.610
 9325SOL    HW128874   6.927   2.681   0.525
 9325SOL    HW228875   6.790   2.711   0.609
 9326SOL     OW28876   2.710   5.710   1.541
 9326SOL    HW128877   2.743   5.758   1.623
 9326SOL    HW228878   2.770   5.729   1.464
 9327SOL     OW28879   2.744   1.613   3.636
 9327SOL    HW128880   2.821   1.551   3.653
 9327SOL    HW228881   2.728   1.620   3.537
 9328SOL     OW28882   2.561   0.723   2.197
 9328SOL    HW128883   2.483   0.710   2.258
 9328SOL    HW228884   2.549   0.808   2.146
 9329SOL     OW28885   0.802   4.104   2.157
 9329SOL    HW128886   0.796   4.013   2.115
 9329SOL    HW228887   0.839   4.095   2.250
 9330SOL     OW28888   5.351   6.341   6.636
 9330SOL    HW128889   5.442   6.364   6.672
 9330SOL    HW228890   5.286   6.412   6.662
 9331SOL     OW28891   0.445   1.842   0.126
 9331SOL    HW128892   0.444   1.771   0.056
 9331SOL    HW228893   0.473   1.929   0.085
 9332SOL     OW28894   3.694   3.757   5.403
 9332SOL    HW128895   3.618   3.745   5.467
 9332SOL    HW228896   3.779   3.729   5.446
 9333SOL     OW28897   5.102   5.710   0.876
 9333SOL    HW128898   5.006   5.700   0.903
 9333SOL    HW228899   5.133   5.802   0.899
 9334SOL     OW28900   2.624   6.869   4.457
 9334SOL    HW128901   2.647   6.802   4.528
 9334SOL    HW228902   2.611   6.958   4.500
 9335SOL     OW28903   0.539   1.716   1.997
 9335SOL    HW128904   0.498   1.805   2.016
 9335SOL    HW228905   0.494   1.646   2.053
 9336SOL     OW28906   3.165   0.277   5.270
 9336SOL    HW128907   3.138   0.356   5.324
 9336SOL    HW228908   3.156   0.194   5.325
 9337SOL     OW28909   4.657   0.128   2.790
 9337SOL    HW128910   4.635   0.214   2.744
 9337SOL    HW228911   4.587   0.060   2.769
 9338SOL     OW28912   3.336   6.497   2.249
 9338SOL    HW128913   3.429   6.493   2.284
 9338SOL    HW228914   3.278   6.431   2.297
 9339SOL     OW28915   3.748   5.624   1.443
 9339SOL    HW128916   3.720   5.528   1.441
 9339SOL    HW228917   3.773   5.650   1.536
 9340SOL     OW28918   6.537   2.849   0.982
 9340SOL    HW128919   6.446   2.806   0.983
 9340SOL    HW228920   6.526   2.947   0.966
 9341SOL     OW28921   0.735   4.299   5.774
 9341SOL    HW128922   0.687   4.387   5.779
 9341SOL    HW228923   0.829   4.310   5.805
 9342SOL     OW28924   1.570   0.582   6.947
 9342SOL    HW128925   1.492   0.611   6.892
 9342SOL    HW228926   1.586   0.647   7.021
 9343SOL     OW28927   5.604   6.609   3.814
 9343SOL    HW128928   5.582   6.706   3.821
 9343SOL    HW228929   5.534   6.555   3.860
 9344SOL     OW28930   4.954   6.582   0.630
 9344SOL    HW128931   5.011   6.499   0.629
 9344SOL    HW228932   4.995   6.651   0.571
 9345SOL     OW28933   0.271   2.819   0.897
 9345SOL    HW128934   0.179   2.783   0.882
 9345SOL    HW228935   0.337   2.762   0.848
 9346SOL     OW28936   5.852   0.680   0.514
 9346SOL    HW128937   5.848   0.583   0.537
 9346SOL    HW228938   5.778   0.703   0.451
 9347SOL     OW28939   2.000   6.664   2.208
 9347SOL    HW128940   2.069   6.718   2.159
 9347SOL    HW228941   2.033   6.570   2.220
 9348SOL     OW28942   2.970   5.070   0.572
 9348SOL    HW128943   2.922   4.982   0.573
 9348SOL    HW228944   2.935   5.127   0.499
 9349SOL     OW28945   1.197   6.154   2.283
 9349SOL    HW128946   1.208   6.098   2.365
 9349SOL    HW228947   1.246   6.112   2.207
 9350SOL     OW28948   0.359   3.000   6.053
 9350SOL    HW128949   0.318   3.062   5.987
 9350SOL    HW228950   0.439   2.956   6.013
 9351SOL     OW28951   3.297   0.338   6.628
 9351SOL    HW128952   3.245   0.319   6.545
 9351SOL    HW228953   3.300   0.437   6.644
 9352SOL     OW28954   2.896   4.919   5.912
 9352SOL    HW128955   2.987   4.946   5.944
 9352SOL    HW228956   2.903   4.835   5.858
 9353SOL     OW28957   6.130   0.822   0.911
 9353SOL    HW128958   6.121   0.885   0.988
 9353SOL    HW228959   6.152   0.873   0.828
 9354SOL     OW28960   0.977   1.133   6.260
 9354SOL    HW128961   1.045   1.091   6.321
 9354SOL    HW228962   0.935   1.062   6.204
 9355SOL     OW28963   0.998   1.673   5.162
 9355SOL    HW128964   1.090   1.649   5.133
 9355SOL    HW228965   0.931   1.621   5.109
 9356SOL     OW28966   4.019   7.001   3.691
 9356SOL    HW128967   3.968   6.968   3.612
 9356SOL    HW228968   3.980   6.961   3.775
 9357SOL     OW28969   1.678   1.999   0.319
 9357SOL    HW128970   1.726   1.982   0.405
 9357SOL    HW228971   1.732   2.063   0.263
 9358SOL     OW28972   1.098   1.915   1.175
 9358SOL    HW128973   0.998   1.915   1.167
 9358SOL    HW228974   1.134   2.002   1.143
 9359SOL     OW28975   0.855   0.516   5.134
 9359SOL    HW128976   0.923   0.589   5.124
 9359SOL    HW228977   0.886   0.434   5.086
 9360SOL     OW28978   0.130   0.520   5.973
 9360SOL    HW128979   0.088   0.522   5.882
 9360SOL    HW228980   0.147   0.613   6.004
 9361SOL     OW28981   2.395   5.522   4.362
 9361SOL    HW128982   2.488   5.536   4.328
 9361SOL    HW228983   2.346   5.461   4.300
 9362SOL     OW28984   1.533   0.625   2.536
 9362SOL    HW128985   1.539   0.628   2.436
 9362SOL    HW228986   1.612   0.670   2.575
 9363SOL     OW28987   2.009   2.874   2.252
 9363SOL    HW128988   2.051   2.963   2.273
 9363SOL    HW228989   2.080   2.807   2.232
 9364SOL     OW28990   0.114   2.367   7.019
 9364SOL    HW128991   0.021   2.370   0.029
 9364SOL    HW228992   0.173   2.430   0.045
 9365SOL     OW28993   2.253   1.183   5.249
 9365SOL    HW128994   2.224   1.197   5.344
 9365SOL    HW228995   2.271   1.272   5.206
 9366SOL     OW28996   3.536   6.998   2.234
 9366SOL    HW128997   3.450   6.997   2.286
 9366SOL    HW228998   3.593   6.921   2.264
 9367SOL     OW28999   6.978   0.664   1.314
 9367SOL    HW129000   6.998   0.583   1.369
 9367SOL    HW229001   0.012   0.667   1.234
 9368SOL     OW29002   2.330   0.321   3.201
 9368SOL    HW129003   2.356   0.361   3.113
 9368SOL    HW229004   2.278   0.388   3.254
 9369SOL     OW29005   3.829   5.292   0.968
 9369SOL    HW129006   3.922   5.325   0.979
 9369SOL    HW229007   3.774   5.318   1.048
 9370SOL     OW29008   4.441   2.409   4.966
 9370SOL    HW129009   4.357   2.415   5.021
 9370SOL    HW229010   4.440   2.479   4.896
 9371SOL     OW29011   3.895   4.959   0.867
 9371SOL    HW129012   3.848   4.915   0.790
 9371SOL    HW229013   3.833   5.022   0.913
 9372SOL     OW29014   4.629   6.974   1.292
 9372SOL    HW129015   4.576   6.911   1.236
 9372SOL    HW229016   4.691   6.922   1.351
 9373SOL     OW29017   0.411   2.466   1.650
 9373SOL    HW129018   0.335   2.423   1.698
 9373SOL    HW229019   0.380   2.551   1.607
 9374SOL     OW29020   0.036   5.377   6.103
 9374SOL    HW129021   0.097   5.391   6.181
 9374SOL    HW229022   6.990   5.312   6.128
 9375SOL     OW29023   1.519   1.324   0.034
 9375SOL    HW129024   1.565   1.319   0.122
 9375SOL    HW229025   1.503   1.420   0.010
 9376SOL     OW29026   3.164   3.433   0.448
 9376SOL    HW129027   3.122   3.495   0.515
 9376SOL    HW229028   3.203   3.487   0.373
 9377SOL     OW29029   0.957   0.413   3.491
 9377SOL    HW129030   0.960   0.468   3.574
 9377SOL    HW229031   0.913   0.326   3.510
 9378SOL     OW29032   3.782   1.522   5.137
 9378SOL    HW129033   3.689   1.497   5.167
 9378SOL    HW229034   3.849   1.468   5.188
 9379SOL     OW29035   3.890   0.331   4.613
 9379SOL    HW129036   3.847   0.378   4.690
 9379SOL    HW229037   3.945   0.255   4.647
 9380SOL     OW29038   4.890   5.665   1.248
 9380SOL    HW129039   4.981   5.622   1.247
 9380SOL    HW229040   4.874   5.712   1.162
 9381SOL     OW29041   5.474   1.147   4.795
 9381SOL    HW129042   5.481   1.244   4.819
 9381SOL    HW229043   5.390   1.133   4.743
 9382SOL     OW29044   3.478   5.306   6.214
 9382SOL    HW129045   3.552   5.255   6.258
 9382SOL    HW229046   3.396   5.303   6.271
 9383SOL     OW29047   6.273   3.767   1.375
 9383SOL    HW129048   6.280   3.669   1.355
 9383SOL    HW229049   6.288   3.782   1.473
 9384SOL     OW29050   3.725   6.901   0.820
 9384SOL    HW129051   3.776   6.840   0.759
 9384SOL    HW229052   3.781   6.980   0.842
 9385SOL     OW29053   3.921   2.173   3.925
 9385SOL    HW129054   3.986   2.249   3.922
 9385SOL    HW229055   3.865   2.180   4.007
 9386SOL     OW29056   5.808   6.950   1.124
 9386SOL    HW129057   5.784   6.898   1.207
 9386SOL    HW229058   5.753   6.916   1.047
 9387SOL     OW29059   2.468   1.812   6.674
 9387SOL    HW129060   2.534   1.884   6.652
 9387SOL    HW229061   2.382   1.830   6.627
 9388SOL     OW29062   2.232   6.935   4.752
 9388SOL    HW129063   2.310   6.996   4.733
 9388SOL    HW229064   2.239   6.854   4.694
 9389SOL     OW29065   2.189   4.275   2.343
 9389SOL    HW129066   2.136   4.199   2.305
 9389SOL    HW229067   2.199   4.264   2.441
 9390SOL     OW29068   5.741   4.806   3.892
 9390SOL    HW129069   5.716   4.896   3.929
 9390SOL    HW229070   5.739   4.810   3.792
 9391SOL     OW29071   1.111   4.434   4.409
 9391SOL    HW129072   1.211   4.434   4.403
 9391SOL    HW229073   1.083   4.405   4.500
 9392SOL     OW29074   4.206   4.702   2.310
 9392SOL    HW129075   4.261   4.644   2.250
 9392SOL    HW229076   4.217   4.671   2.405
 9393SOL     OW29077   2.093   5.023   7.000
 9393SOL    HW129078   2.144   5.103   0.007
 9393SOL    HW229079   2.116   4.944   0.030
 9394SOL     OW29080   4.517   0.303   6.868
 9394SOL    HW129081   4.467   0.294   6.954
 9394SOL    HW229082   4.491   0.388   6.823
 9395SOL     OW29083   1.007   1.544   1.476
 9395SOL    HW129084   1.019   1.644   1.478
 9395SOL    HW229085   0.958   1.515   1.558
 9396SOL     OW29086   1.091   0.718   6.269
 9396SOL    HW129087   1.107   0.797   6.209
 9396SOL    HW229088   1.151   0.724   6.349
 9397SOL     OW29089   3.153   1.545   4.719
 9397SOL    HW129090   3.246   1.519   4.696
 9397SOL    HW229091   3.142   1.545   4.819
 9398SOL     OW29092   6.893   2.083   6.647
 9398SOL    HW129093   6.836   2.067   6.567
 9398SOL    HW229094   6.989   2.067   6.624
 9399SOL     OW29095   1.360   2.214   4.454
 9399SOL    HW129096   1.398   2.303   4.426
 9399SOL    HW229097   1.358   2.209   4.554
 9400SOL     OW29098   5.908   1.387   1.347
 9400SOL    HW129099   5.921   1.385   1.446
 9400SOL    HW229100   5.960   1.313   1.305
 9401SOL     OW29101   0.275   2.184   3.561
 9401SOL    HW129102   0.225   2.193   3.647
 9401SOL    HW229103   0.210   2.172   3.486
 9402SOL     OW29104   3.371   6.366   5.571
 9402SOL    HW129105   3.461   6.409   5.572
 9402SOL    HW229106   3.341   6.355   5.476
 9403SOL     OW29107   5.306   2.045   1.491
 9403SOL    HW129108   5.212   2.043   1.526
 9403SOL    HW229109   5.368   2.005   1.559
 9404SOL     OW29110   2.369   2.799   0.613
 9404SOL    HW129111   2.285   2.853   0.616
 9404SOL    HW229112   2.408   2.794   0.705
 9405SOL     OW29113   6.235   5.965   5.172
 9405SOL    HW129114   6.325   5.987   5.211
 9405SOL    HW229115   6.243   5.958   5.072
 9406SOL     OW29116   1.584   1.310   0.904
 9406SOL    HW129117   1.543   1.219   0.898
 9406SOL    HW229118   1.560   1.351   0.992
 9407SOL     OW29119   1.469   4.540   4.654
 9407SOL    HW129120   1.423   4.487   4.725
 9407SOL    HW229121   1.562   4.563   4.685
 9408SOL     OW29122   5.421   4.518   3.920
 9408SOL    HW129123   5.511   4.546   3.952
 9408SOL    HW229124   5.431   4.449   3.848
 9409SOL     OW29125   5.737   5.756   1.554
 9409SOL    HW129126   5.795   5.675   1.559
 9409SOL    HW229127   5.708   5.770   1.459
 9410SOL     OW29128   4.681   0.096   0.498
 9410SOL    HW129129   4.646   0.129   0.586
 9410SOL    HW229130   4.742   0.018   0.513
 9411SOL     OW29131   3.326   3.868   3.959
 9411SOL    HW129132   3.230   3.846   3.977
 9411SOL    HW229133   3.365   3.914   4.039
 9412SOL     OW29134   4.261   0.055   1.627
 9412SOL    HW129135   4.214   0.140   1.652
 9412SOL    HW229136   4.349   0.051   1.674
 9413SOL     OW29137   3.972   4.899   3.575
 9413SOL    HW129138   4.054   4.849   3.547
 9413SOL    HW229139   3.901   4.889   3.506
 9414SOL     OW29140   1.681   1.222   2.150
 9414SOL    HW129141   1.667   1.302   2.208
 9414SOL    HW229142   1.629   1.234   2.065
 9415SOL     OW29143   5.036   0.381   1.120
 9415SOL    HW129144   5.086   0.364   1.035
 9415SOL    HW229145   4.938   0.381   1.101
 9416SOL     OW29146   6.314   4.866   5.666
 9416SOL    HW129147   6.361   4.826   5.745
 9416SOL    HW229148   6.325   4.805   5.587
 9417SOL     OW29149   3.935   6.245   2.705
 9417SOL    HW129150   3.871   6.190   2.759
 9417SOL    HW229151   4.022   6.253   2.755
 9418SOL     OW29152   2.977   2.238   4.836
 9418SOL    HW129153   3.023   2.252   4.924
 9418SOL    HW229154   2.885   2.203   4.851
 9419SOL     OW29155   2.433   2.432   6.214
 9419SOL    HW129156   2.495   2.358   6.189
 9419SOL    HW229157   2.462   2.517   6.169
 9420SOL     OW29158   5.741   3.357   5.814
 9420SOL    HW129159   5.824   3.403   5.780
 9420SOL    HW229160   5.678   3.426   5.850
 9421SOL     OW29161   3.895   6.756   0.028
 9421SOL    HW129162   3.981   6.722   0.067
 9421SOL    HW229163   3.829   6.682   0.023
 9422SOL     OW29164   1.823   6.367   5.922
 9422SOL    HW129165   1.828   6.325   5.831
 9422SOL    HW229166   1.803   6.465   5.912
 9423SOL     OW29167   4.283   4.901   0.722
 9423SOL    HW129168   4.371   4.910   0.769
 9423SOL    HW229169   4.222   4.975   0.750
 9424SOL     OW29170   6.039   6.978   3.734
 9424SOL    HW129171   6.054   6.935   3.823
 9424SOL    HW229172   5.982   6.919   3.677
 9425SOL     OW29173   0.030   5.402   0.948
 9425SOL    HW129174   0.116   5.364   0.982
 9425SOL    HW229175   6.980   5.372   1.006
 9426SOL     OW29176   4.216   2.051   6.103
 9426SOL    HW129177   4.175   2.070   6.014
 9426SOL    HW229178   4.208   1.953   6.123
 9427SOL     OW29179   3.608   5.436   2.262
 9427SOL    HW129180   3.513   5.405   2.263
 9427SOL    HW229181   3.641   5.438   2.167
 9428SOL     OW29182   0.910   6.368   5.075
 9428SOL    HW129183   0.977   6.319   5.020
 9428SOL    HW229184   0.885   6.453   5.029
 9429SOL     OW29185   3.033   2.037   3.943
 9429SOL    HW129186   2.996   2.112   3.997
 9429SOL    HW229187   3.117   2.003   3.986
 9430SOL     OW29188   1.206   0.179   4.192
 9430SOL    HW129189   1.275   0.135   4.135
 9430SOL    HW229190   1.210   0.278   4.177
 9431SOL     OW29191   1.385   5.152   4.692
 9431SOL    HW129192   1.336   5.122   4.609
 9431SOL    HW229193   1.465   5.095   4.706
 9432SOL     OW29194   6.675   1.334   3.311
 9432SOL    HW129195   6.733   1.389   3.371
 9432SOL    HW229196   6.729   1.258   3.274
 9433SOL     OW29197   3.980   5.239   1.885
 9433SOL    HW129198   3.996   5.274   1.977
 9433SOL    HW229199   4.037   5.158   1.869
 9434SOL     OW29200   4.659   5.537   5.195
 9434SOL    HW129201   4.683   5.461   5.255
 9434SOL    HW229202   4.634   5.616   5.252
 9435SOL     OW29203   6.472   4.210   6.719
 9435SOL    HW129204   6.460   4.125   6.667
 9435SOL    HW229205   6.527   4.190   6.801
 9436SOL     OW29206   2.935   1.793   2.365
 9436SOL    HW129207   2.882   1.716   2.332
 9436SOL    HW229208   3.009   1.761   2.424
 9437SOL     OW29209   5.043   1.456   4.208
 9437SOL    HW129210   4.955   1.437   4.163
 9437SOL    HW229211   5.026   1.488   4.301
 9438SOL     OW29212   5.091   0.405   3.008
 9438SOL    HW129213   5.051   0.466   3.076
 9438SOL    HW229214   5.168   0.451   2.963
 9439SOL     OW29215   2.174   4.769   1.113
 9439SOL    HW129216   2.174   4.669   1.105
 9439SOL    HW229217   2.246   4.796   1.177
 9440SOL     OW29218   2.165   5.524   5.436
 9440SOL    HW129219   2.065   5.515   5.437
 9440SOL    HW229220   2.197   5.520   5.341
 9441SOL     OW29221   6.879   6.143   3.854
 9441SOL    HW129222   6.923   6.072   3.909
 9441SOL    HW229223   6.791   6.167   3.895
 9442SOL     OW29224   6.339   2.658   1.253
 9442SOL    HW129225   6.256   2.601   1.250
 9442SOL    HW229226   6.420   2.600   1.244
 9443SOL     OW29227   1.938   4.537   1.341
 9443SOL    HW129228   2.026   4.575   1.370
 9443SOL    HW229229   1.882   4.517   1.421
 9444SOL     OW29230   2.069   5.873   6.035
 9444SOL    HW129231   2.099   5.791   6.084
 9444SOL    HW229232   1.990   5.850   5.978
 9445SOL     OW29233   0.610   0.886   4.176
 9445SOL    HW129234   0.687   0.840   4.220
 9445SOL    HW229235   0.634   0.908   4.081
 9446SOL     OW29236   5.726   5.461   4.012
 9446SOL    HW129237   5.735   5.548   3.963
 9446SOL    HW229238   5.699   5.390   3.948
 9447SOL     OW29239   5.534   5.762   2.159
 9447SOL    HW129240   5.488   5.689   2.109
 9447SOL    HW229241   5.490   5.774   2.248
 9448SOL     OW29242   4.718   2.468   6.136
 9448SOL    HW129243   4.812   2.433   6.134
 9448SOL    HW229244   4.674   2.440   6.222
 9449SOL     OW29245   4.887   6.608   2.805
 9449SOL    HW129246   4.927   6.620   2.896
 9449SOL    HW229247   4.868   6.697   2.765
 9450SOL     OW29248   0.951   0.314   2.235
 9450SOL    HW129249   0.936   0.373   2.155
 9450SOL    HW229250   1.007   0.236   2.208
 9451SOL     OW29251   4.029   5.127   0.478
 9451SOL    HW129252   4.092   5.152   0.405
 9451SOL    HW229253   4.032   5.028   0.493
 9452SOL     OW29254   6.676   3.221   6.364
 9452SOL    HW129255   6.773   3.214   6.340
 9452SOL    HW229256   6.622   3.171   6.297
 9453SOL     OW29257   6.784   4.865   2.458
 9453SOL    HW129258   6.824   4.908   2.376
 9453SOL    HW229259   6.841   4.787   2.485
 9454SOL     OW29260   5.107   5.274   0.594
 9454SOL    HW129261   5.094   5.346   0.661
 9454SOL    HW229262   5.104   5.185   0.640
 9455SOL     OW29263   4.675   0.572   1.738
 9455SOL    HW129264   4.754   0.600   1.682
 9455SOL    HW229265   4.599   0.547   1.679
 9456SOL     OW29266   6.948   2.830   2.503
 9456SOL    HW129267   6.928   2.743   2.456
 9456SOL    HW229268   6.872   2.853   2.564
 9457SOL     OW29269   6.606   6.420   4.543
 9457SOL    HW129270   6.674   6.367   4.493
 9457SOL    HW229271   6.528   6.362   4.566
 9458SOL     OW29272   0.201   4.325   0.149
 9458SOL    HW129273   0.186   4.263   0.072
 9458SOL    HW229274   0.116   4.374   0.169
 9459SOL     OW29275   5.114   4.733   4.988
 9459SOL    HW129276   5.024   4.764   4.960
 9459SOL    HW229277   5.151   4.796   5.056
 9460SOL     OW29278   1.977   2.931   2.955
 9460SOL    HW129279   2.061   2.968   2.994
 9460SOL    HW229280   1.992   2.907   2.859
 9461SOL     OW29281   1.929   1.631   1.429
 9461SOL    HW129282   1.844   1.666   1.468
 9461SOL    HW229283   1.965   1.697   1.363
 9462SOL     OW29284   0.107   1.209   5.413
 9462SOL    HW129285   0.174   1.279   5.390
 9462SOL    HW229286   0.029   1.251   5.459
 9463SOL     OW29287   6.624   5.461   0.518
 9463SOL    HW129288   6.583   5.538   0.566
 9463SOL    HW229289   6.688   5.414   0.578
 9464SOL     OW29290   1.653   0.230   2.368
 9464SOL    HW129291   1.639   0.298   2.440
 9464SOL    HW229292   1.638   0.273   2.279
 9465SOL     OW29293   0.197   5.737   0.245
 9465SOL    HW129294   0.283   5.735   0.296
 9465SOL    HW229295   0.139   5.661   0.274
 9466SOL     OW29296   4.292   4.068   5.900
 9466SOL    HW129297   4.212   4.082   5.842
 9466SOL    HW229298   4.291   4.134   5.975
 9467SOL     OW29299   1.312   3.919   1.340
 9467SOL    HW129300   1.350   3.946   1.428
 9467SOL    HW229301   1.250   3.842   1.352
 9468SOL     OW29302   6.608   1.668   1.366
 9468SOL    HW129303   6.629   1.570   1.367
 9468SOL    HW229304   6.602   1.701   1.460
 9469SOL     OW29305   6.205   6.683   1.974
 9469SOL    HW129306   6.261   6.765   1.982
 9469SOL    HW229307   6.129   6.688   2.039
 9470SOL     OW29308   3.711   3.304   1.507
 9470SOL    HW129309   3.792   3.361   1.515
 9470SOL    HW229310   3.704   3.245   1.587
 9471SOL     OW29311   6.281   3.568   4.186
 9471SOL    HW129312   6.380   3.570   4.200
 9471SOL    HW229313   6.255   3.481   4.144
 9472SOL     OW29314   2.358   3.766   6.689
 9472SOL    HW129315   2.371   3.800   6.595
 9472SOL    HW229316   2.446   3.767   6.737
 9473SOL     OW29317   3.117   3.110   1.359
 9473SOL    HW129318   3.128   3.011   1.353
 9473SOL    HW229319   3.041   3.131   1.421
 9474SOL     OW29320   6.103   4.514   0.550
 9474SOL    HW129321   6.077   4.419   0.569
 9474SOL    HW229322   6.119   4.561   0.637
 9475SOL     OW29323   6.098   3.392   7.023
 9475SOL    HW129324   6.124   3.342   6.941
 9475SOL    HW229325   6.145   3.481   7.024
 9476SOL     OW29326   3.785   3.867   0.873
 9476SOL    HW129327   3.728   3.785   0.883
 9476SOL    HW229328   3.791   3.913   0.961
 9477SOL     OW29329   1.422   5.204   0.487
 9477SOL    HW129330   1.455   5.169   0.575
 9477SOL    HW229331   1.383   5.295   0.500
 9478SOL     OW29332   0.130   3.390   5.485
 9478SOL    HW129333   0.119   3.290   5.488
 9478SOL    HW229334   0.098   3.423   5.396
 9479SOL     OW29335   4.455   1.248   1.877
 9479SOL    HW129336   4.522   1.267   1.948
 9479SOL    HW229337   4.408   1.332   1.852
 9480SOL     OW29338   5.635   0.383   0.570
 9480SOL    HW129339   5.732   0.369   0.548
 9480SOL    HW229340   5.627   0.451   0.643
 9481SOL     OW29341   4.642   0.114   4.146
 9481SOL    HW129342   4.690   0.109   4.234
 9481SOL    HW229343   4.617   0.210   4.127
 9482SOL     OW29344   6.211   4.542   5.548
 9482SOL    HW129345   6.284   4.567   5.611
 9482SOL    HW229346   6.150   4.476   5.591
 9483SOL     OW29347   6.293   5.129   6.797
 9483SOL    HW129348   6.243   5.081   6.725
 9483SOL    HW229349   6.315   5.221   6.767
 9484SOL     OW29350   1.658   5.904   4.251
 9484SOL    HW129351   1.560   5.904   4.233
 9484SOL    HW229352   1.704   5.961   4.183
 9485SOL     OW29353   0.459   1.216   5.081
 9485SOL    HW129354   0.497   1.308   5.095
 9485SOL    HW229355   0.525   1.148   5.113
 9486SOL     OW29356   6.811   5.785   6.501
 9486SOL    HW129357   6.723   5.813   6.538
 9486SOL    HW229358   6.841   5.700   6.545
 9487SOL     OW29359   3.054   3.497   3.465
 9487SOL    HW129360   3.126   3.522   3.400
 9487SOL    HW229361   3.080   3.525   3.557
 9488SOL     OW29362   0.694   0.999   2.490
 9488SOL    HW129363   0.659   1.092   2.481
 9488SOL    HW229364   0.767   0.984   2.424
 9489SOL     OW29365   6.799   4.399   6.566
 9489SOL    HW129366   6.761   4.438   6.482
 9489SOL    HW229367   6.732   4.335   6.605
 9490SOL     OW29368   5.569   3.640   5.019
 9490SOL    HW129369   5.627   3.609   5.094
 9490SOL    HW229370   5.616   3.711   4.967
 9491SOL     OW29371   5.295   0.114   2.268
 9491SOL    HW129372   5.228   0.112   2.194
 9491SOL    HW229373   5.272   0.044   2.336
 9492SOL     OW29374   4.691   2.778   4.026
 9492SOL    HW129375   4.710   2.756   3.930
 9492SOL    HW229376   4.615   2.722   4.059
 9493SOL     OW29377   2.957   6.190   2.163
 9493SOL    HW129378   3.054   6.170   2.183
 9493SOL    HW229379   2.936   6.283   2.190
 9494SOL     OW29380   5.090   2.695   2.747
 9494SOL    HW129381   5.031   2.681   2.668
 9494SOL    HW229382   5.160   2.624   2.750
 9495SOL     OW29383   4.994   3.140   1.320
 9495SOL    HW129384   5.042   3.131   1.233
 9495SOL    HW229385   5.042   3.205   1.378
 9496SOL     OW29386   6.161   3.218   1.150
 9496SOL    HW129387   6.093   3.252   1.085
 9496SOL    HW229388   6.153   3.118   1.156
 9497SOL     OW29389   4.965   4.231   5.022
 9497SOL    HW129390   4.918   4.156   4.973
 9497SOL    HW229391   4.900   4.305   5.038
 9498SOL     OW29392   0.954   6.094   6.085
 9498SOL    HW129393   0.935   6.039   6.166
 9498SOL    HW229394   1.052   6.091   6.066
 9499SOL     OW29395   5.269   6.843   4.099
 9499SOL    HW129396   5.217   6.821   4.016
 9499SOL    HW229397   5.260   6.769   4.165
 9500SOL     OW29398   3.031   1.954   0.722
 9500SOL    HW129399   3.054   2.052   0.718
 9500SOL    HW229400   3.009   1.930   0.817
 9501SOL     OW29401   1.429   3.249   5.490
 9501SOL    HW129402   1.523   3.237   5.522
 9501SOL    HW229403   1.384   3.160   5.484
 9502SOL     OW29404   5.860   4.428   3.795
 9502SOL    HW129405   5.952   4.399   3.821
 9502SOL    HW229406   5.808   4.452   3.877
 9503SOL     OW29407   6.073   1.137   0.094
 9503SOL    HW129408   6.089   1.088   0.180
 9503SOL    HW229409   5.975   1.149   0.081
 9504SOL     OW29410   6.622   5.342   2.649
 9504SOL    HW129411   6.610   5.418   2.586
 9504SOL    HW229412   6.589   5.367   2.740
 9505SOL     OW29413   4.671   3.115   7.011
 9505SOL    HW129414   4.664   3.134   0.083
 9505SOL    HW229415   4.736   3.179   6.969
 9506SOL     OW29416   3.638   1.546   1.815
 9506SOL    HW129417   3.564   1.485   1.785
 9506SOL    HW229418   3.615   1.640   1.790
 9507SOL     OW29419   6.741   6.218   1.869
 9507SOL    HW129420   6.683   6.285   1.916
 9507SOL    HW229421   6.819   6.195   1.927
 9508SOL     OW29422   5.019   1.340   2.171
 9508SOL    HW129423   5.002   1.434   2.140
 9508SOL    HW229424   4.979   1.276   2.106
 9509SOL     OW29425   6.043   1.448   3.844
 9509SOL    HW129426   6.142   1.436   3.851
 9509SOL    HW229427   5.998   1.360   3.856
 9510SOL     OW29428   1.414   3.662   2.287
 9510SOL    HW129429   1.326   3.633   2.250
 9510SOL    HW229430   1.451   3.736   2.230
 9511SOL     OW29431   0.778   1.858   0.631
 9511SOL    HW129432   0.773   1.759   0.638
 9511SOL    HW229433   0.769   1.899   0.722
 9512SOL     OW29434   6.274   2.713   1.513
 9512SOL    HW129435   6.347   2.683   1.575
 9512SOL    HW229436   6.304   2.699   1.418
 9513SOL     OW29437   4.781   4.064   4.921
 9513SOL    HW129438   4.722   4.143   4.937
 9513SOL    HW229439   4.772   4.035   4.826
 9514SOL     OW29440   3.326   3.228   1.459
 9514SOL    HW129441   3.407   3.219   1.402
 9514SOL    HW229442   3.246   3.194   1.409
 9515SOL     OW29443   6.726   6.088   2.872
 9515SOL    HW129444   6.700   6.023   2.800
 9515SOL    HW229445   6.716   6.181   2.837
 9516SOL     OW29446   0.577   3.481   6.378
 9516SOL    HW129447   0.528   3.409   6.426
 9516SOL    HW229448   0.665   3.497   6.423
 9517SOL     OW29449   0.978   6.244   2.017
 9517SOL    HW129450   1.049   6.286   2.073
 9517SOL    HW229451   0.987   6.144   2.021
 9518SOL     OW29452   0.589   0.805   1.104
 9518SOL    HW129453   0.578   0.781   1.008
 9518SOL    HW229454   0.675   0.769   1.139
 9519SOL     OW29455   1.573   2.615   5.845
 9519SOL    HW129456   1.641   2.547   5.876
 9519SOL    HW229457   1.510   2.572   5.780
 9520SOL     OW29458   4.472   6.910   2.042
 9520SOL    HW129459   4.407   6.985   2.026
 9520SOL    HW229460   4.453   6.837   1.976
 9521SOL     OW29461   5.387   4.751   3.208
 9521SOL    HW129462   5.457   4.793   3.265
 9521SOL    HW229463   5.430   4.690   3.141
 9522SOL     OW29464   3.719   5.190   5.760
 9522SOL    HW129465   3.628   5.173   5.721
 9522SOL    HW229466   3.724   5.149   5.851
 9523SOL     OW29467   1.508   6.977   5.003
 9523SOL    HW129468   1.469   6.915   5.072
 9523SOL    HW229469   1.552   6.923   4.931
 9524SOL     OW29470   6.160   3.355   0.423
 9524SOL    HW129471   6.191   3.316   0.336
 9524SOL    HW229472   6.234   3.407   0.465
 9525SOL     OW29473   3.894   0.472   4.372
 9525SOL    HW129474   3.913   0.439   4.464
 9525SOL    HW229475   3.969   0.533   4.342
 9526SOL     OW29476   4.807   5.074   0.338
 9526SOL    HW129477   4.838   5.049   0.429
 9526SOL    HW229478   4.886   5.083   0.277
 9527SOL     OW29479   6.787   2.046   0.242
 9527SOL    HW129480   6.862   1.994   0.284
 9527SOL    HW229481   6.823   2.131   0.204
 9528SOL     OW29482   6.009   1.179   1.765
 9528SOL    HW129483   6.084   1.162   1.700
 9528SOL    HW229484   6.041   1.238   1.839
 9529SOL     OW29485   1.931   2.482   6.079
 9529SOL    HW129486   1.853   2.423   6.103
 9529SOL    HW229487   1.980   2.441   6.002
 9530SOL     OW29488   2.176   1.141   3.524
 9530SOL    HW129489   2.210   1.221   3.574
 9530SOL    HW229490   2.230   1.061   3.548
 9531SOL     OW29491   2.611   6.585   4.029
 9531SOL    HW129492   2.605   6.486   4.021
 9531SOL    HW229493   2.683   6.609   4.094
 9532SOL     OW29494   3.469   1.322   1.715
 9532SOL    HW129495   3.479   1.230   1.753
 9532SOL    HW229496   3.505   1.324   1.622
 9533SOL     OW29497   0.422   1.945   4.035
 9533SOL    HW129498   0.340   1.940   3.978
 9533SOL    HW229499   0.406   2.007   4.112
 9534SOL     OW29500   5.648   1.065   4.178
 9534SOL    HW129501   5.631   1.143   4.239
 9534SOL    HW229502   5.592   1.074   4.096
 9535SOL     OW29503   2.820   1.345   4.769
 9535SOL    HW129504   2.893   1.307   4.826
 9535SOL    HW229505   2.825   1.445   4.770
 9536SOL     OW29506   2.238   6.042   6.713
 9536SOL    HW129507   2.332   6.075   6.721
 9536SOL    HW229508   2.233   5.947   6.744
 9537SOL     OW29509   2.229   0.381   0.791
 9537SOL    HW129510   2.143   0.420   0.823
 9537SOL    HW229511   2.251   0.416   0.700
 9538SOL     OW29512   5.986   4.061   2.561
 9538SOL    HW129513   6.052   4.027   2.494
 9538SOL    HW229514   6.002   4.017   2.649
 9539SOL     OW29515   0.844   3.547   6.948
 9539SOL    HW129516   0.788   3.542   0.005
 9539SOL    HW229517   0.823   3.631   6.899
 9540SOL     OW29518   5.542   3.124   5.498
 9540SOL    HW129519   5.517   3.158   5.407
 9540SOL    HW229520   5.460   3.119   5.555
 9541SOL     OW29521   6.418   2.043   3.210
 9541SOL    HW129522   6.340   1.981   3.208
 9541SOL    HW229523   6.442   2.071   3.117
 9542SOL     OW29524   4.944   3.586   4.564
 9542SOL    HW129525   4.932   3.486   4.562
 9542SOL    HW229526   4.970   3.614   4.656
 9543SOL     OW29527   4.387   2.019   0.420
 9543SOL    HW129528   4.356   2.075   0.343
 9543SOL    HW229529   4.310   1.967   0.456
 9544SOL     OW29530   5.466   0.488   1.611
 9544SOL    HW129531   5.452   0.389   1.603
 9544SOL    HW229532   5.499   0.524   1.524
 9545SOL     OW29533   1.249   6.604   4.599
 9545SOL    HW129534   1.225   6.536   4.667
 9545SOL    HW229535   1.201   6.690   4.618
 9546SOL     OW29536   2.840   3.829   1.685
 9546SOL    HW129537   2.811   3.798   1.595
 9546SOL    HW229538   2.932   3.795   1.704
 9547SOL     OW29539   5.283   6.319   2.547
 9547SOL    HW129540   5.239   6.310   2.457
 9547SOL    HW229541   5.214   6.345   2.615
 9548SOL     OW29542   5.959   6.719   2.084
 9548SOL    HW129543   5.876   6.759   2.046
 9548SOL    HW229544   5.941   6.686   2.177
 9549SOL     OW29545   2.039   6.099   6.959
 9549SOL    HW129546   2.064   6.196   6.955
 9549SOL    HW229547   2.108   6.050   7.012
 9550SOL     OW29548   1.563   0.526   0.244
 9550SOL    HW129549   1.645   0.563   0.288
 9550SOL    HW229550   1.588   0.447   0.188
 9551SOL     OW29551   1.431   5.594   4.961
 9551SOL    HW129552   1.372   5.553   5.030
 9551SOL    HW229553   1.386   5.590   4.872
 9552SOL     OW29554   6.883   5.284   2.784
 9552SOL    HW129555   6.800   5.330   2.754
 9552SOL    HW229556   6.946   5.351   2.823
 9553SOL     OW29557   6.130   4.339   6.715
 9553SOL    HW129558   6.146   4.245   6.745
 9553SOL    HW229559   6.202   4.398   6.750
 9554SOL     OW29560   1.536   2.254   1.812
 9554SOL    HW129561   1.551   2.339   1.762
 9554SOL    HW229562   1.577   2.261   1.903
 9555SOL     OW29563   6.948   2.553   6.389
 9555SOL    HW129564   7.002   2.497   6.326
 9555SOL    HW229565   6.925   2.499   6.470
 9556SOL     OW29566   6.700   0.274   0.988
 9556SOL    HW129567   6.715   0.177   0.970
 9556SOL    HW229568   6.620   0.305   0.936
 9557SOL     OW29569   5.087   1.828   1.886
 9557SOL    HW129570   5.065   1.841   1.789
 9557SOL    HW229571   5.060   1.909   1.938
 9558SOL     OW29572   6.810   3.646   1.355
 9558SOL    HW129573   6.738   3.694   1.404
 9558SOL    HW229574   6.860   3.710   1.296
 9559SOL     OW29575   0.532   4.795   3.196
 9559SOL    HW129576   0.560   4.707   3.234
 9559SOL    HW229577   0.458   4.834   3.251
 9560SOL     OW29578   3.975   1.871   5.792
 9560SOL    HW129579   3.969   1.971   5.791
 9560SOL    HW229580   3.903   1.834   5.851
 9561SOL     OW29581   3.505   4.838   6.783
 9561SOL    HW129582   3.543   4.923   6.820
 9561SOL    HW229583   3.549   4.760   6.827
 9562SOL     OW29584   6.498   5.542   3.923
 9562SOL    HW129585   6.450   5.552   3.836
 9562SOL    HW229586   6.575   5.606   3.927
 9563SOL     OW29587   0.842   0.287   6.179
 9563SOL    HW129588   0.765   0.262   6.237
 9563SOL    HW229589   0.828   0.249   6.087
 9564SOL     OW29590   0.552   0.394   5.853
 9564SOL    HW129591   0.490   0.343   5.911
 9564SOL    HW229592   0.633   0.338   5.832
 9565SOL     OW29593   2.902   5.422   5.118
 9565SOL    HW129594   2.918   5.323   5.120
 9565SOL    HW229595   2.821   5.441   5.062
 9566SOL     OW29596   2.532   5.803   5.058
 9566SOL    HW129597   2.476   5.766   5.132
 9566SOL    HW229598   2.537   5.737   4.984
 9567SOL     OW29599   6.002   5.471   4.432
 9567SOL    HW129600   5.979   5.382   4.392
 9567SOL    HW229601   5.920   5.510   4.476
 9568SOL     OW29602   5.740   3.457   5.475
 9568SOL    HW129603   5.793   3.429   5.554
 9568SOL    HW229604   5.650   3.489   5.505
 9569SOL     OW29605   5.078   6.878   1.439
 9569SOL    HW129606   5.154   6.814   1.451
 9569SOL    HW229607   5.090   6.929   1.354
 9570SOL     OW29608   0.564   2.551   6.684
 9570SOL    HW129609   0.567   2.580   6.589
 9570SOL    HW229610   0.483   2.590   6.729
 9571SOL     OW29611   3.623   1.861   0.551
 9571SOL    HW129612   3.568   1.887   0.471
 9571SOL    HW229613   3.681   1.937   0.578
 9572SOL     OW29614   0.629   3.653   0.615
 9572SOL    HW129615   0.695   3.704   0.669
 9572SOL    HW229616   0.555   3.620   0.674
 9573SOL     OW29617   5.029   2.060   2.026
 9573SOL    HW129618   4.973   2.008   2.092
 9573SOL    HW229619   5.042   2.153   2.060
 9574SOL     OW29620   2.252   1.560   3.935
 9574SOL    HW129621   2.240   1.470   3.893
 9574SOL    HW229622   2.342   1.564   3.979
 9575SOL     OW29623   3.375   1.565   2.715
 9575SOL    HW129624   3.385   1.481   2.662
 9575SOL    HW229625   3.358   1.542   2.811
 9576SOL     OW29626   4.152   3.205   6.180
 9576SOL    HW129627   4.173   3.230   6.085
 9576SOL    HW229628   4.173   3.282   6.240
 9577SOL     OW29629   0.288   5.390   3.727
 9577SOL    HW129630   0.261   5.294   3.716
 9577SOL    HW229631   0.386   5.399   3.707
 9578SOL     OW29632   6.569   4.498   1.200
 9578SOL    HW129633   6.531   4.587   1.175
 9578SOL    HW229634   6.526   4.466   1.285
 9579SOL     OW29635   1.319   4.758   2.836
 9579SOL    HW129636   1.224   4.729   2.841
 9579SOL    HW229637   1.343   4.778   2.741
 9580SOL     OW29638   3.867   4.268   5.176
 9580SOL    HW129639   3.785   4.322   5.193
 9580SOL    HW229640   3.869   4.240   5.080
 9581SOL     OW29641   1.202   0.153   6.742
 9581SOL    HW129642   1.161   0.113   6.824
 9581SOL    HW229643   1.173   0.100   6.661
 9582SOL     OW29644   4.272   6.128   3.639
 9582SOL    HW129645   4.297   6.147   3.734
 9582SOL    HW229646   4.197   6.188   3.611
 9583SOL     OW29647   1.089   4.895   2.405
 9583SOL    HW129648   1.156   4.941   2.463
 9583SOL    HW229649   1.124   4.891   2.311
 9584SOL     OW29650   5.430   4.027   6.856
 9584SOL    HW129651   5.483   4.026   6.940
 9584SOL    HW229652   5.492   4.026   6.777
 9585SOL     OW29653   6.041   1.362   2.538
 9585SOL    HW129654   6.021   1.269   2.505
 9585SOL    HW229655   6.129   1.392   2.502
 9586SOL     OW29656   4.642   4.397   2.781
 9586SOL    HW129657   4.549   4.435   2.772
 9586SOL    HW229658   4.697   4.426   2.703
 9587SOL     OW29659   4.564   6.310   1.533
 9587SOL    HW129660   4.529   6.235   1.589
 9587SOL    HW229661   4.490   6.351   1.481
 9588SOL     OW29662   5.851   1.355   3.615
 9588SOL    HW129663   5.768   1.361   3.559
 9588SOL    HW229664   5.932   1.365   3.557
 9589SOL     OW29665   4.220   1.960   5.233
 9589SOL    HW129666   4.132   1.944   5.189
 9589SOL    HW229667   4.266   1.872   5.248
 9590SOL     OW29668   0.337   4.909   4.495
 9590SOL    HW129669   0.392   4.829   4.472
 9590SOL    HW229670   0.253   4.880   4.540
 9591SOL     OW29671   6.742   4.503   2.273
 9591SOL    HW129672   6.827   4.451   2.279
 9591SOL    HW229673   6.704   4.493   2.181
 9592SOL     OW29674   4.038   5.590   0.551
 9592SOL    HW129675   3.982   5.656   0.602
 9592SOL    HW229676   3.989   5.561   0.469
 9593SOL     OW29677   1.938   2.629   3.857
 9593SOL    HW129678   2.036   2.640   3.873
 9593SOL    HW229679   1.891   2.715   3.880
 9594SOL     OW29680   5.748   0.154   0.825
 9594SOL    HW129681   5.753   0.232   0.887
 9594SOL    HW229682   5.840   0.118   0.808
 9595SOL     OW29683   2.502   5.103   5.645
 9595SOL    HW129684   2.523   5.154   5.728
 9595SOL    HW229685   2.461   5.165   5.577
 9596SOL     OW29686   5.452   5.036   2.170
 9596SOL    HW129687   5.435   5.056   2.266
 9596SOL    HW229688   5.537   4.984   2.161
 9597SOL     OW29689   1.955   4.263   2.017
 9597SOL    HW129690   1.876   4.239   1.961
 9597SOL    HW229691   1.924   4.294   2.107
 9598SOL     OW29692   0.656   6.135   5.310
 9598SOL    HW129693   0.750   6.170   5.315
 9598SOL    HW229694   0.606   6.162   5.392
 9599SOL     OW29695   3.772   1.989   5.538
 9599SOL    HW129696   3.682   1.992   5.494
 9599SOL    HW229697   3.817   1.903   5.515
 9600SOL     OW29698   1.730   5.738   7.015
 9600SOL    HW129699   1.708   5.646   6.983
 9600SOL    HW229700   1.828   5.754   7.006
 9601SOL     OW29701   1.340   6.917   4.661
 9601SOL    HW129702   1.364   6.980   4.735
 9601SOL    HW229703   1.263   6.954   4.609
 9602SOL     OW29704   1.383   5.646   6.116
 9602SOL    HW129705   1.313   5.668   6.048
 9602SOL    HW229706   1.395   5.547   6.120
 9603SOL     OW29707   1.291   5.264   2.024
 9603SOL    HW129708   1.352   5.217   1.961
 9603SOL    HW229709   1.308   5.232   2.118
 9604SOL     OW29710   0.042   0.406   6.235
 9604SOL    HW129711   6.979   0.360   6.228
 9604SOL    HW229712   0.074   0.431   6.144
 9605SOL     OW29713   3.739   4.460   0.918
 9605SOL    HW129714   3.655   4.485   0.967
 9605SOL    HW229715   3.802   4.538   0.918
 9606SOL     OW29716   6.838   1.647   4.904
 9606SOL    HW129717   6.790   1.717   4.850
 9606SOL    HW229718   6.896   1.592   4.844
 9607SOL     OW29719   6.818   2.942   3.496
 9607SOL    HW129720   6.762   2.911   3.574
 9607SOL    HW229721   6.841   2.863   3.439
 9608SOL     OW29722   5.800   1.134   1.150
 9608SOL    HW129723   5.833   1.046   1.184
 9608SOL    HW229724   5.793   1.130   1.051
 9609SOL     OW29725   1.330   2.094   4.193
 9609SOL    HW129726   1.414   2.052   4.159
 9609SOL    HW229727   1.344   2.122   4.289
 9610SOL     OW29728   5.167   1.009   5.930
 9610SOL    HW129729   5.097   1.079   5.915
 9610SOL    HW229730   5.257   1.052   5.934
 9611SOL     OW29731   4.519   5.837   1.415
 9611SOL    HW129732   4.443   5.858   1.476
 9611SOL    HW229733   4.591   5.790   1.467
 9612SOL     OW29734   5.213   3.856   3.688
 9612SOL    HW129735   5.239   3.868   3.592
 9612SOL    HW229736   5.163   3.936   3.719
 9613SOL     OW29737   5.514   0.881   4.890
 9613SOL    HW129738   5.491   0.976   4.870
 9613SOL    HW229739   5.570   0.877   4.972
 9614SOL     OW29740   3.053   2.208   0.361
 9614SOL    HW129741   2.966   2.185   0.405
 9614SOL    HW229742   3.035   2.243   0.269
 9615SOL     OW29743   6.419   6.244   3.488
 9615SOL    HW129744   6.402   6.339   3.462
 9615SOL    HW229745   6.353   6.184   3.442
 9616SOL     OW29746   0.381   2.208   1.279
 9616SOL    HW129747   0.389   2.307   1.267
 9616SOL    HW229748   0.294   2.186   1.323
 9617SOL     OW29749   0.218   3.417   3.663
 9617SOL    HW129750   0.215   3.517   3.662
 9617SOL    HW229751   0.283   3.386   3.732
 9618SOL     OW29752   5.232   4.148   2.339
 9618SOL    HW129753   5.308   4.160   2.276
 9618SOL    HW229754   5.159   4.213   2.318
 9619SOL     OW29755   1.417   0.521   1.231
 9619SOL    HW129756   1.393   0.612   1.195
 9619SOL    HW229757   1.391   0.516   1.328
 9620SOL     OW29758   4.192   0.924   6.361
 9620SOL    HW129759   4.173   0.909   6.264
 9620SOL    HW229760   4.291   0.921   6.377
 9621SOL     OW29761   6.517   1.578   0.987
 9621SOL    HW129762   6.451   1.505   1.008
 9621SOL    HW229763   6.607   1.553   1.021
 9622SOL     OW29764   6.704   6.505   4.779
 9622SOL    HW129765   6.653   6.463   4.705
 9622SOL    HW229766   6.767   6.438   4.819
 9623SOL     OW29767   2.444   6.134   5.991
 9623SOL    HW129768   2.358   6.094   6.022
 9623SOL    HW229769   2.484   6.189   6.064
 9624SOL     OW29770   4.241   4.521   6.700
 9624SOL    HW129771   4.246   4.429   6.737
 9624SOL    HW229772   4.317   4.575   6.735
 9625SOL     OW29773   5.307   4.731   6.125
 9625SOL    HW129774   5.287   4.825   6.155
 9625SOL    HW229775   5.301   4.670   6.204
 9626SOL     OW29776   2.733   2.684   6.301
 9626SOL    HW129777   2.647   2.656   6.346
 9626SOL    HW229778   2.769   2.608   6.248
 9627SOL     OW29779   6.444   5.937   0.539
 9627SOL    HW129780   6.418   6.028   0.572
 9627SOL    HW229781   6.411   5.925   0.445
 9628SOL     OW29782   6.103   1.480   5.482
 9628SOL    HW129783   6.026   1.532   5.520
 9628SOL    HW229784   6.187   1.505   5.532
 9629SOL     OW29785   0.727   5.654   4.335
 9629SOL    HW129786   0.648   5.597   4.312
 9629SOL    HW229787   0.709   5.748   4.307
 9630SOL     OW29788   6.330   0.084   6.032
 9630SOL    HW129789   6.415   0.035   6.012
 9630SOL    HW229790   6.271   0.081   5.951
 9631SOL     OW29791   4.696   6.001   0.173
 9631SOL    HW129792   4.699   5.970   0.268
 9631SOL    HW229793   4.790   6.010   0.139
 9632SOL     OW29794   2.927   5.514   2.392
 9632SOL    HW129795   2.880   5.554   2.471
 9632SOL    HW229796   3.015   5.559   2.379
 9633SOL     OW29797   3.246   3.187   5.287
 9633SOL    HW129798   3.244   3.273   5.235
 9633SOL    HW229799   3.305   3.122   5.239
 9634SOL     OW29800   6.305   4.715   2.710
 9634SOL    HW129801   6.238   4.733   2.638
 9634SOL    HW229802   6.338   4.802   2.746
 9635SOL     OW29803   0.800   5.486   4.142
 9635SOL    HW129804   0.724   5.502   4.079
 9635SOL    HW229805   0.794   5.550   4.218
 9636SOL     OW29806   5.521   3.619   3.607
 9636SOL    HW129807   5.473   3.637   3.693
 9636SOL    HW229808   5.488   3.532   3.569
 9637SOL     OW29809   3.046   2.586   6.311
 9637SOL    HW129810   3.096   2.612   6.393
 9637SOL    HW229811   2.964   2.534   6.337
 9638SOL     OW29812   0.647   4.545   5.793
 9638SOL    HW129813   0.554   4.510   5.779
 9638SOL    HW229814   0.648   4.644   5.777
 9639SOL     OW29815   5.468   2.974   1.798
 9639SOL    HW129816   5.444   2.891   1.847
 9639SOL    HW229817   5.399   2.992   1.728
 9640SOL     OW29818   3.105   6.981   3.306
 9640SOL    HW129819   3.155   6.895   3.293
 9640SOL    HW229820   3.084   6.992   3.403
 9641SOL     OW29821   0.862   2.523   4.590
 9641SOL    HW129822   0.841   2.505   4.494
 9641SOL    HW229823   0.809   2.461   4.648
 9642SOL     OW29824   0.668   2.522   4.984
 9642SOL    HW129825   0.742   2.542   5.048
 9642SOL    HW229826   0.582   2.514   5.035
 9643SOL     OW29827   6.444   5.258   4.516
 9643SOL    HW129828   6.374   5.293   4.579
 9643SOL    HW229829   6.400   5.215   4.438
 9644SOL     OW29830   0.577   4.510   3.296
 9644SOL    HW129831   0.482   4.538   3.282
 9644SOL    HW229832   0.581   4.413   3.319
 9645SOL     OW29833   0.830   4.900   0.306
 9645SOL    HW129834   0.810   4.865   0.215
 9645SOL    HW229835   0.923   4.873   0.333
 9646SOL     OW29836   2.855   4.813   0.551
 9646SOL    HW129837   2.882   4.762   0.633
 9646SOL    HW229838   2.778   4.768   0.507
 9647SOL     OW29839   5.596   0.064   3.104
 9647SOL    HW129840   5.510   0.055   3.054
 9647SOL    HW229841   5.600   0.153   3.148
 9648SOL     OW29842   3.639   2.456   1.082
 9648SOL    HW129843   3.731   2.417   1.078
 9648SOL    HW229844   3.575   2.385   1.110
 9649SOL     OW29845   0.105   6.053   0.780
 9649SOL    HW129846   0.138   6.144   0.805
 9649SOL    HW229847   0.182   5.989   0.779
 9650SOL     OW29848   0.182   5.446   5.038
 9650SOL    HW129849   0.207   5.364   5.088
 9650SOL    HW229850   0.257   5.512   5.043
 9651SOL     OW29851   3.971   1.421   6.789
 9651SOL    HW129852   4.040   1.442   6.719
 9651SOL    HW229853   3.880   1.442   6.753
 9652SOL     OW29854   0.340   3.842   0.558
 9652SOL    HW129855   0.241   3.846   0.572
 9652SOL    HW229856   0.385   3.813   0.642
 9653SOL     OW29857   5.503   3.928   5.218
 9653SOL    HW129858   5.480   3.840   5.177
 9653SOL    HW229859   5.536   3.990   5.147
 9654SOL     OW29860   4.008   3.178   4.644
 9654SOL    HW129861   4.043   3.152   4.554
 9654SOL    HW229862   4.037   3.272   4.665
 9655SOL     OW29863   4.773   0.166   0.986
 9655SOL    HW129864   4.783   0.265   0.977
 9655SOL    HW229865   4.694   0.145   1.043
 9656SOL     OW29866   5.232   4.668   5.849
 9656SOL    HW129867   5.254   4.693   5.943
 9656SOL    HW229868   5.252   4.745   5.789
 9657SOL     OW29869   5.018   5.274   2.977
 9657SOL    HW129870   5.025   5.334   3.057
 9657SOL    HW229871   4.954   5.200   2.996
 9658SOL     OW29872   5.350   0.815   3.070
 9658SOL    HW129873   5.335   0.839   2.974
 9658SOL    HW229874   5.303   0.880   3.129
 9659SOL     OW29875   3.630   2.910   0.575
 9659SOL    HW129876   3.652   2.871   0.665
 9659SOL    HW229877   3.586   2.840   0.519
 9660SOL     OW29878   2.832   6.572   1.681
 9660SOL    HW129879   2.814   6.638   1.754
 9660SOL    HW229880   2.788   6.485   1.703
 9661SOL     OW29881   4.112   3.648   2.274
 9661SOL    HW129882   4.048   3.707   2.323
 9661SOL    HW229883   4.134   3.569   2.330
 9662SOL     OW29884   4.370   0.679   4.830
 9662SOL    HW129885   4.354   0.607   4.897
 9662SOL    HW229886   4.468   0.697   4.822
 9663SOL     OW29887   1.271   6.123   2.550
 9663SOL    HW129888   1.181   6.131   2.592
 9663SOL    HW229889   1.341   6.136   2.621
 9664SOL     OW29890   2.147   4.460   3.126
 9664SOL    HW129891   2.082   4.497   3.192
 9664SOL    HW229892   2.102   4.448   3.038
 9665SOL     OW29893   6.289   3.834   6.405
 9665SOL    HW129894   6.268   3.736   6.393
 9665SOL    HW229895   6.368   3.857   6.348
 9666SOL     OW29896   4.978   4.011   0.728
 9666SOL    HW129897   4.970   4.106   0.696
 9666SOL    HW229898   5.016   3.954   0.656
 9667SOL     OW29899   6.035   6.300   6.651
 9667SOL    HW129900   6.131   6.272   6.645
 9667SOL    HW229901   5.978   6.235   6.599
 9668SOL     OW29902   2.283   0.081   0.229
 9668SOL    HW129903   2.330   0.169   0.231
 9668SOL    HW229904   2.185   0.096   0.242
 9669SOL     OW29905   3.431   6.988   0.156
 9669SOL    HW129906   3.433   6.961   0.253
 9669SOL    HW229907   3.412   6.908   0.100
 9670SOL     OW29908   0.629   0.089   2.504
 9670SOL    HW129909   0.566   0.137   2.443
 9670SOL    HW229910   0.719   0.083   2.460
 9671SOL     OW29911   0.918   6.239   6.451
 9671SOL    HW129912   1.003   6.270   6.409
 9671SOL    HW229913   0.841   6.270   6.395
 9672SOL     OW29914   0.845   4.660   4.980
 9672SOL    HW129915   0.904   4.661   5.061
 9672SOL    HW229916   0.847   4.751   4.937
 9673SOL     OW29917   1.980   3.077   5.649
 9673SOL    HW129918   1.997   3.090   5.551
 9673SOL    HW229919   2.034   3.143   5.701
 9674SOL     OW29920   1.707   0.216   3.445
 9674SOL    HW129921   1.631   0.252   3.500
 9674SOL    HW229922   1.748   0.138   3.492
 9675SOL     OW29923   6.145   4.001   6.098
 9675SOL    HW129924   6.164   4.078   6.037
 9675SOL    HW229925   6.211   3.928   6.079
 9676SOL     OW29926   0.993   3.005   6.021
 9676SOL    HW129927   1.083   3.049   6.013
 9676SOL    HW229928   0.970   2.993   6.117
 9677SOL     OW29929   0.550   5.036   2.740
 9677SOL    HW129930   0.545   4.936   2.744
 9677SOL    HW229931   0.590   5.071   2.825
 9678SOL     OW29932   4.926   3.043   6.137
 9678SOL    HW129933   4.961   3.035   6.044
 9678SOL    HW229934   4.832   3.007   6.141
 9679SOL     OW29935   1.408   1.046   4.797
 9679SOL    HW129936   1.384   1.079   4.888
 9679SOL    HW229937   1.446   1.121   4.743
 9680SOL     OW29938   4.544   0.354   2.237
 9680SOL    HW129939   4.624   0.412   2.222
 9680SOL    HW229940   4.544   0.278   2.172
 9681SOL     OW29941   0.348   2.888   1.568
 9681SOL    HW129942   0.335   2.936   1.655
 9681SOL    HW229943   0.379   2.954   1.499
 9682SOL     OW29944   3.795   6.523   5.286
 9682SOL    HW129945   3.826   6.433   5.256
 9682SOL    HW229946   3.875   6.580   5.306
 9683SOL     OW29947   3.337   5.622   3.665
 9683SOL    HW129948   3.322   5.717   3.637
 9683SOL    HW229949   3.433   5.608   3.685
 9684SOL     OW29950   1.068   2.454   6.351
 9684SOL    HW129951   1.137   2.463   6.279
 9684SOL    HW229952   1.091   2.515   6.427
 9685SOL     OW29953   3.698   4.466   1.624
 9685SOL    HW129954   3.648   4.511   1.699
 9685SOL    HW229955   3.644   4.389   1.589
 9686SOL     OW29956   0.632   1.613   6.029
 9686SOL    HW129957   0.694   1.670   6.084
 9686SOL    HW229958   0.671   1.601   5.938
 9687SOL     OW29959   5.511   0.662   3.939
 9687SOL    HW129960   5.465   0.588   3.889
 9687SOL    HW229961   5.481   0.661   4.035
 9688SOL     OW29962   0.637   5.295   2.419
 9688SOL    HW129963   0.701   5.361   2.459
 9688SOL    HW229964   0.652   5.290   2.320
 9689SOL     OW29965   1.855   5.349   1.227
 9689SOL    HW129966   1.939   5.401   1.245
 9689SOL    HW229967   1.850   5.327   1.129
 9690SOL     OW29968   6.531   4.666   4.551
 9690SOL    HW129969   6.614   4.714   4.582
 9690SOL    HW229970   6.515   4.587   4.611
 9691SOL     OW29971   3.806   3.516   2.278
 9691SOL    HW129972   3.845   3.589   2.334
 9691SOL    HW229973   3.734   3.553   2.220
 9692SOL     OW29974   5.749   4.814   0.423
 9692SOL    HW129975   5.806   4.897   0.424
 9692SOL    HW229976   5.766   4.762   0.507
 9693SOL     OW29977   4.526   3.180   6.774
 9693SOL    HW129978   4.540   3.132   6.861
 9693SOL    HW229979   4.454   3.135   6.722
 9694SOL     OW29980   3.011   6.345   0.921
 9694SOL    HW129981   3.078   6.417   0.901
 9694SOL    HW229982   3.015   6.276   0.849
 9695SOL     OW29983   2.019   2.713   3.492
 9695SOL    HW129984   1.957   2.702   3.570
 9695SOL    HW229985   2.051   2.623   3.463
 9696SOL     OW29986   4.957   3.828   3.381
 9696SOL    HW129987   4.937   3.901   3.447
 9696SOL    HW229988   4.914   3.743   3.411
 9697SOL     OW29989   6.462   0.163   2.086
 9697SOL    HW129990   6.493   0.182   2.179
 9697SOL    HW229991   6.531   0.110   2.038
 9698SOL     OW29992   6.915   3.089   1.445
 9698SOL    HW129993   6.872   3.071   1.533
 9698SOL    HW229994   6.845   3.118   1.379
 9699SOL     OW29995   1.583   6.806   2.253
 9699SOL    HW129996   1.546   6.827   2.162
 9699SOL    HW229997   1.655   6.872   2.276
 9700SOL     OW29998   6.340   0.631   5.420
 9700SOL    HW129999   6.241   0.636   5.434
 9700SOL    HW230000   6.380   0.567   5.486
 9701SOL     OW30001   5.684   3.781   6.918
 9701SOL    HW130002   5.700   3.796   7.016
 9701SOL    HW230003   5.751   3.715   6.883
 9702SOL     OW30004   2.998   3.519   1.691
 9702SOL    HW130005   3.065   3.451   1.662
 9702SOL    HW230006   2.931   3.475   1.751
 9703SOL     OW30007   6.923   5.011   2.842
 9703SOL    HW130008   7.015   4.976   2.825
 9703SOL    HW230009   6.920   5.109   2.821
 9704SOL     OW30010   0.736   4.825   2.208
 9704SOL    HW130011   0.753   4.727   2.217
 9704SOL    HW230012   0.660   4.841   2.145
 9705SOL     OW30013   0.042   4.226   5.842
 9705SOL    HW130014   0.115   4.175   5.888
 9705SOL    HW230015   0.078   4.268   5.758
 9706SOL     OW30016   0.763   6.555   1.989
 9706SOL    HW130017   0.696   6.629   2.001
 9706SOL    HW230018   0.835   6.564   2.057
 9707SOL     OW30019   1.582   5.160   1.991
 9707SOL    HW130020   1.603   5.257   2.000
 9707SOL    HW230021   1.651   5.114   1.935
 9708SOL     OW30022   2.980   1.127   1.667
 9708SOL    HW130023   3.045   1.104   1.740
 9708SOL    HW230024   2.981   1.226   1.651
 9709SOL     OW30025   4.322   1.546   2.144
 9709SOL    HW130026   4.280   1.559   2.054
 9709SOL    HW230027   4.265   1.484   2.198
 9710SOL     OW30028   4.692   4.294   4.347
 9710SOL    HW130029   4.789   4.318   4.350
 9710SOL    HW230030   4.654   4.319   4.258
 9711SOL     OW30031   2.745   0.297   0.142
 9711SOL    HW130032   2.739   0.243   0.057
 9711SOL    HW230033   2.838   0.332   0.152
 9712SOL     OW30034   4.642   6.723   5.322
 9712SOL    HW130035   4.569   6.698   5.259
 9712SOL    HW230036   4.645   6.823   5.331
 9713SOL     OW30037   0.949   0.693   3.051
 9713SOL    HW130038   0.910   0.694   3.143
 9713SOL    HW230039   0.876   0.685   2.983
 9714SOL     OW30040   2.329   2.698   4.133
 9714SOL    HW130041   2.321   2.792   4.164
 9714SOL    HW230042   2.420   2.663   4.155
 9715SOL     OW30043   0.021   1.814   6.428
 9715SOL    HW130044   6.958   1.789   6.467
 9715SOL    HW230045   0.033   1.769   6.340
 9716SOL     OW30046   1.885   6.413   0.675
 9716SOL    HW130047   1.883   6.319   0.708
 9716SOL    HW230048   1.816   6.467   0.722
 9717SOL     OW30049   4.496   2.120   6.180
 9717SOL    HW130050   4.398   2.095   6.177
 9717SOL    HW230051   4.533   2.095   6.269
 9718SOL     OW30052   3.118   1.979   6.500
 9718SOL    HW130053   3.028   1.937   6.487
 9718SOL    HW230054   3.123   2.018   6.592
 9719SOL     OW30055   4.055   0.213   5.278
 9719SOL    HW130056   4.044   0.313   5.280
 9719SOL    HW230057   4.114   0.188   5.202
 9720SOL     OW30058   2.247   2.570   2.039
 9720SOL    HW130059   2.232   2.475   2.068
 9720SOL    HW230060   2.294   2.570   1.951
 9721SOL     OW30061   0.766   2.170   1.449
 9721SOL    HW130062   0.762   2.265   1.479
 9721SOL    HW230063   0.846   2.126   1.489
 9722SOL     OW30064   3.342   3.088   5.534
 9722SOL    HW130065   3.304   2.996   5.541
 9722SOL    HW230066   3.289   3.141   5.468
 9723SOL     OW30067   5.675   0.533   5.329
 9723SOL    HW130068   5.717   0.495   5.411
 9723SOL    HW230069   5.600   0.474   5.299
 9724SOL     OW30070   2.058   5.054   1.367
 9724SOL    HW130071   1.999   5.000   1.307
 9724SOL    HW230072   2.096   5.131   1.316
 9725SOL     OW30073   5.426   5.463   4.126
 9725SOL    HW130074   5.518   5.477   4.091
 9725SOL    HW230075   5.418   5.370   4.162
 9726SOL     OW30076   0.117   0.114   3.425
 9726SOL    HW130077   0.127   0.116   3.525
 9726SOL    HW230078   0.023   0.135   3.401
 9727SOL     OW30079   6.574   2.907   1.604
 9727SOL    HW130080   6.546   2.916   1.700
 9727SOL    HW230081   6.500   2.937   1.544
 9728SOL     OW30082   5.932   1.756   5.205
 9728SOL    HW130083   5.922   1.745   5.106
 9728SOL    HW230084   5.865   1.700   5.252
 9729SOL     OW30085   0.018   3.866   2.548
 9729SOL    HW130086   0.085   3.935   2.520
 9729SOL    HW230087   6.994   3.833   2.468
 9730SOL     OW30088   0.736   5.904   3.613
 9730SOL    HW130089   0.778   5.976   3.558
 9730SOL    HW230090   0.677   5.848   3.555
 9731SOL     OW30091   6.583   1.683   1.726
 9731SOL    HW130092   6.597   1.640   1.815
 9731SOL    HW230093   6.638   1.767   1.721
 9732SOL     OW30094   0.097   2.634   3.492
 9732SOL    HW130095   0.076   2.648   3.589
 9732SOL    HW230096   0.130   2.720   3.452
 9733SOL     OW30097   5.590   5.697   0.424
 9733SOL    HW130098   5.523   5.691   0.499
 9733SOL    HW230099   5.682   5.684   0.461
 9734SOL     OW30100   3.942   3.840   0.059
 9734SOL    HW130101   3.962   3.777   7.009
 9734SOL    HW230102   3.969   3.798   0.146
 9735SOL     OW30103   1.206   1.647   0.494
 9735SOL    HW130104   1.277   1.713   0.514
 9735SOL    HW230105   1.126   1.693   0.456
 9736SOL     OW30106   5.109   1.959   5.855
 9736SOL    HW130107   5.031   2.017   5.831
 9736SOL    HW230108   5.178   2.014   5.902
 9737SOL     OW30109   5.304   3.315   5.078
 9737SOL    HW130110   5.296   3.389   5.011
 9737SOL    HW230111   5.238   3.243   5.055
 9738SOL     OW30112   2.518   5.907   1.382
 9738SOL    HW130113   2.604   5.856   1.387
 9738SOL    HW230114   2.526   5.992   1.434
 9739SOL     OW30115   5.663   6.682   0.570
 9739SOL    HW130116   5.605   6.698   0.650
 9739SOL    HW230117   5.735   6.617   0.594
 9740SOL     OW30118   6.537   1.077   1.022
 9740SOL    HW130119   6.596   1.026   0.960
 9740SOL    HW230120   6.484   1.144   0.969
 9741SOL     OW30121   2.287   2.678   3.107
 9741SOL    HW130122   2.221   2.602   3.113
 9741SOL    HW230123   2.308   2.711   3.199
 9742SOL     OW30124   4.243   0.534   6.882
 9742SOL    HW130125   4.258   0.438   6.905
 9742SOL    HW230126   4.326   0.572   6.842
 9743SOL     OW30127   6.389   3.895   4.438
 9743SOL    HW130128   6.388   3.864   4.343
 9743SOL    HW230129   6.473   3.947   4.455
 9744SOL     OW30130   1.786   2.765   2.145
 9744SOL    HW130131   1.864   2.802   2.196
 9744SOL    HW230132   1.817   2.687   2.090
 9745SOL     OW30133   1.236   6.541   6.115
 9745SOL    HW130134   1.247   6.641   6.117
 9745SOL    HW230135   1.192   6.515   6.029
 9746SOL     OW30136   3.213   6.109   5.935
 9746SOL    HW130137   3.209   6.190   5.877
 9746SOL    HW230138   3.308   6.075   5.939
 9747SOL     OW30139   4.158   1.596   3.508
 9747SOL    HW130140   4.204   1.605   3.419
 9747SOL    HW230141   4.071   1.644   3.506
 9748SOL     OW30142   0.301   2.183   2.837
 9748SOL    HW130143   0.330   2.173   2.932
 9748SOL    HW230144   0.246   2.103   2.811
 9749SOL     OW30145   7.021   0.415   1.514
 9749SOL    HW130146   6.984   0.475   1.585
 9749SOL    HW230147   6.996   0.320   1.533
 9750SOL     OW30148   6.099   1.993   4.950
 9750SOL    HW130149   6.007   1.956   4.953
 9750SOL    HW230150   6.165   1.918   4.945
 9751SOL     OW30151   2.888   5.652   1.134
 9751SOL    HW130152   2.933   5.624   1.049
 9751SOL    HW230153   2.791   5.626   1.131
 9752SOL     OW30154   4.067   3.845   0.756
 9752SOL    HW130155   3.968   3.851   0.747
 9752SOL    HW230156   4.092   3.755   0.792
 9753SOL     OW30157   6.255   6.544   3.186
 9753SOL    HW130158   6.352   6.531   3.208
 9753SOL    HW230159   6.223   6.467   3.131
 9754SOL     OW30160   3.239   0.563   1.844
 9754SOL    HW130161   3.229   0.494   1.915
 9754SOL    HW230162   3.159   0.559   1.783
 9755SOL     OW30163   3.150   4.057   1.136
 9755SOL    HW130164   3.196   3.993   1.197
 9755SOL    HW230165   3.216   4.096   1.072
 9756SOL     OW30166   4.774   6.802   6.621
 9756SOL    HW130167   4.716   6.724   6.645
 9756SOL    HW230168   4.756   6.829   6.526
 9757SOL     OW30169   4.958   3.974   4.187
 9757SOL    HW130170   4.992   3.881   4.173
 9757SOL    HW230171   5.005   4.037   4.126
 9758SOL     OW30172   3.747   0.981   1.936
 9758SOL    HW130173   3.789   1.070   1.920
 9758SOL    HW230174   3.797   0.932   2.007
 9759SOL     OW30175   6.700   2.153   1.021
 9759SOL    HW130176   6.679   2.167   1.118
 9759SOL    HW230177   6.615   2.132   0.972
 9760SOL     OW30178   4.673   0.760   6.415
 9760SOL    HW130179   4.754   0.787   6.364
 9760SOL    HW230180   4.697   0.743   6.510
 9761SOL     OW30181   0.655   1.927   2.205
 9761SOL    HW130182   0.678   1.894   2.297
 9761SOL    HW230183   0.735   1.972   2.165
 9762SOL     OW30184   3.768   0.965   5.941
 9762SOL    HW130185   3.778   0.917   6.028
 9762SOL    HW230186   3.773   0.899   5.866
 9763SOL     OW30187   5.743   1.774   1.056
 9763SOL    HW130188   5.740   1.774   0.956
 9763SOL    HW230189   5.709   1.687   1.090
 9764SOL     OW30190   0.381   2.484   3.506
 9764SOL    HW130191   0.396   2.387   3.526
 9764SOL    HW230192   0.285   2.499   3.484
 9765SOL     OW30193   6.235   2.242   1.325
 9765SOL    HW130194   6.164   2.312   1.318
 9765SOL    HW230195   6.321   2.278   1.288
 9766SOL     OW30196   0.254   2.630   3.014
 9766SOL    HW130197   0.262   2.725   2.986
 9766SOL    HW230198   0.252   2.571   2.933
 9767SOL     OW30199   3.820   1.830   4.485
 9767SOL    HW130200   3.745   1.876   4.437
 9767SOL    HW230201   3.907   1.869   4.456
 9768SOL     OW30202   4.791   2.172   6.445
 9768SOL    HW130203   4.744   2.083   6.438
 9768SOL    HW230204   4.875   2.169   6.392
 9769SOL     OW30205   3.990   1.153   5.269
 9769SOL    HW130206   3.904   1.187   5.306
 9769SOL    HW230207   3.974   1.070   5.216
 9770SOL     OW30208   2.244   3.309   5.556
 9770SOL    HW130209   2.261   3.317   5.654
 9770SOL    HW230210   2.181   3.382   5.527
 9771SOL     OW30211   3.394   0.931   2.197
 9771SOL    HW130212   3.341   0.875   2.134
 9771SOL    HW230213   3.440   1.004   2.146
 9772SOL     OW30214   0.444   0.416   2.028
 9772SOL    HW130215   0.420   0.459   2.115
 9772SOL    HW230216   0.516   0.348   2.042
 9773SOL     OW30217   4.814   6.197   1.886
 9773SOL    HW130218   4.907   6.189   1.849
 9773SOL    HW230219   4.787   6.293   1.889
 9774SOL     OW30220   1.754   5.564   4.620
 9774SOL    HW130221   1.745   5.466   4.601
 9774SOL    HW230222   1.699   5.616   4.554
 9775SOL     OW30223   1.534   1.014   3.178
 9775SOL    HW130224   1.465   0.998   3.107
 9775SOL    HW230225   1.587   0.930   3.192
 9776SOL     OW30226   1.355   5.933   1.420
 9776SOL    HW130227   1.415   5.857   1.445
 9776SOL    HW230228   1.375   6.012   1.478
 9777SOL     OW30229   4.361   1.722   5.309
 9777SOL    HW130230   4.389   1.629   5.335
 9777SOL    HW230231   4.438   1.769   5.266
 9778SOL     OW30232   1.477   3.671   2.899
 9778SOL    HW130233   1.576   3.656   2.907
 9778SOL    HW230234   1.429   3.583   2.901
 9779SOL     OW30235   2.451   1.076   2.735
 9779SOL    HW130236   2.426   1.021   2.815
 9779SOL    HW230237   2.519   1.144   2.763
 9780SOL     OW30238   1.398   1.845   0.508
 9780SOL    HW130239   1.474   1.871   0.568
 9780SOL    HW230240   1.335   1.922   0.499
 9781SOL     OW30241   1.252   1.342   2.126
 9781SOL    HW130242   1.328   1.370   2.185
 9781SOL    HW230243   1.169   1.389   2.155
 9782SOL     OW30244   6.929   2.688   0.336
 9782SOL    HW130245   6.829   2.685   0.346
 9782SOL    HW230246   6.961   2.600   0.299
 9783SOL     OW30247   4.755   1.610   2.428
 9783SOL    HW130248   4.664   1.595   2.388
 9783SOL    HW230249   4.802   1.523   2.440
 9784SOL     OW30250   2.079   0.969   0.647
 9784SOL    HW130251   1.986   0.991   0.616
 9784SOL    HW230252   2.145   1.023   0.596
 9785SOL     OW30253   1.249   3.639   4.570
 9785SOL    HW130254   1.335   3.684   4.550
 9785SOL    HW230255   1.237   3.632   4.669
 9786SOL     OW30256   3.067   4.414   6.560
 9786SOL    HW130257   2.973   4.427   6.593
 9786SOL    HW230258   3.113   4.502   6.554
 9787SOL     OW30259   2.386   3.333   0.905
 9787SOL    HW130260   2.369   3.429   0.885
 9787SOL    HW230261   2.375   3.318   1.004
 9788SOL     OW30262   2.281   6.988   2.588
 9788SOL    HW130263   2.260   7.003   2.685
 9788SOL    HW230264   2.347   0.031   2.558
 9789SOL     OW30265   4.584   1.748   0.358
 9789SOL    HW130266   4.645   1.719   0.431
 9789SOL    HW230267   4.516   1.811   0.394
 9790SOL     OW30268   4.646   5.789   5.046
 9790SOL    HW130269   4.689   5.856   5.107
 9790SOL    HW230270   4.662   5.697   5.082
 9791SOL     OW30271   0.279   1.391   1.261
 9791SOL    HW130272   0.298   1.424   1.168
 9791SOL    HW230273   0.354   1.331   1.291
 9792SOL     OW30274   3.231   3.525   0.798
 9792SOL    HW130275   3.187   3.440   0.828
 9792SOL    HW230276   3.162   3.596   0.786
 9793SOL     OW30277   6.104   1.357   1.961
 9793SOL    HW130278   6.189   1.410   1.963
 9793SOL    HW230279   6.080   1.331   2.055
 9794SOL     OW30280   4.132   5.829   4.786
 9794SOL    HW130281   4.171   5.844   4.877
 9794SOL    HW230282   4.151   5.735   4.757
 9795SOL     OW30283   1.706   4.320   3.012
 9795SOL    HW130284   1.666   4.229   3.026
 9795SOL    HW230285   1.642   4.390   3.044
 9796SOL     OW30286   3.771   3.404   4.832
 9796SOL    HW130287   3.708   3.351   4.776
 9796SOL    HW230288   3.827   3.463   4.774
 9797SOL     OW30289   3.436   5.443   6.763
 9797SOL    HW130290   3.461   5.533   6.800
 9797SOL    HW230291   3.463   5.438   6.667
 9798SOL     OW30292   0.074   4.324   6.572
 9798SOL    HW130293   7.002   4.317   6.552
 9798SOL    HW230294   0.106   4.415   6.548
 9799SOL     OW30295   3.817   6.410   6.688
 9799SOL    HW130296   3.819   6.435   6.591
 9799SOL    HW230297   3.861   6.321   6.701
 9800SOL     OW30298   6.867   4.413   4.998
 9800SOL    HW130299   6.898   4.502   5.032
 9800SOL    HW230300   6.845   4.354   5.076
 9801SOL     OW30301   4.262   0.405   0.467
 9801SOL    HW130302   4.186   0.468   0.488
 9801SOL    HW230303   4.262   0.331   0.534
 9802SOL     OW30304   3.860   2.917   0.377
 9802SOL    HW130305   3.788   2.952   0.437
 9802SOL    HW230306   3.930   2.871   0.432
 9803SOL     OW30307   2.615   3.695   0.565
 9803SOL    HW130308   2.540   3.651   0.517
 9803SOL    HW230309   2.665   3.755   0.502
 9804SOL     OW30310   0.965   4.203   3.170
 9804SOL    HW130311   1.028   4.281   3.174
 9804SOL    HW230312   0.908   4.210   3.089
 9805SOL     OW30313   0.342   5.227   5.108
 9805SOL    HW130314   0.387   5.222   5.020
 9805SOL    HW230315   0.404   5.195   5.180
 9806SOL     OW30316   3.227   0.888   6.569
 9806SOL    HW130317   3.307   0.929   6.525
 9806SOL    HW230318   3.200   0.943   6.647
 9807SOL     OW30319   3.438   3.091   4.145
 9807SOL    HW130320   3.359   3.038   4.176
 9807SOL    HW230321   3.418   3.129   4.054
 9808SOL     OW30322   3.023   5.833   2.616
 9808SOL    HW130323   2.960   5.784   2.675
 9808SOL    HW230324   3.089   5.768   2.577
 9809SOL     OW30325   6.174   3.240   1.431
 9809SOL    HW130326   6.141   3.226   1.337
 9809SOL    HW230327   6.096   3.238   1.494
 9810SOL     OW30328   3.692   3.159   1.233
 9810SOL    HW130329   3.763   3.131   1.169
 9810SOL    HW230330   3.605   3.117   1.207
 9811SOL     OW30331   5.182   3.489   3.884
 9811SOL    HW130332   5.238   3.410   3.909
 9811SOL    HW230333   5.086   3.464   3.887
 9812SOL     OW30334   3.243   4.943   6.729
 9812SOL    HW130335   3.336   4.906   6.736
 9812SOL    HW230336   3.246   5.034   6.688
 9813SOL     OW30337   4.399   0.791   2.042
 9813SOL    HW130338   4.384   0.868   2.104
 9813SOL    HW230339   4.396   0.706   2.094
 9814SOL     OW30340   6.731   1.762   6.259
 9814SOL    HW130341   6.711   1.693   6.329
 9814SOL    HW230342   6.670   1.748   6.181
 9815SOL     OW30343   5.494   2.558   4.535
 9815SOL    HW130344   5.593   2.554   4.542
 9815SOL    HW230345   5.467   2.639   4.484
 9816SOL     OW30346   3.245   0.624   0.468
 9816SOL    HW130347   3.228   0.692   0.538
 9816SOL    HW230348   3.343   0.604   0.463
 9817SOL     OW30349   6.515   0.281   1.564
 9817SOL    HW130350   6.452   0.270   1.640
 9817SOL    HW230351   6.480   0.231   1.484
 9818SOL     OW30352   3.711   2.454   5.376
 9818SOL    HW130353   3.675   2.543   5.348
 9818SOL    HW230354   3.750   2.461   5.468
 9819SOL     OW30355   2.333   0.627   1.950
 9819SOL    HW130356   2.415   0.594   1.905
 9819SOL    HW230357   2.316   0.722   1.922
 9820SOL     OW30358   3.791   2.488   6.919
 9820SOL    HW130359   3.851   2.408   6.921
 9820SOL    HW230360   3.831   2.560   6.862
 9821SOL     OW30361   0.416   5.762   6.817
 9821SOL    HW130362   0.412   5.860   6.796
 9821SOL    HW230363   0.325   5.731   6.845
 9822SOL     OW30364   0.284   0.532   2.326
 9822SOL    HW130365   0.190   0.557   2.346
 9822SOL    HW230366   0.340   0.614   2.320
 9823SOL     OW30367   3.569   6.749   2.032
 9823SOL    HW130368   3.649   6.765   2.090
 9823SOL    HW230369   3.498   6.701   2.084
 9824SOL     OW30370   2.102   4.078   5.375
 9824SOL    HW130371   2.127   4.040   5.464
 9824SOL    HW230372   2.109   4.006   5.306
 9825SOL     OW30373   3.759   5.317   4.988
 9825SOL    HW130374   3.671   5.339   4.947
 9825SOL    HW230375   3.748   5.304   5.086
 9826SOL     OW30376   5.599   6.667   5.520
 9826SOL    HW130377   5.512   6.624   5.494
 9826SOL    HW230378   5.631   6.627   5.605
 9827SOL     OW30379   0.833   5.227   4.894
 9827SOL    HW130380   0.883   5.236   4.808
 9827SOL    HW230381   0.888   5.263   4.969
 9828SOL     OW30382   2.484   1.374   0.031
 9828SOL    HW130383   2.405   1.322   7.025
 9828SOL    HW230384   2.454   1.463   0.064
 9829SOL     OW30385   2.747   4.121   1.716
 9829SOL    HW130386   2.827   4.181   1.715
 9829SOL    HW230387   2.776   4.027   1.699
 9830SOL     OW30388   6.174   1.743   1.034
 9830SOL    HW130389   6.150   1.661   0.984
 9830SOL    HW230390   6.208   1.719   1.125
 9831SOL     OW30391   6.110   6.347   1.307
 9831SOL    HW130392   6.178   6.420   1.319
 9831SOL    HW230393   6.037   6.379   1.248
 9832SOL     OW30394   3.105   3.788   0.686
 9832SOL    HW130395   3.136   3.880   0.709
 9832SOL    HW230396   3.039   3.793   0.611
 9833SOL     OW30397   4.934   4.339   6.829
 9833SOL    HW130398   4.931   4.423   6.883
 9833SOL    HW230399   5.020   4.292   6.846
 9834SOL     OW30400   2.108   2.569   4.176
 9834SOL    HW130401   2.115   2.522   4.264
 9834SOL    HW230402   2.199   2.601   4.148
 9835SOL     OW30403   5.443   1.726   4.540
 9835SOL    HW130404   5.365   1.664   4.528
 9835SOL    HW230405   5.443   1.794   4.466
 9836SOL     OW30406   5.233   5.597   1.612
 9836SOL    HW130407   5.324   5.626   1.641
 9836SOL    HW230408   5.165   5.634   1.675
 9837SOL     OW30409   2.607   5.802   5.688
 9837SOL    HW130410   2.533   5.868   5.703
 9837SOL    HW230411   2.642   5.812   5.595
 9838SOL     OW30412   6.817   5.955   4.881
 9838SOL    HW130413   6.854   5.867   4.910
 9838SOL    HW230414   6.745   5.984   4.945
 9839SOL     OW30415   5.802   3.328   2.478
 9839SOL    HW130416   5.879   3.300   2.535
 9839SOL    HW230417   5.828   3.326   2.382
 9840SOL     OW30418   5.634   0.256   0.168
 9840SOL    HW130419   5.724   0.220   0.194
 9840SOL    HW230420   5.566   0.228   0.237
 9841SOL     OW30421   2.167   3.147   4.645
 9841SOL    HW130422   2.197   3.084   4.717
 9841SOL    HW230423   2.176   3.242   4.677
 9842SOL     OW30424   3.348   3.516   4.016
 9842SOL    HW130425   3.423   3.581   4.010
 9842SOL    HW230426   3.333   3.473   3.927
 9843SOL     OW30427   6.162   4.736   3.144
 9843SOL    HW130428   6.176   4.652   3.091
 9843SOL    HW230429   6.100   4.718   3.220
 9844SOL     OW30430   5.091   0.180   2.038
 9844SOL    HW130431   4.997   0.199   2.011
 9844SOL    HW230432   5.139   0.267   2.053
 9845SOL     OW30433   1.484   1.498   3.991
 9845SOL    HW130434   1.572   1.487   4.039
 9845SOL    HW230435   1.412   1.515   4.058
 9846SOL     OW30436   2.930   3.451   3.887
 9846SOL    HW130437   2.981   3.378   3.932
 9846SOL    HW230438   2.848   3.413   3.844
 9847SOL     OW30439   2.229   4.254   4.729
 9847SOL    HW130440   2.255   4.168   4.774
 9847SOL    HW230441   2.197   4.234   4.636
 9848SOL     OW30442   6.266   4.159   0.293
 9848SOL    HW130443   6.172   4.193   0.290
 9848SOL    HW230444   6.270   4.077   0.350
 9849SOL     OW30445   6.874   6.244   5.401
 9849SOL    HW130446   6.902   6.227   5.307
 9849SOL    HW230447   6.874   6.343   5.418
 9850SOL     OW30448   4.630   0.587   3.359
 9850SOL    HW130449   4.690   0.648   3.306
 9850SOL    HW230450   4.556   0.641   3.399
 9851SOL     OW30451   5.120   2.437   5.228
 9851SOL    HW130452   5.044   2.385   5.267
 9851SOL    HW230453   5.205   2.384   5.236
 9852SOL     OW30454   5.887   1.688   4.295
 9852SOL    HW130455   5.872   1.611   4.357
 9852SOL    HW230456   5.888   1.655   4.201
 9853SOL     OW30457   0.725   5.020   1.137
 9853SOL    HW130458   0.799   5.080   1.106
 9853SOL    HW230459   0.749   4.978   1.224
 9854SOL     OW30460   3.641   6.634   3.768
 9854SOL    HW130461   3.597   6.722   3.787
 9854SOL    HW230462   3.740   6.644   3.779
 9855SOL     OW30463   1.944   4.429   0.768
 9855SOL    HW130464   1.902   4.418   0.858
 9855SOL    HW230465   1.883   4.482   0.709
 9856SOL     OW30466   3.657   3.145   1.705
 9856SOL    HW130467   3.651   3.231   1.755
 9856SOL    HW230468   3.586   3.082   1.737
 9857SOL     OW30469   6.477   4.949   2.786
 9857SOL    HW130470   6.452   4.997   2.702
 9857SOL    HW230471   6.399   4.945   2.847
 9858SOL     OW30472   3.598   1.596   1.482
 9858SOL    HW130473   3.577   1.501   1.504
 9858SOL    HW230474   3.602   1.651   1.566
 9859SOL     OW30475   0.138   6.731   1.286
 9859SOL    HW130476   0.182   6.675   1.356
 9859SOL    HW230477   0.200   6.744   1.209
 9860SOL     OW30478   0.687   0.941   2.775
 9860SOL    HW130479   0.692   1.031   2.817
 9860SOL    HW230480   0.688   0.950   2.675
 9861SOL     OW30481   3.124   6.610   3.972
 9861SOL    HW130482   3.201   6.627   4.034
 9861SOL    HW230483   3.075   6.528   4.002
 9862SOL     OW30484   0.361   1.985   1.024
 9862SOL    HW130485   0.368   2.047   1.102
 9862SOL    HW230486   0.424   1.908   1.037
 9863SOL     OW30487   3.582   0.393   0.193
 9863SOL    HW130488   3.669   0.349   0.218
 9863SOL    HW230489   3.506   0.330   0.211
 9864SOL     OW30490   4.420   6.152   3.195
 9864SOL    HW130491   4.363   6.234   3.190
 9864SOL    HW230492   4.511   6.173   3.160
 9865SOL     OW30493   1.865   3.206   4.061
 9865SOL    HW130494   1.805   3.180   3.985
 9865SOL    HW230495   1.810   3.229   4.141
 9866SOL     OW30496   3.187   4.862   3.575
 9866SOL    HW130497   3.134   4.823   3.651
 9866SOL    HW230498   3.268   4.909   3.612
 9867SOL     OW30499   4.026   6.808   6.399
 9867SOL    HW130500   4.107   6.855   6.433
 9867SOL    HW230501   4.002   6.843   6.308
 9868SOL     OW30502   1.601   5.209   5.555
 9868SOL    HW130503   1.577   5.304   5.575
 9868SOL    HW230504   1.574   5.188   5.461
 9869SOL     OW30505   1.389   4.201   3.081
 9869SOL    HW130506   1.476   4.156   3.102
 9869SOL    HW230507   1.406   4.279   3.021
 9870SOL     OW30508   4.012   5.055   1.630
 9870SOL    HW130509   4.076   5.026   1.702
 9870SOL    HW230510   4.045   5.140   1.589
 9871SOL     OW30511   1.845   1.992   5.732
 9871SOL    HW130512   1.873   1.897   5.748
 9871SOL    HW230513   1.915   2.038   5.678
 9872SOL     OW30514   1.501   4.225   3.397
 9872SOL    HW130515   1.432   4.289   3.430
 9872SOL    HW230516   1.462   4.133   3.394
 9873SOL     OW30517   1.816   1.663   0.485
 9873SOL    HW130518   1.907   1.696   0.459
 9873SOL    HW230519   1.786   1.594   0.419
 9874SOL     OW30520   1.176   4.170   5.171
 9874SOL    HW130521   1.164   4.138   5.265
 9874SOL    HW230522   1.273   4.190   5.154
 9875SOL     OW30523   1.322   1.428   2.878
 9875SOL    HW130524   1.300   1.375   2.960
 9875SOL    HW230525   1.273   1.390   2.800
 9876SOL     OW30526   6.859   5.541   2.261
 9876SOL    HW130527   6.937   5.540   2.325
 9876SOL    HW230528   6.822   5.448   2.254
 9877SOL     OW30529   4.059   0.413   1.504
 9877SOL    HW130530   4.103   0.379   1.421
 9877SOL    HW230531   3.960   0.405   1.495
 9878SOL     OW30532   6.934   0.707   5.103
 9878SOL    HW130533   7.010   0.764   5.136
 9878SOL    HW230534   6.900   0.650   5.177
 9879SOL     OW30535   5.051   5.919   4.989
 9879SOL    HW130536   5.119   5.968   5.042
 9879SOL    HW230537   5.018   5.841   5.042
 9880SOL     OW30538   1.618   2.196   4.005
 9880SOL    HW130539   1.635   2.262   4.078
 9880SOL    HW230540   1.575   2.241   3.927
 9881SOL     OW30541   6.982   1.217   6.164
 9881SOL    HW130542   7.018   1.237   6.254
 9881SOL    HW230543   0.029   1.226   6.096
 9882SOL     OW30544   2.376   2.386   3.248
 9882SOL    HW130545   2.322   2.314   3.293
 9882SOL    HW230546   2.344   2.398   3.154
 9883SOL     OW30547   2.811   1.139   2.512
 9883SOL    HW130548   2.903   1.104   2.531
 9883SOL    HW230549   2.815   1.238   2.500
 9884SOL     OW30550   3.457   0.301   4.151
 9884SOL    HW130551   3.519   0.360   4.202
 9884SOL    HW230552   3.371   0.349   4.134
 9885SOL     OW30553   6.680   3.742   4.116
 9885SOL    HW130554   6.645   3.662   4.165
 9885SOL    HW230555   6.606   3.809   4.104
 9886SOL     OW30556   0.325   3.004   1.899
 9886SOL    HW130557   0.272   2.928   1.936
 9886SOL    HW230558   0.303   3.088   1.950
 9887SOL     OW30559   4.778   6.702   5.930
 9887SOL    HW130560   4.790   6.611   5.890
 9887SOL    HW230561   4.814   6.770   5.866
 9888SOL     OW30562   6.700   5.344   6.601
 9888SOL    HW130563   6.617   5.385   6.562
 9888SOL    HW230564   6.681   5.315   6.695
 9889SOL     OW30565   0.317   5.658   0.784
 9889SOL    HW130566   0.402   5.669   0.836
 9889SOL    HW230567   0.239   5.678   0.843
 9890SOL     OW30568   0.832   2.871   0.525
 9890SOL    HW130569   0.853   2.860   0.428
 9890SOL    HW230570   0.814   2.967   0.544
 9891SOL     OW30571   5.011   1.110   1.902
 9891SOL    HW130572   5.036   1.186   1.842
 9891SOL    HW230573   4.914   1.090   1.892
 9892SOL     OW30574   0.753   0.116   0.142
 9892SOL    HW130575   0.832   0.102   0.201
 9892SOL    HW230576   0.781   0.114   0.046
 9893SOL     OW30577   2.385   1.167   6.663
 9893SOL    HW130578   2.334   1.094   6.708
 9893SOL    HW230579   2.364   1.167   6.565
 9894SOL     OW30580   2.166   0.703   1.452
 9894SOL    HW130581   2.104   0.673   1.380
 9894SOL    HW230582   2.181   0.802   1.444
 9895SOL     OW30583   4.495   2.842   5.432
 9895SOL    HW130584   4.403   2.855   5.470
 9895SOL    HW230585   4.549   2.925   5.444
 9896SOL     OW30586   6.850   6.473   5.540
 9896SOL    HW130587   6.848   6.457   5.638
 9896SOL    HW230588   6.918   6.544   5.519
 9897SOL     OW30589   5.167   5.305   4.821
 9897SOL    HW130590   5.084   5.335   4.773
 9897SOL    HW230591   5.225   5.384   4.840
 9898SOL     OW30592   2.720   6.902   5.947
 9898SOL    HW130593   2.774   6.954   5.881
 9898SOL    HW230594   2.764   6.906   6.037
 9899SOL     OW30595   0.516   4.719   0.093
 9899SOL    HW130596   0.435   4.680   0.050
 9899SOL    HW230597   0.565   4.648   0.143
 9900SOL     OW30598   2.256   4.318   3.600
 9900SOL    HW130599   2.316   4.367   3.537
 9900SOL    HW230600   2.195   4.258   3.547
 9901SOL     OW30601   1.689   3.178   5.515
 9901SOL    HW130602   1.750   3.254   5.494
 9901SOL    HW230603   1.736   3.113   5.574
 9902SOL     OW30604   2.685   4.529   0.694
 9902SOL    HW130605   2.589   4.555   0.703
 9902SOL    HW230606   2.691   4.439   0.650
 9903SOL     OW30607   5.681   1.239   4.594
 9903SOL    HW130608   5.630   1.183   4.659
 9903SOL    HW230609   5.763   1.189   4.565
 9904SOL     OW30610   6.016   2.204   0.867
 9904SOL    HW130611   6.102   2.245   0.896
 9904SOL    HW230612   6.005   2.114   0.910
 9905SOL     OW30613   4.860   0.113   0.163
 9905SOL    HW130614   4.905   0.042   0.218
 9905SOL    HW230615   4.860   0.199   0.213
 9906SOL     OW30616   3.240   3.433   5.149
 9906SOL    HW130617   3.164   3.489   5.183
 9906SOL    HW230618   3.228   3.417   5.051
 9907SOL     OW30619   1.191   6.635   1.457
 9907SOL    HW130620   1.206   6.635   1.555
 9907SOL    HW230621   1.276   6.656   1.410
 9908SOL     OW30622   4.877   3.611   2.054
 9908SOL    HW130623   4.806   3.669   2.093
 9908SOL    HW230624   4.842   3.565   1.972
 9909SOL     OW30625   2.070   0.182   5.049
 9909SOL    HW130626   2.027   0.174   4.959
 9909SOL    HW230627   2.029   0.116   5.112
 9910SOL     OW30628   6.934   4.807   3.723
 9910SOL    HW130629   6.885   4.864   3.657
 9910SOL    HW230630   6.891   4.717   3.728
 9911SOL     OW30631   2.865   5.925   2.255
 9911SOL    HW130632   2.853   6.023   2.237
 9911SOL    HW230633   2.802   5.897   2.327
 9912SOL     OW30634   4.484   0.846   6.254
 9912SOL    HW130635   4.536   0.875   6.174
 9912SOL    HW230636   4.546   0.809   6.323
 9913SOL     OW30637   5.009   3.376   0.367
 9913SOL    HW130638   5.039   3.411   0.455
 9913SOL    HW230639   4.965   3.449   0.315
 9914SOL     OW30640   0.267   4.192   4.779
 9914SOL    HW130641   0.200   4.233   4.717
 9914SOL    HW230642   0.337   4.260   4.802
 9915SOL     OW30643   4.554   1.504   3.687
 9915SOL    HW130644   4.618   1.493   3.764
 9915SOL    HW230645   4.549   1.417   3.637
 9916SOL     OW30646   1.551   2.941   1.915
 9916SOL    HW130647   1.628   2.995   1.883
 9916SOL    HW230648   1.466   2.992   1.899
 9917SOL     OW30649   6.058   4.797   4.870
 9917SOL    HW130650   6.108   4.754   4.795
 9917SOL    HW230651   6.061   4.737   4.950
 9918SOL     OW30652   4.865   2.929   2.200
 9918SOL    HW130653   4.919   2.853   2.162
 9918SOL    HW230654   4.791   2.952   2.137
 9919SOL     OW30655   5.866   5.932   0.864
 9919SOL    HW130656   5.965   5.946   0.854
 9919SOL    HW230657   5.817   6.006   0.819
 9920SOL     OW30658   4.776   1.532   2.832
 9920SOL    HW130659   4.723   1.580   2.762
 9920SOL    HW230660   4.740   1.439   2.843
 9921SOL     OW30661   4.130   4.958   6.525
 9921SOL    HW130662   4.224   4.925   6.519
 9921SOL    HW230663   4.110   4.984   6.619
 9922SOL     OW30664   0.215   6.080   1.320
 9922SOL    HW130665   0.134   6.137   1.305
 9922SOL    HW230666   0.211   6.000   1.259
 9923SOL     OW30667   5.905   4.406   0.926
 9923SOL    HW130668   5.989   4.422   0.875
 9923SOL    HW230669   5.827   4.409   0.864
 9924SOL     OW30670   1.189   3.702   4.841
 9924SOL    HW130671   1.171   3.620   4.895
 9924SOL    HW230672   1.159   3.783   4.891
 9925SOL     OW30673   5.233   2.103   4.045
 9925SOL    HW130674   5.249   2.191   4.001
 9925SOL    HW230675   5.195   2.117   4.136
 9926SOL     OW30676   3.071   5.035   0.929
 9926SOL    HW130677   3.129   5.082   0.995
 9926SOL    HW230678   3.106   4.943   0.912
 9927SOL     OW30679   4.988   6.910   4.182
 9927SOL    HW130680   5.038   6.989   4.147
 9927SOL    HW230681   4.914   6.941   4.242
 9928SOL     OW30682   4.630   4.848   2.002
 9928SOL    HW130683   4.611   4.846   2.100
 9928SOL    HW230684   4.608   4.758   1.963
 9929SOL     OW30685   0.927   4.621   2.778
 9929SOL    HW130686   0.836   4.655   2.804
 9929SOL    HW230687   0.987   4.698   2.756
 9930SOL     OW30688   5.446   0.944   3.373
 9930SOL    HW130689   5.507   0.920   3.298
 9930SOL    HW230690   5.356   0.968   3.337
 9931SOL     OW30691   1.213   5.284   5.534
 9931SOL    HW130692   1.257   5.298   5.623
 9931SOL    HW230693   1.172   5.370   5.503
 9932SOL     OW30694   1.000   6.053   5.003
 9932SOL    HW130695   1.010   5.970   5.057
 9932SOL    HW230696   1.089   6.098   4.994
 9933SOL     OW30697   0.118   6.576   2.738
 9933SOL    HW130698   0.055   6.498   2.736
 9933SOL    HW230699   0.104   6.632   2.656
 9934SOL     OW30700   0.038   1.793   4.988
 9934SOL    HW130701   7.017   1.711   4.956
 9934SOL    HW230702   0.089   1.773   5.072
 9935SOL     OW30703   2.184   0.519   6.259
 9935SOL    HW130704   2.105   0.580   6.248
 9935SOL    HW230705   2.152   0.427   6.280
 9936SOL     OW30706   1.013   3.746   3.841
 9936SOL    HW130707   1.085   3.766   3.908
 9936SOL    HW230708   1.038   3.665   3.788
 9937SOL     OW30709   6.738   2.538   6.209
 9937SOL    HW130710   6.699   2.626   6.237
 9937SOL    HW230711   6.823   2.554   6.160
 9938SOL     OW30712   6.720   6.421   2.799
 9938SOL    HW130713   6.675   6.424   2.710
 9938SOL    HW230714   6.659   6.459   2.869
 9939SOL     OW30715   3.289   3.485   3.298
 9939SOL    HW130716   3.309   3.537   3.214
 9939SOL    HW230717   3.325   3.535   3.377
 9940SOL     OW30718   0.508   1.158   0.993
 9940SOL    HW130719   0.419   1.201   0.981
 9940SOL    HW230720   0.508   1.106   1.078
 9941SOL     OW30721   3.219   5.666   4.290
 9941SOL    HW130722   3.294   5.730   4.305
 9941SOL    HW230723   3.233   5.584   4.344
 9942SOL     OW30724   2.441   5.196   3.906
 9942SOL    HW130725   2.485   5.280   3.874
 9942SOL    HW230726   2.405   5.145   3.828
 9943SOL     OW30727   0.201   0.086   4.814
 9943SOL    HW130728   0.186   0.146   4.892
 9943SOL    HW230729   0.178   0.135   4.729
 9944SOL     OW30730   1.569   4.703   6.453
 9944SOL    HW130731   1.648   4.735   6.506
 9944SOL    HW230732   1.533   4.619   6.495
 9945SOL     OW30733   0.201   5.633   6.981
 9945SOL    HW130734   0.256   5.552   6.962
 9945SOL    HW230735   0.229   5.672   0.043
 9946SOL     OW30736   5.844   1.011   4.419
 9946SOL    HW130737   5.778   1.049   4.353
 9946SOL    HW230738   5.800   0.938   4.470
 9947SOL     OW30739   6.356   4.643   3.369
 9947SOL    HW130740   6.273   4.623   3.420
 9947SOL    HW230741   6.377   4.567   3.307
 9948SOL     OW30742   5.548   3.868   3.536
 9948SOL    HW130743   5.471   3.932   3.536
 9948SOL    HW230744   5.514   3.774   3.539
 9949SOL     OW30745   6.050   5.509   1.781
 9949SOL    HW130746   5.990   5.461   1.845
 9949SOL    HW230747   6.066   5.602   1.813
 9950SOL     OW30748   3.373   6.458   6.882
 9950SOL    HW130749   3.419   6.397   6.947
 9950SOL    HW230750   3.278   6.429   6.871
 9951SOL     OW30751   6.612   2.942   2.838
 9951SOL    HW130752   6.545   2.930   2.765
 9951SOL    HW230753   6.696   2.892   2.815
 9952SOL     OW30754   6.955   4.030   6.201
 9952SOL    HW130755   6.987   3.953   6.146
 9952SOL    HW230756   6.969   4.010   6.298
 9953SOL     OW30757   5.131   2.929   3.869
 9953SOL    HW130758   5.220   2.890   3.897
 9953SOL    HW230759   5.123   2.925   3.770
 9954SOL     OW30760   4.195   0.539   4.680
 9954SOL    HW130761   4.100   0.563   4.698
 9954SOL    HW230762   4.255   0.603   4.727
 9955SOL     OW30763   0.692   4.532   4.028
 9955SOL    HW130764   0.771   4.472   4.039
 9955SOL    HW230765   0.639   4.535   4.113
 9956SOL     OW30766   1.222   6.165   0.450
 9956SOL    HW130767   1.287   6.157   0.374
 9956SOL    HW230768   1.147   6.226   0.423
 9957SOL     OW30769   5.651   5.409   2.219
 9957SOL    HW130770   5.744   5.438   2.244
 9957SOL    HW230771   5.585   5.470   2.262
 9958SOL     OW30772   3.027   4.428   0.948
 9958SOL    HW130773   2.980   4.502   0.900
 9958SOL    HW230774   3.079   4.466   1.025
 9959SOL     OW30775   3.383   3.972   1.319
 9959SOL    HW130776   3.306   3.989   1.381
 9959SOL    HW230777   3.409   3.876   1.325
 9960SOL     OW30778   0.745   0.586   2.359
 9960SOL    HW130779   0.813   0.616   2.292
 9960SOL    HW230780   0.769   0.622   2.449
 9961SOL     OW30781   1.914   3.626   4.898
 9961SOL    HW130782   1.927   3.628   4.799
 9961SOL    HW230783   1.935   3.535   4.933
 9962SOL     OW30784   4.837   6.548   4.908
 9962SOL    HW130785   4.888   6.520   4.827
 9962SOL    HW230786   4.823   6.469   4.968
 9963SOL     OW30787   3.159   1.509   0.683
 9963SOL    HW130788   3.063   1.497   0.711
 9963SOL    HW230789   3.206   1.563   0.753
 9964SOL     OW30790   5.771   6.753   4.789
 9964SOL    HW130791   5.711   6.767   4.711
 9964SOL    HW230792   5.730   6.687   4.852
 9965SOL     OW30793   5.436   6.691   0.769
 9965SOL    HW130794   5.377   6.641   0.706
 9965SOL    HW230795   5.380   6.730   0.843
 9966SOL     OW30796   6.113   1.187   2.915
 9966SOL    HW130797   6.043   1.198   2.845
 9966SOL    HW230798   6.202   1.172   2.872
 9967SOL     OW30799   1.352   5.462   0.490
 9967SOL    HW130800   1.278   5.479   0.425
 9967SOL    HW230801   1.395   5.549   0.515
 9968SOL     OW30802   3.500   3.520   2.771
 9968SOL    HW130803   3.569   3.547   2.704
 9968SOL    HW230804   3.467   3.601   2.820
 9969SOL     OW30805   1.409   3.182   1.427
 9969SOL    HW130806   1.495   3.223   1.457
 9969SOL    HW230807   1.424   3.127   1.345
 9970SOL     OW30808   6.166   4.833   1.933
 9970SOL    HW130809   6.096   4.790   1.990
 9970SOL    HW230810   6.135   4.923   1.904
 9971SOL     OW30811   2.875   6.713   6.746
 9971SOL    HW130812   2.812   6.650   6.792
 9971SOL    HW230813   2.968   6.675   6.751
 9972SOL     OW30814   6.639   5.019   1.387
 9972SOL    HW130815   6.664   4.950   1.319
 9972SOL    HW230816   6.603   5.100   1.341
 9973SOL     OW30817   5.151   6.754   3.862
 9973SOL    HW130818   5.070   6.807   3.837
 9973SOL    HW230819   5.182   6.701   3.783
 9974SOL     OW30820   1.967   0.590   4.255
 9974SOL    HW130821   2.047   0.651   4.252
 9974SOL    HW230822   1.930   0.580   4.163
 9975SOL     OW30823   6.989   4.374   1.094
 9975SOL    HW130824   0.020   4.343   1.018
 9975SOL    HW230825   0.010   4.354   1.180
 9976SOL     OW30826   3.134   6.694   4.408
 9976SOL    HW130827   3.206   6.625   4.415
 9976SOL    HW230828   3.058   6.669   4.467
 9977SOL     OW30829   6.417   4.864   3.784
 9977SOL    HW130830   6.468   4.948   3.800
 9977SOL    HW230831   6.445   4.824   3.697
 9978SOL     OW30832   6.677   2.637   4.491
 9978SOL    HW130833   6.673   2.735   4.514
 9978SOL    HW230834   6.770   2.604   4.505
 9979SOL     OW30835   0.873   4.287   5.434
 9979SOL    HW130836   0.904   4.328   5.348
 9979SOL    HW230837   0.809   4.350   5.479
 9980SOL     OW30838   2.868   6.458   5.450
 9980SOL    HW130839   2.912   6.375   5.414
 9980SOL    HW230840   2.770   6.443   5.455
 9981SOL     OW30841   4.255   2.190   3.684
 9981SOL    HW130842   4.181   2.237   3.636
 9981SOL    HW230843   4.218   2.127   3.751
 9982SOL     OW30844   6.441   6.576   2.713
 9982SOL    HW130845   6.364   6.535   2.762
 9982SOL    HW230846   6.440   6.675   2.725
 9983SOL     OW30847   6.688   0.494   1.243
 9983SOL    HW130848   6.763   0.487   1.177
 9983SOL    HW230849   6.605   0.456   1.202
 9984SOL     OW30850   3.001   0.731   6.698
 9984SOL    HW130851   3.045   0.784   6.626
 9984SOL    HW230852   2.924   0.783   6.735
 9985SOL     OW30853   1.933   1.132   1.299
 9985SOL    HW130854   1.912   1.106   1.204
 9985SOL    HW230855   1.861   1.193   1.333
 9986SOL     OW30856   4.995   3.845   4.518
 9986SOL    HW130857   4.983   3.746   4.511
 9986SOL    HW230858   4.910   3.886   4.552
 9987SOL     OW30859   0.317   3.987   5.705
 9987SOL    HW130860   0.345   4.057   5.639
 9987SOL    HW230861   0.337   3.897   5.668
 9988SOL     OW30862   6.556   0.624   4.371
 9988SOL    HW130863   6.516   0.716   4.379
 9988SOL    HW230864   6.484   0.556   4.381
 9989SOL     OW30865   2.062   2.726   4.703
 9989SOL    HW130866   2.027   2.758   4.791
 9989SOL    HW230867   2.008   2.766   4.629
 9990SOL     OW30868   1.328   4.761   1.572
 9990SOL    HW130869   1.245   4.725   1.530
 9990SOL    HW230870   1.309   4.785   1.667
 9991SOL     OW30871   3.766   1.818   3.419
 9991SOL    HW130872   3.854   1.836   3.463
 9991SOL    HW230873   3.726   1.904   3.387
 9992SOL     OW30874   6.138   5.491   6.450
 9992SOL    HW130875   6.110   5.545   6.370
 9992SOL    HW230876   6.073   5.416   6.465
 9993SOL     OW30877   1.194   0.369   2.346
 9993SOL    HW130878   1.096   0.368   2.328
 9993SOL    HW230879   1.230   0.275   2.342
 9994SOL     OW30880   6.540   4.582   3.565
 9994SOL    HW130881   6.488   4.639   3.501
 9994SOL    HW230882   6.593   4.515   3.513
 9995SOL     OW30883   5.631   1.751   4.732
 9995SOL    HW130884   5.687   1.682   4.779
 9995SOL    HW230885   5.592   1.711   4.649
 9996SOL     OW30886   3.176   3.183   0.341
 9996SOL    HW130887   3.168   3.264   0.399
 9996SOL    HW230888   3.263   3.137   0.360
 9997SOL     OW30889   2.176   0.743   4.404
 9997SOL    HW130890   2.218   0.702   4.485
 9997SOL    HW230891   2.141   0.834   4.427
 9998SOL     OW30892   6.007   5.977   4.687
 9998SOL    HW130893   5.945   5.989   4.610
 9998SOL    HW230894   6.101   5.980   4.656
 9999SOL     OW30895   0.330   1.084   4.874
 9999SOL    HW130896   0.395   1.138   4.927
 9999SOL    HW230897   0.381   1.021   4.815
10000SOL     OW30898   6.817   4.814   0.610
10000SOL    HW130899   6.865   4.793   0.694
10000SOL    HW230900   6.853   4.899   0.570
10001SOL     OW30901   4.027   0.737   3.905
10001SOL    HW130902   3.931   0.742   3.932
10001SOL    HW230903   4.035   0.686   3.819
10002SOL     OW30904   1.078   1.828   1.432
10002SOL    HW130905   1.076   1.862   1.338
10002SOL    HW230906   1.092   1.904   1.495
10003SOL     OW30907   5.116   3.916   2.231
10003SOL    HW130908   5.054   3.871   2.295
10003SOL    HW230909   5.162   3.993   2.277
10004SOL     OW30910   6.615   3.508   3.924
10004SOL    HW130911   6.565   3.594   3.911
10004SOL    HW230912   6.711   3.528   3.944
10005SOL     OW30913   4.304   0.307   3.539
10005SOL    HW130914   4.385   0.265   3.497
10005SOL    HW230915   4.325   0.401   3.565
10006SOL     OW30916   4.858   2.484   4.113
10006SOL    HW130917   4.903   2.573   4.116
10006SOL    HW230918   4.909   2.422   4.054
10007SOL     OW30919   5.418   5.193   4.233
10007SOL    HW130920   5.477   5.201   4.313
10007SOL    HW230921   5.435   5.105   4.187
10008SOL     OW30922   2.995   6.870   3.900
10008SOL    HW130923   3.054   6.809   3.847
10008SOL    HW230924   3.011   6.855   3.997
10009SOL     OW30925   2.307   4.401   1.271
10009SOL    HW130926   2.310   4.304   1.245
10009SOL    HW230927   2.267   4.454   1.197
10010SOL     OW30928   5.910   0.781   6.573
10010SOL    HW130929   5.922   0.854   6.640
10010SOL    HW230930   5.988   0.719   6.577
10011SOL     OW30931   0.041   6.637   3.530
10011SOL    HW130932   0.106   6.567   3.557
10011SOL    HW230933   7.017   6.670   3.610
10012SOL     OW30934   5.293   0.654   5.182
10012SOL    HW130935   5.331   0.623   5.095
10012SOL    HW230936   5.278   0.576   5.243
10013SOL     OW30937   1.052   0.455   1.400
10013SOL    HW130938   1.019   0.397   1.326
10013SOL    HW230939   1.001   0.435   1.484
10014SOL     OW30940   1.735   4.544   5.751
10014SOL    HW130941   1.689   4.628   5.779
10014SOL    HW230942   1.668   4.470   5.744
10015SOL     OW30943   2.508   6.247   6.231
10015SOL    HW130944   2.527   6.343   6.248
10015SOL    HW230945   2.531   6.193   6.312
10016SOL     OW30946   2.337   1.505   4.956
10016SOL    HW130947   2.327   1.599   4.924
10016SOL    HW230948   2.328   1.442   4.879
10017SOL     OW30949   0.046   2.012   3.410
10017SOL    HW130950   0.084   2.102   3.391
10017SOL    HW230951   7.000   1.992   3.344
10018SOL     OW30952   5.347   6.734   6.504
10018SOL    HW130953   5.406   6.752   6.583
10018SOL    HW230954   5.251   6.750   6.530
10019SOL     OW30955   0.841   0.640   3.314
10019SOL    HW130956   0.860   0.550   3.274
10019SOL    HW230957   0.795   0.629   3.402
10020SOL     OW30958   0.443   3.769   0.114
10020SOL    HW130959   0.384   3.718   0.178
10020SOL    HW230960   0.520   3.711   0.088
10021SOL     OW30961   5.004   2.810   1.306
10021SOL    HW130962   4.920   2.756   1.307
10021SOL    HW230963   4.990   2.894   1.359
10022SOL     OW30964   1.943   0.947   6.302
10022SOL    HW130965   1.902   1.028   6.343
10022SOL    HW230966   1.996   0.973   6.222
10023SOL     OW30967   0.310   3.693   0.341
10023SOL    HW130968   0.339   3.605   0.377
10023SOL    HW230969   0.312   3.761   0.414
10024SOL     OW30970   0.819   3.795   2.746
10024SOL    HW130971   0.803   3.811   2.843
10024SOL    HW230972   0.788   3.874   2.693
10025SOL     OW30973   0.818   1.473   0.855
10025SOL    HW130974   0.895   1.533   0.875
10025SOL    HW230975   0.841   1.411   0.780
10026SOL     OW30976   6.289   1.168   4.533
10026SOL    HW130977   6.216   1.101   4.545
10026SOL    HW230978   6.333   1.185   4.621
10027SOL     OW30979   5.867   2.749   5.679
10027SOL    HW130980   5.902   2.667   5.636
10027SOL    HW230981   5.806   2.797   5.615
10028SOL     OW30982   1.769   1.401   1.754
10028SOL    HW130983   1.782   1.500   1.745
10028SOL    HW230984   1.856   1.354   1.737
10029SOL     OW30985   3.560   1.213   4.312
10029SOL    HW130986   3.521   1.122   4.297
10029SOL    HW230987   3.582   1.225   4.408
10030SOL     OW30988   0.694   1.302   2.501
10030SOL    HW130989   0.595   1.309   2.515
10030SOL    HW230990   0.742   1.329   2.584
10031SOL     OW30991   0.166   4.909   3.100
10031SOL    HW130992   0.165   4.993   3.046
10031SOL    HW230993   0.174   4.931   3.197
10032SOL     OW30994   3.666   2.202   5.276
10032SOL    HW130995   3.599   2.164   5.339
10032SOL    HW230996   3.684   2.297   5.299
10033SOL     OW30997   6.050   2.918   3.555
10033SOL    HW130998   6.046   2.818   3.560
10033SOL    HW230999   5.957   2.954   3.551
10034SOL     OW31000   4.125   6.205   6.019
10034SOL    HW131001   4.193   6.140   5.984
10034SOL    HW231002   4.074   6.163   6.094
10035SOL     OW31003   0.448   6.755   3.976
10035SOL    HW131004   0.411   6.693   3.907
10035SOL    HW231005   0.494   6.701   4.047
10036SOL     OW31006   6.240   0.633   0.514
10036SOL    HW131007   6.336   0.651   0.495
10036SOL    HW231008   6.192   0.720   0.526
10037SOL     OW31009   6.841   6.929   1.253
10037SOL    HW131010   6.876   6.837   1.265
10037SOL    HW231011   6.915   6.995   1.264
10038SOL     OW31012   6.107   0.161   1.281
10038SOL    HW131013   6.099   0.261   1.278
10038SOL    HW231014   6.117   0.132   1.376
10039SOL     OW31015   4.226   1.089   2.838
10039SOL    HW131016   4.244   1.173   2.787
10039SOL    HW231017   4.141   1.099   2.889
10040SOL     OW31018   0.881   2.139   0.254
10040SOL    HW131019   0.839   2.062   0.302
10040SOL    HW231020   0.858   2.224   0.300
10041SOL     OW31021   1.160   6.420   0.207
10041SOL    HW131022   1.184   6.515   0.230
10041SOL    HW231023   1.197   6.398   0.117
10042SOL     OW31024   6.377   1.604   3.692
10042SOL    HW131025   6.369   1.531   3.759
10042SOL    HW231026   6.337   1.574   3.605
10043SOL     OW31027   2.035   2.428   5.800
10043SOL    HW131028   1.978   2.415   5.719
10043SOL    HW231029   2.126   2.459   5.773
10044SOL     OW31030   4.421   1.011   7.020
10044SOL    HW131031   4.442   1.076   6.948
10044SOL    HW231032   4.322   1.011   0.012
10045SOL     OW31033   2.322   0.476   1.246
10045SOL    HW131034   2.362   0.530   1.320
10045SOL    HW231035   2.391   0.414   1.209
10046SOL     OW31036   0.547   5.713   0.044
10046SOL    HW131037   0.596   5.798   0.067
10046SOL    HW231038   0.517   5.717   6.975
10047SOL     OW31039   1.565   3.841   1.007
10047SOL    HW131040   1.602   3.807   1.093
10047SOL    HW231041   1.581   3.940   1.000
10048SOL     OW31042   5.677   3.521   1.473
10048SOL    HW131043   5.697   3.467   1.392
10048SOL    HW231044   5.586   3.562   1.465
10049SOL     OW31045   6.718   1.829   4.748
10049SOL    HW131046   6.709   1.816   4.649
10049SOL    HW231047   6.711   1.927   4.769
10050SOL     OW31048   6.972   2.651   6.110
10050SOL    HW131049   6.969   2.739   6.157
10050SOL    HW231050   0.036   2.609   6.123
10051SOL     OW31051   1.976   0.277   3.032
10051SOL    HW131052   1.934   0.198   3.075
10051SOL    HW231053   2.042   0.319   3.094
10052SOL     OW31054   1.166   0.277   3.800
10052SOL    HW131055   1.090   0.292   3.864
10052SOL    HW231056   1.154   0.189   3.754
10053SOL     OW31057   5.935   5.628   2.612
10053SOL    HW131058   5.982   5.709   2.576
10053SOL    HW231059   5.845   5.620   2.570
10054SOL     OW31060   5.359   4.038   3.556
10054SOL    HW131061   5.373   4.083   3.644
10054SOL    HW231062   5.275   4.070   3.515
10055SOL     OW31063   1.675   2.023   6.935
10055SOL    HW131064   1.634   2.011   6.845
10055SOL    HW231065   1.718   1.937   6.964
10056SOL     OW31066   5.155   2.400   4.349
10056SOL    HW131067   5.186   2.459   4.274
10056SOL    HW231068   5.071   2.353   4.321
10057SOL     OW31069   5.784   4.143   4.725
10057SOL    HW131070   5.706   4.146   4.787
10057SOL    HW231071   5.808   4.236   4.697
10058SOL     OW31072   6.158   3.998   3.769
10058SOL    HW131073   6.094   4.048   3.710
10058SOL    HW231074   6.228   3.954   3.713
10059SOL     OW31075   5.301   5.691   5.563
10059SOL    HW131076   5.340   5.695   5.655
10059SOL    HW231077   5.344   5.761   5.506
10060SOL     OW31078   3.000   1.921   2.080
10060SOL    HW131079   3.005   1.837   2.025
10060SOL    HW231080   2.946   1.903   2.162
10061SOL     OW31081   3.940   6.840   3.320
10061SOL    HW131082   3.987   6.767   3.370
10061SOL    HW231083   3.889   6.897   3.385
10062SOL     OW31084   6.782   6.878   4.772
10062SOL    HW131085   6.731   6.872   4.686
10062SOL    HW231086   6.717   6.892   4.847
10063SOL     OW31087   3.857   2.193   3.588
10063SOL    HW131088   3.897   2.142   3.664
10063SOL    HW231089   3.757   2.190   3.594
10064SOL     OW31090   2.322   6.274   2.570
10064SOL    HW131091   2.307   6.372   2.553
10064SOL    HW231092   2.234   6.227   2.571
10065SOL     OW31093   6.569   2.154   1.690
10065SOL    HW131094   6.584   2.142   1.591
10065SOL    HW231095   6.548   2.066   1.731
10066SOL     OW31096   6.429   4.105   3.463
10066SOL    HW131097   6.476   4.095   3.551
10066SOL    HW231098   6.368   4.027   3.450
10067SOL     OW31099   5.430   3.133   5.241
10067SOL    HW131100   5.400   3.201   5.176
10067SOL    HW231101   5.509   3.084   5.204
10068SOL     OW31102   1.940   3.548   3.033
10068SOL    HW131103   1.849   3.575   3.064
10068SOL    HW231104   1.989   3.505   3.109
10069SOL     OW31105   3.030   5.037   1.860
10069SOL    HW131106   2.983   4.964   1.908
10069SOL    HW231107   2.964   5.090   1.807
10070SOL     OW31108   5.357   0.037   0.027
10070SOL    HW131109   5.380   6.969   7.026
10070SOL    HW231110   5.310   0.083   6.977
10071SOL     OW31111   5.045   0.757   5.160
10071SOL    HW131112   5.014   0.786   5.250
10071SOL    HW231113   5.137   0.718   5.167
10072SOL     OW31114   5.696   3.245   1.812
10072SOL    HW131115   5.662   3.212   1.724
10072SOL    HW231116   5.620   3.250   1.877
10073SOL     OW31117   5.646   5.791   5.241
10073SOL    HW131118   5.590   5.854   5.186
10073SOL    HW231119   5.743   5.815   5.230
10074SOL     OW31120   1.798   4.448   1.009
10074SOL    HW131121   1.706   4.463   0.974
10074SOL    HW231122   1.793   4.409   1.101
10075SOL     OW31123   0.655   3.214   1.925
10075SOL    HW131124   0.635   3.122   1.893
10075SOL    HW231125   0.704   3.210   2.012
10076SOL     OW31126   6.083   4.615   3.447
10076SOL    HW131127   6.020   4.540   3.468
10076SOL    HW231128   6.112   4.659   3.532
10077SOL     OW31129   4.125   3.584   6.598
10077SOL    HW131130   4.198   3.522   6.629
10077SOL    HW231131   4.165   3.662   6.550
10078SOL     OW31132   5.936   5.974   3.847
10078SOL    HW131133   5.886   5.933   3.771
10078SOL    HW231134   5.980   6.058   3.815
10079SOL     OW31135   5.628   5.292   2.964
10079SOL    HW131136   5.638   5.376   3.017
10079SOL    HW231137   5.690   5.223   3.000
10080SOL     OW31138   5.288   2.641   5.152
10080SOL    HW131139   5.302   2.675   5.059
10080SOL    HW231140   5.252   2.548   5.149
10081SOL     OW31141   1.269   4.836   0.846
10081SOL    HW131142   1.289   4.749   0.891
10081SOL    HW231143   1.354   4.885   0.828
10082SOL     OW31144   0.290   4.523   1.605
10082SOL    HW131145   0.324   4.487   1.518
10082SOL    HW231146   0.219   4.462   1.641
10083SOL     OW31147   3.109   6.097   2.579
10083SOL    HW131148   3.074   6.003   2.576
10083SOL    HW231149   3.177   6.105   2.652
10084SOL     OW31150   1.837   2.511   4.859
10084SOL    HW131151   1.824   2.496   4.957
10084SOL    HW231152   1.858   2.607   4.842
10085SOL     OW31153   3.829   6.775   1.707
10085SOL    HW131154   3.766   6.853   1.712
10085SOL    HW231155   3.878   6.767   1.794
10086SOL     OW31156   2.655   1.027   3.204
10086SOL    HW131157   2.722   0.968   3.250
10086SOL    HW231158   2.565   1.014   3.246
10087SOL     OW31159   1.825   5.643   6.260
10087SOL    HW131160   1.913   5.602   6.283
10087SOL    HW231161   1.759   5.623   6.333
10088SOL     OW31162   5.792   1.807   0.789
10088SOL    HW131163   5.819   1.728   0.734
10088SOL    HW231164   5.722   1.859   0.741
10089SOL     OW31165   3.388   6.737   2.742
10089SOL    HW131166   3.290   6.718   2.734
10089SOL    HW231167   3.419   6.713   2.834
10090SOL     OW31168   3.153   5.918   2.292
10090SOL    HW131169   3.175   5.836   2.345
10090SOL    HW231170   3.057   5.914   2.263
10091SOL     OW31171   5.338   6.119   3.064
10091SOL    HW131172   5.338   6.042   3.127
10091SOL    HW231173   5.419   6.175   3.081
10092SOL     OW31174   6.914   1.440   2.516
10092SOL    HW131175   6.834   1.390   2.548
10092SOL    HW231176   6.992   1.378   2.510
10093SOL     OW31177   4.657   4.216   6.156
10093SOL    HW131178   4.719   4.292   6.140
10093SOL    HW231179   4.588   4.242   6.223
10094SOL     OW31180   3.768   2.567   0.448
10094SOL    HW131181   3.782   2.469   0.442
10094SOL    HW231182   3.679   2.591   0.410
10095SOL     OW31183   4.443   2.680   5.203
10095SOL    HW131184   4.351   2.641   5.202
10095SOL    HW231185   4.444   2.760   5.263
10096SOL     OW31186   6.849   5.149   1.634
10096SOL    HW131187   6.844   5.050   1.620
10096SOL    HW231188   6.757   5.186   1.643
10097SOL     OW31189   1.320   1.242   1.600
10097SOL    HW131190   1.276   1.255   1.511
10097SOL    HW231191   1.414   1.274   1.595
10098SOL     OW31192   4.220   5.151   0.276
10098SOL    HW131193   4.207   5.054   0.257
10098SOL    HW231194   4.318   5.173   0.273
10099SOL     OW31195   6.867   6.125   3.474
10099SOL    HW131196   6.892   6.166   3.387
10099SOL    HW231197   6.948   6.086   3.517
10100SOL     OW31198   5.239   5.639   4.247
10100SOL    HW131199   5.193   5.564   4.295
10100SOL    HW231200   5.297   5.603   4.174
10101SOL     OW31201   0.136   2.313   6.743
10101SOL    HW131202   0.182   2.225   6.753
10101SOL    HW231203   0.103   2.343   6.833
10102SOL     OW31204   0.452   4.836   2.940
10102SOL    HW131205   0.490   4.807   3.027
10102SOL    HW231206   0.354   4.848   2.948
10103SOL     OW31207   0.210   0.094   0.075
10103SOL    HW131208   0.300   0.049   0.070
10103SOL    HW231209   0.190   0.137   7.013
10104SOL     OW31210   2.512   1.543   4.434
10104SOL    HW131211   2.488   1.465   4.491
10104SOL    HW231212   2.540   1.511   4.343
10105SOL     OW31213   3.407   1.412   4.088
10105SOL    HW131214   3.451   1.501   4.098
10105SOL    HW231215   3.367   1.384   4.176
10106SOL     OW31216   6.345   3.797   0.935
10106SOL    HW131217   6.330   3.715   0.880
10106SOL    HW231218   6.378   3.771   1.025
10107SOL     OW31219   5.254   5.399   5.941
10107SOL    HW131220   5.280   5.404   5.844
10107SOL    HW231221   5.312   5.460   5.994
10108SOL     OW31222   3.169   1.924   4.809
10108SOL    HW131223   3.083   1.936   4.760
10108SOL    HW231224   3.219   2.010   4.811
10109SOL     OW31225   1.086   2.928   0.871
10109SOL    HW131226   1.109   2.862   0.942
10109SOL    HW231227   0.999   2.972   0.893
10110SOL     OW31228   5.911   6.354   1.529
10110SOL    HW131229   5.867   6.265   1.524
10110SOL    HW231230   5.955   6.374   1.441
10111SOL     OW31231   6.563   2.514   1.967
10111SOL    HW131232   6.514   2.520   1.880
10111SOL    HW231233   6.496   2.509   2.042
10112SOL     OW31234   0.144   2.716   3.746
10112SOL    HW131235   0.066   2.661   3.777
10112SOL    HW231236   0.131   2.811   3.774
10113SOL     OW31237   6.877   6.668   6.308
10113SOL    HW131238   6.828   6.581   6.302
10113SOL    HW231239   6.827   6.730   6.367
10114SOL     OW31240   5.907   4.581   1.153
10114SOL    HW131241   5.994   4.622   1.124
10114SOL    HW231242   5.862   4.540   1.074
10115SOL     OW31243   3.709   1.778   6.382
10115SOL    HW131244   3.780   1.837   6.420
10115SOL    HW231245   3.620   1.824   6.389
10116SOL     OW31246   0.923   6.803   6.670
10116SOL    HW131247   0.927   6.705   6.648
10116SOL    HW231248   0.831   6.826   6.703
10117SOL     OW31249   0.625   4.232   1.015
10117SOL    HW131250   0.613   4.288   1.097
10117SOL    HW231251   0.684   4.280   0.950
10118SOL     OW31252   4.142   5.321   3.785
10118SOL    HW131253   4.164   5.353   3.693
10118SOL    HW231254   4.060   5.263   3.782
10119SOL     OW31255   5.633   6.043   6.511
10119SOL    HW131256   5.622   5.968   6.576
10119SOL    HW231257   5.719   6.090   6.529
10120SOL     OW31258   2.490   2.606   2.962
10120SOL    HW131259   2.407   2.627   3.013
10120SOL    HW231260   2.557   2.565   3.024
10121SOL     OW31261   6.905   5.837   1.177
10121SOL    HW131262   6.806   5.840   1.188
10121SOL    HW231263   6.935   5.915   1.122
10122SOL     OW31264   1.909   6.915   3.245
10122SOL    HW131265   1.917   6.914   3.345
10122SOL    HW231266   1.935   6.826   3.208
10123SOL     OW31267   6.311   6.627   6.473
10123SOL    HW131268   6.219   6.621   6.435
10123SOL    HW231269   6.314   6.580   6.561
10124SOL     OW31270   0.677   4.986   3.335
10124SOL    HW131271   0.597   4.933   3.307
10124SOL    HW231272   0.692   4.974   3.434
10125SOL     OW31273   1.710   2.461   4.621
10125SOL    HW131274   1.757   2.495   4.702
10125SOL    HW231275   1.700   2.361   4.628
10126SOL     OW31276   6.925   5.986   4.492
10126SOL    HW131277   6.861   5.945   4.426
10126SOL    HW231278   7.013   6.000   4.448
10127SOL     OW31279   2.407   0.958   4.538
10127SOL    HW131280   2.458   0.873   4.521
10127SOL    HW231281   2.352   0.980   4.458
10128SOL     OW31282   2.772   0.949   0.640
10128SOL    HW131283   2.697   0.932   0.704
10128SOL    HW231284   2.852   0.979   0.691
10129SOL     OW31285   6.685   1.806   5.823
10129SOL    HW131286   6.676   1.898   5.785
10129SOL    HW231287   6.782   1.786   5.838
10130SOL     OW31288   1.532   2.797   3.218
10130SOL    HW131289   1.603   2.751   3.272
10130SOL    HW231290   1.574   2.842   3.139
10131SOL     OW31291   2.551   1.039   4.928
10131SOL    HW131292   2.492   1.002   4.857
10131SOL    HW231293   2.596   0.965   4.977
10132SOL     OW31294   6.058   0.556   2.067
10132SOL    HW131295   6.056   0.646   2.025
10132SOL    HW231296   6.153   0.527   2.080
10133SOL     OW31297   4.606   5.436   1.271
10133SOL    HW131298   4.616   5.520   1.217
10133SOL    HW231299   4.591   5.459   1.367
10134SOL     OW31300   6.324   1.119   2.731
10134SOL    HW131301   6.261   1.130   2.654
10134SOL    HW231302   6.335   1.022   2.752
10135SOL     OW31303   6.704   6.790   3.140
10135SOL    HW131304   6.607   6.788   3.162
10135SOL    HW231305   6.715   6.805   3.041
10136SOL     OW31306   4.846   0.776   3.244
10136SOL    HW131307   4.769   0.818   3.197
10136SOL    HW231308   4.873   0.833   3.322
10137SOL     OW31309   6.169   6.133   2.819
10137SOL    HW131310   6.154   6.190   2.738
10137SOL    HW231311   6.224   6.053   2.793
10138SOL     OW31312   0.147   1.976   2.734
10138SOL    HW131313   0.163   1.995   2.638
10138SOL    HW231314   0.053   1.944   2.747
10139SOL     OW31315   4.265   2.887   0.884
10139SOL    HW131316   4.320   2.841   0.814
10139SOL    HW231317   4.325   2.934   0.949
10140SOL     OW31318   5.915   6.398   3.952
10140SOL    HW131319   5.976   6.458   3.899
10140SOL    HW231320   5.859   6.454   4.013
10141SOL     OW31321   0.933   1.981   4.399
10141SOL    HW131322   0.882   1.937   4.325
10141SOL    HW231323   0.883   2.062   4.429
10142SOL     OW31324   4.733   6.527   1.575
10142SOL    HW131325   4.715   6.585   1.654
10142SOL    HW231326   4.681   6.442   1.583
10143SOL     OW31327   0.094   3.357   0.244
10143SOL    HW131328   0.066   3.298   0.320
10143SOL    HW231329   0.095   3.303   0.160
10144SOL     OW31330   4.851   0.380   2.504
10144SOL    HW131331   4.757   0.399   2.476
10144SOL    HW231332   4.914   0.418   2.437
10145SOL     OW31333   6.554   0.169   5.161
10145SOL    HW131334   6.606   0.084   5.172
10145SOL    HW231335   6.608   0.235   5.110
10146SOL     OW31336   1.632   1.396   5.490
10146SOL    HW131337   1.606   1.339   5.567
10146SOL    HW231338   1.581   1.367   5.408
10147SOL     OW31339   3.410   4.658   0.448
10147SOL    HW131340   3.446   4.750   0.458
10147SOL    HW231341   3.398   4.638   0.350
10148SOL     OW31342   0.077   5.760   6.634
10148SOL    HW131343   0.104   5.848   6.673
10148SOL    HW231344   7.006   5.743   6.653
10149SOL     OW31345   3.270   2.949   3.997
10149SOL    HW131346   3.310   2.901   3.920
10149SOL    HW231347   3.212   3.023   3.964
10150SOL     OW31348   6.134   4.434   0.007
10150SOL    HW131349   6.154   4.499   0.081
10150SOL    HW231350   6.215   4.422   6.976
10151SOL     OW31351   0.379   0.556   0.331
10151SOL    HW131352   0.377   0.527   0.235
10151SOL    HW231353   0.474   0.564   0.361
10152SOL     OW31354   3.625   6.265   4.059
10152SOL    HW131355   3.677   6.240   4.141
10152SOL    HW231356   3.608   6.183   4.004
10153SOL     OW31357   4.919   4.175   1.344
10153SOL    HW131358   4.983   4.249   1.362
10153SOL    HW231359   4.899   4.171   1.246
10154SOL     OW31360   5.022   5.056   6.292
10154SOL    HW131361   5.080   5.079   6.213
10154SOL    HW231362   5.043   4.962   6.321
10155SOL     OW31363   4.873   2.455   4.747
10155SOL    HW131364   4.864   2.355   4.740
10155SOL    HW231365   4.916   2.478   4.834
10156SOL     OW31366   3.491   1.852   6.571
10156SOL    HW131367   3.550   1.927   6.541
10156SOL    HW231368   3.475   1.859   6.669
10157SOL     OW31369   6.871   5.691   2.040
10157SOL    HW131370   6.966   5.680   2.010
10157SOL    HW231371   6.852   5.626   2.114
10158SOL     OW31372   6.926   5.202   6.241
10158SOL    HW131373   6.975   5.240   6.320
10158SOL    HW231374   6.936   5.102   6.241
10159SOL     OW31375   3.904   3.068   1.578
10159SOL    HW131376   3.991   3.093   1.621
10159SOL    HW231377   3.829   3.087   1.640
10160SOL     OW31378   6.979   4.128   2.158
10160SOL    HW131379   6.952   4.203   2.098
10160SOL    HW231380   6.974   4.042   2.108
10161SOL     OW31381   6.166   2.558   0.386
10161SOL    HW131382   6.097   2.485   0.385
10161SOL    HW231383   6.240   2.535   0.323
10162SOL     OW31384   2.087   2.217   1.981
10162SOL    HW131385   2.093   2.281   2.058
10162SOL    HW231386   2.076   2.269   1.896
10163SOL     OW31387   3.528   5.404   4.868
10163SOL    HW131388   3.535   5.499   4.896
10163SOL    HW231389   3.536   5.398   4.768
10164SOL     OW31390   0.422   1.023   3.830
10164SOL    HW131391   0.509   1.070   3.843
10164SOL    HW231392   0.437   0.924   3.835
10165SOL     OW31393   2.151   3.373   3.779
10165SOL    HW131394   2.060   3.414   3.775
10165SOL    HW231395   2.214   3.435   3.826
10166SOL     OW31396   2.855   6.182   3.273
10166SOL    HW131397   2.844   6.152   3.178
10166SOL    HW231398   2.926   6.127   3.318
10167SOL     OW31399   3.920   1.857   6.970
10167SOL    HW131400   3.996   1.792   6.974
10167SOL    HW231401   3.843   1.822   7.023
10168SOL     OW31402   0.543   0.926   6.811
10168SOL    HW131403   0.552   0.852   6.744
10168SOL    HW231404   0.622   0.987   6.804
10169SOL     OW31405   4.618   5.189   3.121
10169SOL    HW131406   4.554   5.167   3.195
10169SOL    HW231407   4.606   5.123   3.047
10170SOL     OW31408   4.735   6.558   6.944
10170SOL    HW131409   4.658   6.548   7.007
10170SOL    HW231410   4.772   6.650   6.950
10171SOL     OW31411   1.161   4.172   2.872
10171SOL    HW131412   1.129   4.104   2.938
10171SOL    HW231413   1.249   4.209   2.902
10172SOL     OW31414   0.859   1.099   3.291
10172SOL    HW131415   0.862   1.196   3.267
10172SOL    HW231416   0.934   1.077   3.353
10173SOL     OW31417   4.445   2.468   4.574
10173SOL    HW131418   4.347   2.464   4.590
10173SOL    HW231419   4.464   2.466   4.476
10174SOL     OW31420   4.665   4.886   1.004
10174SOL    HW131421   4.619   4.974   1.006
10174SOL    HW231422   4.764   4.900   0.998
10175SOL     OW31423   6.462   6.722   3.992
10175SOL    HW131424   6.431   6.815   3.972
10175SOL    HW231425   6.496   6.679   3.908
10176SOL     OW31426   6.877   1.454   5.308
10176SOL    HW131427   6.885   1.447   5.407
10176SOL    HW231428   6.835   1.371   5.271
10177SOL     OW31429   3.060   0.857   4.472
10177SOL    HW131430   3.041   0.844   4.375
10177SOL    HW231431   3.115   0.940   4.485
10178SOL     OW31432   6.071   1.710   2.112
10178SOL    HW131433   5.999   1.653   2.071
10178SOL    HW231434   6.078   1.689   2.210
10179SOL     OW31435   0.165   6.223   1.024
10179SOL    HW131436   0.207   6.132   1.028
10179SOL    HW231437   0.103   6.234   1.102
10180SOL     OW31438   1.646   0.265   6.134
10180SOL    HW131439   1.604   0.354   6.152
10180SOL    HW231440   1.740   0.264   6.168
10181SOL     OW31441   0.349   4.138   1.892
10181SOL    HW131442   0.439   4.169   1.862
10181SOL    HW231443   0.296   4.216   1.925
10182SOL     OW31444   3.077   6.649   6.378
10182SOL    HW131445   3.051   6.562   6.336
10182SOL    HW231446   3.168   6.641   6.418
10183SOL     OW31447   3.654   5.869   5.979
10183SOL    HW131448   3.728   5.855   6.045
10183SOL    HW231449   3.635   5.782   5.933
10184SOL     OW31450   4.718   2.666   3.783
10184SOL    HW131451   4.772   2.585   3.759
10184SOL    HW231452   4.677   2.704   3.700
10185SOL     OW31453   3.109   4.647   1.775
10185SOL    HW131454   3.031   4.587   1.796
10185SOL    HW231455   3.148   4.682   1.860
10186SOL     OW31456   3.632   2.754   1.876
10186SOL    HW131457   3.640   2.654   1.875
10186SOL    HW231458   3.724   2.795   1.879
10187SOL     OW31459   1.395   3.521   5.550
10187SOL    HW131460   1.300   3.537   5.521
10187SOL    HW231461   1.430   3.439   5.506
10188SOL     OW31462   2.490   6.914   6.877
10188SOL    HW131463   2.589   6.918   6.888
10188SOL    HW231464   2.454   7.006   6.861
10189SOL     OW31465   2.065   1.574   5.333
10189SOL    HW131466   2.135   1.644   5.325
10189SOL    HW231467   2.079   1.505   5.261
10190SOL     OW31468   2.891   4.025   1.119
10190SOL    HW131469   2.870   4.015   1.022
10190SOL    HW231470   2.989   4.043   1.131
10191SOL     OW31471   6.253   0.546   0.168
10191SOL    HW131472   6.167   0.517   0.209
10191SOL    HW231473   6.293   0.619   0.224
10192SOL     OW31474   2.751   0.488   4.395
10192SOL    HW131475   2.752   0.587   4.408
10192SOL    HW231476   2.657   0.458   4.377
10193SOL     OW31477   3.802   3.295   3.609
10193SOL    HW131478   3.798   3.376   3.667
10193SOL    HW231479   3.893   3.254   3.616
10194SOL     OW31480   3.088   5.721   3.188
10194SOL    HW131481   3.046   5.632   3.207
10194SOL    HW231482   3.181   5.722   3.226
10195SOL     OW31483   5.276   0.385   2.374
10195SOL    HW131484   5.300   0.307   2.316
10195SOL    HW231485   5.242   0.352   2.462
10196SOL     OW31486   4.634   5.016   4.049
10196SOL    HW131487   4.566   5.081   4.082
10196SOL    HW231488   4.608   4.984   3.958
10197SOL     OW31489   5.394   1.490   2.951
10197SOL    HW131490   5.486   1.503   2.914
10197SOL    HW231491   5.342   1.575   2.943
10198SOL     OW31492   3.851   1.203   1.774
10198SOL    HW131493   3.817   1.292   1.743
10198SOL    HW231494   3.946   1.213   1.805
10199SOL     OW31495   1.114   1.659   0.090
10199SOL    HW131496   1.151   1.659   0.183
10199SOL    HW231497   1.178   1.614   0.028
10200SOL     OW31498   5.165   0.122   3.596
10200SOL    HW131499   5.126   0.042   3.551
10200SOL    HW231500   5.137   0.124   3.691
10201SOL     OW31501   0.868   5.340   3.501
10201SOL    HW131502   0.902   5.296   3.584
10201SOL    HW231503   0.815   5.421   3.525
10202SOL     OW31504   1.539   2.453   3.325
10202SOL    HW131505   1.509   2.379   3.386
10202SOL    HW231506   1.574   2.529   3.380
10203SOL     OW31507   6.111   2.546   1.188
10203SOL    HW131508   6.086   2.631   1.141
10203SOL    HW231509   6.033   2.513   1.241
10204SOL     OW31510   1.641   6.114   4.504
10204SOL    HW131511   1.653   6.020   4.472
10204SOL    HW231512   1.708   6.173   4.458
10205SOL     OW31513   3.810   6.652   0.682
10205SOL    HW131514   3.804   6.567   0.733
10205SOL    HW231515   3.888   6.647   0.618
10206SOL     OW31516   5.993   6.192   0.003
10206SOL    HW131517   5.966   6.162   6.937
10206SOL    HW231518   5.956   6.128   0.071
10207SOL     OW31519   3.400   1.407   2.277
10207SOL    HW131520   3.337   1.470   2.233
10207SOL    HW231521   3.398   1.318   2.230
10208SOL     OW31522   0.369   2.384   6.478
10208SOL    HW131523   0.418   2.323   6.540
10208SOL    HW231524   0.315   2.449   6.531
10209SOL     OW31525   3.462   6.153   6.932
10209SOL    HW131526   3.498   6.078   6.878
10209SOL    HW231527   3.378   6.124   6.979
10210SOL     OW31528   4.563   6.633   6.702
10210SOL    HW131529   4.494   6.576   6.658
10210SOL    HW231530   4.568   6.609   6.799
10211SOL     OW31531   3.871   5.023   5.105
10211SOL    HW131532   3.880   5.109   5.155
10211SOL    HW231533   3.788   5.026   5.049
10212SOL     OW31534   6.430   6.240   5.806
10212SOL    HW131535   6.380   6.207   5.886
10212SOL    HW231536   6.522   6.202   5.806
10213SOL     OW31537   4.010   0.110   4.751
10213SOL    HW131538   4.014   0.111   4.851
10213SOL    HW231539   4.064   0.034   4.716
10214SOL     OW31540   6.876   0.844   0.556
10214SOL    HW131541   6.860   0.883   0.647
10214SOL    HW231542   6.938   0.766   0.564
10215SOL     OW31543   4.817   2.618   0.259
10215SOL    HW131544   4.771   2.581   0.179
10215SOL    HW231545   4.877   2.549   0.298
10216SOL     OW31546   5.307   0.443   2.762
10216SOL    HW131547   5.345   0.466   2.851
10216SOL    HW231548   5.274   0.526   2.716
10217SOL     OW31549   3.055   1.756   6.171
10217SOL    HW131550   3.030   1.768   6.074
10217SOL    HW231551   3.154   1.765   6.180
10218SOL     OW31552   3.693   0.841   6.496
10218SOL    HW131553   3.620   0.793   6.544
10218SOL    HW231554   3.762   0.872   6.563
10219SOL     OW31555   0.357   4.861   0.792
10219SOL    HW131556   0.454   4.885   0.797
10219SOL    HW231557   0.302   4.937   0.826
10220SOL     OW31558   4.171   2.782   6.245
10220SOL    HW131559   4.094   2.791   6.181
10220SOL    HW231560   4.253   2.758   6.194
10221SOL     OW31561   2.325   0.263   4.577
10221SOL    HW131562   2.287   0.323   4.648
10221SOL    HW231563   2.254   0.242   4.510
10222SOL     OW31564   2.521   4.926   5.268
10222SOL    HW131565   2.577   4.845   5.251
10222SOL    HW231566   2.445   4.901   5.329
10223SOL     OW31567   2.125   5.627   6.147
10223SOL    HW131568   2.057   5.562   6.115
10223SOL    HW231569   2.135   5.620   6.246
10224SOL     OW31570   3.931   5.899   5.399
10224SOL    HW131571   3.860   5.888   5.469
10224SOL    HW231572   3.887   5.913   5.310
10225SOL     OW31573   5.238   7.025   4.877
10225SOL    HW131574   5.309   7.005   4.809
10225SOL    HW231575   5.151   0.017   4.831
10226SOL     OW31576   6.508   2.481   6.594
10226SOL    HW131577   6.589   2.535   6.571
10226SOL    HW231578   6.537   2.399   6.645
10227SOL     OW31579   4.570   4.613   5.268
10227SOL    HW131580   4.588   4.587   5.363
10227SOL    HW231581   4.654   4.644   5.225
10228SOL     OW31582   1.131   2.545   1.301
10228SOL    HW131583   1.051   2.589   1.342
10228SOL    HW231584   1.214   2.580   1.344
10229SOL     OW31585   3.013   0.562   1.674
10229SOL    HW131586   2.974   0.653   1.688
10229SOL    HW231587   2.949   0.493   1.708
10230SOL     OW31588   5.342   0.102   3.010
10230SOL    HW131589   5.333   0.165   3.087
10230SOL    HW231590   5.262   0.112   2.950
10231SOL     OW31591   5.235   6.606   4.601
10231SOL    HW131592   5.202   6.694   4.634
10231SOL    HW231593   5.310   6.575   4.659
10232SOL     OW31594   4.140   2.249   2.962
10232SOL    HW131595   4.043   2.229   2.950
10232SOL    HW231596   4.164   2.244   3.059
10233SOL     OW31597   4.820   6.045   5.706
10233SOL    HW131598   4.772   5.972   5.754
10233SOL    HW231599   4.792   6.047   5.610
10234SOL     OW31600   4.151   4.249   0.977
10234SOL    HW131601   4.251   4.246   0.983
10234SOL    HW231602   4.124   4.263   0.882
10235SOL     OW31603   4.787   0.309   6.754
10235SOL    HW131604   4.845   0.368   6.810
10235SOL    HW231605   4.711   0.275   6.809
10236SOL     OW31606   1.316   4.716   1.238
10236SOL    HW131607   1.247   4.703   1.310
10236SOL    HW231608   1.406   4.727   1.280
10237SOL     OW31609   5.943   2.472   3.021
10237SOL    HW131610   5.907   2.446   2.931
10237SOL    HW231611   5.870   2.468   3.089
10238SOL     OW31612   5.385   5.138   6.418
10238SOL    HW131613   5.363   5.116   6.323
10238SOL    HW231614   5.323   5.209   6.452
10239SOL     OW31615   5.446   3.561   4.138
10239SOL    HW131616   5.531   3.603   4.104
10239SOL    HW231617   5.396   3.521   4.062
10240SOL     OW31618   4.880   3.713   2.770
10240SOL    HW131619   4.864   3.736   2.866
10240SOL    HW231620   4.857   3.792   2.713
10241SOL     OW31621   1.305   2.668   2.166
10241SOL    HW131622   1.314   2.710   2.075
10241SOL    HW231623   1.394   2.668   2.211
10242SOL     OW31624   0.982   5.694   6.852
10242SOL    HW131625   0.915   5.627   6.882
10242SOL    HW231626   0.991   5.690   6.752
10243SOL     OW31627   0.088   5.530   3.862
10243SOL    HW131628   0.001   5.481   3.856
10243SOL    HW231629   0.156   5.485   3.805
10244SOL     OW31630   2.818   5.986   0.078
10244SOL    HW131631   2.894   6.045   0.104
10244SOL    HW231632   2.745   5.994   0.146
10245SOL     OW31633   3.566   3.438   1.319
10245SOL    HW131634   3.631   3.476   1.254
10245SOL    HW231635   3.610   3.367   1.374
10246SOL     OW31636   3.352   3.978   4.723
10246SOL    HW131637   3.417   3.904   4.702
10246SOL    HW231638   3.364   4.006   4.819
10247SOL     OW31639   1.104   5.372   6.484
10247SOL    HW131640   1.019   5.419   6.507
10247SOL    HW231641   1.120   5.378   6.385
10248SOL     OW31642   6.114   0.319   3.712
10248SOL    HW131643   6.131   0.300   3.809
10248SOL    HW231644   6.102   0.417   3.699
10249SOL     OW31645   4.572   0.893   5.992
10249SOL    HW131646   4.500   0.956   5.964
10249SOL    HW231647   4.555   0.802   5.955
10250SOL     OW31648   4.195   6.004   0.577
10250SOL    HW131649   4.246   5.927   0.538
10250SOL    HW231650   4.221   6.088   0.529
10251SOL     OW31651   3.781   4.307   1.233
10251SOL    HW131652   3.820   4.223   1.269
10251SOL    HW231653   3.852   4.362   1.189
10252SOL     OW31654   6.881   4.199   0.676
10252SOL    HW131655   6.852   4.108   0.646
10252SOL    HW231656   6.801   4.257   0.690
10253SOL     OW31657   5.174   4.191   6.858
10253SOL    HW131658   5.114   4.123   6.899
10253SOL    HW231659   5.264   4.151   6.842
10254SOL     OW31660   3.232   2.423   5.673
10254SOL    HW131661   3.245   2.514   5.713
10254SOL    HW231662   3.237   2.430   5.573
10255SOL     OW31663   2.946   5.162   4.044
10255SOL    HW131664   2.989   5.098   4.108
10255SOL    HW231665   2.970   5.255   4.068
10256SOL     OW31666   5.244   5.710   0.247
10256SOL    HW131667   5.298   5.768   0.309
10256SOL    HW231668   5.149   5.740   0.247
10257SOL     OW31669   1.642   4.162   5.012
10257SOL    HW131670   1.630   4.066   5.036
10257SOL    HW231671   1.737   4.189   5.028
10258SOL     OW31672   4.730   1.088   2.371
10258SOL    HW131673   4.776   1.005   2.339
10258SOL    HW231674   4.631   1.073   2.375
10259SOL     OW31675   5.967   3.581   4.145
10259SOL    HW131676   5.947   3.655   4.210
10259SOL    HW231677   6.051   3.603   4.096
10260SOL     OW31678   6.794   5.679   2.728
10260SOL    HW131679   6.755   5.623   2.654
10260SOL    HW231680   6.805   5.623   2.810
10261SOL     OW31681   2.337   0.045   1.885
10261SOL    HW131682   2.411   0.006   1.832
10261SOL    HW231683   2.372   0.118   1.944
10262SOL     OW31684   6.703   6.430   3.569
10262SOL    HW131685   6.801   6.417   3.589
10262SOL    HW231686   6.662   6.341   3.549
10263SOL     OW31687   6.648   3.522   5.332
10263SOL    HW131688   6.632   3.435   5.286
10263SOL    HW231689   6.651   3.596   5.265
10264SOL     OW31690   0.628   0.570   0.498
10264SOL    HW131691   0.695   0.496   0.496
10264SOL    HW231692   0.674   0.658   0.488
10265SOL     OW31693   5.351   2.754   4.339
10265SOL    HW131694   5.278   2.796   4.394
10265SOL    HW231695   5.311   2.687   4.276
10266SOL     OW31696   3.255   3.644   6.906
10266SOL    HW131697   3.256   3.730   6.853
10266SOL    HW231698   3.190   3.581   6.865
10267SOL     OW31699   0.024   0.643   6.419
10267SOL    HW131700   7.015   0.732   6.389
10267SOL    HW231701   0.012   0.576   6.346
10268SOL     OW31702   6.975   4.467   0.194
10268SOL    HW131703   7.001   4.482   0.289
10268SOL    HW231704   6.881   4.498   0.180
10269SOL     OW31705   4.583   1.735   5.707
10269SOL    HW131706   4.519   1.666   5.741
10269SOL    HW231707   4.580   1.816   5.766
10270SOL     OW31708   3.700   6.262   2.896
10270SOL    HW131709   3.724   6.356   2.921
10270SOL    HW231710   3.670   6.212   2.977
10271SOL     OW31711   1.636   4.699   1.122
10271SOL    HW131712   1.641   4.769   1.194
10271SOL    HW231713   1.562   4.636   1.143
10272SOL     OW31714   2.132   3.152   3.978
10272SOL    HW131715   2.048   3.153   4.032
10272SOL    HW231716   2.142   3.239   3.931
10273SOL     OW31717   4.234   6.763   4.011
10273SOL    HW131718   4.295   6.789   4.085
10273SOL    HW231719   4.286   6.721   3.937
10274SOL     OW31720   1.829   4.482   6.607
10274SOL    HW131721   1.806   4.523   6.696
10274SOL    HW231722   1.903   4.416   6.619
10275SOL     OW31723   0.653   6.038   1.761
10275SOL    HW131724   0.731   6.016   1.702
10275SOL    HW231725   0.613   6.124   1.731
10276SOL     OW31726   1.683   0.019   0.268
10276SOL    HW131727   1.766   0.054   0.226
10276SOL    HW231728   1.704   6.960   0.318
10277SOL     OW31729   6.380   5.603   1.907
10277SOL    HW131730   6.385   5.552   1.821
10277SOL    HW231731   6.424   5.550   1.979
10278SOL     OW31732   6.708   1.231   5.313
10278SOL    HW131733   6.668   1.202   5.226
10278SOL    HW231734   6.652   1.304   5.353
10279SOL     OW31735   3.855   6.282   3.845
10279SOL    HW131736   3.870   6.186   3.820
10279SOL    HW231737   3.766   6.291   3.889
10280SOL     OW31738   2.736   2.435   0.217
10280SOL    HW131739   2.831   2.433   0.248
10280SOL    HW231740   2.699   2.342   0.217
10281SOL     OW31741   4.362   0.962   4.507
10281SOL    HW131742   4.350   1.001   4.598
10281SOL    HW231743   4.357   0.862   4.513
10282SOL     OW31744   1.859   3.075   4.441
10282SOL    HW131745   1.761   3.079   4.421
10282SOL    HW231746   1.910   3.074   4.356
10283SOL     OW31747   1.814   5.186   6.419
10283SOL    HW131748   1.858   5.123   6.355
10283SOL    HW231749   1.720   5.202   6.391
10284SOL     OW31750   5.134   3.199   0.182
10284SOL    HW131751   5.075   3.231   0.256
10284SOL    HW231752   5.079   3.147   0.116
10285SOL     OW31753   4.992   1.594   1.176
10285SOL    HW131754   5.060   1.524   1.199
10285SOL    HW231755   5.018   1.639   1.091
10286SOL     OW31756   3.533   0.020   4.105
10286SOL    HW131757   3.520   0.119   4.101
10286SOL    HW231758   3.476   7.008   4.178
10287SOL     OW31759   2.100   3.861   2.869
10287SOL    HW131760   2.074   3.871   2.773
10287SOL    HW231761   2.142   3.771   2.883
10288SOL     OW31762   4.315   6.380   4.391
10288SOL    HW131763   4.381   6.455   4.387
10288SOL    HW231764   4.316   6.330   4.305
10289SOL     OW31765   2.668   1.596   1.961
10289SOL    HW131766   2.579   1.550   1.958
10289SOL    HW231767   2.705   1.601   1.868
10290SOL     OW31768   3.002   3.232   3.695
10290SOL    HW131769   2.932   3.275   3.637
10290SOL    HW231770   3.038   3.151   3.649
10291SOL     OW31771   4.005   6.879   3.946
10291SOL    HW131772   3.953   6.912   4.025
10291SOL    HW231773   4.087   6.830   3.978
10292SOL     OW31774   6.542   2.980   4.466
10292SOL    HW131775   6.445   2.997   4.448
10292SOL    HW231776   6.587   2.947   4.383
10293SOL     OW31777   1.493   4.701   3.093
10293SOL    HW131778   1.416   4.732   3.037
10293SOL    HW231779   1.551   4.640   3.039
10294SOL     OW31780   5.830   0.870   2.924
10294SOL    HW131781   5.859   0.779   2.954
10294SOL    HW231782   5.755   0.860   2.858
10295SOL     OW31783   1.806   3.758   3.511
10295SOL    HW131784   1.856   3.694   3.452
10295SOL    HW231785   1.720   3.716   3.539
10296SOL     OW31786   6.430   3.538   1.512
10296SOL    HW131787   6.509   3.595   1.488
10296SOL    HW231788   6.394   3.493   1.431
10297SOL     OW31789   3.429   4.882   5.516
10297SOL    HW131790   3.526   4.865   5.499
10297SOL    HW231791   3.419   4.969   5.564
10298SOL     OW31792   6.032   3.268   2.933
10298SOL    HW131793   6.012   3.322   2.851
10298SOL    HW231794   6.024   3.327   3.014
10299SOL     OW31795   4.121   5.020   2.368
10299SOL    HW131796   4.101   4.923   2.366
10299SOL    HW231797   4.063   5.068   2.303
10300SOL     OW31798   0.262   6.083   2.326
10300SOL    HW131799   0.241   6.081   2.228
10300SOL    HW231800   0.354   6.047   2.341
10301SOL     OW31801   4.324   0.441   1.883
10301SOL    HW131802   4.248   0.389   1.844
10301SOL    HW231803   4.309   0.455   1.981
10302SOL     OW31804   0.526   3.973   3.342
10302SOL    HW131805   0.501   3.964   3.439
10302SOL    HW231806   0.612   3.924   3.326
10303SOL     OW31807   4.879   3.445   1.339
10303SOL    HW131808   4.972   3.449   1.374
10303SOL    HW231809   4.870   3.366   1.278
10304SOL     OW31810   5.689   5.969   4.152
10304SOL    HW131811   5.767   6.023   4.122
10304SOL    HW231812   5.649   5.922   4.073
10305SOL     OW31813   2.414   5.309   1.393
10305SOL    HW131814   2.514   5.297   1.396
10305SOL    HW231815   2.379   5.317   1.486
10306SOL     OW31816   4.802   3.800   0.051
10306SOL    HW131817   4.765   3.762   0.136
10306SOL    HW231818   4.755   3.758   6.999
10307SOL     OW31819   3.023   2.232   5.630
10307SOL    HW131820   3.013   2.244   5.532
10307SOL    HW231821   3.113   2.268   5.659
10308SOL     OW31822   2.640   5.145   4.106
10308SOL    HW131823   2.727   5.097   4.095
10308SOL    HW231824   2.569   5.100   4.051
10309SOL     OW31825   0.173   6.256   3.501
10309SOL    HW131826   0.187   6.286   3.407
10309SOL    HW231827   0.232   6.309   3.562
10310SOL     OW31828   3.727   4.010   4.296
10310SOL    HW131829   3.726   4.000   4.197
10310SOL    HW231830   3.818   3.988   4.330
10311SOL     OW31831   1.012   0.086   0.813
10311SOL    HW131832   1.022   0.115   0.718
10311SOL    HW231833   0.990   7.014   0.816
10312SOL     OW31834   2.678   4.658   0.399
10312SOL    HW131835   2.608   4.696   0.339
10312SOL    HW231836   2.643   4.574   0.441
10313SOL     OW31837   6.459   5.888   3.881
10313SOL    HW131838   6.363   5.867   3.863
10313SOL    HW231839   6.501   5.929   3.800
10314SOL     OW31840   6.964   5.429   5.208
10314SOL    HW131841   6.997   5.335   5.200
10314SOL    HW231842   7.021   5.489   5.152
10315SOL     OW31843   4.034   6.326   5.486
10315SOL    HW131844   4.020   6.303   5.582
10315SOL    HW231845   4.131   6.314   5.463
10316SOL     OW31846   0.028   2.752   4.070
10316SOL    HW131847   6.968   2.720   4.110
10316SOL    HW231848   0.009   2.829   4.009
10317SOL     OW31849   6.177   4.432   6.224
10317SOL    HW131850   6.248   4.365   6.247
10317SOL    HW231851   6.133   4.463   6.308
10318SOL     OW31852   4.674   4.945   2.909
10318SOL    HW131853   4.648   4.858   2.952
10318SOL    HW231854   4.773   4.956   2.914
10319SOL     OW31855   4.660   6.601   3.842
10319SOL    HW131856   4.718   6.678   3.869
10319SOL    HW231857   4.614   6.564   3.923
10320SOL     OW31858   3.493   6.502   1.708
10320SOL    HW131859   3.496   6.402   1.710
10320SOL    HW231860   3.479   6.537   1.800
10321SOL     OW31861   4.603   6.141   4.799
10321SOL    HW131862   4.692   6.115   4.837
10321SOL    HW231863   4.531   6.095   4.851
10322SOL     OW31864   6.868   1.423   6.524
10322SOL    HW131865   6.860   1.523   6.522
10322SOL    HW231866   6.790   1.382   6.477
10323SOL     OW31867   0.341   2.040   5.123
10323SOL    HW131868   0.277   2.039   5.046
10323SOL    HW231869   0.401   2.119   5.116
10324SOL     OW31870   3.153   3.624   4.688
10324SOL    HW131871   3.224   3.641   4.619
10324SOL    HW231872   3.186   3.653   4.778
10325SOL     OW31873   0.668   3.148   3.759
10325SOL    HW131874   0.747   3.094   3.786
10325SOL    HW231875   0.661   3.151   3.659
10326SOL     OW31876   6.136   1.532   1.253
10326SOL    HW131877   6.042   1.537   1.287
10326SOL    HW231878   6.185   1.615   1.279
10327SOL     OW31879   5.623   1.920   3.830
10327SOL    HW131880   5.613   1.845   3.896
10327SOL    HW231881   5.711   1.965   3.844
10328SOL     OW31882   6.970   3.675   2.026
10328SOL    HW131883   6.889   3.719   1.988
10328SOL    HW231884   0.023   3.737   2.016
10329SOL     OW31885   2.878   5.433   2.914
10329SOL    HW131886   2.905   5.424   2.819
10329SOL    HW231887   2.902   5.350   2.964
10330SOL     OW31888   3.407   3.362   1.111
10330SOL    HW131889   3.334   3.428   1.095
10330SOL    HW231890   3.444   3.376   1.203
10331SOL     OW31891   5.424   1.962   4.791
10331SOL    HW131892   5.453   1.871   4.761
10331SOL    HW231893   5.437   2.027   4.716
10332SOL     OW31894   1.449   2.742   6.721
10332SOL    HW131895   1.544   2.715   6.735
10332SOL    HW231896   1.443   2.804   6.643
10333SOL     OW31897   0.278   4.690   5.545
10333SOL    HW131898   0.225   4.611   5.576
10333SOL    HW231899   0.335   4.723   5.620
10334SOL     OW31900   1.200   4.965   5.588
10334SOL    HW131901   1.211   5.064   5.583
10334SOL    HW231902   1.287   4.923   5.614
10335SOL     OW31903   2.859   4.920   2.827
10335SOL    HW131904   2.827   4.852   2.761
10335SOL    HW231905   2.823   5.010   2.803
10336SOL     OW31906   4.039   0.011   3.149
10336SOL    HW131907   3.960   0.073   3.146
10336SOL    HW231908   4.019   6.961   3.211
10337SOL     OW31909   1.765   3.788   6.493
10337SOL    HW131910   1.861   3.773   6.513
10337SOL    HW231911   1.745   3.886   6.492
10338SOL     OW31912   2.165   4.144   2.926
10338SOL    HW131913   2.131   4.066   2.874
10338SOL    HW231914   2.102   4.221   2.914
10339SOL     OW31915   3.306   6.031   6.567
10339SOL    HW131916   3.348   6.121   6.580
10339SOL    HW231917   3.210   6.035   6.592
10340SOL     OW31918   1.804   6.244   1.100
10340SOL    HW131919   1.868   6.272   1.028
10340SOL    HW231920   1.711   6.269   1.074
10341SOL     OW31921   6.991   3.262   1.702
10341SOL    HW131922   6.961   3.331   1.637
10341SOL    HW231923   6.932   3.181   1.696
10342SOL     OW31924   3.292   5.195   3.913
10342SOL    HW131925   3.291   5.209   4.012
10342SOL    HW231926   3.387   5.191   3.881
10343SOL     OW31927   2.440   2.126   4.736
10343SOL    HW131928   2.391   2.071   4.669
10343SOL    HW231929   2.393   2.213   4.750
10344SOL     OW31930   5.185   3.881   1.173
10344SOL    HW131931   5.134   3.874   1.087
10344SOL    HW231932   5.122   3.877   1.250
10345SOL     OW31933   3.263   1.674   6.485
10345SOL    HW131934   3.276   1.720   6.398
10345SOL    HW231935   3.297   1.732   6.559
10346SOL     OW31936   6.330   5.920   0.293
10346SOL    HW131937   6.287   5.832   0.271
10346SOL    HW231938   6.261   5.992   0.288
10347SOL     OW31939   3.872   6.867   2.457
10347SOL    HW131940   3.852   6.940   2.523
10347SOL    HW231941   3.970   6.862   2.441
10348SOL     OW31942   0.064   3.911   5.022
10348SOL    HW131943   0.163   3.927   5.021
10348SOL    HW231944   0.031   3.896   4.929
10349SOL     OW31945   5.889   2.145   0.294
10349SOL    HW131946   5.831   2.106   0.366
10349SOL    HW231947   5.833   2.167   0.214
10350SOL     OW31948   2.083   5.347   4.537
10350SOL    HW131949   2.061   5.419   4.603
10350SOL    HW231950   2.064   5.380   4.445
10351SOL     OW31951   3.792   5.714   4.798
10351SOL    HW131952   3.804   5.708   4.897
10351SOL    HW231953   3.847   5.644   4.754
10352SOL     OW31954   0.382   1.268   1.657
10352SOL    HW131955   0.363   1.188   1.713
10352SOL    HW231956   0.399   1.347   1.716
10353SOL     OW31957   5.677   2.973   3.290
10353SOL    HW131958   5.730   2.889   3.279
10353SOL    HW231959   5.632   2.995   3.204
10354SOL     OW31960   6.812   2.885   2.003
10354SOL    HW131961   6.891   2.900   2.061
10354SOL    HW231962   6.736   2.849   2.058
10355SOL     OW31963   6.502   2.180   0.828
10355SOL    HW131964   6.560   2.228   0.761
10355SOL    HW231965   6.425   2.138   0.781
10356SOL     OW31966   6.135   2.523   6.563
10356SOL    HW131967   6.164   2.448   6.623
10356SOL    HW231968   6.049   2.562   6.597
10357SOL     OW31969   0.275   6.731   6.502
10357SOL    HW131970   0.204   6.700   6.566
10357SOL    HW231971   0.277   6.831   6.502
10358SOL     OW31972   0.667   3.408   4.208
10358SOL    HW131973   0.686   3.330   4.148
10358SOL    HW231974   0.620   3.480   4.156
10359SOL     OW31975   1.114   2.623   2.348
10359SOL    HW131976   1.137   2.668   2.435
10359SOL    HW231977   1.187   2.639   2.282
10360SOL     OW31978   5.809   4.716   0.682
10360SOL    HW131979   5.899   4.693   0.718
10360SOL    HW231980   5.745   4.641   0.703
10361SOL     OW31981   5.530   2.054   3.354
10361SOL    HW131982   5.499   2.069   3.448
10361SOL    HW231983   5.526   1.956   3.334
10362SOL     OW31984   0.109   6.765   2.301
10362SOL    HW131985   0.153   6.706   2.369
10362SOL    HW231986   0.125   6.729   2.210
10363SOL     OW31987   5.928   4.729   6.442
10363SOL    HW131988   5.892   4.732   6.349
10363SOL    HW231989   5.944   4.634   6.469
10364SOL     OW31990   6.049   5.646   1.022
10364SOL    HW131991   5.976   5.611   1.081
10364SOL    HW231992   6.085   5.731   1.061
10365SOL     OW31993   6.191   6.018   6.756
10365SOL    HW131994   6.094   6.025   6.783
10365SOL    HW231995   6.235   6.106   6.770
10366SOL     OW31996   2.864   6.761   3.461
10366SOL    HW131997   2.916   6.700   3.402
10366SOL    HW231998   2.909   6.850   3.465
10367SOL     OW31999   4.579   6.196   2.127
10367SOL    HW132000   4.626   6.237   2.205
10367SOL    HW232001   4.488   6.167   2.155
10368SOL     OW32002   1.454   5.457   1.515
10368SOL    HW132003   1.430   5.382   1.577
10368SOL    HW232004   1.389   5.459   1.439
10369SOL     OW32005   2.447   0.873   5.464
10369SOL    HW132006   2.380   0.881   5.538
10369SOL    HW232007   2.493   0.961   5.451
10370SOL     OW32008   2.101   2.130   6.579
10370SOL    HW132009   2.072   2.215   6.534
10370SOL    HW232010   2.028   2.097   6.639
10371SOL     OW32011   3.898   5.587   3.309
10371SOL    HW132012   3.921   5.494   3.336
10371SOL    HW232013   3.981   5.642   3.303
10372SOL     OW32014   0.999   6.326   1.550
10372SOL    HW132015   0.982   6.386   1.472
10372SOL    HW232016   0.982   6.376   1.635
10373SOL     OW32017   6.849   0.292   5.860
10373SOL    HW132018   6.842   0.385   5.823
10373SOL    HW232019   6.767   0.240   5.836
10374SOL     OW32020   2.331   4.966   2.247
10374SOL    HW132021   2.406   5.028   2.225
10374SOL    HW232022   2.324   4.957   2.346
10375SOL     OW32023   2.635   5.661   6.626
10375SOL    HW132024   2.731   5.686   6.637
10375SOL    HW232025   2.627   5.584   6.562
10376SOL     OW32026   1.573   4.455   4.144
10376SOL    HW132027   1.643   4.389   4.172
10376SOL    HW232028   1.584   4.477   4.047
10377SOL     OW32029   2.814   0.631   4.014
10377SOL    HW132030   2.763   0.654   4.097
10377SOL    HW232031   2.839   0.716   3.967
10378SOL     OW32032   0.417   6.708   5.359
10378SOL    HW132033   0.460   6.650   5.291
10378SOL    HW232034   0.468   6.704   5.445
10379SOL     OW32035   1.061   5.380   3.312
10379SOL    HW132036   1.059   5.480   3.317
10379SOL    HW232037   0.995   5.342   3.377
10380SOL     OW32038   3.008   1.455   4.079
10380SOL    HW132039   2.965   1.430   4.165
10380SOL    HW232040   3.077   1.387   4.054
10381SOL     OW32041   2.729   0.126   3.409
10381SOL    HW132042   2.688   0.050   3.359
10381SOL    HW232043   2.808   0.161   3.359
10382SOL     OW32044   3.870   5.860   2.536
10382SOL    HW132045   3.903   5.919   2.463
10382SOL    HW232046   3.771   5.847   2.526
10383SOL     OW32047   0.370   6.782   6.861
10383SOL    HW132048   0.311   6.710   6.825
10383SOL    HW232049   0.465   6.762   6.837
10384SOL     OW32050   4.799   5.377   1.627
10384SOL    HW132051   4.860   5.319   1.573
10384SOL    HW232052   4.815   5.361   1.724
10385SOL     OW32053   4.155   4.181   6.454
10385SOL    HW132054   4.169   4.279   6.439
10385SOL    HW232055   4.205   4.152   6.536
10386SOL     OW32056   0.161   0.103   2.238
10386SOL    HW132057   0.182   0.180   2.178
10386SOL    HW232058   0.138   0.023   2.183
10387SOL     OW32059   5.719   1.420   1.753
10387SOL    HW132060   5.800   1.417   1.694
10387SOL    HW232061   5.733   1.488   1.825
10388SOL     OW32062   1.215   0.003   4.436
10388SOL    HW132063   1.187   6.978   4.355
10388SOL    HW232064   1.151   0.078   4.454
10389SOL     OW32065   0.405   3.576   0.782
10389SOL    HW132066   0.318   3.542   0.744
10389SOL    HW232067   0.397   3.675   0.799
10390SOL     OW32068   2.251   2.080   2.207
10390SOL    HW132069   2.323   2.058   2.141
10390SOL    HW232070   2.185   2.006   2.211
10391SOL     OW32071   6.364   6.943   2.884
10391SOL    HW132072   6.324   0.008   2.898
10391SOL    HW232073   6.297   6.885   2.836
10392SOL     OW32074   6.258   3.725   3.724
10392SOL    HW132075   6.199   3.645   3.735
10392SOL    HW232076   6.345   3.710   3.772
10393SOL     OW32077   1.545   2.512   1.706
10393SOL    HW132078   1.517   2.549   1.795
10393SOL    HW232079   1.545   2.585   1.638
10394SOL     OW32080   2.778   6.085   3.658
10394SOL    HW132081   2.811   6.019   3.725
10394SOL    HW232082   2.726   6.037   3.587
10395SOL     OW32083   0.514   1.337   1.438
10395SOL    HW132084   0.535   1.435   1.443
10395SOL    HW232085   0.471   1.308   1.523
10396SOL     OW32086   3.521   2.121   5.059
10396SOL    HW132087   3.427   2.118   5.092
10396SOL    HW232088   3.581   2.158   5.130
10397SOL     OW32089   5.239   1.661   4.136
10397SOL    HW132090   5.183   1.586   4.170
10397SOL    HW232091   5.276   1.637   4.046
10398SOL     OW32092   4.677   2.749   2.314
10398SOL    HW132093   4.624   2.719   2.235
10398SOL    HW232094   4.729   2.831   2.290
10399SOL     OW32095   0.764   3.862   2.064
10399SOL    HW132096   0.719   3.844   2.151
10399SOL    HW232097   0.733   3.795   1.996
10400SOL     OW32098   1.966   6.325   0.249
10400SOL    HW132099   1.939   6.419   0.270
10400SOL    HW232100   2.037   6.326   0.179
10401SOL     OW32101   6.467   1.418   5.363
10401SOL    HW132102   6.458   1.497   5.303
10401SOL    HW232103   6.500   1.448   5.452
10402SOL     OW32104   6.797   4.829   5.447
10402SOL    HW132105   6.824   4.734   5.433
10402SOL    HW232106   6.869   4.889   5.415
10403SOL     OW32107   3.414   0.257   1.237
10403SOL    HW132108   3.419   0.221   1.330
10403SOL    HW232109   3.341   0.210   1.187
10404SOL     OW32110   0.351   5.732   5.946
10404SOL    HW132111   0.337   5.673   6.026
10404SOL    HW232112   0.366   5.675   5.865
10405SOL     OW32113   0.259   1.423   0.047
10405SOL    HW132114   0.220   1.332   0.061
10405SOL    HW232115   0.353   1.424   0.080
10406SOL     OW32116   1.601   5.332   0.907
10406SOL    HW132117   1.589   5.296   0.999
10406SOL    HW232118   1.699   5.337   0.885
10407SOL     OW32119   2.324   6.075   0.081
10407SOL    HW132120   2.339   5.998   0.020
10407SOL    HW232121   2.289   6.041   0.169
10408SOL     OW32122   4.388   0.326   0.089
10408SOL    HW132123   4.401   0.425   0.098
10408SOL    HW232124   4.448   0.280   0.154
10409SOL     OW32125   6.378   4.405   0.305
10409SOL    HW132126   6.303   4.471   0.299
10409SOL    HW232127   6.343   4.314   0.287
10410SOL     OW32128   4.263   0.001   0.808
10410SOL    HW132129   4.230   6.946   0.760
10410SOL    HW232130   4.281   7.004   0.904
10411SOL     OW32131   1.626   5.472   4.144
10411SOL    HW132132   1.602   5.407   4.217
10411SOL    HW232133   1.551   5.536   4.130
10412SOL     OW32134   5.238   0.380   1.360
10412SOL    HW132135   5.174   0.348   1.291
10412SOL    HW232136   5.198   0.371   1.451
10413SOL     OW32137   5.723   3.498   2.132
10413SOL    HW132138   5.669   3.554   2.070
10413SOL    HW232139   5.819   3.501   2.105
10414SOL     OW32140   5.819   3.326   4.061
10414SOL    HW132141   5.742   3.353   4.004
10414SOL    HW232142   5.853   3.405   4.112
10415SOL     OW32143   0.803   0.780   6.979
10415SOL    HW132144   0.713   0.742   6.999
10415SOL    HW232145   0.798   0.880   6.982
10416SOL     OW32146   5.259   3.204   3.748
10416SOL    HW132147   5.211   3.120   3.771
10416SOL    HW232148   5.309   3.237   3.829
10417SOL     OW32149   1.528   3.962   2.570
10417SOL    HW132150   1.619   3.981   2.608
10417SOL    HW232151   1.465   3.941   2.645
10418SOL     OW32152   1.717   5.747   5.994
10418SOL    HW132153   1.773   5.720   5.916
10418SOL    HW232154   1.767   5.727   6.079
10419SOL     OW32155   1.674   0.667   6.455
10419SOL    HW132156   1.684   0.610   6.537
10419SOL    HW232157   1.622   0.749   6.479
10420SOL     OW32158   0.575   2.443   2.385
10420SOL    HW132159   0.567   2.507   2.309
10420SOL    HW232160   0.560   2.491   2.472
10421SOL     OW32161   0.812   1.989   2.979
10421SOL    HW132162   0.804   2.080   2.939
10421SOL    HW232163   0.726   1.965   3.024
10422SOL     OW32164   5.260   2.264   0.083
10422SOL    HW132165   5.326   2.190   0.094
10422SOL    HW232166   5.288   2.343   0.137
10423SOL     OW32167   4.661   5.646   3.228
10423SOL    HW132168   4.746   5.693   3.254
10423SOL    HW232169   4.652   5.647   3.128
10424SOL     OW32170   4.400   1.617   6.469
10424SOL    HW132171   4.376   1.586   6.562
10424SOL    HW232172   4.326   1.591   6.406
10425SOL     OW32173   1.486   6.711   1.986
10425SOL    HW132174   1.522   6.794   1.943
10425SOL    HW232175   1.463   6.644   1.916
10426SOL     OW32176   6.652   4.178   6.322
10426SOL    HW132177   6.675   4.095   6.373
10426SOL    HW232178   6.637   4.154   6.226
10427SOL     OW32179   5.466   0.888   1.400
10427SOL    HW132180   5.391   0.870   1.336
10427SOL    HW232181   5.539   0.821   1.386
10428SOL     OW32182   4.415   1.926   3.427
10428SOL    HW132183   4.323   1.949   3.397
10428SOL    HW232184   4.459   1.867   3.359
10429SOL     OW32185   5.168   5.453   2.817
10429SOL    HW132186   5.127   5.374   2.863
10429SOL    HW232187   5.263   5.433   2.794
10430SOL     OW32188   4.315   6.447   2.661
10430SOL    HW132189   4.249   6.413   2.594
10430SOL    HW232190   4.286   6.421   2.753
10431SOL     OW32191   2.579   1.456   5.366
10431SOL    HW132192   2.570   1.483   5.270
10431SOL    HW232193   2.660   1.500   5.405
10432SOL     OW32194   4.370   0.342   4.645
10432SOL    HW132195   4.379   0.339   4.545
10432SOL    HW232196   4.297   0.406   4.670
10433SOL     OW32197   2.883   5.806   1.359
10433SOL    HW132198   2.894   5.736   1.288
10433SOL    HW232199   2.962   5.867   1.357
10434SOL     OW32200   3.285   2.093   5.221
10434SOL    HW132201   3.226   2.013   5.230
10434SOL    HW232202   3.234   2.168   5.180
10435SOL     OW32203   5.681   5.249   6.258
10435SOL    HW132204   5.698   5.176   6.192
10435SOL    HW232205   5.676   5.210   6.350
10436SOL     OW32206   0.364   1.107   2.814
10436SOL    HW132207   0.345   1.009   2.821
10436SOL    HW232208   0.284   1.158   2.845
10437SOL     OW32209   0.757   3.582   6.564
10437SOL    HW132210   0.839   3.567   6.510
10437SOL    HW232211   0.774   3.650   6.635
10438SOL     OW32212   3.247   0.095   5.831
10438SOL    HW132213   3.303   0.028   5.879
10438SOL    HW232214   3.179   0.133   5.893
10439SOL     OW32215   3.243   0.303   5.606
10439SOL    HW132216   3.209   0.373   5.667
10439SOL    HW232217   3.223   0.212   5.644
10440SOL     OW32218   1.120   5.760   1.003
10440SOL    HW132219   1.180   5.757   1.082
10440SOL    HW232220   1.110   5.668   0.965
10441SOL     OW32221   4.034   0.313   0.889
10441SOL    HW132222   4.074   0.401   0.865
10441SOL    HW232223   3.991   0.272   0.808
10442SOL     OW32224   4.372   5.975   5.957
10442SOL    HW132225   4.307   5.899   5.965
10442SOL    HW232226   4.435   5.957   5.882
10443SOL     OW32227   6.313   2.840   4.808
10443SOL    HW132228   6.291   2.844   4.905
10443SOL    HW232229   6.399   2.792   4.794
10444SOL     OW32230   4.217   5.143   5.068
10444SOL    HW132231   4.147   5.179   5.006
10444SOL    HW232232   4.232   5.208   5.143
10445SOL     OW32233   6.219   6.460   2.163
10445SOL    HW132234   6.232   6.534   2.097
10445SOL    HW232235   6.215   6.373   2.115
10446SOL     OW32236   1.161   6.313   6.306
10446SOL    HW132237   1.223   6.241   6.335
10446SOL    HW232238   1.164   6.322   6.207
10447SOL     OW32239   5.412   1.965   6.815
10447SOL    HW132240   5.468   1.888   6.783
10447SOL    HW232241   5.316   1.944   6.799
10448SOL     OW32242   3.501   3.548   2.174
10448SOL    HW132243   3.528   3.638   2.208
10448SOL    HW232244   3.425   3.559   2.110
10449SOL     OW32245   1.954   5.129   4.601
10449SOL    HW132246   1.869   5.161   4.644
10449SOL    HW232247   2.018   5.205   4.594
10450SOL     OW32248   0.130   3.515   0.682
10450SOL    HW132249   0.145   3.418   0.702
10450SOL    HW232250   0.124   3.566   0.768
10451SOL     OW32251   2.489   4.420   1.907
10451SOL    HW132252   2.549   4.500   1.902
10451SOL    HW232253   2.467   4.400   2.002
10452SOL     OW32254   2.059   3.310   5.859
10452SOL    HW132255   2.142   3.346   5.903
10452SOL    HW232256   2.004   3.261   5.926
10453SOL     OW32257   5.301   0.706   2.029
10453SOL    HW132258   5.243   0.761   1.969
10453SOL    HW232259   5.393   0.699   1.990
10454SOL     OW32260   4.775   4.689   2.660
10454SOL    HW132261   4.856   4.633   2.643
10454SOL    HW232262   4.785   4.777   2.614
10455SOL     OW32263   0.934   4.845   3.254
10455SOL    HW132264   0.939   4.745   3.258
10455SOL    HW232265   0.855   4.877   3.307
10456SOL     OW32266   4.209   6.458   1.158
10456SOL    HW132267   4.229   6.534   1.096
10456SOL    HW232268   4.114   6.429   1.148
10457SOL     OW32269   3.664   2.932   4.127
10457SOL    HW132270   3.598   3.003   4.151
10457SOL    HW232271   3.696   2.887   4.211
10458SOL     OW32272   6.637   5.888   2.260
10458SOL    HW132273   6.558   5.851   2.211
10458SOL    HW232274   6.713   5.901   2.196
10459SOL     OW32275   6.847   4.900   1.541
10459SOL    HW132276   6.756   4.925   1.508
10459SOL    HW232277   6.873   4.811   1.502
10460SOL     OW32278   1.083   4.057   1.563
10460SOL    HW132279   1.044   4.025   1.477
10460SOL    HW232280   1.014   4.108   1.615
10461SOL     OW32281   3.469   0.131   6.727
10461SOL    HW132282   3.510   0.177   6.806
10461SOL    HW232283   3.413   0.195   6.676
10462SOL     OW32284   5.497   6.444   1.090
10462SOL    HW132285   5.414   6.391   1.070
10462SOL    HW232286   5.549   6.457   1.006
10463SOL     OW32287   3.866   3.197   0.639
10463SOL    HW132288   3.826   3.163   0.553
10463SOL    HW232289   3.965   3.184   0.636
10464SOL     OW32290   5.647   6.527   2.337
10464SOL    HW132291   5.595   6.539   2.421
10464SOL    HW232292   5.682   6.616   2.307
10465SOL     OW32293   0.511   5.023   4.675
10465SOL    HW132294   0.424   5.001   4.632
10465SOL    HW232295   0.511   5.119   4.703
10466SOL     OW32296   4.701   6.153   5.433
10466SOL    HW132297   4.760   6.232   5.421
10466SOL    HW232298   4.627   6.176   5.496
10467SOL     OW32299   3.868   1.227   4.522
10467SOL    HW132300   3.769   1.217   4.531
10467SOL    HW232301   3.913   1.166   4.586
10468SOL     OW32302   2.933   4.852   3.388
10468SOL    HW132303   2.873   4.932   3.389
10468SOL    HW232304   3.011   4.867   3.449
10469SOL     OW32305   1.279   4.739   5.879
10469SOL    HW132306   1.247   4.707   5.968
10469SOL    HW232307   1.200   4.753   5.819
10470SOL     OW32308   2.403   2.252   4.348
10470SOL    HW132309   2.425   2.175   4.408
10470SOL    HW232310   2.357   2.218   4.266
10471SOL     OW32311   4.612   3.862   6.817
10471SOL    HW132312   4.562   3.780   6.846
10471SOL    HW232313   4.606   3.871   6.718
10472SOL     OW32314   3.804   1.206   3.916
10472SOL    HW132315   3.746   1.133   3.953
10472SOL    HW232316   3.754   1.254   3.844
10473SOL     OW32317   5.017   5.150   6.835
10473SOL    HW132318   5.051   5.244   6.834
10473SOL    HW232319   5.003   5.120   6.929
10474SOL     OW32320   4.866   0.889   4.193
10474SOL    HW132321   4.857   0.972   4.137
10474SOL    HW232322   4.962   0.875   4.217
10475SOL     OW32323   3.883   6.386   1.641
10475SOL    HW132324   3.833   6.468   1.618
10475SOL    HW232325   3.981   6.407   1.646
10476SOL     OW32326   0.693   4.963   6.384
10476SOL    HW132327   0.631   4.994   6.313
10476SOL    HW232328   0.695   5.030   6.458
10477SOL     OW32329   4.773   4.412   5.144
10477SOL    HW132330   4.748   4.347   5.215
10477SOL    HW232331   4.786   4.503   5.185
10478SOL     OW32332   0.654   6.493   3.378
10478SOL    HW132333   0.563   6.524   3.349
10478SOL    HW232334   0.709   6.572   3.405
10479SOL     OW32335   0.929   4.007   2.366
10479SOL    HW132336   0.972   4.058   2.440
10479SOL    HW232337   0.999   3.962   2.310
10480SOL     OW32338   4.809   1.312   0.617
10480SOL    HW132339   4.855   1.318   0.528
10480SOL    HW232340   4.867   1.354   0.687
10481SOL     OW32341   2.883   1.856   4.263
10481SOL    HW132342   2.971   1.816   4.240
10481SOL    HW232343   2.889   1.956   4.258
10482SOL     OW32344   0.799   6.455   6.837
10482SOL    HW132345   0.876   6.477   6.897
10482SOL    HW232346   0.831   6.449   6.742
10483SOL     OW32347   0.590   5.830   1.042
10483SOL    HW132348   0.687   5.831   1.066
10483SOL    HW232349   0.577   5.865   0.949
10484SOL     OW32350   6.885   1.623   1.679
10484SOL    HW132351   6.895   1.542   1.620
10484SOL    HW232352   6.822   1.688   1.637
10485SOL     OW32353   3.993   3.931   4.337
10485SOL    HW132354   4.004   3.871   4.417
10485SOL    HW232355   4.051   3.899   4.263
10486SOL     OW32356   6.104   5.409   5.778
10486SOL    HW132357   6.012   5.369   5.778
10486SOL    HW232358   6.146   5.393   5.689
10487SOL     OW32359   5.314   3.916   2.713
10487SOL    HW132360   5.409   3.886   2.713
10487SOL    HW232361   5.259   3.852   2.766
10488SOL     OW32362   0.424   2.617   5.968
10488SOL    HW132363   0.479   2.698   5.947
10488SOL    HW232364   0.446   2.585   6.060
10489SOL     OW32365   5.614   4.733   2.667
10489SOL    HW132366   5.528   4.699   2.630
10489SOL    HW232367   5.680   4.746   2.593
10490SOL     OW32368   5.028   6.535   6.363
10490SOL    HW132369   5.001   6.483   6.444
10490SOL    HW232370   5.126   6.523   6.348
10491SOL     OW32371   2.363   1.881   5.143
10491SOL    HW132372   2.423   1.960   5.152
10491SOL    HW232373   2.379   1.837   5.055
10492SOL     OW32374   2.978   6.227   0.120
10492SOL    HW132375   2.937   6.290   0.186
10492SOL    HW232376   2.933   6.240   0.031
10493SOL     OW32377   3.541   5.850   0.665
10493SOL    HW132378   3.458   5.897   0.636
10493SOL    HW232379   3.545   5.848   0.765
10494SOL     OW32380   0.064   5.409   3.502
10494SOL    HW132381   0.102   5.395   3.410
10494SOL    HW232382   0.108   5.347   3.567
10495SOL     OW32383   6.167   6.374   0.103
10495SOL    HW132384   6.099   6.316   0.058
10495SOL    HW232385   6.257   6.331   0.098
10496SOL     OW32386   0.975   4.064   5.919
10496SOL    HW132387   0.967   4.161   5.894
10496SOL    HW232388   0.932   4.049   6.008
10497SOL     OW32389   3.933   6.158   6.971
10497SOL    HW132390   3.848   6.210   6.981
10497SOL    HW232391   3.973   6.142   0.035
10498SOL     OW32392   3.160   3.745   0.168
10498SOL    HW132393   3.219   3.738   0.249
10498SOL    HW232394   3.214   3.728   0.086
10499SOL     OW32395   4.170   4.722   3.433
10499SOL    HW132396   4.172   4.702   3.531
10499SOL    HW232397   4.218   4.650   3.384
10500SOL     OW32398   1.768   3.448   5.399
10500SOL    HW132399   1.759   3.424   5.303
10500SOL    HW232400   1.864   3.450   5.424
10501SOL     OW32401   3.831   4.886   3.349
10501SOL    HW132402   3.896   4.948   3.306
10501SOL    HW232403   3.738   4.915   3.326
10502SOL     OW32404   3.058   3.945   2.605
10502SOL    HW132405   3.056   3.944   2.705
10502SOL    HW232406   2.999   3.872   2.569
10503SOL     OW32407   6.861   0.874   0.832
10503SOL    HW132408   6.803   0.831   0.901
10503SOL    HW232409   6.957   0.862   0.858
10504SOL     OW32410   1.137   2.512   5.833
10504SOL    HW132411   1.084   2.522   5.917
10504SOL    HW232412   1.075   2.496   5.756
10505SOL     OW32413   5.545   6.482   1.404
10505SOL    HW132414   5.528   6.456   1.309
10505SOL    HW232415   5.571   6.578   1.409
10506SOL     OW32416   1.340   5.187   5.121
10506SOL    HW132417   1.383   5.100   5.095
10506SOL    HW232418   1.296   5.177   5.210
10507SOL     OW32419   1.439   6.367   5.901
10507SOL    HW132420   1.343   6.367   5.870
10507SOL    HW232421   1.442   6.376   6.000
10508SOL     OW32422   1.783   6.341   1.344
10508SOL    HW132423   1.808   6.296   1.258
10508SOL    HW232424   1.851   6.319   1.414
10509SOL     OW32425   4.954   3.327   2.096
10509SOL    HW132426   4.920   3.421   2.090
10509SOL    HW232427   4.907   3.280   2.171
10510SOL     OW32428   5.909   6.275   2.180
10510SOL    HW132429   5.847   6.216   2.233
10510SOL    HW232430   5.964   6.219   2.118
10511SOL     OW32431   4.085   2.076   1.001
10511SOL    HW132432   4.140   2.074   0.917
10511SOL    HW232433   4.144   2.058   1.080
10512SOL     OW32434   4.002   0.662   4.855
10512SOL    HW132435   3.995   0.582   4.916
10512SOL    HW232436   4.051   0.735   4.903
10513SOL     OW32437   3.650   3.805   0.553
10513SOL    HW132438   3.647   3.827   0.651
10513SOL    HW232439   3.558   3.806   0.515
10514SOL     OW32440   1.676   5.421   1.958
10514SOL    HW132441   1.746   5.369   2.006
10514SOL    HW232442   1.717   5.501   1.914
10515SOL     OW32443   1.921   3.879   5.010
10515SOL    HW132444   1.909   3.785   4.977
10515SOL    HW232445   1.952   3.937   4.935
10516SOL     OW32446   5.554   2.035   1.831
10516SOL    HW132447   5.458   2.060   1.843
10516SOL    HW232448   5.611   2.092   1.890
10517SOL     OW32449   0.012   2.145   2.424
10517SOL    HW132450   0.099   2.104   2.454
10517SOL    HW232451   0.027   2.242   2.403
10518SOL     OW32452   0.827   5.836   2.705
10518SOL    HW132453   0.848   5.882   2.792
10518SOL    HW232454   0.865   5.744   2.707
10519SOL     OW32455   2.084   6.629   0.748
10519SOL    HW132456   2.112   6.564   0.819
10519SOL    HW232457   1.997   6.601   0.709
10520SOL     OW32458   3.165   2.651   5.838
10520SOL    HW132459   3.078   2.603   5.841
10520SOL    HW232460   3.149   2.750   5.834
10521SOL     OW32461   5.984   2.071   2.606
10521SOL    HW132462   5.987   2.042   2.510
10521SOL    HW232463   5.889   2.085   2.634
10522SOL     OW32464   5.056   1.668   3.161
10522SOL    HW132465   5.065   1.571   3.137
10522SOL    HW232466   5.006   1.715   3.089
10523SOL     OW32467   0.577   3.818   1.679
10523SOL    HW132468   0.546   3.783   1.768
10523SOL    HW232469   0.584   3.742   1.614
10524SOL     OW32470   6.021   6.657   4.842
10524SOL    HW132471   5.928   6.687   4.818
10524SOL    HW232472   6.070   6.733   4.884
10525SOL     OW32473   4.709   1.924   3.301
10525SOL    HW132474   4.801   1.952   3.275
10525SOL    HW232475   4.647   2.002   3.295
10526SOL     OW32476   1.456   5.830   5.850
10526SOL    HW132477   1.447   5.918   5.804
10526SOL    HW232478   1.510   5.842   5.934
10527SOL     OW32479   0.548   6.299   6.298
10527SOL    HW132480   0.623   6.363   6.313
10527SOL    HW232481   0.462   6.341   6.329
10528SOL     OW32482   2.344   6.406   5.190
10528SOL    HW132483   2.410   6.435   5.121
10528SOL    HW232484   2.388   6.342   5.253
10529SOL     OW32485   6.863   4.888   0.234
10529SOL    HW132486   6.809   4.838   0.166
10529SOL    HW232487   6.812   4.967   0.267
10530SOL     OW32488   6.148   0.444   1.292
10530SOL    HW132489   6.142   0.458   1.193
10530SOL    HW232490   6.244   0.445   1.320
10531SOL     OW32491   3.089   1.354   6.176
10531SOL    HW132492   3.137   1.422   6.121
10531SOL    HW232493   2.992   1.352   6.150
10532SOL     OW32494   4.728   5.284   6.080
10532SOL    HW132495   4.684   5.321   6.162
10532SOL    HW232496   4.715   5.185   6.077
10533SOL     OW32497   4.106   6.613   3.202
10533SOL    HW132498   4.153   6.567   3.277
10533SOL    HW232499   4.144   6.704   3.190
10534SOL     OW32500   0.644   6.306   4.353
10534SOL    HW132501   0.678   6.212   4.342
10534SOL    HW232502   0.657   6.335   4.448
10535SOL     OW32503   4.136   1.356   2.232
10535SOL    HW132504   4.143   1.294   2.154
10535SOL    HW232505   4.054   1.412   2.222
10536SOL     OW32506   6.013   4.133   4.167
10536SOL    HW132507   6.042   4.128   4.263
10536SOL    HW232508   5.924   4.089   4.157
10537SOL     OW32509   3.053   1.351   2.661
10537SOL    HW132510   2.982   1.349   2.591
10537SOL    HW232511   3.011   1.357   2.752
10538SOL     OW32512   6.278   2.643   3.788
10538SOL    HW132513   6.195   2.615   3.739
10538SOL    HW232514   6.261   2.640   3.886
10539SOL     OW32515   6.649   6.983   2.074
10539SOL    HW132516   6.644   6.908   2.140
10539SOL    HW232517   6.701   0.033   2.115
10540SOL     OW32518   1.499   2.985   6.078
10540SOL    HW132519   1.539   3.075   6.059
10540SOL    HW232520   1.532   2.953   6.167
10541SOL     OW32521   3.456   1.976   5.650
10541SOL    HW132522   3.389   1.917   5.607
10541SOL    HW232523   3.467   1.951   5.746
10542SOL     OW32524   3.716   6.747   2.276
10542SOL    HW132525   3.665   6.679   2.329
10542SOL    HW232526   3.772   6.802   2.338
10543SOL     OW32527   1.387   2.629   4.149
10543SOL    HW132528   1.330   2.568   4.095
10543SOL    HW232529   1.330   2.695   4.198
10544SOL     OW32530   2.946   2.156   2.249
10544SOL    HW132531   2.943   2.234   2.187
10544SOL    HW232532   2.984   2.077   2.203
10545SOL     OW32533   1.327   3.065   1.840
10545SOL    HW132534   1.253   3.055   1.906
10545SOL    HW232535   1.296   3.033   1.750
10546SOL     OW32536   1.609   6.893   4.736
10546SOL    HW132537   1.515   6.863   4.720
10546SOL    HW232538   1.671   6.816   4.721
10547SOL     OW32539   3.491   5.576   6.124
10547SOL    HW132540   3.537   5.492   6.156
10547SOL    HW232541   3.426   5.552   6.052
10548SOL     OW32542   1.323   4.983   3.280
10548SOL    HW132543   1.305   4.952   3.186
10548SOL    HW232544   1.252   4.947   3.341
10549SOL     OW32545   6.699   1.280   2.575
10549SOL    HW132546   6.617   1.304   2.625
10549SOL    HW232547   6.744   1.202   2.619
10550SOL     OW32548   0.094   5.231   2.536
10550SOL    HW132549   0.139   5.286   2.606
10550SOL    HW232550   0.048   5.154   2.580
10551SOL     OW32551   4.717   0.348   4.400
10551SOL    HW132552   4.684   0.255   4.415
10551SOL    HW232553   4.651   0.397   4.342
10552SOL     OW32554   2.599   6.956   3.240
10552SOL    HW132555   2.687   6.932   3.201
10552SOL    HW232556   2.545   6.873   3.254
10553SOL     OW32557   5.425   5.692   1.243
10553SOL    HW132558   5.406   5.731   1.153
10553SOL    HW232559   5.340   5.657   1.283
10554SOL     OW32560   6.291   5.827   1.038
10554SOL    HW132561   6.362   5.896   1.024
10554SOL    HW232562   6.332   5.737   1.051
10555SOL     OW32563   3.517   3.081   2.029
10555SOL    HW132564   3.451   3.110   1.960
10555SOL    HW232565   3.485   2.997   2.072
10556SOL     OW32566   2.508   2.555   1.907
10556SOL    HW132567   2.563   2.472   1.908
10556SOL    HW232568   2.513   2.597   1.816
10557SOL     OW32569   0.849   4.223   2.916
10557SOL    HW132570   0.770   4.282   2.895
10557SOL    HW232571   0.923   4.243   2.852
10558SOL     OW32572   4.790   5.015   4.651
10558SOL    HW132573   4.707   4.973   4.688
10558SOL    HW232574   4.850   4.944   4.615
10559SOL     OW32575   3.557   6.301   1.043
10559SOL    HW132576   3.458   6.315   1.045
10559SOL    HW232577   3.603   6.389   1.028
10560SOL     OW32578   5.796   0.321   4.111
10560SOL    HW132579   5.869   0.297   4.046
10560SOL    HW232580   5.833   0.384   4.179
10561SOL     OW32581   1.319   5.455   5.179
10561SOL    HW132582   1.338   5.361   5.152
10561SOL    HW232583   1.237   5.457   5.237
10562SOL     OW32584   3.201   0.945   2.817
10562SOL    HW132585   3.151   0.972   2.899
10562SOL    HW232586   3.181   0.849   2.796
10563SOL     OW32587   1.976   5.473   1.816
10563SOL    HW132588   1.910   5.545   1.841
10563SOL    HW232589   2.055   5.515   1.772
10564SOL     OW32590   5.247   5.082   3.115
10564SOL    HW132591   5.230   5.180   3.126
10564SOL    HW232592   5.315   5.067   3.043
10565SOL     OW32593   0.206   1.538   4.465
10565SOL    HW132594   0.249   1.522   4.376
10565SOL    HW232595   0.133   1.604   4.455
10566SOL     OW32596   3.877   1.957   0.367
10566SOL    HW132597   3.929   1.873   0.383
10566SOL    HW232598   3.788   1.933   0.327
10567SOL     OW32599   2.922   1.471   6.677
10567SOL    HW132600   2.979   1.475   6.595
10567SOL    HW232601   2.952   1.541   6.742
10568SOL     OW32602   6.058   1.990   6.371
10568SOL    HW132603   6.016   2.081   6.367
10568SOL    HW232604   6.153   1.995   6.339
10569SOL     OW32605   4.489   0.417   0.875
10569SOL    HW132606   4.417   0.485   0.865
10569SOL    HW232607   4.560   0.452   0.936
10570SOL     OW32608   1.200   4.372   3.187
10570SOL    HW132609   1.257   4.442   3.230
10570SOL    HW232610   1.258   4.297   3.154
10571SOL     OW32611   0.283   3.748   5.225
10571SOL    HW132612   0.320   3.840   5.215
10571SOL    HW232613   0.335   3.699   5.295
10572SOL     OW32614   0.057   4.977   0.611
10572SOL    HW132615   0.097   4.943   0.526
10572SOL    HW232616   0.123   5.034   0.658
10573SOL     OW32617   6.057   2.620   3.641
10573SOL    HW132618   6.044   2.586   3.548
10573SOL    HW232619   5.973   2.609   3.693
10574SOL     OW32620   5.085   2.671   2.356
10574SOL    HW132621   5.041   2.623   2.432
10574SOL    HW232622   5.162   2.617   2.322
10575SOL     OW32623   4.939   0.486   2.768
10575SOL    HW132624   4.999   0.423   2.817
10575SOL    HW232625   4.893   0.436   2.694
10576SOL     OW32626   1.616   3.118   5.244
10576SOL    HW132627   1.664   3.041   5.202
10576SOL    HW232628   1.633   3.118   5.343
10577SOL     OW32629   4.218   4.045   6.725
10577SOL    HW132630   4.222   3.951   6.692
10577SOL    HW232631   4.187   4.046   6.820
10578SOL     OW32632   1.179   3.890   2.361
10578SOL    HW132633   1.187   3.826   2.437
10578SOL    HW232634   1.261   3.948   2.357
10579SOL     OW32635   0.077   3.240   6.976
10579SOL    HW132636   0.136   3.217   6.899
10579SOL    HW232637   0.010   3.309   6.948
10580SOL     OW32638   5.034   0.026   6.416
10580SOL    HW132639   5.056   6.988   6.489
10580SOL    HW232640   5.095   0.011   6.338
10581SOL     OW32641   4.206   0.925   2.585
10581SOL    HW132642   4.235   0.847   2.642
10581SOL    HW232643   4.164   0.994   2.644
10582SOL     OW32644   0.040   3.172   0.421
10582SOL    HW132645   6.976   3.144   0.389
10582SOL    HW232646   0.069   3.110   0.495
10583SOL     OW32647   4.142   2.113   5.852
10583SOL    HW132648   4.203   2.072   5.784
10583SOL    HW232649   4.062   2.151   5.806
10584SOL     OW32650   6.377   0.477   3.638
10584SOL    HW132651   6.317   0.552   3.668
10584SOL    HW232652   6.320   0.401   3.606
10585SOL     OW32653   1.362   1.153   5.075
10585SOL    HW132654   1.264   1.145   5.094
10585SOL    HW232655   1.381   1.241   5.032
10586SOL     OW32656   4.913   3.572   6.279
10586SOL    HW132657   4.961   3.484   6.282
10586SOL    HW232658   4.944   3.624   6.199
10587SOL     OW32659   2.488   5.300   5.265
10587SOL    HW132660   2.556   5.245   5.217
10587SOL    HW232661   2.408   5.244   5.286
10588SOL     OW32662   0.827   4.149   4.345
10588SOL    HW132663   0.922   4.181   4.355
10588SOL    HW232664   0.785   4.140   4.435
10589SOL     OW32665   5.541   0.270   3.731
10589SOL    HW132666   5.498   0.246   3.643
10589SOL    HW232667   5.639   0.253   3.725
10590SOL     OW32668   0.310   6.485   2.103
10590SOL    HW132669   0.345   6.487   2.197
10590SOL    HW232670   0.380   6.449   2.042
10591SOL     OW32671   6.271   4.546   2.254
10591SOL    HW132672   6.224   4.628   2.287
10591SOL    HW232673   6.324   4.505   2.328
10592SOL     OW32674   6.441   3.587   4.548
10592SOL    HW132675   6.420   3.675   4.504
10592SOL    HW232676   6.521   3.598   4.607
10593SOL     OW32677   3.740   5.802   3.424
10593SOL    HW132678   3.695   5.817   3.336
10593SOL    HW232679   3.807   5.728   3.414
10594SOL     OW32680   4.002   6.023   3.733
10594SOL    HW132681   3.959   5.974   3.658
10594SOL    HW232682   4.054   5.959   3.790
10595SOL     OW32683   5.615   6.065   0.629
10595SOL    HW132684   5.597   6.127   0.706
10595SOL    HW232685   5.713   6.051   0.620
10596SOL     OW32686   5.839   3.950   0.477
10596SOL    HW132687   5.795   3.860   0.481
10596SOL    HW232688   5.792   4.007   0.409
10597SOL     OW32689   1.059   6.407   5.540
10597SOL    HW132690   0.996   6.469   5.587
10597SOL    HW232691   1.137   6.458   5.506
10598SOL     OW32692   3.250   1.792   1.091
10598SOL    HW132693   3.171   1.755   1.140
10598SOL    HW232694   3.334   1.772   1.142
10599SOL     OW32695   0.822   1.980   0.889
10599SOL    HW132696   0.842   1.960   0.984
10599SOL    HW232697   0.733   2.026   0.883
10600SOL     OW32698   5.010   1.603   2.074
10600SOL    HW132699   5.046   1.657   1.998
10600SOL    HW232700   4.995   1.663   2.153
10601SOL     OW32701   2.000   1.700   4.969
10601SOL    HW132702   2.052   1.698   4.883
10601SOL    HW232703   2.026   1.782   5.021
10602SOL     OW32704   7.021   0.142   1.554
10602SOL    HW132705   6.926   0.156   1.526
10602SOL    HW232706   0.044   0.091   1.482
10603SOL     OW32707   5.668   0.812   2.712
10603SOL    HW132708   5.598   0.792   2.644
10603SOL    HW232709   5.742   0.746   2.704
10604SOL     OW32710   5.330   2.209   5.100
10604SOL    HW132711   5.257   2.195   5.166
10604SOL    HW232712   5.299   2.273   5.029
10605SOL     OW32713   4.274   2.027   1.255
10605SOL    HW132714   4.352   2.078   1.218
10605SOL    HW232715   4.279   2.026   1.355
10606SOL     OW32716   5.598   1.353   0.778
10606SOL    HW132717   5.534   1.320   0.848
10606SOL    HW232718   5.550   1.415   0.716
10607SOL     OW32719   2.410   4.944   0.954
10607SOL    HW132720   2.504   4.918   0.934
10607SOL    HW232721   2.409   5.023   1.016
10608SOL     OW32722   5.212   4.399   2.712
10608SOL    HW132723   5.234   4.389   2.810
10608SOL    HW232724   5.224   4.310   2.667
10609SOL     OW32725   5.736   6.868   6.180
10609SOL    HW132726   5.806   6.927   6.220
10609SOL    HW232727   5.779   6.802   6.119
10610SOL     OW32728   0.593   1.872   3.098
10610SOL    HW132729   0.506   1.921   3.087
10610SOL    HW232730   0.617   1.869   3.195
10611SOL     OW32731   4.306   5.350   5.990
10611SOL    HW132732   4.211   5.374   6.011
10611SOL    HW232733   4.338   5.281   6.054
10612SOL     OW32734   5.436   2.627   3.320
10612SOL    HW132735   5.413   2.555   3.255
10612SOL    HW232736   5.444   2.714   3.271
10613SOL     OW32737   5.699   5.242   5.455
10613SOL    HW132738   5.768   5.190   5.405
10613SOL    HW232739   5.656   5.184   5.524
10614SOL     OW32740   4.136   2.354   6.702
10614SOL    HW132741   4.217   2.343   6.644
10614SOL    HW232742   4.097   2.446   6.689
10615SOL     OW32743   3.026   1.966   5.445
10615SOL    HW132744   3.008   2.056   5.404
10615SOL    HW232745   2.957   1.901   5.413
10616SOL     OW32746   1.388   5.421   0.085
10616SOL    HW132747   1.432   5.411   7.022
10616SOL    HW232748   1.289   5.412   0.074
10617SOL     OW32749   2.427   3.163   0.270
10617SOL    HW132750   2.423   3.166   0.370
10617SOL    HW232751   2.364   3.231   0.233
10618SOL     OW32752   0.146   4.822   4.208
10618SOL    HW132753   0.228   4.870   4.178
10618SOL    HW232754   0.071   4.841   4.144
10619SOL     OW32755   1.139   2.627   0.850
10619SOL    HW132756   1.105   2.584   0.765
10619SOL    HW232757   1.227   2.585   0.875
10620SOL     OW32758   4.024   1.020   5.776
10620SOL    HW132759   4.011   0.963   5.857
10620SOL    HW232760   3.979   0.977   5.698
10621SOL     OW32761   0.792   4.921   4.845
10621SOL    HW132762   0.706   4.881   4.875
10621SOL    HW232763   0.823   4.989   4.911
10622SOL     OW32764   3.802   2.032   6.156
10622SOL    HW132765   3.846   2.082   6.230
10622SOL    HW232766   3.710   2.070   6.141
10623SOL     OW32767   5.451   4.748   5.416
10623SOL    HW132768   5.353   4.748   5.438
10623SOL    HW232769   5.462   4.736   5.317
10624SOL     OW32770   0.001   1.541   5.744
10624SOL    HW132771   7.003   1.609   5.814
10624SOL    HW232772   0.101   1.537   5.735
10625SOL     OW32773   5.590   5.840   6.669
10625SOL    HW132774   5.662   5.774   6.648
10625SOL    HW232775   5.506   5.791   6.693
10626SOL     OW32776   5.431   3.880   2.244
10626SOL    HW132777   5.357   3.836   2.296
10626SOL    HW232778   5.515   3.879   2.299
10627SOL     OW32779   5.606   4.972   5.488
10627SOL    HW132780   5.687   4.988   5.432
10627SOL    HW232781   5.550   4.900   5.446
10628SOL     OW32782   3.052   5.649   1.605
10628SOL    HW132783   2.972   5.654   1.665
10628SOL    HW232784   3.024   5.617   1.515
10629SOL     OW32785   4.248   6.044   4.296
10629SOL    HW132786   4.280   6.077   4.385
10629SOL    HW232787   4.279   5.950   4.283
10630SOL     OW32788   4.004   0.743   1.082
10630SOL    HW132789   4.021   0.840   1.100
10630SOL    HW232790   3.917   0.717   1.123
10631SOL     OW32791   3.877   6.586   2.117
10631SOL    HW132792   3.822   6.529   2.056
10631SOL    HW232793   3.818   6.629   2.185
10632SOL     OW32794   5.625   0.407   4.737
10632SOL    HW132795   5.699   0.426   4.801
10632SOL    HW232796   5.659   0.411   4.643
10633SOL     OW32797   2.801   3.321   0.048
10633SOL    HW132798   2.752   3.396   0.005
10633SOL    HW232799   2.821   3.251   7.004
10634SOL     OW32800   0.655   4.105   0.019
10634SOL    HW132801   0.575   4.163   0.031
10634SOL    HW232802   0.738   4.160   0.029
10635SOL     OW32803   2.919   4.433   6.902
10635SOL    HW132804   2.973   4.509   6.940
10635SOL    HW232805   2.868   4.389   6.975
10636SOL     OW32806   6.743   2.675   0.859
10636SOL    HW132807   6.667   2.733   0.889
10636SOL    HW232808   6.735   2.656   0.761
10637SOL     OW32809   1.612   0.483   5.576
10637SOL    HW132810   1.640   0.389   5.559
10637SOL    HW232811   1.682   0.545   5.539
10638SOL     OW32812   5.911   5.019   6.830
10638SOL    HW132813   5.960   5.010   6.917
10638SOL    HW232814   5.891   5.115   6.812
10639SOL     OW32815   6.571   5.623   6.836
10639SOL    HW132816   6.570   5.603   6.934
10639SOL    HW232817   6.479   5.651   6.807
10640SOL     OW32818   3.957   5.827   4.573
10640SOL    HW132819   4.013   5.765   4.518
10640SOL    HW232820   4.000   5.840   4.662
10641SOL     OW32821   0.907   1.547   3.987
10641SOL    HW132822   0.817   1.574   3.954
10641SOL    HW232823   0.918   1.576   4.082
10642SOL     OW32824   0.462   1.980   6.499
10642SOL    HW132825   0.471   1.987   6.598
10642SOL    HW232826   0.474   1.885   6.470
10643SOL     OW32827   2.977   5.097   4.791
10643SOL    HW132828   2.907   5.162   4.760
10643SOL    HW232829   2.958   5.007   4.752
10644SOL     OW32830   1.276   3.394   3.447
10644SOL    HW132831   1.176   3.399   3.443
10644SOL    HW232832   1.308   3.432   3.534
10645SOL     OW32833   1.911   3.503   3.689
10645SOL    HW132834   1.830   3.469   3.642
10645SOL    HW232835   1.983   3.522   3.622
10646SOL     OW32836   4.877   1.521   3.383
10646SOL    HW132837   4.885   1.617   3.408
10646SOL    HW232838   4.947   1.468   3.431
10647SOL     OW32839   4.191   5.548   4.735
10647SOL    HW132840   4.183   5.458   4.692
10647SOL    HW232841   4.251   5.541   4.815
10648SOL     OW32842   4.832   3.513   5.870
10648SOL    HW132843   4.772   3.443   5.907
10648SOL    HW232844   4.792   3.604   5.886
10649SOL     OW32845   5.998   3.219   3.525
10649SOL    HW132846   6.072   3.286   3.520
10649SOL    HW232847   6.036   3.128   3.537
10650SOL     OW32848   0.842   0.417   3.191
10650SOL    HW132849   0.812   0.392   3.098
10650SOL    HW232850   0.924   0.365   3.214
10651SOL     OW32851   2.255   5.840   5.338
10651SOL    HW132852   2.201   5.891   5.272
10651SOL    HW232853   2.230   5.867   5.430
10652SOL     OW32854   2.927   0.665   0.149
10652SOL    HW132855   2.849   0.686   0.209
10652SOL    HW232856   2.938   0.739   0.082
10653SOL     OW32857   5.695   6.299   4.382
10653SOL    HW132858   5.751   6.382   4.393
10653SOL    HW232859   5.734   6.225   4.436
10654SOL     OW32860   6.751   1.470   4.199
10654SOL    HW132861   6.727   1.474   4.296
10654SOL    HW232862   6.810   1.391   4.182
10655SOL     OW32863   6.077   5.608   0.682
10655SOL    HW132864   6.128   5.549   0.619
10655SOL    HW232865   6.028   5.551   0.747
10656SOL     OW32866   6.104   0.716   6.284
10656SOL    HW132867   6.177   0.784   6.286
10656SOL    HW232868   6.016   0.760   6.301
10657SOL     OW32869   4.401   6.686   5.787
10657SOL    HW132870   4.452   6.629   5.723
10657SOL    HW232871   4.442   6.777   5.792
10658SOL     OW32872   1.272   1.241   5.577
10658SOL    HW132873   1.316   1.230   5.488
10658SOL    HW232874   1.200   1.310   5.571
10659SOL     OW32875   0.656   5.615   6.761
10659SOL    HW132876   0.713   5.657   6.691
10659SOL    HW232877   0.578   5.674   6.780
10660SOL     OW32878   6.361   2.710   6.545
10660SOL    HW132879   6.270   2.674   6.566
10660SOL    HW232880   6.428   2.637   6.549
10661SOL     OW32881   3.557   5.707   5.426
10661SOL    HW132882   3.473   5.761   5.430
10661SOL    HW232883   3.629   5.753   5.478
10662SOL     OW32884   2.949   1.788   0.942
10662SOL    HW132885   2.995   1.788   1.030
10662SOL    HW232886   2.956   1.697   0.901
10663SOL     OW32887   6.503   3.000   4.025
10663SOL    HW132888   6.502   3.098   4.004
10663SOL    HW232889   6.459   2.950   3.951
10664SOL     OW32890   1.210   6.295   5.019
10664SOL    HW132891   1.193   6.284   5.117
10664SOL    HW232892   1.307   6.282   5.000
10665SOL     OW32893   3.640   3.348   0.685
10665SOL    HW132894   3.570   3.315   0.747
10665SOL    HW232895   3.717   3.284   0.684
10666SOL     OW32896   4.605   3.478   1.330
10666SOL    HW132897   4.696   3.446   1.360
10666SOL    HW232898   4.535   3.434   1.386
10667SOL     OW32899   5.664   2.615   4.194
10667SOL    HW132900   5.641   2.657   4.106
10667SOL    HW232901   5.661   2.685   4.266
10668SOL     OW32902   3.479   3.531   6.214
10668SOL    HW132903   3.419   3.472   6.160
10668SOL    HW232904   3.425   3.582   6.281
10669SOL     OW32905   6.611   3.264   1.875
10669SOL    HW132906   6.528   3.277   1.821
10669SOL    HW232907   6.620   3.339   1.940
10670SOL     OW32908   4.431   4.747   4.266
10670SOL    HW132909   4.427   4.755   4.365
10670SOL    HW232910   4.338   4.751   4.228
10671SOL     OW32911   1.945   3.060   4.985
10671SOL    HW132912   1.949   3.066   4.885
10671SOL    HW232913   1.993   3.138   5.025
10672SOL     OW32914   6.169   4.676   1.475
10672SOL    HW132915   6.113   4.659   1.556
10672SOL    HW232916   6.164   4.773   1.451
10673SOL     OW32917   3.231   1.477   1.812
10673SOL    HW132918   3.167   1.519   1.747
10673SOL    HW232919   3.289   1.412   1.763
10674SOL     OW32920   3.720   3.201   4.668
10674SOL    HW132921   3.693   3.104   4.664
10674SOL    HW232922   3.815   3.210   4.638
10675SOL     OW32923   3.603   6.260   5.789
10675SOL    HW132924   3.640   6.299   5.704
10675SOL    HW232925   3.601   6.330   5.860
10676SOL     OW32926   1.401   1.344   4.898
10676SOL    HW132927   1.321   1.397   4.869
10676SOL    HW232928   1.475   1.356   4.832
10677SOL     OW32929   7.008   1.691   6.790
10677SOL    HW132930   7.016   1.674   6.889
10677SOL    HW232931   0.068   1.666   6.746
10678SOL     OW32932   3.523   4.994   2.382
10678SOL    HW132933   3.466   4.952   2.453
10678SOL    HW232934   3.606   4.940   2.371
10679SOL     OW32935   5.138   3.919   0.212
10679SOL    HW132936   5.206   3.984   0.178
10679SOL    HW232937   5.047   3.948   0.184
10680SOL     OW32938   4.863   1.093   5.199
10680SOL    HW132939   4.828   1.116   5.109
10680SOL    HW232940   4.958   1.121   5.207
10681SOL     OW32941   2.662   3.441   5.340
10681SOL    HW132942   2.672   3.523   5.397
10681SOL    HW232943   2.590   3.383   5.377
10682SOL     OW32944   5.061   3.391   5.982
10682SOL    HW132945   4.987   3.452   5.953
10682SOL    HW232946   5.115   3.365   5.902
10683SOL     OW32947   1.652   0.720   3.228
10683SOL    HW132948   1.606   0.660   3.163
10683SOL    HW232949   1.728   0.767   3.182
10684SOL     OW32950   4.653   4.179   1.460
10684SOL    HW132951   4.580   4.240   1.427
10684SOL    HW232952   4.735   4.193   1.405
10685SOL     OW32953   0.850   0.344   2.926
10685SOL    HW132954   0.812   0.252   2.939
10685SOL    HW232955   0.886   0.352   2.833
10686SOL     OW32956   3.027   1.103   6.407
10686SOL    HW132957   3.105   1.119   6.347
10686SOL    HW232958   3.049   1.135   6.499
10687SOL     OW32959   0.621   2.817   3.308
10687SOL    HW132960   0.562   2.747   3.267
10687SOL    HW232961   0.596   2.907   3.272
10688SOL     OW32962   5.250   1.101   3.793
10688SOL    HW132963   5.295   1.013   3.776
10688SOL    HW232964   5.291   1.171   3.735
10689SOL     OW32965   1.540   1.512   2.745
10689SOL    HW132966   1.511   1.563   2.665
10689SOL    HW232967   1.461   1.492   2.803
10690SOL     OW32968   0.714   6.740   4.384
10690SOL    HW132969   0.738   6.832   4.353
10690SOL    HW232970   0.699   6.742   4.483
10691SOL     OW32971   3.486   6.633   0.998
10691SOL    HW132972   3.490   6.722   0.953
10691SOL    HW232973   3.576   6.610   1.036
10692SOL     OW32974   2.733   2.401   4.428
10692SOL    HW132975   2.748   2.499   4.440
10692SOL    HW232976   2.765   2.373   4.338
10693SOL     OW32977   1.121   4.377   0.555
10693SOL    HW132978   1.064   4.298   0.532
10693SOL    HW232979   1.180   4.399   0.478
10694SOL     OW32980   5.522   1.516   5.193
10694SOL    HW132981   5.492   1.570   5.114
10694SOL    HW232982   5.452   1.519   5.264
10695SOL     OW32983   5.052   4.705   0.972
10695SOL    HW132984   5.093   4.674   0.886
10695SOL    HW232985   5.089   4.651   1.048
10696SOL     OW32986   6.569   4.328   4.683
10696SOL    HW132987   6.519   4.257   4.633
10696SOL    HW232988   6.624   4.381   4.618
10697SOL     OW32989   2.601   5.025   4.358
10697SOL    HW132990   2.546   5.018   4.275
10697SOL    HW232991   2.658   4.943   4.368
10698SOL     OW32992   3.977   4.425   6.795
10698SOL    HW132993   4.056   4.478   6.763
10698SOL    HW232994   4.000   4.327   6.792
10699SOL     OW32995   3.754   3.565   1.203
10699SOL    HW132996   3.731   3.630   1.275
10699SOL    HW232997   3.851   3.572   1.180
10700SOL     OW32998   4.834   0.389   1.445
10700SOL    HW132999   4.870   0.322   1.381
10700SOL    HW233000   4.738   0.407   1.423
10701SOL     OW33001   3.151   6.144   6.344
10701SOL    HW133002   3.119   6.064   6.293
10701SOL    HW233003   3.231   6.119   6.398
10702SOL     OW33004   5.368   2.817   2.483
10702SOL    HW133005   5.425   2.857   2.412
10702SOL    HW233006   5.337   2.889   2.545
10703SOL     OW33007   0.535   1.684   5.674
10703SOL    HW133008   0.460   1.619   5.685
10703SOL    HW233009   0.500   1.769   5.634
10704SOL     OW33010   5.490   0.146   1.945
10704SOL    HW133011   5.519   0.146   2.040
10704SOL    HW233012   5.568   0.128   1.886
10705SOL     OW33013   4.998   3.228   0.939
10705SOL    HW133014   5.031   3.322   0.930
10705SOL    HW233015   5.076   3.166   0.945
10706SOL     OW33016   3.200   1.032   1.823
10706SOL    HW133017   3.146   0.949   1.838
10706SOL    HW233018   3.174   1.102   1.889
10707SOL     OW33019   4.380   6.759   3.364
10707SOL    HW133020   4.403   6.670   3.403
10707SOL    HW233021   4.324   6.811   3.430
10708SOL     OW33022   4.446   1.128   1.234
10708SOL    HW133023   4.388   1.197   1.277
10708SOL    HW233024   4.468   1.056   1.301
10709SOL     OW33025   5.801   4.762   2.463
10709SOL    HW133026   5.794   4.678   2.410
10709SOL    HW233027   5.874   4.753   2.531
10710SOL     OW33028   4.302   1.696   3.208
10710SOL    HW133029   4.260   1.686   3.118
10710SOL    HW233030   4.399   1.719   3.197
10711SOL     OW33031   2.761   6.596   3.017
10711SOL    HW133032   2.792   6.658   2.945
10711SOL    HW233033   2.715   6.517   2.976
10712SOL     OW33034   5.356   0.722   3.533
10712SOL    HW133035   5.424   0.648   3.537
10712SOL    HW233036   5.384   0.790   3.465
10713SOL     OW33037   1.237   3.515   1.734
10713SOL    HW133038   1.141   3.545   1.737
10713SOL    HW233039   1.290   3.570   1.798
10714SOL     OW33040   3.183   4.167   5.241
10714SOL    HW133041   3.095   4.120   5.231
10714SOL    HW233042   3.166   4.264   5.261
10715SOL     OW33043   6.033   0.779   1.902
10715SOL    HW133044   6.053   0.843   1.976
10715SOL    HW233045   5.947   0.804   1.858
10716SOL     OW33046   4.932   1.154   3.513
10716SOL    HW133047   4.965   1.072   3.466
10716SOL    HW233048   4.899   1.220   3.445
10717SOL     OW33049   3.201   2.416   0.158
10717SOL    HW133050   3.258   2.365   0.222
10717SOL    HW233051   3.259   2.478   0.105
10718SOL     OW33052   2.034   5.159   6.546
10718SOL    HW133053   2.094   5.126   6.473
10718SOL    HW233054   1.947   5.188   6.507
10719SOL     OW33055   0.509   5.497   4.916
10719SOL    HW133056   0.529   5.546   5.002
10719SOL    HW233057   0.501   5.563   4.842
10720SOL     OW33058   0.114   5.152   2.969
10720SOL    HW133059   0.017   5.169   2.982
10720SOL    HW233060   0.154   5.226   2.914
10721SOL     OW33061   4.970   2.313   6.048
10721SOL    HW133062   4.896   2.247   6.037
10721SOL    HW233063   5.023   2.290   6.130
10722SOL     OW33064   0.307   3.569   5.033
10722SOL    HW133065   0.404   3.549   5.046
10722SOL    HW233066   0.273   3.618   5.113
10723SOL     OW33067   5.091   6.781   0.471
10723SOL    HW133068   5.141   6.866   0.481
10723SOL    HW233069   5.150   6.704   0.495
10724SOL     OW33070   0.583   6.017   6.303
10724SOL    HW133071   0.553   5.987   6.213
10724SOL    HW233072   0.567   6.116   6.312
10725SOL     OW33073   2.234   6.390   6.244
10725SOL    HW133074   2.206   6.430   6.156
10725SOL    HW233075   2.303   6.319   6.227
10726SOL     OW33076   4.040   0.713   4.280
10726SOL    HW133077   4.113   0.778   4.296
10726SOL    HW233078   4.050   0.673   4.188
10727SOL     OW33079   2.059   6.516   6.441
10727SOL    HW133080   2.012   6.557   6.363
10727SOL    HW233081   2.120   6.444   6.409
10728SOL     OW33082   5.168   5.597   1.351
10728SOL    HW133083   5.194   5.616   1.446
10728SOL    HW233084   5.177   5.499   1.333
10729SOL     OW33085   6.263   2.254   0.982
10729SOL    HW133086   6.349   2.239   0.933
10729SOL    HW233087   6.280   2.305   1.065
10730SOL     OW33088   4.524   0.381   3.188
10730SOL    HW133089   4.571   0.403   3.102
10730SOL    HW233090   4.552   0.445   3.259
10731SOL     OW33091   3.855   0.336   1.109
10731SOL    HW133092   3.949   0.340   1.141
10731SOL    HW233093   3.849   0.277   1.029
10732SOL     OW33094   0.814   3.407   6.124
10732SOL    HW133095   0.747   3.344   6.086
10732SOL    HW233096   0.871   3.445   6.050
10733SOL     OW33097   5.458   1.126   0.319
10733SOL    HW133098   5.466   1.059   0.245
10733SOL    HW233099   5.547   1.134   0.365
10734SOL     OW33100   6.589   2.991   1.878
10734SOL    HW133101   6.685   2.974   1.903
10734SOL    HW233102   6.570   3.089   1.885
10735SOL     OW33103   0.354   5.471   3.111
10735SOL    HW133104   0.406   5.395   3.072
10735SOL    HW233105   0.369   5.554   3.057
10736SOL     OW33106   2.218   1.462   4.677
10736SOL    HW133107   2.254   1.408   4.601
10736SOL    HW233108   2.126   1.430   4.700
10737SOL     OW33109   6.588   1.878   0.202
10737SOL    HW133110   6.659   1.947   0.220
10737SOL    HW233111   6.500   1.912   0.234
10738SOL     OW33112   3.778   0.287   3.575
10738SOL    HW133113   3.774   0.283   3.674
10738SOL    HW233114   3.874   0.299   3.546
10739SOL     OW33115   2.682   1.894   2.038
10739SOL    HW133116   2.743   1.912   1.961
10739SOL    HW233117   2.637   1.806   2.024
10740SOL     OW33118   4.882   6.254   3.327
10740SOL    HW133119   4.829   6.213   3.254
10740SOL    HW233120   4.883   6.353   3.316
10741SOL     OW33121   2.600   0.769   2.872
10741SOL    HW133122   2.689   0.806   2.902
10741SOL    HW233123   2.531   0.791   2.940
10742SOL     OW33124   6.529   5.676   0.709
10742SOL    HW133125   6.544   5.734   0.629
10742SOL    HW233126   6.543   5.731   0.792
10743SOL     OW33127   2.691   2.030   5.238
10743SOL    HW133128   2.740   1.949   5.204
10743SOL    HW233129   2.651   2.079   5.161
10744SOL     OW33130   5.904   1.793   0.224
10744SOL    HW133131   5.945   1.703   0.235
10744SOL    HW233132   5.834   1.790   0.153
10745SOL     OW33133   0.520   5.758   6.340
10745SOL    HW133134   0.566   5.846   6.350
10745SOL    HW233135   0.458   5.744   6.417
10746SOL     OW33136   2.051   4.688   5.978
10746SOL    HW133137   1.974   4.750   5.991
10746SOL    HW233138   2.043   4.641   5.891
10747SOL     OW33139   3.464   2.103   4.559
10747SOL    HW133140   3.402   2.180   4.576
10747SOL    HW233141   3.498   2.069   4.647
10748SOL     OW33142   5.423   1.353   2.339
10748SOL    HW133143   5.329   1.354   2.371
10748SOL    HW233144   5.451   1.445   2.312
10749SOL     OW33145   3.103   6.694   0.186
10749SOL    HW133146   3.102   6.779   0.239
10749SOL    HW233147   3.140   6.712   0.094
10750SOL     OW33148   4.086   6.506   5.968
10750SOL    HW133149   4.151   6.553   6.026
10750SOL    HW233150   4.071   6.413   6.002
10751SOL     OW33151   2.334   5.456   3.671
10751SOL    HW133152   2.415   5.500   3.709
10751SOL    HW233153   2.360   5.366   3.635
10752SOL     OW33154   4.925   5.064   4.062
10752SOL    HW133155   4.828   5.055   4.084
10752SOL    HW233156   4.951   4.995   3.995
10753SOL     OW33157   6.343   4.156   4.586
10753SOL    HW133158   6.295   4.222   4.643
10753SOL    HW233159   6.278   4.090   4.548
10754SOL     OW33160   1.312   0.110   2.356
10754SOL    HW133161   1.400   0.113   2.404
10754SOL    HW233162   1.320   0.052   2.275
10755SOL     OW33163   6.141   5.727   1.512
10755SOL    HW133164   6.133   5.791   1.589
10755SOL    HW233165   6.236   5.700   1.501
10756SOL     OW33166   0.467   0.208   5.061
10756SOL    HW133167   0.368   0.219   5.059
10756SOL    HW233168   0.490   0.113   5.080
10757SOL     OW33169   2.805   2.861   1.101
10757SOL    HW133170   2.848   2.772   1.091
10757SOL    HW233171   2.816   2.914   1.017
10758SOL     OW33172   0.106   5.406   4.245
10758SOL    HW133173   0.055   5.327   4.281
10758SOL    HW233174   0.064   5.436   4.159
10759SOL     OW33175   6.791   1.294   6.741
10759SOL    HW133176   6.844   1.302   6.825
10759SOL    HW233177   6.834   1.349   6.669
10760SOL     OW33178   5.974   1.757   4.646
10760SOL    HW133179   5.926   1.686   4.595
10760SOL    HW233180   6.036   1.714   4.712
10761SOL     OW33181   2.769   5.048   5.628
10761SOL    HW133182   2.673   5.021   5.622
10761SOL    HW233183   2.795   5.060   5.723
10762SOL     OW33184   3.134   1.621   5.599
10762SOL    HW133185   3.131   1.534   5.648
10762SOL    HW233186   3.132   1.696   5.664
10763SOL     OW33187   4.531   6.503   4.066
10763SOL    HW133188   4.584   6.419   4.052
10763SOL    HW233189   4.476   6.494   4.149
10764SOL     OW33190   4.363   6.955   4.967
10764SOL    HW133191   4.427   6.878   4.968
10764SOL    HW233192   4.270   6.921   4.985
10765SOL     OW33193   6.432   3.865   6.982
10765SOL    HW133194   6.514   3.871   0.012
10765SOL    HW233195   6.454   3.883   6.887
10766SOL     OW33196   3.430   3.469   1.593
10766SOL    HW133197   3.514   3.476   1.539
10766SOL    HW233198   3.371   3.399   1.553
10767SOL     OW33199   4.530   1.649   2.292
10767SOL    HW133200   4.462   1.599   2.238
10767SOL    HW233201   4.591   1.699   2.230
10768SOL     OW33202   6.185   4.746   6.545
10768SOL    HW133203   6.247   4.668   6.544
10768SOL    HW233204   6.112   4.732   6.478
10769SOL     OW33205   1.756   3.449   5.072
10769SOL    HW133206   1.667   3.434   5.116
10769SOL    HW233207   1.745   3.510   4.994
10770SOL     OW33208   4.389   6.173   3.893
10770SOL    HW133209   4.441   6.093   3.923
10770SOL    HW233210   4.444   6.227   3.829
10771SOL     OW33211   2.350   1.310   4.159
10771SOL    HW133212   2.344   1.270   4.068
10771SOL    HW233213   2.259   1.336   4.190
10772SOL     OW33214   5.254   5.679   3.741
10772SOL    HW133215   5.252   5.595   3.795
10772SOL    HW233216   5.305   5.749   3.791
10773SOL     OW33217   5.845   4.505   2.803
10773SOL    HW133218   5.889   4.461   2.881
10773SOL    HW233219   5.750   4.473   2.796
10774SOL     OW33220   0.023   6.887   3.128
10774SOL    HW133221   0.116   6.887   3.164
10774SOL    HW233222   6.997   6.811   3.169
10775SOL     OW33223   0.197   3.412   1.067
10775SOL    HW133224   0.245   3.343   1.014
10775SOL    HW233225   0.261   3.456   1.131
10776SOL     OW33226   1.229   0.566   5.889
10776SOL    HW133227   1.130   0.552   5.890
10776SOL    HW233228   1.264   0.548   5.797
10777SOL     OW33229   2.482   5.590   1.384
10777SOL    HW133230   2.550   5.619   1.452
10777SOL    HW233231   2.454   5.496   1.402
10778SOL     OW33232   5.782   5.920   2.150
10778SOL    HW133233   5.761   5.985   2.223
10778SOL    HW233234   5.704   5.859   2.137
10779SOL     OW33235   4.987   3.274   3.592
10779SOL    HW133236   5.058   3.251   3.659
10779SOL    HW233237   5.014   3.240   3.502
10780SOL     OW33238   6.910   0.429   2.198
10780SOL    HW133239   6.986   0.494   2.208
10780SOL    HW233240   6.826   0.479   2.178
10781SOL     OW33241   3.407   0.114   4.353
10781SOL    HW133242   3.413   0.193   4.292
10781SOL    HW233243   3.313   0.079   4.354
10782SOL     OW33244   6.070   5.165   3.635
10782SOL    HW133245   6.008   5.109   3.690
10782SOL    HW233246   6.123   5.225   3.696
10783SOL     OW33247   6.806   2.208   3.197
10783SOL    HW133248   6.791   2.213   3.296
10783SOL    HW233249   6.719   2.192   3.150
10784SOL     OW33250   2.451   1.766   4.922
10784SOL    HW133251   2.434   1.779   4.824
10784SOL    HW233252   2.517   1.693   4.936
10785SOL     OW33253   0.987   3.456   5.917
10785SOL    HW133254   1.054   3.462   5.843
10785SOL    HW233255   1.033   3.430   6.002
10786SOL     OW33256   6.937   4.194   3.964
10786SOL    HW133257   6.949   4.273   4.024
10786SOL    HW233258   6.900   4.118   4.018
10787SOL     OW33259   2.607   2.041   6.606
10787SOL    HW133260   2.614   2.044   6.506
10787SOL    HW233261   2.573   2.129   6.639
10788SOL     OW33262   5.921   3.629   6.253
10788SOL    HW133263   5.836   3.681   6.247
10788SOL    HW233264   5.915   3.548   6.194
10789SOL     OW33265   5.216   1.269   0.452
10789SOL    HW133266   5.249   1.363   0.463
10789SOL    HW233267   5.286   1.215   0.405
10790SOL     OW33268   5.923   6.095   2.928
10790SOL    HW133269   5.999   6.119   2.867
10790SOL    HW233270   5.864   6.028   2.883
10791SOL     OW33271   0.767   6.401   2.698
10791SOL    HW133272   0.736   6.375   2.607
10791SOL    HW233273   0.735   6.333   2.764
10792SOL     OW33274   3.778   4.363   6.027
10792SOL    HW133275   3.830   4.390   6.108
10792SOL    HW233276   3.789   4.431   5.955
10793SOL     OW33277   6.225   4.101   4.000
10793SOL    HW133278   6.200   4.061   3.912
10793SOL    HW233279   6.143   4.133   4.047
10794SOL     OW33280   3.473   3.895   4.337
10794SOL    HW133281   3.406   3.968   4.326
10794SOL    HW233282   3.565   3.934   4.346
10795SOL     OW33283   0.276   5.346   2.756
10795SOL    HW133284   0.288   5.445   2.746
10795SOL    HW233285   0.330   5.299   2.686
10796SOL     OW33286   1.112   6.178   5.711
10796SOL    HW133287   1.059   6.256   5.679
10796SOL    HW233288   1.092   6.160   5.808
10797SOL     OW33289   3.707   2.927   0.084
10797SOL    HW133290   3.764   2.857   0.126
10797SOL    HW233291   3.631   2.949   0.145
10798SOL     OW33292   6.124   1.528   0.880
10798SOL    HW133293   6.148   1.453   0.942
10798SOL    HW233294   6.097   1.490   0.792
10799SOL     OW33295   4.993   1.746   0.880
10799SOL    HW133296   5.075   1.733   0.823
10799SOL    HW233297   4.914   1.704   0.834
10800SOL     OW33298   6.495   6.839   1.334
10800SOL    HW133299   6.457   6.929   1.310
10800SOL    HW233300   6.443   6.799   1.409
10801SOL     OW33301   2.071   0.578   1.237
10801SOL    HW133302   2.013   0.517   1.182
10801SOL    HW233303   2.165   0.546   1.234
10802SOL     OW33304   5.685   1.459   3.848
10802SOL    HW133305   5.743   1.442   3.768
10802SOL    HW233306   5.701   1.552   3.881
10803SOL     OW33307   2.316   5.308   6.055
10803SOL    HW133308   2.347   5.327   5.962
10803SOL    HW233309   2.335   5.213   6.078
10804SOL     OW33310   0.087   3.610   4.210
10804SOL    HW133311   0.150   3.628   4.286
10804SOL    HW233312   0.078   3.512   4.196
10805SOL     OW33313   6.354   0.248   6.376
10805SOL    HW133314   6.331   0.327   6.319
10805SOL    HW233315   6.432   0.200   6.335
10806SOL     OW33316   1.597   5.296   0.222
10806SOL    HW133317   1.532   5.330   0.154
10806SOL    HW233318   1.553   5.295   0.312
10807SOL     OW33319   3.727   5.728   4.441
10807SOL    HW133320   3.781   5.781   4.506
10807SOL    HW233321   3.727   5.774   4.352
10808SOL     OW33322   1.166   3.368   6.124
10808SOL    HW133323   1.131   3.342   6.213
10808SOL    HW233324   1.237   3.438   6.135
10809SOL     OW33325   1.443   0.164   4.511
10809SOL    HW133326   1.361   0.111   4.488
10809SOL    HW233327   1.429   0.210   4.599
10810SOL     OW33328   6.293   0.831   4.209
10810SOL    HW133329   6.389   0.854   4.190
10810SOL    HW233330   6.286   0.790   4.300
10811SOL     OW33331   5.410   6.188   4.980
10811SOL    HW133332   5.417   6.206   4.882
10811SOL    HW233333   5.419   6.274   5.030
10812SOL     OW33334   0.462   2.912   0.588
10812SOL    HW133335   0.496   2.844   0.654
10812SOL    HW233336   0.370   2.887   0.558
10813SOL     OW33337   1.375   3.745   6.529
10813SOL    HW133338   1.292   3.698   6.500
10813SOL    HW233339   1.408   3.706   6.615
10814SOL     OW33340   3.014   1.734   1.201
10814SOL    HW133341   2.936   1.741   1.264
10814SOL    HW233342   3.044   1.638   1.197
10815SOL     OW33343   5.234   1.031   4.975
10815SOL    HW133344   5.213   1.033   4.877
10815SOL    HW233345   5.262   0.938   5.001
10816SOL     OW33346   3.298   2.917   4.899
10816SOL    HW133347   3.374   2.887   4.842
10816SOL    HW233348   3.261   3.003   4.863
10817SOL     OW33349   1.336   5.799   4.463
10817SOL    HW133350   1.274   5.831   4.534
10817SOL    HW233351   1.285   5.747   4.394
10818SOL     OW33352   4.100   4.060   6.979
10818SOL    HW133353   4.037   3.989   7.008
10818SOL    HW233354   4.131   4.112   0.032
10819SOL     OW33355   5.883   6.150   5.587
10819SOL    HW133356   5.957   6.209   5.554
10819SOL    HW233357   5.914   6.055   5.588
10820SOL     OW33358   2.538   4.684   6.129
10820SOL    HW133359   2.602   4.756   6.102
10820SOL    HW233360   2.465   4.677   6.061
10821SOL     OW33361   4.495   5.696   3.863
10821SOL    HW133362   4.436   5.704   3.943
10821SOL    HW233363   4.493   5.601   3.830
10822SOL     OW33364   5.834   0.878   2.131
10822SOL    HW133365   5.770   0.955   2.127
10822SOL    HW233366   5.790   0.802   2.179
10823SOL     OW33367   5.347   6.437   2.121
10823SOL    HW133368   5.434   6.389   2.111
10823SOL    HW233369   5.349   6.522   2.068
10824SOL     OW33370   0.741   3.274   2.994
10824SOL    HW133371   0.811   3.227   2.940
10824SOL    HW233372   0.762   3.372   2.998
10825SOL     OW33373   0.104   2.208   0.557
10825SOL    HW133374   0.185   2.227   0.611
10825SOL    HW233375   0.077   2.113   0.569
10826SOL     OW33376   6.321   3.265   2.313
10826SOL    HW133377   6.376   3.313   2.381
10826SOL    HW233378   6.264   3.197   2.359
10827SOL     OW33379   0.053   3.558   4.614
10827SOL    HW133380   0.002   3.478   4.586
10827SOL    HW233381   0.151   3.539   4.608
10828SOL     OW33382   0.055   4.410   5.272
10828SOL    HW133383   7.026   4.339   5.229
10828SOL    HW233384   0.149   4.404   5.239
10829SOL     OW33385   3.908   3.191   5.406
10829SOL    HW133386   3.910   3.107   5.461
10829SOL    HW233387   3.817   3.202   5.366
10830SOL     OW33388   5.434   2.143   3.114
10830SOL    HW133389   5.391   2.069   3.062
10830SOL    HW233390   5.471   2.106   3.199
10831SOL     OW33391   3.577   6.914   3.704
10831SOL    HW133392   3.620   6.979   3.767
10831SOL    HW233393   3.486   6.947   3.679
10832SOL     OW33394   6.659   2.685   6.831
10832SOL    HW133395   6.578   2.636   6.865
10832SOL    HW233396   6.669   2.669   6.733
10833SOL     OW33397   0.211   1.181   6.680
10833SOL    HW133398   0.249   1.116   6.746
10833SOL    HW233399   0.219   1.274   6.716
10834SOL     OW33400   6.124   6.332   1.752
10834SOL    HW133401   6.131   6.304   1.848
10834SOL    HW233402   6.029   6.331   1.724
10835SOL     OW33403   0.032   2.867   5.494
10835SOL    HW133404   0.046   2.768   5.486
10835SOL    HW233405   6.992   2.897   5.425
10836SOL     OW33406   0.300   1.558   3.430
10836SOL    HW133407   0.280   1.655   3.441
10836SOL    HW233408   0.390   1.547   3.388
10837SOL     OW33409   0.041   3.348   4.202
10837SOL    HW133410   0.084   3.278   4.260
10837SOL    HW233411   6.969   3.327   4.191
10838SOL     OW33412   0.774   6.204   2.469
10838SOL    HW133413   0.745   6.244   2.382
10838SOL    HW233414   0.701   6.147   2.506
10839SOL     OW33415   4.518   2.937   0.361
10839SOL    HW133416   4.534   3.033   0.337
10839SOL    HW233417   4.430   2.908   0.323
10840SOL     OW33418   2.770   0.575   2.131
10840SOL    HW133419   2.716   0.647   2.175
10840SOL    HW233420   2.859   0.567   2.177
10841SOL     OW33421   2.370   4.975   5.030
10841SOL    HW133422   2.384   4.906   4.958
10841SOL    HW233423   2.421   4.949   5.112
10842SOL     OW33424   6.428   4.366   1.737
10842SOL    HW133425   6.442   4.386   1.834
10842SOL    HW233426   6.335   4.332   1.723
10843SOL     OW33427   2.812   1.444   1.327
10843SOL    HW133428   2.755   1.504   1.384
10843SOL    HW233429   2.800   1.468   1.231
10844SOL     OW33430   2.127   5.928   4.922
10844SOL    HW133431   2.106   5.927   4.824
10844SOL    HW233432   2.192   6.002   4.940
10845SOL     OW33433   4.643   0.657   4.672
10845SOL    HW133434   4.626   0.714   4.752
10845SOL    HW233435   4.665   0.564   4.701
10846SOL     OW33436   5.845   0.182   6.066
10846SOL    HW133437   5.895   0.096   6.079
10846SOL    HW233438   5.799   0.207   6.151
10847SOL     OW33439   2.964   0.018   6.855
10847SOL    HW133440   2.934   0.098   6.802
10847SOL    HW233441   3.022   0.049   6.931
10848SOL     OW33442   1.920   3.595   1.814
10848SOL    HW133443   1.944   3.652   1.893
10848SOL    HW233444   1.839   3.541   1.835
10849SOL     OW33445   2.123   6.711   3.591
10849SOL    HW133446   2.093   6.633   3.537
10849SOL    HW233447   2.212   6.691   3.633
10850SOL     OW33448   4.577   4.740   0.801
10850SOL    HW133449   4.620   4.800   0.868
10850SOL    HW233450   4.645   4.677   0.764
10851SOL     OW33451   1.484   4.460   0.649
10851SOL    HW133452   1.495   4.480   0.747
10851SOL    HW233453   1.410   4.516   0.612
10852SOL     OW33454   2.761   1.612   2.239
10852SOL    HW133455   2.743   1.590   2.143
10852SOL    HW233456   2.676   1.642   2.282
10853SOL     OW33457   3.447   0.982   6.401
10853SOL    HW133458   3.406   1.033   6.325
10853SOL    HW233459   3.540   0.956   6.378
10854SOL     OW33460   3.054   6.073   5.644
10854SOL    HW133461   3.078   5.990   5.695
10854SOL    HW233462   3.108   6.150   5.679
10855SOL     OW33463   4.130   0.988   7.023
10855SOL    HW133464   4.137   0.891   0.020
10855SOL    HW233465   4.035   1.018   0.006
10856SOL     OW33466   0.657   1.187   0.577
10856SOL    HW133467   0.612   1.269   0.542
10856SOL    HW233468   0.748   1.212   0.612
10857SOL     OW33469   6.967   2.662   1.598
10857SOL    HW133470   6.878   2.617   1.603
10857SOL    HW233471   6.987   2.706   1.685
10858SOL     OW33472   2.267   6.221   2.177
10858SOL    HW133473   2.351   6.167   2.183
10858SOL    HW233474   2.260   6.261   2.085
10859SOL     OW33475   1.513   4.977   3.612
10859SOL    HW133476   1.612   4.979   3.630
10859SOL    HW233477   1.474   4.893   3.650
10860SOL     OW33478   0.303   3.673   3.237
10860SOL    HW133479   0.401   3.678   3.254
10860SOL    HW233480   0.256   3.643   3.320
10861SOL     OW33481   4.231   2.880   5.509
10861SOL    HW133482   4.233   2.978   5.527
10861SOL    HW233483   4.149   2.858   5.455
10862SOL     OW33484   0.989   0.724   5.022
10862SOL    HW133485   1.081   0.764   5.029
10862SOL    HW233486   0.921   0.794   5.040
10863SOL     OW33487   2.140   6.444   4.015
10863SOL    HW133488   2.084   6.459   4.096
10863SOL    HW233489   2.080   6.427   3.936
10864SOL     OW33490   3.455   6.722   2.997
10864SOL    HW133491   3.499   6.743   3.084
10864SOL    HW233492   3.370   6.672   3.013
10865SOL     OW33493   6.719   1.286   6.172
10865SOL    HW133494   6.677   1.201   6.202
10865SOL    HW233495   6.818   1.275   6.165
10866SOL     OW33496   5.787   4.859   6.648
10866SOL    HW133497   5.840   4.930   6.693
10866SOL    HW233498   5.841   4.820   6.573
10867SOL     OW33499   2.988   1.212   6.876
10867SOL    HW133500   2.888   1.207   6.873
10867SOL    HW233501   3.021   1.166   6.958
10868SOL     OW33502   1.867   2.192   2.992
10868SOL    HW133503   1.803   2.225   3.062
10868SOL    HW233504   1.828   2.210   2.901
10869NA      NA33505   6.408   2.300   5.592
10870NA      NA33506   4.371   4.675   5.172
10871NA      NA33507   2.153   3.524   1.758
10872NA      NA33508   4.870   3.750   5.221
10873NA      NA33509   4.198   2.459   5.378
10874NA      NA33510   3.681   4.796   1.716
10875NA      NA33511   6.900   6.068   4.699
10876NA      NA33512   3.709   3.517   5.039
10877NA      NA33513   4.867   6.584   6.125
10878NA      NA33514   2.620   0.526   5.208
10879NA      NA33515   0.703   5.096   2.560
10880NA      NA33516   2.220   0.486   2.411
10881NA      NA33517   3.553   4.349   1.217
10882NA      NA33518   3.832   3.244   2.844
   7.02573   7.02573   7.02573
