Generated by trjconv : CNT in water t= 312.00000
33518
    1C        C    1   2.839   2.763   4.745
    1C        C    2   2.891   2.713   4.867
    1C        C    3   2.838   2.766   4.985
    1C        C    4   2.846   2.766   4.255
    1C        C    5   2.895   2.721   4.379
    1C        C    6   2.841   2.767   4.501
    1C        C    7   3.013   2.643   4.625
    1C        C    8   2.893   2.717   4.623
    1C        C    9   3.079   2.606   4.744
    1C        C   10   3.006   2.632   4.862
    1C        C   11   3.181   2.492   4.977
    1C        C   12   3.059   2.562   4.971
    1C        C   13   2.847   2.769   3.769
    1C        C   14   2.898   2.717   3.890
    1C        C   15   2.850   2.770   4.011
    1C        C   16   3.017   2.640   4.136
    1C        C   17   2.900   2.719   4.133
    1C        C   18   3.078   2.611   4.260
    1C        C   19   3.014   2.644   4.381
    1C        C   20   3.206   2.555   4.503
    1C        C   21   3.075   2.607   4.503
    1C        C   22   3.278   2.529   4.622
    1C        C   23   3.208   2.546   4.744
    1C        C   24   3.410   2.479   4.863
    1C        C   25   3.268   2.499   4.864
    1C        C   26   3.486   2.481   4.981
    1C        C   27   2.850   2.767   3.281
    1C        C   28   2.901   2.718   3.403
    1C        C   29   2.848   2.768   3.524
    1C        C   30   3.015   2.638   3.649
    1C        C   31   2.902   2.724   3.647
    1C        C   32   3.074   2.599   3.771
    1C        C   33   3.012   2.634   3.894
    1C        C   34   3.207   2.545   4.013
    1C        C   35   3.077   2.599   4.014
    1C        C   36   3.274   2.529   4.137
    1C        C   37   3.208   2.556   4.259
    1C        C   38   3.413   2.510   4.380
    1C        C   39   3.273   2.529   4.381
    1C        C   40   3.486   2.503   4.501
    1C        C   41   3.415   2.497   4.623
    1C        C   42   3.629   2.475   4.743
    1C        C   43   3.487   2.476   4.743
    1C        C   44   3.703   2.483   4.863
    1C        C   45   3.625   2.481   4.979
    1C        C   46   2.835   2.754   2.792
    1C        C   47   2.895   2.713   2.913
    1C        C   48   2.848   2.766   3.035
    1C        C   49   3.014   2.636   3.159
    1C        C   50   2.901   2.720   3.157
    1C        C   51   3.073   2.597   3.281
    1C        C   52   3.011   2.630   3.404
    1C        C   53   3.205   2.546   3.525
    1C        C   54   3.074   2.598   3.527
    1C        C   55   3.272   2.521   3.647
    1C        C   56   3.203   2.541   3.769
    1C        C   57   3.414   2.510   3.892
    1C        C   58   3.274   2.529   3.890
    1C        C   59   3.486   2.499   4.013
    1C        C   60   3.413   2.505   4.134
    1C        C   61   3.623   2.499   4.253
    1C        C   62   3.482   2.498   4.257
    1C        C   63   3.694   2.508   4.375
    1C        C   64   3.627   2.499   4.500
    1C        C   65   3.833   2.537   4.623
    1C        C   66   3.698   2.495   4.621
    1C        C   67   3.903   2.559   4.744
    1C        C   68   3.839   2.517   4.863
    1C        C   69   4.051   2.579   4.977
    1C        C   70   3.922   2.524   4.976
    1C        C   71   2.818   2.729   2.309
    1C        C   72   2.879   2.689   2.430
    1C        C   73   2.827   2.740   2.550
    1C        C   74   3.006   2.624   2.671
    1C        C   75   2.887   2.700   2.672
    1C        C   76   3.071   2.596   2.793
    1C        C   77   3.010   2.631   2.915
    1C        C   78   3.204   2.544   3.034
    1C        C   79   3.072   2.594   3.037
    1C        C   80   3.272   2.528   3.157
    1C        C   81   3.206   2.549   3.280
    1C        C   82   3.411   2.498   3.398
    1C        C   83   3.273   2.525   3.402
    1C        C   84   3.481   2.493   3.521
    1C        C   85   3.411   2.498   3.644
    1C        C   86   3.622   2.501   3.767
    1C        C   87   3.481   2.499   3.767
    1C        C   88   3.695   2.508   3.888
    1C        C   89   3.627   2.504   4.011
    1C        C   90   3.834   2.548   4.136
    1C        C   91   3.697   2.513   4.134
    1C        C   92   3.901   2.567   4.259
    1C        C   93   3.831   2.541   4.379
    1C        C   94   4.024   2.629   4.499
    1C        C   95   3.900   2.561   4.501
    1C        C   96   4.086   2.671   4.619
    1C        C   97   4.028   2.627   4.739
    1C        C   98   4.187   2.763   4.860
    1C        C   99   4.093   2.655   4.862
    1C        C  100   4.212   2.838   4.976
    1C        C  101   2.814   2.725   2.068
    1C        C  102   2.984   2.591   2.188
    1C        C  103   2.874   2.682   2.187
    1C        C  104   3.060   2.572   2.307
    1C        C  105   2.999   2.613   2.428
    1C        C  106   3.199   2.537   2.549
    1C        C  107   3.066   2.585   2.549
    1C        C  108   3.268   2.517   2.670
    1C        C  109   3.202   2.542   2.792
    1C        C  110   3.410   2.494   2.913
    1C        C  111   3.270   2.515   2.913
    1C        C  112   3.483   2.493   3.035
    1C        C  113   3.410   2.498   3.156
    1C        C  114   3.624   2.502   3.278
    1C        C  115   3.483   2.491   3.277
    1C        C  116   3.692   2.510   3.401
    1C        C  117   3.621   2.504   3.524
    1C        C  118   3.828   2.551   3.643
    1C        C  119   3.693   2.511   3.646
    1C        C  120   3.893   2.576   3.766
    1C        C  121   3.832   2.546   3.890
    1C        C  122   4.022   2.638   4.011
    1C        C  123   3.898   2.569   4.012
    1C        C  124   4.087   2.669   4.133
    1C        C  125   4.027   2.631   4.255
    1C        C  126   4.192   2.761   4.375
    1C        C  127   4.086   2.668   4.378
    1C        C  128   4.240   2.815   4.496
    1C        C  129   4.189   2.767   4.619
    1C        C  130   4.322   2.934   4.737
    1C        C  131   4.241   2.817   4.740
    1C        C  132   4.350   3.004   4.856
    1C        C  133   4.280   2.959   4.969
    1C        C  134   3.171   2.471   2.075
    1C        C  135   3.036   2.509   2.083
    1C        C  136   3.256   2.476   2.187
    1C        C  137   3.191   2.516   2.305
    1C        C  138   3.402   2.485   2.425
    1C        C  139   3.264   2.515   2.425
    1C        C  140   3.475   2.489   2.546
    1C        C  141   3.408   2.496   2.670
    1C        C  142   3.621   2.491   2.788
    1C        C  143   3.480   2.485   2.791
    1C        C  144   3.694   2.502   2.908
    1C        C  145   3.624   2.495   3.031
    1C        C  146   3.829   2.540   3.153
    1C        C  147   3.692   2.507   3.154
    1C        C  148   3.897   2.563   3.275
    1C        C  149   3.829   2.540   3.397
    1C        C  150   4.023   2.628   3.520
    1C        C  151   3.893   2.572   3.519
    1C        C  152   4.085   2.665   3.642
    1C        C  153   4.022   2.633   3.764
    1C        C  154   4.191   2.760   3.887
    1C        C  155   4.078   2.674   3.887
    1C        C  156   4.246   2.805   4.009
    1C        C  157   4.198   2.757   4.133
    1C        C  158   4.339   2.917   4.252
    1C        C  159   4.247   2.809   4.254
    1C        C  160   4.376   2.979   4.373
    1C        C  161   4.329   2.926   4.495
    1C        C  162   4.436   3.112   4.613
    1C        C  163   4.367   2.989   4.615
    1C        C  164   4.460   3.186   4.731
    1C        C  165   4.428   3.122   4.853
    1C        C  166   4.512   3.319   4.972
    1C        C  167   4.472   3.185   4.970
    1C        C  168   3.473   2.436   2.072
    1C        C  169   3.396   2.459   2.186
    1C        C  170   3.616   2.463   2.302
    1C        C  171   3.474   2.464   2.304
    1C        C  172   3.688   2.487   2.422
    1C        C  173   3.616   2.495   2.543
    1C        C  174   3.823   2.542   2.662
    1C        C  175   3.689   2.499   2.664
    1C        C  176   3.891   2.567   2.784
    1C        C  177   3.831   2.536   2.908
    1C        C  178   4.026   2.618   3.032
    1C        C  179   3.897   2.559   3.031
    1C        C  180   4.086   2.661   3.153
    1C        C  181   4.023   2.626   3.275
    1C        C  182   4.198   2.745   3.396
    1C        C  183   4.084   2.661   3.398
    1C        C  184   4.248   2.797   3.518
    1C        C  185   4.198   2.749   3.641
    1C        C  186   4.334   2.912   3.763
    1C        C  187   4.241   2.805   3.763
    1C        C  188   4.374   2.973   3.884
    1C        C  189   4.334   2.915   4.007
    1C        C  190   4.443   3.099   4.128
    1C        C  191   4.379   2.973   4.128
    1C        C  192   4.466   3.169   4.248
    1C        C  193   4.443   3.103   4.371
    1C        C  194   4.506   3.311   4.488
    1C        C  195   4.466   3.175   4.490
    1C        C  196   4.520   3.385   4.607
    1C        C  197   4.509   3.320   4.732
    1C        C  198   4.551   3.532   4.848
    1C        C  199   4.531   3.391   4.853
    1C        C  200   4.577   3.618   4.959
    1C        C  201   3.612   2.422   2.069
    1C        C  202   3.823   2.513   2.179
    1C        C  203   3.692   2.455   2.183
    1C        C  204   3.896   2.539   2.299
    1C        C  205   3.825   2.518   2.419
    1C        C  206   4.023   2.605   2.542
    1C        C  207   3.894   2.547   2.540
    1C        C  208   4.086   2.645   2.662
    1C        C  209   4.020   2.624   2.785
    1C        C  210   4.193   2.742   2.905
    1C        C  211   4.080   2.658   2.908
    1C        C  212   4.249   2.790   3.026
    1C        C  213   4.200   2.744   3.150
    1C        C  214   4.336   2.903   3.271
    1C        C  215   4.248   2.793   3.273
    1C        C  216   4.371   2.962   3.394
    1C        C  217   4.335   2.908   3.520
    1C        C  218   4.434   3.098   3.637
    1C        C  219   4.374   2.970   3.641
    1C        C  220   4.459   3.164   3.759
    1C        C  221   4.438   3.098   3.882
    1C        C  222   4.500   3.301   4.000
    1C        C  223   4.468   3.163   4.004
    1C        C  224   4.508   3.374   4.120
    1C        C  225   4.496   3.307   4.244
    1C        C  226   4.518   3.521   4.363
    1C        C  227   4.505   3.380   4.365
    1C        C  228   4.513   3.594   4.484
    1C        C  229   4.521   3.526   4.607
    1C        C  230   4.504   3.742   4.723
    1C        C  231   4.535   3.603   4.725
    1C        C  232   4.496   3.814   4.844
    1C        C  233   4.546   3.755   4.961
    1C        C  234   4.013   2.608   2.062
    1C        C  235   3.893   2.538   2.060
    1C        C  236   4.086   2.643   2.176
    1C        C  237   4.023   2.603   2.296
    1C        C  238   4.196   2.726   2.418
    1C        C  239   4.081   2.641   2.419
    1C        C  240   4.250   2.775   2.539
    1C        C  241   4.199   2.730   2.662
    1C        C  242   4.333   2.900   2.784
    1C        C  243   4.243   2.790   2.782
    1C        C  244   4.377   2.958   2.905
    1C        C  245   4.340   2.899   3.027
    1C        C  246   4.439   3.087   3.151
    1C        C  247   4.381   2.958   3.149
    1C        C  248   4.457   3.157   3.272
    1C        C  249   4.431   3.091   3.394
    1C        C  250   4.488   3.300   3.510
    1C        C  251   4.454   3.163   3.513
    1C        C  252   4.508   3.368   3.633
    1C        C  253   4.496   3.301   3.756
    1C        C  254   4.516   3.512   3.873
    1C        C  255   4.509   3.371   3.878
    1C        C  256   4.505   3.582   3.995
    1C        C  257   4.507   3.515   4.119
    1C        C  258   4.489   3.728   4.238
    1C        C  259   4.513   3.589   4.240
    1C        C  260   4.470   3.801   4.357
    1C        C  261   4.482   3.732   4.480
    1C        C  262   4.417   3.935   4.601
    1C        C  263   4.471   3.804   4.601
    1C        C  264   4.393   4.004   4.721
    1C        C  265   4.433   3.940   4.841
    1C        C  266   4.321   4.126   4.953
    1C        C  267   4.394   4.008   4.957
    1C        C  268   4.261   2.770   2.059
    1C        C  269   4.196   2.732   2.177
    1C        C  270   4.345   2.883   2.298
    1C        C  271   4.252   2.776   2.299
    1C        C  272   4.382   2.947   2.419
    1C        C  273   4.339   2.885   2.538
    1C        C  274   4.437   3.077   2.658
    1C        C  275   4.372   2.951   2.658
    1C        C  276   4.468   3.145   2.778
    1C        C  277   4.442   3.084   2.903
    1C        C  278   4.502   3.285   3.022
    1C        C  279   4.468   3.148   3.026
    1C        C  280   4.507   3.360   3.142
    1C        C  281   4.494   3.293   3.266
    1C        C  282   4.509   3.507   3.386
    1C        C  283   4.507   3.366   3.386
    1C        C  284   4.505   3.579   3.508
    1C        C  285   4.511   3.509   3.630
    1C        C  286   4.483   3.721   3.752
    1C        C  287   4.513   3.583   3.751
    1C        C  288   4.466   3.790   3.874
    1C        C  289   4.480   3.721   3.997
    1C        C  290   4.418   3.929   4.113
    1C        C  291   4.465   3.796   4.116
    1C        C  292   4.393   3.997   4.234
    1C        C  293   4.427   3.936   4.357
    1C        C  294   4.323   4.123   4.477
    1C        C  295   4.390   3.999   4.478
    1C        C  296   4.281   4.186   4.597
    1C        C  297   4.321   4.126   4.719
    1C        C  298   4.201   4.312   4.834
    1C        C  299   4.280   4.193   4.837
    1C        C  300   4.174   4.398   4.946
    1C        C  301   4.351   2.876   2.059
    1C        C  302   4.464   3.063   2.178
    1C        C  303   4.396   2.937   2.177
    1C        C  304   4.487   3.137   2.297
    1C        C  305   4.450   3.071   2.417
    1C        C  306   4.505   3.279   2.537
    1C        C  307   4.468   3.143   2.537
    1C        C  308   4.514   3.354   2.657
    1C        C  309   4.503   3.282   2.778
    1C        C  310   4.519   3.494   2.899
    1C        C  311   4.517   3.353   2.899
    1C        C  312   4.509   3.569   3.018
    1C        C  313   4.507   3.501   3.141
    1C        C  314   4.481   3.714   3.261
    1C        C  315   4.505   3.574   3.262
    1C        C  316   4.474   3.787   3.382
    1C        C  317   4.485   3.719   3.506
    1C        C  318   4.422   3.921   3.626
    1C        C  319   4.465   3.786   3.629
    1C        C  320   4.393   3.987   3.748
    1C        C  321   4.422   3.924   3.871
    1C        C  322   4.314   4.112   3.990
    1C        C  323   4.389   3.992   3.990
    1C        C  324   4.273   4.169   4.113
    1C        C  325   4.318   4.116   4.236
    1C        C  326   4.183   4.283   4.350
    1C        C  327   4.278   4.180   4.356
    1C        C  328   4.138   4.339   4.472
    1C        C  329   4.194   4.296   4.594
    1C        C  330   4.026   4.438   4.712
    1C        C  331   4.138   4.351   4.712
    1C        C  332   3.970   4.491   4.831
    1C        C  333   4.053   4.468   4.942
    1C        C  334   4.541   3.265   2.058
    1C        C  335   4.527   3.126   2.066
    1C        C  336   4.540   3.344   2.174
    1C        C  337   4.522   3.275   2.296
    1C        C  338   4.522   3.490   2.411
    1C        C  339   4.521   3.349   2.416
    1C        C  340   4.515   3.562   2.533
    1C        C  341   4.520   3.495   2.657
    1C        C  342   4.483   3.706   2.773
    1C        C  343   4.508   3.567   2.779
    1C        C  344   4.467   3.776   2.895
    1C        C  345   4.485   3.709   3.018
    1C        C  346   4.417   3.914   3.138
    1C        C  347   4.459   3.778   3.138
    1C        C  348   4.386   3.979   3.259
    1C        C  349   4.421   3.918   3.381
    1C        C  350   4.312   4.100   3.501
    1C        C  351   4.389   3.981   3.503
    1C        C  352   4.274   4.162   3.622
    1C        C  353   4.316   4.106   3.745
    1C        C  354   4.173   4.265   3.867
    1C        C  355   4.272   4.164   3.866
    1C        C  356   4.117   4.313   3.987
    1C        C  357   4.177   4.273   4.108
    1C        C  358   4.007   4.404   4.229
    1C        C  359   4.126   4.327   4.228
    1C        C  360   3.950   4.446   4.351
    1C        C  361   4.019   4.416   4.471
    1C        C  362   3.827   4.512   4.591
    1C        C  363   3.959   4.461   4.590
    1C        C  364   3.762   4.541   4.713
    1C        C  365   3.838   4.539   4.832
    1C        C  366   3.628   4.596   4.945
    1C        C  367   3.765   4.572   4.947
    1C        C  368   4.508   3.558   2.054
    1C        C  369   4.522   3.484   2.172
    1C        C  370   4.494   3.701   2.288
    1C        C  371   4.512   3.561   2.290
    1C        C  372   4.476   3.773   2.408
    1C        C  373   4.491   3.701   2.529
    1C        C  374   4.424   3.905   2.647
    1C        C  375   4.473   3.773   2.649
    1C        C  376   4.385   3.968   2.767
    1C        C  377   4.412   3.906   2.891
    1C        C  378   4.314   4.094   3.011
    1C        C  379   4.386   3.972   3.013
    1C        C  380   4.273   4.156   3.131
    1C        C  381   4.315   4.101   3.254
    1C        C  382   4.173   4.256   3.375
    1C        C  383   4.268   4.152   3.378
    1C        C  384   4.120   4.305   3.497
    1C        C  385   4.177   4.264   3.619
    1C        C  386   4.006   4.388   3.740
    1C        C  387   4.123   4.309   3.742
    1C        C  388   3.942   4.427   3.860
    1C        C  389   4.000   4.392   3.984
    1C        C  390   3.814   4.492   4.105
    1C        C  391   3.942   4.432   4.106
    1C        C  392   3.748   4.510   4.228
    1C        C  393   3.818   4.496   4.350
    1C        C  394   3.614   4.546   4.474
    1C        C  395   3.754   4.529   4.472
    1C        C  396   3.543   4.564   4.595
    1C        C  397   3.621   4.557   4.713
    1C        C  398   3.409   4.546   4.836
    1C        C  399   3.548   4.570   4.832
    1C        C  400   3.340   4.515   4.954
    1C        C  401   4.505   3.697   2.053
    1C        C  402   4.450   3.911   2.167
    1C        C  403   4.491   3.776   2.168
    1C        C  404   4.409   3.976   2.286
    1C        C  405   4.436   3.908   2.407
    1C        C  406   4.326   4.095   2.523
    1C        C  407   4.397   3.973   2.526
    1C        C  408   4.272   4.146   2.643
    1C        C  409   4.309   4.087   2.766
    1C        C  410   4.170   4.247   2.886
    1C        C  411   4.270   4.147   2.887
    1C        C  412   4.118   4.299   3.006
    1C        C  413   4.172   4.254   3.129
    1C        C  414   4.003   4.379   3.250
    1C        C  415   4.119   4.300   3.252
    1C        C  416   3.942   4.415   3.373
    1C        C  417   4.003   4.384   3.496
    1C        C  418   3.813   4.477   3.617
    1C        C  419   3.943   4.422   3.619
    1C        C  420   3.745   4.504   3.738
    1C        C  421   3.811   4.480   3.860
    1C        C  422   3.607   4.535   3.983
    1C        C  423   3.745   4.509   3.982
    1C        C  424   3.539   4.539   4.108
    1C        C  425   3.609   4.534   4.230
    1C        C  426   3.400   4.546   4.354
    1C        C  427   3.541   4.550   4.353
    1C        C  428   3.329   4.549   4.476
    1C        C  429   3.402   4.557   4.597
    1C        C  430   3.193   4.509   4.719
    1C        C  431   3.332   4.539   4.718
    1C        C  432   3.124   4.488   4.841
    1C        C  433   3.203   4.490   4.957
    1C        C  434   4.379   4.115   2.052
    1C        C  435   4.439   3.989   2.051
    1C        C  436   4.294   4.156   2.160
    1C        C  437   4.325   4.090   2.283
    1C        C  438   4.186   4.256   2.399
    1C        C  439   4.286   4.156   2.402
    1C        C  440   4.126   4.300   2.518
    1C        C  441   4.176   4.251   2.641
    1C        C  442   4.003   4.373   2.761
    1C        C  443   4.122   4.296   2.763
    1C        C  444   3.941   4.412   2.882
    1C        C  445   4.000   4.377   3.006
    1C        C  446   3.811   4.472   3.129
    1C        C  447   3.941   4.415   3.128
    1C        C  448   3.744   4.486   3.253
    1C        C  449   3.812   4.470   3.376
    1C        C  450   3.605   4.529   3.492
    1C        C  451   3.743   4.498   3.496
    1C        C  452   3.539   4.544   3.616
    1C        C  453   3.608   4.539   3.739
    1C        C  454   3.396   4.541   3.863
    1C        C  455   3.537   4.545   3.861
    1C        C  456   3.330   4.527   3.987
    1C        C  457   3.398   4.534   4.111
    1C        C  458   3.190   4.496   4.234
    1C        C  459   3.329   4.525   4.234
    1C        C  460   3.126   4.480   4.359
    1C        C  461   3.192   4.514   4.479
    1C        C  462   2.992   4.434   4.603
    1C        C  463   3.120   4.492   4.599
    1C        C  464   2.928   4.399   4.724
    1C        C  465   2.989   4.439   4.846
    1C        C  466   2.797   4.334   4.958
    1C        C  467   2.900   4.429   4.957
    1C        C  468   4.118   4.282   2.036
    1C        C  469   4.181   4.243   2.155
    1C        C  470   4.008   4.372   2.276
    1C        C  471   4.128   4.295   2.276
    1C        C  472   3.940   4.399   2.396
    1C        C  473   4.005   4.373   2.519
    1C        C  474   3.811   4.463   2.643
    1C        C  475   3.940   4.407   2.640
    1C        C  476   3.740   4.488   2.762
    1C        C  477   3.813   4.471   2.882
    1C        C  478   3.607   4.514   3.007
    1C        C  479   3.747   4.493   3.005
    1C        C  480   3.535   4.526   3.128
    1C        C  481   3.606   4.516   3.250
    1C        C  482   3.392   4.528   3.375
    1C        C  483   3.533   4.530   3.370
    1C        C  484   3.324   4.529   3.499
    1C        C  485   3.398   4.541   3.619
    1C        C  486   3.189   4.500   3.744
    1C        C  487   3.326   4.533   3.740
    1C        C  488   3.125   4.471   3.867
    1C        C  489   3.192   4.497   3.989
    1C        C  490   3.001   4.408   4.115
    1C        C  491   3.124   4.477   4.111
    1C        C  492   2.938   4.383   4.239
    1C        C  493   2.998   4.419   4.361
    1C        C  494   2.823   4.301   4.480
    1C        C  495   2.933   4.389   4.483
    1C        C  496   2.773   4.252   4.603
    1C        C  497   2.817   4.309   4.724
    1C        C  498   2.663   4.160   4.842
    1C        C  499   2.750   4.271   4.842
    1C        C  500   2.591   4.117   4.955
    1C        C  501   3.994   4.347   2.035
    1C        C  502   3.814   4.458   2.157
    1C        C  503   3.942   4.398   2.154
    1C        C  504   3.741   4.475   2.277
    1C        C  505   3.806   4.445   2.399
    1C        C  506   3.603   4.502   2.517
    1C        C  507   3.743   4.480   2.520
    1C        C  508   3.531   4.510   2.639
    1C        C  509   3.600   4.507   2.762
    1C        C  510   3.393   4.521   2.887
    1C        C  511   3.534   4.517   2.886
    1C        C  512   3.320   4.521   3.008
    1C        C  513   3.394   4.532   3.128
    1C        C  514   3.189   4.486   3.255
    1C        C  515   3.325   4.522   3.251
    1C        C  516   3.121   4.463   3.377
    1C        C  517   3.188   4.492   3.499
    1C        C  518   2.997   4.407   3.623
    1C        C  519   3.121   4.475   3.622
    1C        C  520   2.940   4.368   3.746
    1C        C  521   2.999   4.407   3.868
    1C        C  522   2.835   4.279   3.994
    1C        C  523   2.941   4.373   3.992
    1C        C  524   2.782   4.236   4.117
    1C        C  525   2.826   4.296   4.238
    1C        C  526   2.686   4.136   4.357
    1C        C  527   2.772   4.248   4.359
    1C        C  528   2.653   4.075   4.480
    1C        C  529   2.690   4.138   4.601
    1C        C  530   2.584   3.957   4.726
    1C        C  531   2.639   4.088   4.723
    1C        C  532   2.541   3.899   4.849
    1C        C  533   2.527   3.992   4.957
    1C        C  534   3.613   4.548   2.039
    1C        C  535   3.748   4.509   2.044
    1C        C  536   3.531   4.530   2.154
    1C        C  537   3.603   4.507   2.275
    1C        C  538   3.391   4.518   2.396
    1C        C  539   3.532   4.517   2.396
    1C        C  540   3.320   4.509   2.518
    1C        C  541   3.390   4.512   2.641
    1C        C  542   3.184   4.481   2.765
    1C        C  543   3.322   4.512   2.765
    1C        C  544   3.116   4.461   2.887
    1C        C  545   3.184   4.483   3.008
    1C        C  546   2.996   4.398   3.132
    1C        C  547   3.122   4.462   3.133
    1C        C  548   2.934   4.367   3.256
    1C        C  549   2.994   4.402   3.379
    1C        C  550   2.827   4.275   3.507
    1C        C  551   2.936   4.365   3.502
    1C        C  552   2.774   4.230   3.629
    1C        C  553   2.826   4.285   3.749
    1C        C  554   2.694   4.120   3.872
    1C        C  555   2.782   4.231   3.872
    1C        C  556   2.653   4.063   3.995
    1C        C  557   2.693   4.126   4.114
    1C        C  558   2.594   3.942   4.240
    1C        C  559   2.653   4.070   4.237
    1C        C  560   2.563   3.878   4.363
    1C        C  561   2.586   3.950   4.482
    1C        C  562   2.536   3.748   4.612
    1C        C  563   2.562   3.887   4.606
    1C        C  564   2.521   3.677   4.733
    1C        C  565   2.528   3.757   4.851
    1C        C  566   2.530   3.548   4.973
    1C        C  567   2.518   3.686   4.972
    1C        C  568   3.321   4.482   2.033
    1C        C  569   3.391   4.509   2.152
    1C        C  570   3.181   4.470   2.278
    1C        C  571   3.318   4.508   2.275
    1C        C  572   3.117   4.444   2.401
    1C        C  573   3.183   4.477   2.522
    1C        C  574   2.986   4.400   2.646
    1C        C  575   3.114   4.461   2.644
    1C        C  576   2.927   4.360   2.768
    1C        C  577   2.992   4.392   2.889
    1C        C  578   2.819   4.274   3.016
    1C        C  579   2.932   4.359   3.012
    1C        C  580   2.771   4.225   3.139
    1C        C  581   2.829   4.272   3.259
    1C        C  582   2.695   4.112   3.382
    1C        C  583   2.782   4.224   3.383
    1C        C  584   2.655   4.054   3.505
    1C        C  585   2.688   4.118   3.627
    1C        C  586   2.591   3.934   3.752
    1C        C  587   2.651   4.062   3.751
    1C        C  588   2.563   3.870   3.875
    1C        C  589   2.592   3.936   3.996
    1C        C  590   2.534   3.735   4.124
    1C        C  591   2.564   3.873   4.120
    1C        C  592   2.522   3.668   4.248
    1C        C  593   2.529   3.742   4.368
    1C        C  594   2.514   3.533   4.493
    1C        C  595   2.525   3.674   4.492
    1C        C  596   2.520   3.462   4.615
    1C        C  597   2.520   3.535   4.737
    1C        C  598   2.536   3.325   4.861
    1C        C  599   2.531   3.466   4.859
    1C        C  600   2.534   3.247   4.978
    1C        C  601   3.187   4.449   2.040
    1C        C  602   2.979   4.391   2.157
    1C        C  603   3.111   4.446   2.157
    1C        C  604   2.923   4.355   2.282
    1C        C  605   2.986   4.392   2.403
    1C        C  606   2.819   4.264   2.525
    1C        C  607   2.923   4.359   2.526
    1C        C  608   2.765   4.220   2.648
    1C        C  609   2.818   4.271   2.769
    1C        C  610   2.686   4.109   2.893
    1C        C  611   2.772   4.222   2.893
    1C        C  612   2.652   4.050   3.017
    1C        C  613   2.683   4.114   3.139
    1C        C  614   2.581   3.930   3.264
    1C        C  615   2.647   4.056   3.262
    1C        C  616   2.561   3.863   3.386
    1C        C  617   2.592   3.928   3.508
    1C        C  618   2.532   3.728   3.635
    1C        C  619   2.566   3.865   3.631
    1C        C  620   2.520   3.659   3.757
    1C        C  621   2.527   3.733   3.877
    1C        C  622   2.515   3.526   4.007
    1C        C  623   2.518   3.667   4.002
    1C        C  624   2.512   3.454   4.129
    1C        C  625   2.510   3.527   4.251
    1C        C  626   2.540   3.319   4.375
    1C        C  627   2.513   3.458   4.374
    1C        C  628   2.557   3.250   4.497
    1C        C  629   2.538   3.322   4.617
    1C        C  630   2.599   3.120   4.741
    1C        C  631   2.550   3.254   4.740
    1C        C  632   2.620   3.048   4.862
    1C        C  633   2.555   3.109   4.974
    1C        C  634   2.781   4.299   2.050
    1C        C  635   2.886   4.391   2.047
    1C        C  636   2.747   4.226   2.165
    1C        C  637   2.811   4.268   2.284
    1C        C  638   2.673   4.106   2.408
    1C        C  639   2.762   4.215   2.406
    1C        C  640   2.643   4.043   2.531
    1C        C  641   2.680   4.108   2.651
    1C        C  642   2.581   3.920   2.774
    1C        C  643   2.645   4.046   2.774
    1C        C  644   2.561   3.856   2.898
    1C        C  645   2.589   3.924   3.019
    1C        C  646   2.531   3.722   3.147
    1C        C  647   2.562   3.860   3.142
    1C        C  648   2.511   3.654   3.269
    1C        C  649   2.525   3.726   3.390
    1C        C  650   2.508   3.516   3.519
    1C        C  651   2.519   3.657   3.513
    1C        C  652   2.510   3.446   3.641
    1C        C  653   2.513   3.518   3.763
    1C        C  654   2.538   3.311   3.888
    1C        C  655   2.520   3.451   3.888
    1C        C  656   2.550   3.243   4.012
    1C        C  657   2.531   3.314   4.132
    1C        C  658   2.607   3.116   4.256
    1C        C  659   2.555   3.247   4.255
    1C        C  660   2.637   3.052   4.378
    1C        C  661   2.604   3.116   4.500
    1C        C  662   2.713   2.935   4.624
    1C        C  663   2.635   3.053   4.622
    1C        C  664   2.751   2.874   4.745
    1C        C  665   2.694   2.925   4.865
    1C        C  666   2.742   2.866   4.982
    1C        C  667   2.674   4.018   2.054
    1C        C  668   2.681   4.102   2.166
    1C        C  669   2.584   3.911   2.288
    1C        C  670   2.639   4.042   2.287
    1C        C  671   2.555   3.846   2.410
    1C        C  672   2.581   3.916   2.530
    1C        C  673   2.515   3.717   2.656
    1C        C  674   2.554   3.852   2.653
    1C        C  675   2.508   3.648   2.780
    1C        C  676   2.528   3.719   2.900
    1C        C  677   2.512   3.512   3.029
    1C        C  678   2.521   3.653   3.025
    1C        C  679   2.506   3.445   3.153
    1C        C  680   2.495   3.514   3.276
    1C        C  681   2.521   3.304   3.401
    1C        C  682   2.498   3.443   3.398
    1C        C  683   2.537   3.234   3.523
    1C        C  684   2.527   3.306   3.644
    1C        C  685   2.585   3.103   3.768
    1C        C  686   2.543   3.238   3.767
    1C        C  687   2.629   3.045   3.890
    1C        C  688   2.604   3.112   4.011
    1C        C  689   2.710   2.930   4.135
    1C        C  690   2.635   3.050   4.134
    1C        C  691   2.755   2.874   4.257
    1C        C  692   2.712   2.933   4.379
    1C        C  693   2.750   2.875   4.502
    1C        C  694   2.623   3.888   2.050
    1C        C  695   2.525   3.702   2.171
    1C        C  696   2.575   3.834   2.170
    1C        C  697   2.502   3.636   2.294
    1C        C  698   2.511   3.712   2.412
    1C        C  699   2.492   3.504   2.540
    1C        C  700   2.499   3.645   2.536
    1C        C  701   2.499   3.435   2.664
    1C        C  702   2.494   3.508   2.785
    1C        C  703   2.529   3.299   2.910
    1C        C  704   2.510   3.439   2.907
    1C        C  705   2.543   3.235   3.035
    1C        C  706   2.533   3.306   3.157
    1C        C  707   2.598   3.105   3.278
    1C        C  708   2.546   3.237   3.279
    1C        C  709   2.631   3.044   3.401
    1C        C  710   2.592   3.104   3.523
    1C        C  711   2.702   2.927   3.646
    1C        C  712   2.615   3.038   3.646
    1C        C  713   2.752   2.874   3.767
    1C        C  714   2.712   2.930   3.890
    1C        C  715   2.756   2.876   4.013
    1C        C  716   2.451   3.498   2.061
    1C        C  717   2.488   3.633   2.055
    1C        C  718   2.466   3.420   2.180
    1C        C  719   2.478   3.495   2.299
    1C        C  720   2.520   3.288   2.422
    1C        C  721   2.489   3.426   2.422
    1C        C  722   2.541   3.224   2.546
    1C        C  723   2.525   3.296   2.666
    1C        C  724   2.597   3.097   2.791
    1C        C  725   2.551   3.231   2.788
    1C        C  726   2.624   3.033   2.915
    1C        C  727   2.595   3.103   3.034
    1C        C  728   2.707   2.923   3.159
    1C        C  729   2.627   3.040   3.156
    1C        C  730   2.755   2.872   3.281
    1C        C  731   2.714   2.930   3.403
    1C        C  732   2.753   2.872   3.526
    1C        C  733   2.484   3.193   2.072
    1C        C  734   2.481   3.278   2.184
    1C        C  735   2.581   3.082   2.302
    1C        C  736   2.524   3.213   2.303
    1C        C  737   2.614   3.021   2.424
    1C        C  738   2.591   3.092   2.544
    1C        C  739   2.693   2.911   2.667
    1C        C  740   2.621   3.032   2.668
    1C        C  741   2.735   2.854   2.789
    1C        C  742   2.698   2.913   2.912
    1C        C  743   2.751   2.870   3.036
    1C        C  744   2.545   3.068   2.071
    1C        C  745   2.682   2.892   2.183
    1C        C  746   2.607   3.012   2.182
    1C        C  747   2.725   2.836   2.305
    1C        C  748   2.687   2.899   2.426
    1C        C  749   2.735   2.847   2.548
    1C        C  750   2.733   2.838   2.064
    1C        C  751   3.665   2.341   1.957
    1C        O  752   3.683   2.218   1.982
    1C        O  753   3.660   2.376   1.821
    1C        C  754   4.628   3.058   1.980
    1C        O  755   4.636   3.074   1.856
    1C        O  756   4.745   3.015   2.045
    1C        C  757   4.480   4.215   2.008
    1C        O  758   4.574   4.261   2.077
    1C        O  759   4.513   4.214   1.872
    1C        C  760   3.585   4.645   1.930
    1C        O  761   3.625   4.764   1.926
    1C        O  762   3.601   4.596   1.800
    1C        C  763   2.865   4.524   1.985
    1C        O  764   2.886   4.532   1.862
    1C        O  765   2.763   4.607   2.034
    1C        C  766   2.349   3.464   1.959
    1C        O  767   2.381   3.481   1.838
    1C        O  768   2.211   3.481   1.978
    1C        C  769   4.696   3.580   5.038
    1C        O  770   4.690   3.559   5.162
    1C        O  771   4.829   3.612   5.005
    1C        C  772   4.282   4.453   5.031
    1C        O  773   4.269   4.445   5.156
    1C        O  774   4.362   4.561   4.992
    1C        C  775   4.151   2.513   5.063
    1C        O  776   4.204   2.406   5.023
    1C        O  777   4.121   2.506   5.200
    1C        C  778   2.880   4.552   5.037
    1C        O  779   2.859   4.665   4.984
    1C        O  780   2.907   4.563   5.173
    1C        C  781   2.451   3.034   5.049
    1C        O  782   2.330   3.018   5.018
    1C        O  783   2.471   3.017   5.186
    1C        C  784   2.400   4.001   5.032
    1C        O  785   2.290   3.997   4.970
    1C        O  786   2.392   3.981   5.170
    1C        C  787   2.953   2.408   2.014
    1C        O  788   2.877   2.411   1.914
    1C        O  789   2.920   2.297   2.091
    1C        C  790   3.184   2.380   5.074
    1C        O  791   3.160   2.267   5.024
    1C        O  792   3.179   2.399   5.213
    1C        H  793   4.293   3.016   5.059
    1C        H  794   4.141   2.834   5.056
    1C        H  795   4.471   3.133   5.063
    1C        H  796   4.524   3.368   5.066
    1C        H  797   4.566   3.811   5.050
    1C        H  798   4.473   4.003   5.030
    1C        H  799   4.305   4.176   5.046
    1C        H  800   4.014   4.497   5.038
    1C        H  801   3.822   4.600   5.033
    1C        H  802   3.587   4.646   5.030
    1C        H  803   3.375   4.562   5.044
    1C        H  804   3.172   4.416   5.027
    1C        H  805   3.880   2.489   5.068
    1C        H  806   3.666   2.503   5.076
    1C        H  807   3.020   2.592   5.066
    1C        H  808   3.449   2.524   5.072
    1C        H  809   2.875   2.730   5.079
    1C        H  810   2.694   2.895   5.074
    1C        H  811   2.542   3.294   5.074
    1C        H  812   2.507   3.499   5.066
    1C        H  813   2.517   3.739   5.065
    1C        H  814   2.549   4.191   5.020
    1C        H  815   2.754   4.312   5.054
    1C        H  816   2.753   2.897   1.977
    1C        H  817   2.840   2.683   1.973
    1C        H  818   3.198   2.390   2.011
    1C        H  819   3.420   2.407   1.983
    1C        H  820   3.836   2.545   1.970
    1C        H  821   4.046   2.641   1.965
    1C        H  822   4.272   2.699   1.980
    1C        H  823   4.348   2.936   1.971
    1C        H  824   4.609   3.304   1.985
    1C        H  825   4.451   3.512   1.977
    1C        H  826   4.525   3.743   1.959
    1C        H  827   3.801   4.514   1.951
    1C        H  828   3.965   4.388   1.941
    1C        H  829   4.172   4.275   1.944
    1C        H  830   4.492   3.961   1.962
    1C        H  831   2.683   3.820   1.993
    1C        H  832   2.706   4.058   1.959
    1C        H  833   2.715   4.292   1.966
    1C        H  834   3.377   4.471   1.943
    1C        H  835   3.130   4.457   1.950
    1C        H  836   2.543   3.016   1.977
    1C        H  837   2.402   3.200   2.004
    1C        H  838   2.484   3.676   1.956
    2V3OU   H29  839   2.804   3.549   3.212
    2V3OU   C27  840   2.794   3.502   3.313
    2V3OU   H27  841   2.729   3.562   3.382
    2V3OU   H28  842   2.742   3.404   3.298
    2V3OU   O11  843   2.920   3.473   3.373
    2V3OU   C15  844   2.927   3.396   3.488
    2V3OU   C13  845   3.053   3.372   3.545
    2V3OU   C14  846   3.079   3.265   3.631
    2V3OU   C16  847   2.977   3.180   3.673
    2V3OU    H6  848   2.987   3.106   3.754
    2V3OU   C12  849   3.215   3.225   3.673
    2V3OU    O2  850   3.229   3.132   3.756
    2V3OU   C10  851   3.326   3.310   3.628
    2V3OU    C8  852   3.454   3.272   3.663
    2V3OU   O10  853   3.486   3.158   3.731
    2V3OU   H26  854   3.402   3.113   3.751
    2V3OU    C6  855   3.563   3.348   3.611
    2V3OU    C5  856   3.536   3.467   3.544
    2V3OU    C4  857   3.701   3.292   3.604
    2V3OU    H4  858   3.723   3.228   3.694
    2V3OU    H5  859   3.710   3.226   3.512
    2V3OU    C2  860   3.815   3.393   3.611
    2V3OU    O6  861   3.808   3.471   3.731
    2V3OU   H21  862   3.762   3.552   3.705
    2V3OU    C3  863   3.780   3.496   3.503
    2V3OU    H2  864   3.856   3.578   3.497
    2V3OU    H3  865   3.785   3.443   3.405
    2V3OU   C25  866   3.950   3.322   3.598
    2V3OU    O7  867   3.999   3.302   3.487
    2V3OU   C26  868   4.023   3.285   3.726
    2V3OU   H22  869   4.059   3.380   3.772
    2V3OU   H23  870   4.113   3.222   3.701
    2V3OU    O8  871   3.960   3.206   3.825
    2V3OU   H24  872   3.921   3.257   3.898
    2V3OU    C1  873   3.645   3.566   3.512
    2V3OU    H1  874   3.627   3.623   3.416
    2V3OU    O3  875   3.650   3.654   3.624
    2V3OU   C19  876   3.613   3.792   3.625
    2V3OU    H9  877   3.514   3.800   3.572
    2V3OU    O4  878   3.711   3.847   3.539
    2V3OU   C20  879   3.840   3.870   3.596
    2V3OU   H10  880   3.896   3.773   3.615
    2V3OU   C24  881   3.610   3.858   3.763
    2V3OU   H16  882   3.543   3.795   3.826
    2V3OU   H17  883   3.559   3.957   3.749
    2V3OU   C23  884   3.749   3.874   3.827
    2V3OU   H15  885   3.793   3.770   3.838
    2V3OU    N1  886   3.734   3.952   3.948
    2V3OU   H19  887   3.806   3.918   4.009
    2V3OU   H20  888   3.647   3.930   3.991
    2V3OU   C21  889   3.846   3.946   3.728
    2V3OU   H11  890   3.942   3.923   3.782
    2V3OU    O5  891   3.828   4.087   3.732
    2V3OU   H18  892   3.779   4.097   3.815
    2V3OU   C22  893   3.908   3.950   3.486
    2V3OU   H12  894   3.854   4.047   3.471
    2V3OU   H13  895   3.907   3.891   3.391
    2V3OU   H14  896   4.017   3.964   3.509
    2V3OU   C11  897   3.160   3.472   3.527
    2V3OU    O1  898   3.127   3.587   3.491
    2V3OU    C9  899   3.298   3.421   3.544
    2V3OU    C7  900   3.404   3.502   3.505
    2V3OU    O9  901   3.383   3.622   3.439
    2V3OU   H25  902   3.286   3.627   3.439
    2V3OU   C17  903   2.827   3.307   3.532
    2V3OU    H7  904   2.730   3.349   3.507
    2V3OU   C18  905   2.850   3.204   3.623
    2V3OU    H8  906   2.783   3.173   3.705
    3SOL     OW  907   2.570   5.275   6.175
    3SOL    HW1  908   2.630   5.251   6.098
    3SOL    HW2  909   2.480   5.233   6.160
    4SOL     OW  910   6.717   0.243   0.465
    4SOL    HW1  911   6.739   0.334   0.499
    4SOL    HW2  912   6.705   0.180   0.542
    5SOL     OW  913   5.065   2.373   1.907
    5SOL    HW1  914   5.055   2.402   1.811
    5SOL    HW2  915   4.985   2.402   1.959
    6SOL     OW  916   4.483   2.087   2.313
    6SOL    HW1  917   4.410   2.050   2.254
    6SOL    HW2  918   4.469   2.185   2.325
    7SOL     OW  919   0.655   4.414   3.677
    7SOL    HW1  920   0.603   4.329   3.684
    7SOL    HW2  921   0.752   4.395   3.697
    8SOL     OW  922   2.435   2.401   5.785
    8SOL    HW1  923   2.339   2.394   5.811
    8SOL    HW2  924   2.489   2.433   5.863
    9SOL     OW  925   5.847   2.505   5.900
    9SOL    HW1  926   5.773   2.469   5.844
    9SOL    HW2  927   5.914   2.433   5.917
   10SOL     OW  928   3.341   5.277   4.837
   10SOL    HW1  929   3.391   5.321   4.911
   10SOL    HW2  930   3.256   5.327   4.819
   11SOL     OW  931   2.044   1.278   5.914
   11SOL    HW1  932   2.121   1.311   5.970
   11SOL    HW2  933   1.974   1.349   5.911
   12SOL     OW  934   3.030   4.861   3.730
   12SOL    HW1  935   2.963   4.883   3.801
   12SOL    HW2  936   3.122   4.869   3.768
   13SOL     OW  937   3.694   6.343   3.737
   13SOL    HW1  938   3.671   6.247   3.727
   13SOL    HW2  939   3.706   6.384   3.646
   14SOL     OW  940   4.048   4.557   6.021
   14SOL    HW1  941   4.090   4.645   6.000
   14SOL    HW2  942   4.019   4.554   6.117
   15SOL     OW  943   0.835   6.428   0.565
   15SOL    HW1  944   0.840   6.466   0.472
   15SOL    HW2  945   0.903   6.356   0.575
   16SOL     OW  946   5.376   2.449   6.567
   16SOL    HW1  947   5.344   2.477   6.658
   16SOL    HW2  948   5.466   2.407   6.574
   17SOL     OW  949   5.156   6.796   6.519
   17SOL    HW1  950   5.213   6.855   6.462
   17SOL    HW2  951   5.067   6.839   6.533
   18SOL     OW  952   3.078   0.983   5.008
   18SOL    HW1  953   3.000   1.043   5.026
   18SOL    HW2  954   3.154   1.008   5.067
   19SOL     OW  955   0.284   2.304   2.408
   19SOL    HW1  956   0.381   2.283   2.408
   19SOL    HW2  957   0.267   2.384   2.351
   20SOL     OW  958   4.596   2.425   5.423
   20SOL    HW1  959   4.603   2.325   5.422
   20SOL    HW2  960   4.554   2.455   5.508
   21SOL     OW  961   2.904   1.088   3.141
   21SOL    HW1  962   2.837   1.161   3.153
   21SOL    HW2  963   2.856   1.001   3.129
   22SOL     OW  964   1.607   6.134   0.253
   22SOL    HW1  965   1.508   6.127   0.241
   22SOL    HW2  966   1.628   6.145   0.351
   23SOL     OW  967   4.341   5.180   2.363
   23SOL    HW1  968   4.274   5.228   2.419
   23SOL    HW2  969   4.333   5.082   2.378
   24SOL     OW  970   3.466   0.555   2.423
   24SOL    HW1  971   3.549   0.599   2.389
   24SOL    HW2  972   3.420   0.507   2.348
   25SOL     OW  973   2.490   6.790   3.792
   25SOL    HW1  974   2.431   6.722   3.749
   25SOL    HW2  975   2.564   6.745   3.841
   26SOL     OW  976   6.441   2.169   0.218
   26SOL    HW1  977   6.480   2.207   0.302
   26SOL    HW2  978   6.515   2.144   0.155
   27SOL     OW  979   1.662   1.297   1.726
   27SOL    HW1  980   1.641   1.386   1.686
   27SOL    HW2  981   1.754   1.298   1.765
   28SOL     OW  982   1.153   0.730   4.819
   28SOL    HW1  983   1.153   0.814   4.764
   28SOL    HW2  984   1.226   0.670   4.786
   29SOL     OW  985   6.171   1.414   0.963
   29SOL    HW1  986   6.233   1.349   0.918
   29SOL    HW2  987   6.185   1.408   1.062
   30SOL     OW  988   4.642   0.241   4.907
   30SOL    HW1  989   4.705   0.319   4.898
   30SOL    HW2  990   4.598   0.245   4.997
   31SOL     OW  991   0.532   2.281   6.153
   31SOL    HW1  992   0.620   2.236   6.165
   31SOL    HW2  993   0.474   2.225   6.094
   32SOL     OW  994   0.941   1.711   2.305
   32SOL    HW1  995   1.021   1.673   2.258
   32SOL    HW2  996   0.934   1.808   2.285
   33SOL     OW  997   1.237   4.532   4.881
   33SOL    HW1  998   1.202   4.567   4.794
   33SOL    HW2  999   1.184   4.570   4.956
   34SOL     OW 1000   2.594   6.200   4.844
   34SOL    HW1 1001   2.620   6.181   4.749
   34SOL    HW2 1002   2.587   6.299   4.856
   35SOL     OW 1003   4.401   2.218   5.827
   35SOL    HW1 1004   4.501   2.217   5.829
   35SOL    HW2 1005   4.370   2.302   5.783
   36SOL     OW 1006   4.103   2.083   3.844
   36SOL    HW1 1007   4.090   2.137   3.928
   36SOL    HW2 1008   4.092   2.142   3.765
   37SOL     OW 1009   1.443   1.882   5.115
   37SOL    HW1 1010   1.410   1.814   5.181
   37SOL    HW2 1011   1.485   1.835   5.037
   38SOL     OW 1012   1.303   4.734   1.555
   38SOL    HW1 1013   1.396   4.699   1.550
   38SOL    HW2 1014   1.238   4.661   1.531
   39SOL     OW 1015   6.226   4.993   6.112
   39SOL    HW1 1016   6.168   5.069   6.143
   39SOL    HW2 1017   6.254   5.009   6.018
   40SOL     OW 1018   3.750   2.303   0.093
   40SOL    HW1 1019   3.783   2.287   7.018
   40SOL    HW2 1020   3.799   2.382   0.132
   41SOL     OW 1021   5.734   3.564   3.382
   41SOL    HW1 1022   5.821   3.516   3.400
   41SOL    HW2 1023   5.718   3.567   3.284
   42SOL     OW 1024   3.265   6.122   4.662
   42SOL    HW1 1025   3.285   6.182   4.585
   42SOL    HW2 1026   3.181   6.071   4.643
   43SOL     OW 1027   4.659   1.002   5.365
   43SOL    HW1 1028   4.597   0.983   5.442
   43SOL    HW2 1029   4.670   0.919   5.311
   44SOL     OW 1030   5.436   2.864   5.255
   44SOL    HW1 1031   5.501   2.865   5.331
   44SOL    HW2 1032   5.418   2.958   5.225
   45SOL     OW 1033   4.389   5.235   1.933
   45SOL    HW1 1034   4.360   5.268   2.023
   45SOL    HW2 1035   4.395   5.313   1.870
   46SOL     OW 1036   1.419   2.230   3.874
   46SOL    HW1 1037   1.480   2.160   3.838
   46SOL    HW2 1038   1.438   2.317   3.828
   47SOL     OW 1039   3.941   4.085   1.420
   47SOL    HW1 1040   3.987   4.014   1.367
   47SOL    HW2 1041   4.006   4.127   1.483
   48SOL     OW 1042   6.957   2.362   6.987
   48SOL    HW1 1043   6.994   2.351   6.895
   48SOL    HW2 1044   6.990   2.287   0.026
   49SOL     OW 1045   5.705   2.784   1.979
   49SOL    HW1 1046   5.679   2.879   1.959
   49SOL    HW2 1047   5.805   2.778   1.983
   50SOL     OW 1048   6.662   1.102   5.460
   50SOL    HW1 1049   6.674   1.012   5.418
   50SOL    HW2 1050   6.706   1.171   5.403
   51SOL     OW 1051   1.967   6.490   2.910
   51SOL    HW1 1052   1.993   6.409   2.859
   51SOL    HW2 1053   2.013   6.570   2.872
   52SOL     OW 1054   5.087   3.624   1.672
   52SOL    HW1 1055   5.084   3.709   1.618
   52SOL    HW2 1056   5.172   3.576   1.654
   53SOL     OW 1057   4.461   0.972   3.578
   53SOL    HW1 1058   4.543   0.918   3.557
   53SOL    HW2 1059   4.389   0.951   3.512
   54SOL     OW 1060   5.503   6.581   1.051
   54SOL    HW1 1061   5.593   6.581   1.007
   54SOL    HW2 1062   5.512   6.549   1.145
   55SOL     OW 1063   2.086   2.930   5.061
   55SOL    HW1 1064   2.183   2.954   5.053
   55SOL    HW2 1065   2.056   2.885   4.977
   56SOL     OW 1066   0.654   0.938   1.131
   56SOL    HW1 1067   0.674   0.845   1.160
   56SOL    HW2 1068   0.566   0.939   1.083
   57SOL     OW 1069   3.682   0.850   1.010
   57SOL    HW1 1070   3.716   0.931   1.057
   57SOL    HW2 1071   3.758   0.788   0.992
   58SOL     OW 1072   0.453   6.532   5.801
   58SOL    HW1 1073   0.479   6.590   5.879
   58SOL    HW2 1074   0.373   6.477   5.825
   59SOL     OW 1075   0.154   3.640   6.054
   59SOL    HW1 1076   0.201   3.603   5.974
   59SOL    HW2 1077   0.214   3.704   6.101
   60SOL     OW 1078   4.761   2.806   4.133
   60SOL    HW1 1079   4.834   2.746   4.100
   60SOL    HW2 1080   4.784   2.838   4.225
   61SOL     OW 1081   0.022   1.324   4.490
   61SOL    HW1 1082   6.979   1.356   4.418
   61SOL    HW2 1083   0.035   1.397   4.557
   62SOL     OW 1084   2.177   1.538   2.135
   62SOL    HW1 1085   2.228   1.511   2.053
   62SOL    HW2 1086   2.116   1.615   2.113
   63SOL     OW 1087   3.450   0.129   4.483
   63SOL    HW1 1088   3.501   0.102   4.400
   63SOL    HW2 1089   3.359   0.161   4.457
   64SOL     OW 1090   0.053   2.798   6.168
   64SOL    HW1 1091   0.144   2.834   6.189
   64SOL    HW2 1092   0.032   2.813   6.072
   65SOL     OW 1093   0.566   5.341   6.096
   65SOL    HW1 1094   0.615   5.428   6.092
   65SOL    HW2 1095   0.518   5.326   6.009
   66SOL     OW 1096   3.306   0.717   3.580
   66SOL    HW1 1097   3.377   0.676   3.637
   66SOL    HW2 1098   3.286   0.658   3.503
   67SOL     OW 1099   0.325   3.301   6.233
   67SOL    HW1 1100   0.316   3.240   6.154
   67SOL    HW2 1101   0.393   3.264   6.296
   68SOL     OW 1102   0.349   1.486   0.079
   68SOL    HW1 1103   0.283   1.560   0.063
   68SOL    HW2 1104   0.432   1.505   0.027
   69SOL     OW 1105   1.077   2.756   5.249
   69SOL    HW1 1106   1.070   2.847   5.291
   69SOL    HW2 1107   1.170   2.742   5.217
   70SOL     OW 1108   5.158   4.863   4.541
   70SOL    HW1 1109   5.076   4.884   4.488
   70SOL    HW2 1110   5.167   4.764   4.552
   71SOL     OW 1111   4.762   2.182   3.569
   71SOL    HW1 1112   4.799   2.275   3.569
   71SOL    HW2 1113   4.836   2.116   3.586
   72SOL     OW 1114   0.786   1.184   3.050
   72SOL    HW1 1115   0.817   1.241   2.973
   72SOL    HW2 1116   0.828   1.217   3.134
   73SOL     OW 1117   3.320   0.334   0.996
   73SOL    HW1 1118   3.238   0.385   0.970
   73SOL    HW2 1119   3.304   0.236   0.980
   74SOL     OW 1120   3.328   1.176   6.657
   74SOL    HW1 1121   3.255   1.125   6.703
   74SOL    HW2 1122   3.293   1.216   6.573
   75SOL     OW 1123   4.152   1.082   1.445
   75SOL    HW1 1124   4.172   1.000   1.498
   75SOL    HW2 1125   4.130   1.158   1.507
   76SOL     OW 1126   3.247   3.289   6.475
   76SOL    HW1 1127   3.234   3.219   6.405
   76SOL    HW2 1128   3.172   3.355   6.471
   77SOL     OW 1129   1.646   6.559   3.155
   77SOL    HW1 1130   1.612   6.586   3.245
   77SOL    HW2 1131   1.568   6.532   3.098
   78SOL     OW 1132   4.691   1.396   1.239
   78SOL    HW1 1133   4.651   1.328   1.177
   78SOL    HW2 1134   4.658   1.487   1.216
   79SOL     OW 1135   3.082   6.422   1.389
   79SOL    HW1 1136   3.075   6.519   1.366
   79SOL    HW2 1137   3.157   6.408   1.454
   80SOL     OW 1138   4.015   1.560   4.122
   80SOL    HW1 1139   3.997   1.600   4.212
   80SOL    HW2 1140   3.976   1.618   4.051
   81SOL     OW 1141   1.453   6.893   1.831
   81SOL    HW1 1142   1.544   6.930   1.818
   81SOL    HW2 1143   1.396   6.914   1.751
   82SOL     OW 1144   6.293   5.577   1.509
   82SOL    HW1 1145   6.329   5.536   1.426
   82SOL    HW2 1146   6.358   5.565   1.584
   83SOL     OW 1147   0.566   1.087   6.669
   83SOL    HW1 1148   0.540   0.990   6.672
   83SOL    HW2 1149   0.564   1.125   6.762
   84SOL     OW 1150   5.642   3.688   3.101
   84SOL    HW1 1151   5.740   3.682   3.085
   84SOL    HW2 1152   5.603   3.760   3.041
   85SOL     OW 1153   1.601   0.906   3.161
   85SOL    HW1 1154   1.654   0.867   3.236
   85SOL    HW2 1155   1.559   0.831   3.108
   86SOL     OW 1156   6.886   1.114   6.817
   86SOL    HW1 1157   6.819   1.118   6.742
   86SOL    HW2 1158   6.860   1.042   6.880
   87SOL     OW 1159   3.664   3.992   1.035
   87SOL    HW1 1160   3.609   4.073   1.055
   87SOL    HW2 1161   3.749   4.019   0.992
   88SOL     OW 1162   2.903   2.393   6.144
   88SOL    HW1 1163   3.000   2.382   6.123
   88SOL    HW2 1164   2.848   2.338   6.082
   89SOL     OW 1165   3.203   3.442   6.916
   89SOL    HW1 1166   3.148   3.377   6.969
   89SOL    HW2 1167   3.147   3.520   6.889
   90SOL     OW 1168   3.744   4.969   2.858
   90SOL    HW1 1169   3.685   5.000   2.934
   90SOL    HW2 1170   3.828   5.022   2.858
   91SOL     OW 1171   6.325   3.976   5.827
   91SOL    HW1 1172   6.357   4.070   5.821
   91SOL    HW2 1173   6.347   3.927   5.743
   92SOL     OW 1174   4.507   4.495   0.496
   92SOL    HW1 1175   4.568   4.474   0.419
   92SOL    HW2 1176   4.556   4.479   0.582
   93SOL     OW 1177   3.211   3.210   6.749
   93SOL    HW1 1178   3.230   3.234   6.654
   93SOL    HW2 1179   3.212   3.293   6.806
   94SOL     OW 1180   2.573   5.896   6.795
   94SOL    HW1 1181   2.641   5.855   6.857
   94SOL    HW2 1182   2.544   5.827   6.728
   95SOL     OW 1183   1.936   0.574   3.359
   95SOL    HW1 1184   1.946   0.591   3.261
   95SOL    HW2 1185   1.840   0.551   3.379
   96SOL     OW 1186   4.824   5.720   5.559
   96SOL    HW1 1187   4.813   5.640   5.618
   96SOL    HW2 1188   4.851   5.798   5.615
   97SOL     OW 1189   1.916   3.766   5.328
   97SOL    HW1 1190   1.856   3.704   5.277
   97SOL    HW2 1191   1.979   3.811   5.265
   98SOL     OW 1192   0.941   1.654   0.334
   98SOL    HW1 1193   0.965   1.749   0.355
   98SOL    HW2 1194   0.885   1.617   0.409
   99SOL     OW 1195   3.689   3.722   2.221
   99SOL    HW1 1196   3.633   3.729   2.139
   99SOL    HW2 1197   3.777   3.768   2.206
  100SOL     OW 1198   6.864   6.741   4.288
  100SOL    HW1 1199   6.923   6.684   4.346
  100SOL    HW2 1200   6.833   6.688   4.209
  101SOL     OW 1201   6.777   5.082   2.301
  101SOL    HW1 1202   6.773   5.179   2.327
  101SOL    HW2 1203   6.865   5.044   2.331
  102SOL     OW 1204   3.799   5.670   2.045
  102SOL    HW1 1205   3.842   5.710   2.126
  102SOL    HW2 1206   3.852   5.592   2.013
  103SOL     OW 1207   2.254   2.369   2.716
  103SOL    HW1 1208   2.262   2.365   2.816
  103SOL    HW2 1209   2.195   2.445   2.691
  104SOL     OW 1210   1.474   5.075   1.918
  104SOL    HW1 1211   1.415   5.042   1.844
  104SOL    HW2 1212   1.538   5.003   1.945
  105SOL     OW 1213   5.843   0.938   6.434
  105SOL    HW1 1214   5.911   0.909   6.367
  105SOL    HW2 1215   5.752   0.908   6.405
  106SOL     OW 1216   4.261   6.068   3.257
  106SOL    HW1 1217   4.322   6.109   3.325
  106SOL    HW2 1218   4.196   6.007   3.303
  107SOL     OW 1219   0.155   1.172   0.292
  107SOL    HW1 1220   0.062   1.136   0.278
  107SOL    HW2 1221   0.149   1.261   0.336
  108SOL     OW 1222   4.062   6.573   6.280
  108SOL    HW1 1223   3.980   6.610   6.323
  108SOL    HW2 1224   4.132   6.557   6.349
  109SOL     OW 1225   2.873   0.891   2.587
  109SOL    HW1 1226   2.832   0.973   2.547
  109SOL    HW2 1227   2.921   0.916   2.671
  110SOL     OW 1228   3.020   4.869   4.263
  110SOL    HW1 1229   3.011   4.968   4.276
  110SOL    HW2 1230   2.936   4.824   4.293
  111SOL     OW 1231   2.069   1.287   3.606
  111SOL    HW1 1232   2.100   1.353   3.674
  111SOL    HW2 1233   2.141   1.220   3.589
  112SOL     OW 1234   5.176   6.111   0.665
  112SOL    HW1 1235   5.168   6.043   0.592
  112SOL    HW2 1236   5.271   6.137   0.676
  113SOL     OW 1237   1.227   5.735   2.748
  113SOL    HW1 1238   1.319   5.703   2.727
  113SOL    HW2 1239   1.168   5.656   2.768
  114SOL     OW 1240   1.478   6.496   1.710
  114SOL    HW1 1241   1.498   6.438   1.789
  114SOL    HW2 1242   1.551   6.562   1.698
  115SOL     OW 1243   5.388   6.815   3.136
  115SOL    HW1 1244   5.385   6.867   3.222
  115SOL    HW2 1245   5.437   6.868   3.067
  116SOL     OW 1246   0.276   6.069   1.300
  116SOL    HW1 1247   0.247   6.164   1.291
  116SOL    HW2 1248   0.234   6.015   1.227
  117SOL     OW 1249   0.915   0.593   0.630
  117SOL    HW1 1250   0.819   0.611   0.653
  117SOL    HW2 1251   0.965   0.565   0.712
  118SOL     OW 1252   1.731   1.923   2.727
  118SOL    HW1 1253   1.801   1.953   2.792
  118SOL    HW2 1254   1.646   1.972   2.745
  119SOL     OW 1255   6.822   0.826   6.569
  119SOL    HW1 1256   6.880   0.745   6.581
  119SOL    HW2 1257   6.731   0.807   6.606
  120SOL     OW 1258   4.945   0.720   4.519
  120SOL    HW1 1259   4.896   0.635   4.496
  120SOL    HW2 1260   5.001   0.748   4.442
  121SOL     OW 1261   1.057   4.083   0.425
  121SOL    HW1 1262   1.019   3.996   0.455
  121SOL    HW2 1263   1.026   4.103   0.332
  122SOL     OW 1264   1.685   3.682   0.441
  122SOL    HW1 1265   1.645   3.711   0.354
  122SOL    HW2 1266   1.619   3.694   0.514
  123SOL     OW 1267   0.941   1.103   2.327
  123SOL    HW1 1268   0.841   1.107   2.328
  123SOL    HW2 1269   0.973   1.091   2.233
  124SOL     OW 1270   3.373   2.335   0.546
  124SOL    HW1 1271   3.420   2.397   0.609
  124SOL    HW2 1272   3.308   2.387   0.490
  125SOL     OW 1273   3.510   2.842   0.569
  125SOL    HW1 1274   3.590   2.818   0.624
  125SOL    HW2 1275   3.429   2.847   0.628
  126SOL     OW 1276   3.507   2.939   3.053
  126SOL    HW1 1277   3.466   3.029   3.065
  126SOL    HW2 1278   3.574   2.923   3.126
  127SOL     OW 1279   7.016   6.019   6.324
  127SOL    HW1 1280   6.944   6.046   6.260
  127SOL    HW2 1281   7.014   5.920   6.336
  128SOL     OW 1282   4.876   3.241   1.441
  128SOL    HW1 1283   4.902   3.334   1.469
  128SOL    HW2 1284   4.927   3.175   1.496
  129SOL     OW 1285   2.802   3.958   0.271
  129SOL    HW1 1286   2.804   3.866   0.311
  129SOL    HW2 1287   2.716   3.970   0.221
  130SOL     OW 1288   6.464   0.492   4.472
  130SOL    HW1 1289   6.438   0.569   4.414
  130SOL    HW2 1290   6.511   0.423   4.418
  131SOL     OW 1291   5.347   0.493   4.002
  131SOL    HW1 1292   5.301   0.413   4.041
  131SOL    HW2 1293   5.416   0.526   4.067
  132SOL     OW 1294   3.030   2.825   1.062
  132SOL    HW1 1295   3.130   2.826   1.060
  132SOL    HW2 1296   2.994   2.843   0.970
  133SOL     OW 1297   5.541   0.643   4.135
  133SOL    HW1 1298   5.626   0.682   4.101
  133SOL    HW2 1299   5.537   0.651   4.234
  134SOL     OW 1300   6.972   0.655   2.727
  134SOL    HW1 1301   6.932   0.706   2.651
  134SOL    HW2 1302   0.041   0.696   2.752
  135SOL     OW 1303   5.136   3.477   4.101
  135SOL    HW1 1304   5.092   3.517   4.020
  135SOL    HW2 1305   5.235   3.489   4.094
  136SOL     OW 1306   1.433   5.585   4.654
  136SOL    HW1 1307   1.372   5.607   4.731
  136SOL    HW2 1308   1.378   5.553   4.576
  137SOL     OW 1309   4.277   1.352   4.273
  137SOL    HW1 1310   4.253   1.387   4.364
  137SOL    HW2 1311   4.373   1.326   4.271
  138SOL     OW 1312   0.654   4.157   2.960
  138SOL    HW1 1313   0.652   4.121   3.053
  138SOL    HW2 1314   0.699   4.246   2.959
  139SOL     OW 1315   1.877   5.837   5.833
  139SOL    HW1 1316   1.944   5.862   5.763
  139SOL    HW2 1317   1.828   5.919   5.863
  140SOL     OW 1318   1.035   6.476   4.017
  140SOL    HW1 1319   1.041   6.501   3.920
  140SOL    HW2 1320   0.962   6.408   4.029
  141SOL     OW 1321   6.459   2.835   6.047
  141SOL    HW1 1322   6.475   2.793   5.958
  141SOL    HW2 1323   6.543   2.878   6.080
  142SOL     OW 1324   2.087   3.580   2.181
  142SOL    HW1 1325   2.141   3.561   2.099
  142SOL    HW2 1326   2.093   3.503   2.244
  143SOL     OW 1327   5.782   5.842   0.537
  143SOL    HW1 1328   5.815   5.794   0.456
  143SOL    HW2 1329   5.718   5.783   0.587
  144SOL     OW 1330   1.971   4.581   5.240
  144SOL    HW1 1331   1.879   4.590   5.202
  144SOL    HW2 1332   2.006   4.672   5.264
  145SOL     OW 1333   1.811   5.648   1.339
  145SOL    HW1 1334   1.797   5.599   1.425
  145SOL    HW2 1335   1.906   5.680   1.333
  146SOL     OW 1336   4.936   0.947   6.880
  146SOL    HW1 1337   5.009   1.013   6.901
  146SOL    HW2 1338   4.977   0.863   6.842
  147SOL     OW 1339   5.102   1.254   5.924
  147SOL    HW1 1340   5.105   1.272   6.023
  147SOL    HW2 1341   5.055   1.330   5.878
  148SOL     OW 1342   0.608   5.541   1.325
  148SOL    HW1 1343   0.638   5.636   1.317
  148SOL    HW2 1344   0.635   5.505   1.414
  149SOL     OW 1345   3.255   1.616   4.966
  149SOL    HW1 1346   3.223   1.521   4.968
  149SOL    HW2 1347   3.220   1.664   5.047
  150SOL     OW 1348   5.046   0.562   6.178
  150SOL    HW1 1349   5.133   0.606   6.200
  150SOL    HW2 1350   5.010   0.514   6.258
  151SOL     OW 1351   3.569   0.936   1.486
  151SOL    HW1 1352   3.582   1.029   1.522
  151SOL    HW2 1353   3.653   0.883   1.501
  152SOL     OW 1354   0.132   1.714   0.406
  152SOL    HW1 1355   0.162   1.741   0.498
  152SOL    HW2 1356   0.144   1.791   0.343
  153SOL     OW 1357   2.702   6.850   2.992
  153SOL    HW1 1358   2.687   6.948   3.005
  153SOL    HW2 1359   2.764   6.817   3.063
  154SOL     OW 1360   0.267   3.310   0.694
  154SOL    HW1 1361   0.263   3.213   0.717
  154SOL    HW2 1362   0.233   3.324   0.602
  155SOL     OW 1363   0.639   0.488   3.065
  155SOL    HW1 1364   0.715   0.527   3.117
  155SOL    HW2 1365   0.552   0.518   3.106
  156SOL     OW 1366   6.561   0.325   6.859
  156SOL    HW1 1367   6.563   0.297   6.764
  156SOL    HW2 1368   6.610   0.411   6.871
  157SOL     OW 1369   5.439   3.421   0.489
  157SOL    HW1 1370   5.408   3.328   0.471
  157SOL    HW2 1371   5.398   3.454   0.574
  158SOL     OW 1372   1.966   2.752   0.973
  158SOL    HW1 1373   1.997   2.682   0.909
  158SOL    HW2 1374   1.888   2.718   1.025
  159SOL     OW 1375   3.960   5.032   1.380
  159SOL    HW1 1376   3.985   5.128   1.367
  159SOL    HW2 1377   3.928   4.994   1.294
  160SOL     OW 1378   6.242   0.091   0.682
  160SOL    HW1 1379   6.206   0.165   0.627
  160SOL    HW2 1380   6.287   0.128   0.763
  161SOL     OW 1381   1.903   0.184   2.178
  161SOL    HW1 1382   1.831   0.163   2.112
  161SOL    HW2 1383   1.971   0.111   2.177
  162SOL     OW 1384   3.262   6.757   6.944
  162SOL    HW1 1385   3.264   6.841   6.999
  162SOL    HW2 1386   3.227   6.778   6.853
  163SOL     OW 1387   0.799   5.765   2.701
  163SOL    HW1 1388   0.800   5.865   2.692
  163SOL    HW2 1389   0.718   5.729   2.654
  164SOL     OW 1390   1.183   3.123   2.541
  164SOL    HW1 1391   1.087   3.129   2.569
  164SOL    HW2 1392   1.188   3.111   2.442
  165SOL     OW 1393   5.498   5.119   0.300
  165SOL    HW1 1394   5.546   5.112   0.387
  165SOL    HW2 1395   5.404   5.149   0.316
  166SOL     OW 1396   0.015   3.683   2.150
  166SOL    HW1 1397   0.039   3.762   2.095
  166SOL    HW2 1398   0.098   3.633   2.175
  167SOL     OW 1399   6.423   1.376   6.403
  167SOL    HW1 1400   6.345   1.353   6.462
  167SOL    HW2 1401   6.439   1.302   6.339
  168SOL     OW 1402   4.298   2.033   1.354
  168SOL    HW1 1403   4.354   2.068   1.429
  168SOL    HW2 1404   4.277   1.936   1.371
  169SOL     OW 1405   5.450   2.262   0.093
  169SOL    HW1 1406   5.435   2.346   0.041
  169SOL    HW2 1407   5.501   2.282   0.176
  170SOL     OW 1408   6.970   5.806   2.713
  170SOL    HW1 1409   6.995   5.879   2.776
  170SOL    HW2 1410   6.881   5.768   2.737
  171SOL     OW 1411   2.396   4.361   0.554
  171SOL    HW1 1412   2.455   4.435   0.523
  171SOL    HW2 1413   2.342   4.327   0.478
  172SOL     OW 1414   5.857   2.159   2.817
  172SOL    HW1 1415   5.883   2.062   2.816
  172SOL    HW2 1416   5.813   2.181   2.903
  173SOL     OW 1417   6.087   1.158   4.657
  173SOL    HW1 1418   6.040   1.111   4.582
  173SOL    HW2 1419   6.120   1.247   4.625
  174SOL     OW 1420   4.456   5.601   3.464
  174SOL    HW1 1421   4.461   5.696   3.432
  174SOL    HW2 1422   4.370   5.587   3.513
  175SOL     OW 1423   3.215   0.913   1.093
  175SOL    HW1 1424   3.241   0.896   0.998
  175SOL    HW2 1425   3.284   0.875   1.154
  176SOL     OW 1426   5.238   4.598   2.592
  176SOL    HW1 1427   5.161   4.538   2.570
  176SOL    HW2 1428   5.313   4.580   2.528
  177SOL     OW 1429   4.855   3.104   4.585
  177SOL    HW1 1430   4.789   3.029   4.584
  177SOL    HW2 1431   4.887   3.122   4.492
  178SOL     OW 1432   2.795   5.021   5.259
  178SOL    HW1 1433   2.882   5.046   5.215
  178SOL    HW2 1434   2.730   4.992   5.189
  179SOL     OW 1435   4.196   0.190   6.888
  179SOL    HW1 1436   4.176   0.272   6.942
  179SOL    HW2 1437   4.111   0.155   6.847
  180SOL     OW 1438   2.160   6.704   0.377
  180SOL    HW1 1439   2.174   6.766   0.300
  180SOL    HW2 1440   2.128   6.616   0.344
  181SOL     OW 1441   3.658   3.265   6.233
  181SOL    HW1 1442   3.666   3.354   6.187
  181SOL    HW2 1443   3.596   3.274   6.311
  182SOL     OW 1444   3.956   2.588   6.344
  182SOL    HW1 1445   4.050   2.578   6.314
  182SOL    HW2 1446   3.895   2.544   6.277
  183SOL     OW 1447   3.341   2.088   3.525
  183SOL    HW1 1448   3.362   2.126   3.615
  183SOL    HW2 1449   3.275   2.014   3.534
  184SOL     OW 1450   0.543   6.486   3.619
  184SOL    HW1 1451   0.616   6.452   3.678
  184SOL    HW2 1452   0.569   6.474   3.524
  185SOL     OW 1453   1.351   1.383   4.596
  185SOL    HW1 1454   1.257   1.366   4.626
  185SOL    HW2 1455   1.363   1.480   4.579
  186SOL     OW 1456   5.377   0.669   4.683
  186SOL    HW1 1457   5.277   0.662   4.680
  186SOL    HW2 1458   5.404   0.766   4.682
  187SOL     OW 1459   5.597   6.438   2.518
  187SOL    HW1 1460   5.577   6.495   2.598
  187SOL    HW2 1461   5.625   6.346   2.548
  188SOL     OW 1462   0.338   3.193   3.762
  188SOL    HW1 1463   0.406   3.137   3.714
  188SOL    HW2 1464   0.386   3.260   3.819
  189SOL     OW 1465   1.600   4.950   6.510
  189SOL    HW1 1466   1.662   4.980   6.583
  189SOL    HW2 1467   1.517   5.006   6.513
  190SOL     OW 1468   5.978   4.483   6.053
  190SOL    HW1 1469   5.994   4.571   6.099
  190SOL    HW2 1470   6.040   4.414   6.091
  191SOL     OW 1471   6.735   1.209   6.578
  191SOL    HW1 1472   6.699   1.118   6.556
  191SOL    HW2 1473   6.663   1.277   6.564
  192SOL     OW 1474   0.301   4.329   1.526
  192SOL    HW1 1475   0.295   4.274   1.442
  192SOL    HW2 1476   0.396   4.332   1.557
  193SOL     OW 1477   4.813   4.273   5.319
  193SOL    HW1 1478   4.785   4.202   5.255
  193SOL    HW2 1479   4.745   4.346   5.321
  194SOL     OW 1480   3.748   6.270   3.157
  194SOL    HW1 1481   3.789   6.243   3.244
  194SOL    HW2 1482   3.798   6.349   3.120
  195SOL     OW 1483   1.747   0.955   3.450
  195SOL    HW1 1484   1.677   0.900   3.495
  195SOL    HW2 1485   1.831   0.953   3.503
  196SOL     OW 1486   2.931   0.105   0.073
  196SOL    HW1 1487   2.963   0.043   0.145
  196SOL    HW2 1488   2.979   0.192   0.082
  197SOL     OW 1489   2.578   6.935   0.307
  197SOL    HW1 1490   2.543   6.858   0.254
  197SOL    HW2 1491   2.670   6.915   0.338
  198SOL     OW 1492   4.798   6.601   2.110
  198SOL    HW1 1493   4.754   6.668   2.051
  198SOL    HW2 1494   4.728   6.546   2.156
  199SOL     OW 1495   6.305   1.036   2.987
  199SOL    HW1 1496   6.311   0.971   3.062
  199SOL    HW2 1497   6.375   1.106   2.997
  200SOL     OW 1498   1.107   4.213   2.396
  200SOL    HW1 1499   1.137   4.239   2.488
  200SOL    HW2 1500   1.016   4.173   2.401
  201SOL     OW 1501   4.490   6.904   6.573
  201SOL    HW1 1502   4.505   6.812   6.610
  201SOL    HW2 1503   4.393   6.924   6.572
  202SOL     OW 1504   5.907   0.560   5.766
  202SOL    HW1 1505   5.830   0.621   5.781
  202SOL    HW2 1506   5.933   0.563   5.669
  203SOL     OW 1507   5.283   2.534   4.778
  203SOL    HW1 1508   5.215   2.606   4.791
  203SOL    HW2 1509   5.315   2.501   4.868
  204SOL     OW 1510   0.440   0.831   6.699
  204SOL    HW1 1511   0.357   0.844   6.753
  204SOL    HW2 1512   0.420   0.849   6.603
  205SOL     OW 1513   0.684   1.111   2.157
  205SOL    HW1 1514   0.742   1.069   2.087
  205SOL    HW2 1515   0.589   1.080   2.145
  206SOL     OW 1516   0.183   5.200   2.495
  206SOL    HW1 1517   0.173   5.166   2.589
  206SOL    HW2 1518   0.266   5.163   2.454
  207SOL     OW 1519   4.237   0.048   4.670
  207SOL    HW1 1520   4.232   7.002   4.594
  207SOL    HW2 1521   4.329   0.085   4.677
  208SOL     OW 1522   5.085   4.012   5.718
  208SOL    HW1 1523   5.135   3.940   5.671
  208SOL    HW2 1524   5.061   4.084   5.653
  209SOL     OW 1525   0.853   5.373   5.562
  209SOL    HW1 1526   0.923   5.307   5.591
  209SOL    HW2 1527   0.868   5.399   5.467
  210SOL     OW 1528   4.355   2.178   1.589
  210SOL    HW1 1529   4.307   2.265   1.575
  210SOL    HW2 1530   4.318   2.133   1.670
  211SOL     OW 1531   1.034   6.659   4.619
  211SOL    HW1 1532   1.016   6.633   4.714
  211SOL    HW2 1533   0.966   6.616   4.559
  212SOL     OW 1534   2.170   4.655   1.849
  212SOL    HW1 1535   2.108   4.584   1.817
  212SOL    HW2 1536   2.119   4.740   1.863
  213SOL     OW 1537   3.696   0.869   6.233
  213SOL    HW1 1538   3.771   0.890   6.296
  213SOL    HW2 1539   3.679   0.949   6.175
  214SOL     OW 1540   3.264   6.158   2.488
  214SOL    HW1 1541   3.266   6.112   2.399
  214SOL    HW2 1542   3.350   6.205   2.504
  215SOL     OW 1543   3.339   4.158   1.833
  215SOL    HW1 1544   3.297   4.244   1.804
  215SOL    HW2 1545   3.416   4.137   1.772
  216SOL     OW 1546   1.853   6.888   4.961
  216SOL    HW1 1547   1.853   6.983   4.931
  216SOL    HW2 1548   1.850   6.828   4.882
  217SOL     OW 1549   2.818   2.338   3.943
  217SOL    HW1 1550   2.809   2.402   3.866
  217SOL    HW2 1551   2.727   2.305   3.969
  218SOL     OW 1552   0.690   3.401   4.485
  218SOL    HW1 1553   0.766   3.338   4.467
  218SOL    HW2 1554   0.627   3.359   4.550
  219SOL     OW 1555   3.544   6.638   6.624
  219SOL    HW1 1556   3.531   6.542   6.597
  219SOL    HW2 1557   3.499   6.697   6.558
  220SOL     OW 1558   3.605   6.184   6.229
  220SOL    HW1 1559   3.570   6.172   6.136
  220SOL    HW2 1560   3.704   6.169   6.229
  221SOL     OW 1561   6.867   3.798   2.582
  221SOL    HW1 1562   6.899   3.753   2.666
  221SOL    HW2 1563   6.867   3.732   2.507
  222SOL     OW 1564   1.893   5.102   5.823
  222SOL    HW1 1565   1.797   5.117   5.802
  222SOL    HW2 1566   1.946   5.101   5.738
  223SOL     OW 1567   6.570   3.604   0.833
  223SOL    HW1 1568   6.591   3.682   0.775
  223SOL    HW2 1569   6.623   3.525   0.803
  224SOL     OW 1570   2.951   1.870   3.732
  224SOL    HW1 1571   3.022   1.936   3.758
  224SOL    HW2 1572   2.973   1.830   3.644
  225SOL     OW 1573   5.065   1.319   6.175
  225SOL    HW1 1574   5.132   1.357   6.238
  225SOL    HW2 1575   4.980   1.298   6.225
  226SOL     OW 1576   0.516   0.137   6.419
  226SOL    HW1 1577   0.500   0.191   6.501
  226SOL    HW2 1578   0.614   0.117   6.410
  227SOL     OW 1579   1.379   4.156   2.284
  227SOL    HW1 1580   1.282   4.157   2.312
  227SOL    HW2 1581   1.433   4.108   2.353
  228SOL     OW 1582   3.490   6.118   3.520
  228SOL    HW1 1583   3.467   6.215   3.510
  228SOL    HW2 1584   3.583   6.101   3.488
  229SOL     OW 1585   5.716   6.422   0.423
  229SOL    HW1 1586   5.752   6.380   0.506
  229SOL    HW2 1587   5.620   6.445   0.437
  230SOL     OW 1588   2.932   4.817   2.827
  230SOL    HW1 1589   2.885   4.903   2.845
  230SOL    HW2 1590   2.914   4.787   2.733
  231SOL     OW 1591   6.175   2.066   6.186
  231SOL    HW1 1592   6.203   1.986   6.241
  231SOL    HW2 1593   6.103   2.039   6.123
  232SOL     OW 1594   0.844   4.034   5.942
  232SOL    HW1 1595   0.886   3.990   5.862
  232SOL    HW2 1596   0.768   4.091   5.912
  233SOL     OW 1597   2.234   0.967   4.154
  233SOL    HW1 1598   2.300   0.897   4.126
  233SOL    HW2 1599   2.145   0.945   4.116
  234SOL     OW 1600   2.904   6.097   5.372
  234SOL    HW1 1601   2.962   6.045   5.308
  234SOL    HW2 1602   2.881   6.040   5.450
  235SOL     OW 1603   2.873   3.378   2.157
  235SOL    HW1 1604   2.809   3.424   2.095
  235SOL    HW2 1605   2.822   3.338   2.233
  236SOL     OW 1606   6.259   2.626   6.612
  236SOL    HW1 1607   6.162   2.648   6.627
  236SOL    HW2 1608   6.289   2.670   6.527
  237SOL     OW 1609   6.716   6.713   0.972
  237SOL    HW1 1610   6.697   6.627   0.926
  237SOL    HW2 1611   6.651   6.725   1.048
  238SOL     OW 1612   5.892   2.134   7.016
  238SOL    HW1 1613   5.921   2.199   0.068
  238SOL    HW2 1614   5.909   2.174   6.926
  239SOL     OW 1615   6.470   5.418   7.014
  239SOL    HW1 1616   6.557   5.463   6.994
  239SOL    HW2 1617   6.452   5.348   6.945
  240SOL     OW 1618   0.128   3.102   5.388
  240SOL    HW1 1619   0.114   3.183   5.445
  240SOL    HW2 1620   0.074   3.110   5.304
  241SOL     OW 1621   1.118   0.373   4.003
  241SOL    HW1 1622   1.038   0.364   4.061
  241SOL    HW2 1623   1.198   0.337   4.051
  242SOL     OW 1624   2.142   3.057   6.344
  242SOL    HW1 1625   2.235   3.063   6.381
  242SOL    HW2 1626   2.146   3.019   6.251
  243SOL     OW 1627   4.868   6.879   6.414
  243SOL    HW1 1628   4.820   6.806   6.462
  243SOL    HW2 1629   4.857   6.965   6.464
  244SOL     OW 1630   4.859   3.147   4.269
  244SOL    HW1 1631   4.953   3.113   4.273
  244SOL    HW2 1632   4.796   3.073   4.294
  245SOL     OW 1633   6.997   2.336   4.749
  245SOL    HW1 1634   7.005   2.436   4.749
  245SOL    HW2 1635   6.934   2.307   4.822
  246SOL     OW 1636   5.643   2.932   3.419
  246SOL    HW1 1637   5.630   3.007   3.355
  246SOL    HW2 1638   5.716   2.872   3.387
  247SOL     OW 1639   1.825   1.876   2.268
  247SOL    HW1 1640   1.768   1.882   2.187
  247SOL    HW2 1641   1.866   1.966   2.287
  248SOL     OW 1642   4.591   2.312   4.715
  248SOL    HW1 1643   4.675   2.282   4.759
  248SOL    HW2 1644   4.536   2.364   4.781
  249SOL     OW 1645   4.912   0.129   5.207
  249SOL    HW1 1646   4.919   0.155   5.110
  249SOL    HW2 1647   4.902   0.030   5.214
  250SOL     OW 1648   4.654   2.473   5.726
  250SOL    HW1 1649   4.667   2.381   5.763
  250SOL    HW2 1650   4.658   2.540   5.801
  251SOL     OW 1651   4.402   4.487   6.029
  251SOL    HW1 1652   4.440   4.571   6.068
  251SOL    HW2 1653   4.353   4.436   6.100
  252SOL     OW 1654   6.831   0.492   6.935
  252SOL    HW1 1655   6.850   0.435   7.015
  252SOL    HW2 1656   6.869   0.448   6.854
  253SOL     OW 1657   2.276   4.286   0.318
  253SOL    HW1 1658   2.353   4.241   0.273
  253SOL    HW2 1659   2.229   4.345   0.252
  254SOL     OW 1660   6.436   2.764   3.452
  254SOL    HW1 1661   6.514   2.735   3.507
  254SOL    HW2 1662   6.442   2.722   3.361
  255SOL     OW 1663   2.159   2.799   4.134
  255SOL    HW1 1664   2.068   2.765   4.109
  255SOL    HW2 1665   2.152   2.892   4.168
  256SOL     OW 1666   6.670   4.669   0.205
  256SOL    HW1 1667   6.748   4.614   0.175
  256SOL    HW2 1668   6.620   4.619   0.276
  257SOL     OW 1669   3.529   5.508   5.343
  257SOL    HW1 1670   3.496   5.566   5.269
  257SOL    HW2 1671   3.457   5.446   5.373
  258SOL     OW 1672   5.896   4.374   4.892
  258SOL    HW1 1673   5.930   4.281   4.902
  258SOL    HW2 1674   5.919   4.427   4.973
  259SOL     OW 1675   1.952   2.990   2.191
  259SOL    HW1 1676   1.877   2.992   2.256
  259SOL    HW2 1677   2.036   3.022   2.235
  260SOL     OW 1678   4.185   0.870   1.108
  260SOL    HW1 1679   4.207   0.814   1.029
  260SOL    HW2 1680   4.184   0.812   1.190
  261SOL     OW 1681   6.721   3.805   1.436
  261SOL    HW1 1682   6.709   3.720   1.386
  261SOL    HW2 1683   6.776   3.869   1.383
  262SOL     OW 1684   0.746   3.835   1.858
  262SOL    HW1 1685   0.806   3.777   1.914
  262SOL    HW2 1686   0.723   3.787   1.773
  263SOL     OW 1687   0.564   1.513   3.647
  263SOL    HW1 1688   0.656   1.532   3.613
  263SOL    HW2 1689   0.551   1.414   3.653
  264SOL     OW 1690   5.545   4.549   5.540
  264SOL    HW1 1691   5.590   4.629   5.501
  264SOL    HW2 1692   5.447   4.552   5.517
  265SOL     OW 1693   4.917   4.010   3.361
  265SOL    HW1 1694   5.014   4.031   3.350
  265SOL    HW2 1695   4.902   3.912   3.352
  266SOL     OW 1696   3.526   2.708   6.407
  266SOL    HW1 1697   3.566   2.665   6.488
  266SOL    HW2 1698   3.509   2.805   6.426
  267SOL     OW 1699   0.004   2.412   6.054
  267SOL    HW1 1700   0.019   2.314   6.067
  267SOL    HW2 1701   0.020   2.436   5.958
  268SOL     OW 1702   5.119   5.827   5.353
  268SOL    HW1 1703   5.053   5.840   5.279
  268SOL    HW2 1704   5.141   5.730   5.362
  269SOL     OW 1705   1.754   1.782   0.574
  269SOL    HW1 1706   1.798   1.711   0.519
  269SOL    HW2 1707   1.670   1.812   0.529
  270SOL     OW 1708   0.072   0.535   2.245
  270SOL    HW1 1709   0.037   0.565   2.156
  270SOL    HW2 1710   0.119   0.611   2.289
  271SOL     OW 1711   2.967   1.866   0.229
  271SOL    HW1 1712   2.875   1.888   0.261
  271SOL    HW2 1713   3.026   1.844   0.307
  272SOL     OW 1714   2.989   5.163   4.335
  272SOL    HW1 1715   3.042   5.221   4.274
  272SOL    HW2 1716   3.045   5.136   4.413
  273SOL     OW 1717   1.493   5.458   5.212
  273SOL    HW1 1718   1.448   5.460   5.123
  273SOL    HW2 1719   1.464   5.378   5.263
  274SOL     OW 1720   5.578   2.250   4.285
  274SOL    HW1 1721   5.597   2.200   4.369
  274SOL    HW2 1722   5.508   2.202   4.232
  275SOL     OW 1723   0.263   6.026   6.391
  275SOL    HW1 1724   0.171   6.062   6.374
  275SOL    HW2 1725   0.263   5.974   6.476
  276SOL     OW 1726   6.478   5.280   3.763
  276SOL    HW1 1727   6.516   5.225   3.689
  276SOL    HW2 1728   6.412   5.345   3.725
  277SOL     OW 1729   2.856   1.511   6.452
  277SOL    HW1 1730   2.934   1.491   6.512
  277SOL    HW2 1731   2.775   1.531   6.508
  278SOL     OW 1732   6.355   3.515   2.088
  278SOL    HW1 1733   6.404   3.435   2.122
  278SOL    HW2 1734   6.388   3.538   1.996
  279SOL     OW 1735   6.377   2.882   4.301
  279SOL    HW1 1736   6.373   2.808   4.233
  279SOL    HW2 1737   6.463   2.877   4.351
  280SOL     OW 1738   3.881   0.179   3.126
  280SOL    HW1 1739   3.849   0.224   3.043
  280SOL    HW2 1740   3.817   0.105   3.151
  281SOL     OW 1741   2.773   4.787   3.052
  281SOL    HW1 1742   2.684   4.822   3.022
  281SOL    HW2 1743   2.841   4.803   2.981
  282SOL     OW 1744   3.896   2.455   5.387
  282SOL    HW1 1745   3.959   2.473   5.311
  282SOL    HW2 1746   3.913   2.363   5.423
  283SOL     OW 1747   6.126   0.539   5.918
  283SOL    HW1 1748   6.033   0.538   5.881
  283SOL    HW2 1749   6.184   0.480   5.863
  284SOL     OW 1750   0.833   4.716   4.735
  284SOL    HW1 1751   0.834   4.645   4.805
  284SOL    HW2 1752   0.901   4.786   4.757
  285SOL     OW 1753   5.175   5.724   0.191
  285SOL    HW1 1754   5.132   5.814   0.182
  285SOL    HW2 1755   5.176   5.679   0.102
  286SOL     OW 1756   4.204   4.789   5.313
  286SOL    HW1 1757   4.135   4.800   5.384
  286SOL    HW2 1758   4.198   4.865   5.248
  287SOL     OW 1759   1.097   5.549   6.700
  287SOL    HW1 1760   1.073   5.640   6.666
  287SOL    HW2 1761   1.153   5.558   6.782
  288SOL     OW 1762   4.047   1.267   0.274
  288SOL    HW1 1763   4.120   1.272   0.206
  288SOL    HW2 1764   3.972   1.212   0.238
  289SOL     OW 1765   0.529   5.423   5.544
  289SOL    HW1 1766   0.570   5.390   5.459
  289SOL    HW2 1767   0.515   5.346   5.607
  290SOL     OW 1768   4.807   1.128   3.640
  290SOL    HW1 1769   4.869   1.111   3.563
  290SOL    HW2 1770   4.800   1.046   3.696
  291SOL     OW 1771   3.978   0.997   4.384
  291SOL    HW1 1772   4.055   0.937   4.363
  291SOL    HW2 1773   4.003   1.092   4.366
  292SOL     OW 1774   4.744   1.439   3.633
  292SOL    HW1 1775   4.668   1.441   3.699
  292SOL    HW2 1776   4.787   1.350   3.635
  293SOL     OW 1777   4.191   6.271   1.605
  293SOL    HW1 1778   4.206   6.370   1.609
  293SOL    HW2 1779   4.145   6.241   1.688
  294SOL     OW 1780   5.988   5.649   0.144
  294SOL    HW1 1781   5.925   5.589   0.093
  294SOL    HW2 1782   6.076   5.604   0.154
  295SOL     OW 1783   2.375   1.956   5.259
  295SOL    HW1 1784   2.461   1.971   5.212
  295SOL    HW2 1785   2.302   2.007   5.214
  296SOL     OW 1786   6.711   2.447   1.878
  296SOL    HW1 1787   6.796   2.500   1.882
  296SOL    HW2 1788   6.678   2.430   1.971
  297SOL     OW 1789   3.389   4.915   3.075
  297SOL    HW1 1790   3.332   4.911   2.993
  297SOL    HW2 1791   3.332   4.927   3.156
  298SOL     OW 1792   4.242   6.968   0.144
  298SOL    HW1 1793   4.245   6.975   0.045
  298SOL    HW2 1794   4.148   6.977   0.176
  299SOL     OW 1795   4.538   2.143   6.575
  299SOL    HW1 1796   4.454   2.165   6.525
  299SOL    HW2 1797   4.514   2.118   6.669
  300SOL     OW 1798   4.202   0.397   2.560
  300SOL    HW1 1799   4.293   0.398   2.517
  300SOL    HW2 1800   4.161   0.488   2.551
  301SOL     OW 1801   4.979   1.425   1.282
  301SOL    HW1 1802   5.020   1.510   1.313
  301SOL    HW2 1803   4.881   1.437   1.271
  302SOL     OW 1804   6.938   0.810   2.497
  302SOL    HW1 1805   6.843   0.784   2.477
  302SOL    HW2 1806   6.939   0.898   2.544
  303SOL     OW 1807   6.560   5.669   2.022
  303SOL    HW1 1808   6.465   5.683   2.047
  303SOL    HW2 1809   6.619   5.719   2.086
  304SOL     OW 1810   2.114   6.049   6.412
  304SOL    HW1 1811   2.102   6.146   6.428
  304SOL    HW2 1812   2.120   6.000   6.499
  305SOL     OW 1813   1.420   2.903   0.882
  305SOL    HW1 1814   1.329   2.876   0.913
  305SOL    HW2 1815   1.458   2.971   0.945
  306SOL     OW 1816   0.518   0.987   2.800
  306SOL    HW1 1817   0.439   1.028   2.845
  306SOL    HW2 1818   0.558   1.053   2.737
  307SOL     OW 1819   4.161   4.286   0.317
  307SOL    HW1 1820   4.163   4.375   0.273
  307SOL    HW2 1821   4.248   4.269   0.363
  308SOL     OW 1822   5.743   2.724   4.433
  308SOL    HW1 1823   5.706   2.631   4.429
  308SOL    HW2 1824   5.670   2.790   4.424
  309SOL     OW 1825   1.685   6.232   0.010
  309SOL    HW1 1826   1.778   6.268   7.017
  309SOL    HW2 1827   1.675   6.198   0.104
  310SOL     OW 1828   5.044   6.010   4.669
  310SOL    HW1 1829   4.945   6.006   4.677
  310SOL    HW2 1830   5.081   6.073   4.737
  311SOL     OW 1831   3.219   5.232   2.616
  311SOL    HW1 1832   3.127   5.223   2.578
  311SOL    HW2 1833   3.261   5.142   2.625
  312SOL     OW 1834   3.482   2.103   4.107
  312SOL    HW1 1835   3.501   2.033   4.176
  312SOL    HW2 1836   3.384   2.112   4.095
  313SOL     OW 1837   3.383   4.066   2.386
  313SOL    HW1 1838   3.350   4.066   2.292
  313SOL    HW2 1839   3.480   4.093   2.386
  314SOL     OW 1840   2.181   4.789   5.727
  314SOL    HW1 1841   2.254   4.857   5.730
  314SOL    HW2 1842   2.126   4.795   5.810
  315SOL     OW 1843   1.093   2.309   4.083
  315SOL    HW1 1844   1.192   2.309   4.097
  315SOL    HW2 1845   1.047   2.342   4.165
  316SOL     OW 1846   3.714   0.425   4.106
  316SOL    HW1 1847   3.763   0.501   4.062
  316SOL    HW2 1848   3.775   0.346   4.115
  317SOL     OW 1849   0.205   1.789   1.369
  317SOL    HW1 1850   0.216   1.798   1.468
  317SOL    HW2 1851   0.122   1.736   1.350
  318SOL     OW 1852   6.979   6.696   6.980
  318SOL    HW1 1853   7.009   6.789   6.956
  318SOL    HW2 1854   6.967   6.643   6.896
  319SOL     OW 1855   6.471   1.616   3.410
  319SOL    HW1 1856   6.501   1.567   3.492
  319SOL    HW2 1857   6.456   1.712   3.434
  320SOL     OW 1858   5.821   2.852   0.188
  320SOL    HW1 1859   5.777   2.772   0.148
  320SOL    HW2 1860   5.754   2.926   0.196
  321SOL     OW 1861   4.123   2.112   6.972
  321SOL    HW1 1862   4.186   2.174   0.000
  321SOL    HW2 1863   4.066   2.064   0.019
  322SOL     OW 1864   3.081   3.028   4.321
  322SOL    HW1 1865   2.987   3.044   4.290
  322SOL    HW2 1866   3.094   3.070   4.410
  323SOL     OW 1867   1.062   2.636   5.736
  323SOL    HW1 1868   1.067   2.598   5.829
  323SOL    HW2 1869   1.122   2.583   5.676
  324SOL     OW 1870   2.715   0.259   3.322
  324SOL    HW1 1871   2.746   0.166   3.301
  324SOL    HW2 1872   2.769   0.325   3.271
  325SOL     OW 1873   0.329   2.850   2.005
  325SOL    HW1 1874   0.409   2.910   1.995
  325SOL    HW2 1875   0.266   2.865   1.928
  326SOL     OW 1876   0.903   4.246   6.175
  326SOL    HW1 1877   0.919   4.342   6.195
  326SOL    HW2 1878   0.804   4.231   6.162
  327SOL     OW 1879   2.154   4.628   2.818
  327SOL    HW1 1880   2.242   4.658   2.854
  327SOL    HW2 1881   2.102   4.708   2.787
  328SOL     OW 1882   2.145   5.327   2.037
  328SOL    HW1 1883   2.126   5.419   2.071
  328SOL    HW2 1884   2.183   5.333   1.944
  329SOL     OW 1885   3.016   3.426   5.738
  329SOL    HW1 1886   3.021   3.443   5.640
  329SOL    HW2 1887   2.927   3.386   5.761
  330SOL     OW 1888   3.100   6.583   0.990
  330SOL    HW1 1889   3.124   6.643   0.914
  330SOL    HW2 1890   3.159   6.503   0.990
  331SOL     OW 1891   4.385   5.650   0.507
  331SOL    HW1 1892   4.415   5.708   0.583
  331SOL    HW2 1893   4.296   5.682   0.474
  332SOL     OW 1894   5.407   2.644   5.539
  332SOL    HW1 1895   5.451   2.688   5.460
  332SOL    HW2 1896   5.445   2.683   5.624
  333SOL     OW 1897   4.477   0.880   5.573
  333SOL    HW1 1898   4.410   0.830   5.517
  333SOL    HW2 1899   4.520   0.817   5.638
  334SOL     OW 1900   3.149   2.063   0.179
  334SOL    HW1 1901   3.193   2.093   0.264
  334SOL    HW2 1902   3.088   1.987   0.198
  335SOL     OW 1903   3.822   0.221   6.384
  335SOL    HW1 1904   3.837   0.267   6.296
  335SOL    HW2 1905   3.738   0.256   6.425
  336SOL     OW 1906   3.114   1.037   3.290
  336SOL    HW1 1907   3.152   0.947   3.272
  336SOL    HW2 1908   3.030   1.049   3.237
  337SOL     OW 1909   6.967   3.394   5.355
  337SOL    HW1 1910   6.929   3.308   5.390
  337SOL    HW2 1911   6.933   3.470   5.409
  338SOL     OW 1912   2.902   2.360   1.311
  338SOL    HW1 1913   2.986   2.395   1.271
  338SOL    HW2 1914   2.918   2.336   1.407
  339SOL     OW 1915   4.481   5.722   4.651
  339SOL    HW1 1916   4.421   5.784   4.601
  339SOL    HW2 1917   4.576   5.742   4.628
  340SOL     OW 1918   5.424   3.523   4.285
  340SOL    HW1 1919   5.508   3.539   4.337
  340SOL    HW2 1920   5.383   3.437   4.314
  341SOL     OW 1921   6.253   6.522   4.580
  341SOL    HW1 1922   6.206   6.575   4.510
  341SOL    HW2 1923   6.216   6.544   4.670
  342SOL     OW 1924   5.886   3.511   0.288
  342SOL    HW1 1925   5.820   3.511   0.364
  342SOL    HW2 1926   5.892   3.419   0.249
  343SOL     OW 1927   0.784   5.932   1.595
  343SOL    HW1 1928   0.793   5.933   1.495
  343SOL    HW2 1929   0.779   6.026   1.629
  344SOL     OW 1930   0.732   3.426   1.878
  344SOL    HW1 1931   0.830   3.429   1.859
  344SOL    HW2 1932   0.693   3.342   1.841
  345SOL     OW 1933   5.213   2.293   3.269
  345SOL    HW1 1934   5.215   2.391   3.248
  345SOL    HW2 1935   5.121   2.257   3.255
  346SOL     OW 1936   1.867   1.291   2.336
  346SOL    HW1 1937   1.847   1.219   2.402
  346SOL    HW2 1938   1.964   1.291   2.314
  347SOL     OW 1939   2.814   5.814   6.975
  347SOL    HW1 1940   2.844   5.910   6.980
  347SOL    HW2 1941   2.886   5.755   7.011
  348SOL     OW 1942   4.927   3.703   2.675
  348SOL    HW1 1943   4.873   3.764   2.617
  348SOL    HW2 1944   4.893   3.609   2.667
  349SOL     OW 1945   0.035   5.220   1.517
  349SOL    HW1 1946   7.018   5.246   1.607
  349SOL    HW2 1947   0.062   5.124   1.519
  350SOL     OW 1948   2.980   1.986   1.426
  350SOL    HW1 1949   3.017   2.078   1.417
  350SOL    HW2 1950   2.891   1.989   1.470
  351SOL     OW 1951   2.552   3.447   0.781
  351SOL    HW1 1952   2.515   3.378   0.844
  351SOL    HW2 1953   2.631   3.492   0.823
  352SOL     OW 1954   3.269   6.682   3.572
  352SOL    HW1 1955   3.363   6.714   3.558
  352SOL    HW2 1956   3.235   6.639   3.489
  353SOL     OW 1957   3.287   0.222   6.819
  353SOL    HW1 1958   3.349   0.168   6.876
  353SOL    HW2 1959   3.240   0.162   6.755
  354SOL     OW 1960   4.603   2.114   1.512
  354SOL    HW1 1961   4.509   2.144   1.530
  354SOL    HW2 1962   4.601   2.032   1.454
  355SOL     OW 1963   1.398   4.575   2.825
  355SOL    HW1 1964   1.318   4.530   2.785
  355SOL    HW2 1965   1.369   4.642   2.892
  356SOL     OW 1966   2.205   0.692   5.434
  356SOL    HW1 1967   2.232   0.707   5.530
  356SOL    HW2 1968   2.105   0.687   5.428
  357SOL     OW 1969   6.908   6.768   5.139
  357SOL    HW1 1970   6.818   6.729   5.159
  357SOL    HW2 1971   6.896   6.854   5.089
  358SOL     OW 1972   4.818   6.508   0.408
  358SOL    HW1 1973   4.732   6.467   0.377
  358SOL    HW2 1974   4.843   6.469   0.497
  359SOL     OW 1975   2.939   1.847   1.778
  359SOL    HW1 1976   3.029   1.833   1.738
  359SOL    HW2 1977   2.876   1.883   1.708
  360SOL     OW 1978   1.236   4.442   5.442
  360SOL    HW1 1979   1.150   4.463   5.489
  360SOL    HW2 1980   1.278   4.526   5.408
  361SOL     OW 1981   6.882   6.079   3.110
  361SOL    HW1 1982   6.811   6.117   3.052
  361SOL    HW2 1983   6.847   6.000   3.160
  362SOL     OW 1984   3.433   2.774   1.564
  362SOL    HW1 1985   3.380   2.716   1.502
  362SOL    HW2 1986   3.491   2.716   1.622
  363SOL     OW 1987   5.522   3.937   2.961
  363SOL    HW1 1988   5.449   3.968   2.898
  363SOL    HW2 1989   5.604   3.991   2.945
  364SOL     OW 1990   6.453   4.811   6.411
  364SOL    HW1 1991   6.488   4.824   6.504
  364SOL    HW2 1992   6.411   4.896   6.378
  365SOL     OW 1993   5.291   6.946   2.293
  365SOL    HW1 1994   5.194   6.930   2.272
  365SOL    HW2 1995   5.323   0.007   2.243
  366SOL     OW 1996   5.625   1.391   6.802
  366SOL    HW1 1997   5.608   1.301   6.842
  366SOL    HW2 1998   5.721   1.415   6.814
  367SOL     OW 1999   5.831   2.415   1.290
  367SOL    HW1 2000   5.899   2.342   1.298
  367SOL    HW2 2001   5.740   2.379   1.310
  368SOL     OW 2002   0.496   2.819   5.609
  368SOL    HW1 2003   0.433   2.827   5.685
  368SOL    HW2 2004   0.486   2.899   5.549
  369SOL     OW 2005   6.226   5.261   2.770
  369SOL    HW1 2006   6.223   5.306   2.680
  369SOL    HW2 2007   6.265   5.170   2.759
  370SOL     OW 2008   1.523   1.482   5.282
  370SOL    HW1 2009   1.584   1.417   5.237
  370SOL    HW2 2010   1.535   1.572   5.241
  371SOL     OW 2011   1.534   4.698   5.550
  371SOL    HW1 2012   1.520   4.690   5.649
  371SOL    HW2 2013   1.632   4.695   5.530
  372SOL     OW 2014   1.565   0.053   6.322
  372SOL    HW1 2015   1.516   0.138   6.340
  372SOL    HW2 2016   1.504   6.994   6.338
  373SOL     OW 2017   6.207   6.176   4.817
  373SOL    HW1 2018   6.162   6.092   4.848
  373SOL    HW2 2019   6.207   6.243   4.891
  374SOL     OW 2020   2.671   1.790   4.395
  374SOL    HW1 2021   2.664   1.697   4.361
  374SOL    HW2 2022   2.662   1.854   4.319
  375SOL     OW 2023   0.783   4.630   3.569
  375SOL    HW1 2024   0.724   4.558   3.607
  375SOL    HW2 2025   0.879   4.604   3.580
  376SOL     OW 2026   2.171   1.100   5.305
  376SOL    HW1 2027   2.154   1.076   5.401
  376SOL    HW2 2028   2.112   1.176   5.279
  377SOL     OW 2029   1.305   1.878   0.767
  377SOL    HW1 2030   1.345   1.888   0.858
  377SOL    HW2 2031   1.208   1.903   0.771
  378SOL     OW 2032   4.747   2.350   6.675
  378SOL    HW1 2033   4.813   2.360   6.749
  378SOL    HW2 2034   4.689   2.270   6.691
  379SOL     OW 2035   6.256   2.278   1.591
  379SOL    HW1 2036   6.190   2.320   1.654
  379SOL    HW2 2037   6.331   2.341   1.574
  380SOL     OW 2038   3.162   1.004   0.610
  380SOL    HW1 2039   3.114   1.085   0.645
  380SOL    HW2 2040   3.096   0.943   0.566
  381SOL     OW 2041   1.712   4.166   3.027
  381SOL    HW1 2042   1.730   4.246   2.970
  381SOL    HW2 2043   1.770   4.090   2.999
  382SOL     OW 2044   6.019   0.894   0.175
  382SOL    HW1 2045   6.046   0.986   0.204
  382SOL    HW2 2046   5.986   0.897   0.080
  383SOL     OW 2047   3.940   3.785   6.681
  383SOL    HW1 2048   3.855   3.790   6.628
  383SOL    HW2 2049   3.983   3.876   6.682
  384SOL     OW 2050   6.815   5.548   4.315
  384SOL    HW1 2051   6.760   5.471   4.283
  384SOL    HW2 2052   6.754   5.623   4.343
  385SOL     OW 2053   3.082   4.785   5.167
  385SOL    HW1 2054   3.013   4.725   5.127
  385SOL    HW2 2055   3.083   4.775   5.266
  386SOL     OW 2056   2.806   6.638   4.244
  386SOL    HW1 2057   2.824   6.735   4.225
  386SOL    HW2 2058   2.708   6.620   4.239
  387SOL     OW 2059   1.341   6.725   2.458
  387SOL    HW1 2060   1.361   6.653   2.390
  387SOL    HW2 2061   1.366   6.814   2.420
  388SOL     OW 2062   1.190   2.393   5.256
  388SOL    HW1 2063   1.092   2.394   5.237
  388SOL    HW2 2064   1.240   2.428   5.178
  389SOL     OW 2065   3.900   3.774   1.879
  389SOL    HW1 2066   3.919   3.729   1.792
  389SOL    HW2 2067   3.801   3.773   1.895
  390SOL     OW 2068   2.611   1.828   2.474
  390SOL    HW1 2069   2.640   1.879   2.393
  390SOL    HW2 2070   2.691   1.792   2.522
  391SOL     OW 2071   2.244   2.368   6.651
  391SOL    HW1 2072   2.172   2.407   6.708
  391SOL    HW2 2073   2.255   2.271   6.672
  392SOL     OW 2074   1.569   4.639   0.203
  392SOL    HW1 2075   1.480   4.650   0.248
  392SOL    HW2 2076   1.638   4.616   0.272
  393SOL     OW 2077   0.949   4.502   6.293
  393SOL    HW1 2078   0.898   4.556   6.360
  393SOL    HW2 2079   1.046   4.501   6.318
  394SOL     OW 2080   6.666   1.775   0.106
  394SOL    HW1 2081   6.757   1.749   0.074
  394SOL    HW2 2082   6.672   1.816   0.197
  395SOL     OW 2083   4.860   3.716   2.952
  395SOL    HW1 2084   4.844   3.711   2.853
  395SOL    HW2 2085   4.787   3.667   3.000
  396SOL     OW 2086   3.498   3.641   1.385
  396SOL    HW1 2087   3.556   3.715   1.351
  396SOL    HW2 2088   3.436   3.611   1.312
  397SOL     OW 2089   5.908   1.548   5.656
  397SOL    HW1 2090   5.841   1.609   5.613
  397SOL    HW2 2091   5.964   1.505   5.585
  398SOL     OW 2092   0.643   6.507   2.202
  398SOL    HW1 2093   0.592   6.425   2.229
  398SOL    HW2 2094   0.741   6.488   2.206
  399SOL     OW 2095   6.114   6.092   2.558
  399SOL    HW1 2096   6.047   6.110   2.631
  399SOL    HW2 2097   6.203   6.073   2.600
  400SOL     OW 2098   6.652   6.440   5.632
  400SOL    HW1 2099   6.729   6.446   5.569
  400SOL    HW2 2100   6.567   6.457   5.583
  401SOL     OW 2101   5.843   0.787   6.082
  401SOL    HW1 2102   5.930   0.829   6.108
  401SOL    HW2 2103   5.778   0.857   6.053
  402SOL     OW 2104   5.775   6.804   3.488
  402SOL    HW1 2105   5.710   6.728   3.492
  402SOL    HW2 2106   5.727   6.889   3.467
  403SOL     OW 2107   3.811   2.044   4.214
  403SOL    HW1 2108   3.821   2.003   4.123
  403SOL    HW2 2109   3.795   2.142   4.205
  404SOL     OW 2110   1.711   4.901   4.025
  404SOL    HW1 2111   1.775   4.888   4.101
  404SOL    HW2 2112   1.691   4.813   3.982
  405SOL     OW 2113   1.360   3.817   1.776
  405SOL    HW1 2114   1.419   3.869   1.715
  405SOL    HW2 2115   1.383   3.837   1.871
  406SOL     OW 2116   1.033   4.329   4.336
  406SOL    HW1 2117   1.112   4.389   4.321
  406SOL    HW2 2118   1.037   4.253   4.271
  407SOL     OW 2119   1.674   0.632   4.124
  407SOL    HW1 2120   1.770   0.603   4.134
  407SOL    HW2 2121   1.624   0.562   4.073
  408SOL     OW 2122   1.486   2.076   2.811
  408SOL    HW1 2123   1.434   2.008   2.761
  408SOL    HW2 2124   1.426   2.123   2.876
  409SOL     OW 2125   6.927   3.025   1.776
  409SOL    HW1 2126   6.948   3.082   1.696
  409SOL    HW2 2127   6.828   3.013   1.784
  410SOL     OW 2128   1.770   1.636   1.336
  410SOL    HW1 2129   1.733   1.544   1.318
  410SOL    HW2 2130   1.868   1.630   1.353
  411SOL     OW 2131   5.630   6.836   1.831
  411SOL    HW1 2132   5.567   6.909   1.805
  411SOL    HW2 2133   5.588   6.747   1.810
  412SOL     OW 2134   4.268   6.227   4.006
  412SOL    HW1 2135   4.295   6.295   4.074
  412SOL    HW2 2136   4.198   6.166   4.045
  413SOL     OW 2137   4.813   3.681   1.389
  413SOL    HW1 2138   4.890   3.714   1.333
  413SOL    HW2 2139   4.771   3.759   1.436
  414SOL     OW 2140   3.802   5.786   3.545
  414SOL    HW1 2141   3.777   5.697   3.507
  414SOL    HW2 2142   3.788   5.857   3.476
  415SOL     OW 2143   0.908   5.972   6.546
  415SOL    HW1 2144   0.873   6.001   6.457
  415SOL    HW2 2145   0.993   5.920   6.532
  416SOL     OW 2146   5.218   6.735   4.336
  416SOL    HW1 2147   5.224   6.818   4.282
  416SOL    HW2 2148   5.308   6.691   4.341
  417SOL     OW 2149   2.663   5.535   6.192
  417SOL    HW1 2150   2.591   5.553   6.259
  417SOL    HW2 2151   2.643   5.449   6.144
  418SOL     OW 2152   4.360   6.650   6.861
  418SOL    HW1 2153   4.267   6.629   6.889
  418SOL    HW2 2154   4.414   6.566   6.858
  419SOL     OW 2155   2.225   6.961   1.688
  419SOL    HW1 2156   2.133   7.000   1.694
  419SOL    HW2 2157   2.246   6.912   1.773
  420SOL     OW 2158   5.944   1.374   0.104
  420SOL    HW1 2159   5.905   1.380   0.012
  420SOL    HW2 2160   5.974   1.465   0.133
  421SOL     OW 2161   0.133   4.570   6.046
  421SOL    HW1 2162   0.198   4.530   5.982
  421SOL    HW2 2163   0.123   4.511   6.126
  422SOL     OW 2164   6.089   3.552   1.795
  422SOL    HW1 2165   6.031   3.633   1.784
  422SOL    HW2 2166   6.094   3.502   1.708
  423SOL     OW 2167   0.897   2.147   6.320
  423SOL    HW1 2168   0.835   2.110   6.251
  423SOL    HW2 2169   0.981   2.093   6.321
  424SOL     OW 2170   2.192   5.169   0.838
  424SOL    HW1 2171   2.167   5.124   0.752
  424SOL    HW2 2172   2.211   5.100   0.908
  425SOL     OW 2173   5.145   1.480   3.556
  425SOL    HW1 2174   5.131   1.516   3.649
  425SOL    HW2 2175   5.158   1.381   3.560
  426SOL     OW 2176   3.662   2.039   4.614
  426SOL    HW1 2177   3.571   2.000   4.609
  426SOL    HW2 2178   3.678   2.098   4.535
  427SOL     OW 2179   5.698   6.534   3.907
  427SOL    HW1 2180   5.750   6.507   3.826
  427SOL    HW2 2181   5.699   6.633   3.916
  428SOL     OW 2182   4.314   0.315   4.337
  428SOL    HW1 2183   4.236   0.254   4.328
  428SOL    HW2 2184   4.338   0.325   4.434
  429SOL     OW 2185   1.246   4.421   1.547
  429SOL    HW1 2186   1.236   4.323   1.563
  429SOL    HW2 2187   1.321   4.456   1.605
  430SOL     OW 2188   0.676   0.667   4.976
  430SOL    HW1 2189   0.580   0.683   4.998
  430SOL    HW2 2190   0.684   0.593   4.910
  431SOL     OW 2191   2.631   0.360   0.814
  431SOL    HW1 2192   2.712   0.400   0.858
  431SOL    HW2 2193   2.552   0.372   0.873
  432SOL     OW 2194   6.382   1.869   0.777
  432SOL    HW1 2195   6.409   1.861   0.680
  432SOL    HW2 2196   6.309   1.805   0.797
  433SOL     OW 2197   2.583   6.713   4.773
  433SOL    HW1 2198   2.645   6.688   4.698
  433SOL    HW2 2199   2.591   6.645   4.846
  434SOL     OW 2200   3.089   5.666   2.962
  434SOL    HW1 2201   2.997   5.703   2.963
  434SOL    HW2 2202   3.093   5.587   2.900
  435SOL     OW 2203   5.139   2.804   6.724
  435SOL    HW1 2204   5.093   2.716   6.713
  435SOL    HW2 2205   5.226   2.790   6.772
  436SOL     OW 2206   3.001   6.026   1.769
  436SOL    HW1 2207   2.985   6.103   1.708
  436SOL    HW2 2208   2.961   5.943   1.730
  437SOL     OW 2209   0.961   1.446   0.171
  437SOL    HW1 2210   0.879   1.388   0.163
  437SOL    HW2 2211   0.945   1.516   0.240
  438SOL     OW 2212   2.010   4.049   3.448
  438SOL    HW1 2213   2.003   4.106   3.367
  438SOL    HW2 2214   2.018   4.107   3.529
  439SOL     OW 2215   5.734   4.966   2.640
  439SOL    HW1 2216   5.799   5.008   2.576
  439SOL    HW2 2217   5.705   5.034   2.707
  440SOL     OW 2218   2.233   1.453   4.998
  440SOL    HW1 2219   2.294   1.458   5.078
  440SOL    HW2 2220   2.266   1.515   4.927
  441SOL     OW 2221   0.491   2.935   4.039
  441SOL    HW1 2222   0.561   2.991   4.083
  441SOL    HW2 2223   0.532   2.881   3.966
  442SOL     OW 2224   3.789   5.233   5.794
  442SOL    HW1 2225   3.728   5.157   5.771
  442SOL    HW2 2226   3.743   5.320   5.778
  443SOL     OW 2227   6.236   4.712   3.897
  443SOL    HW1 2228   6.279   4.728   3.807
  443SOL    HW2 2229   6.301   4.667   3.958
  444SOL     OW 2230   4.755   0.771   5.907
  444SOL    HW1 2231   4.767   0.754   6.005
  444SOL    HW2 2232   4.844   0.767   5.862
  445SOL     OW 2233   1.044   5.526   2.807
  445SOL    HW1 2234   0.988   5.538   2.889
  445SOL    HW2 2235   0.987   5.542   2.726
  446SOL     OW 2236   2.807   5.589   3.856
  446SOL    HW1 2237   2.865   5.542   3.922
  446SOL    HW2 2238   2.740   5.645   3.905
  447SOL     OW 2239   0.290   2.940   6.174
  447SOL    HW1 2240   0.388   2.948   6.192
  447SOL    HW2 2241   0.266   2.995   6.094
  448SOL     OW 2242   1.952   0.245   3.384
  448SOL    HW1 2243   1.967   0.261   3.287
  448SOL    HW2 2244   2.000   0.315   3.437
  449SOL     OW 2245   3.577   1.178   3.981
  449SOL    HW1 2246   3.624   1.223   3.905
  449SOL    HW2 2247   3.540   1.090   3.950
  450SOL     OW 2248   1.378   5.184   2.655
  450SOL    HW1 2249   1.440   5.191   2.733
  450SOL    HW2 2250   1.283   5.190   2.688
  451SOL     OW 2251   1.523   2.210   3.598
  451SOL    HW1 2252   1.523   2.119   3.641
  451SOL    HW2 2253   1.447   2.217   3.534
  452SOL     OW 2254   5.467   6.715   0.658
  452SOL    HW1 2255   5.408   6.761   0.592
  452SOL    HW2 2256   5.561   6.719   0.626
  453SOL     OW 2257   4.360   0.586   6.232
  453SOL    HW1 2258   4.382   0.666   6.288
  453SOL    HW2 2259   4.263   0.564   6.242
  454SOL     OW 2260   6.555   4.314   6.265
  454SOL    HW1 2261   6.554   4.387   6.332
  454SOL    HW2 2262   6.525   4.349   6.176
  455SOL     OW 2263   5.782   2.364   4.104
  455SOL    HW1 2264   5.723   2.339   4.181
  455SOL    HW2 2265   5.746   2.446   4.060
  456SOL     OW 2266   6.337   6.618   3.698
  456SOL    HW1 2267   6.253   6.639   3.747
  456SOL    HW2 2268   6.411   6.605   3.763
  457SOL     OW 2269   1.921   2.437   3.979
  457SOL    HW1 2270   1.846   2.376   3.953
  457SOL    HW2 2271   1.994   2.384   4.023
  458SOL     OW 2272   4.466   5.827   3.130
  458SOL    HW1 2273   4.425   5.904   3.080
  458SOL    HW2 2274   4.466   5.847   3.228
  459SOL     OW 2275   1.794   6.684   5.542
  459SOL    HW1 2276   1.810   6.765   5.485
  459SOL    HW2 2277   1.881   6.641   5.564
  460SOL     OW 2278   2.426   6.316   3.847
  460SOL    HW1 2279   2.445   6.397   3.791
  460SOL    HW2 2280   2.504   6.299   3.907
  461SOL     OW 2281   6.947   6.055   6.592
  461SOL    HW1 2282   6.949   6.054   6.492
  461SOL    HW2 2283   6.887   6.128   6.624
  462SOL     OW 2284   4.152   3.411   0.202
  462SOL    HW1 2285   4.221   3.400   0.273
  462SOL    HW2 2286   4.071   3.356   0.225
  463SOL     OW 2287   5.399   6.039   3.253
  463SOL    HW1 2288   5.413   6.051   3.351
  463SOL    HW2 2289   5.308   6.003   3.236
  464SOL     OW 2290   2.576   1.602   5.610
  464SOL    HW1 2291   2.519   1.635   5.535
  464SOL    HW2 2292   2.598   1.679   5.671
  465SOL     OW 2293   0.555   2.877   0.332
  465SOL    HW1 2294   0.567   2.794   0.278
  465SOL    HW2 2295   0.593   2.955   0.283
  466SOL     OW 2296   1.321   6.174   3.761
  466SOL    HW1 2297   1.226   6.154   3.742
  466SOL    HW2 2298   1.380   6.130   3.693
  467SOL     OW 2299   1.548   1.029   0.779
  467SOL    HW1 2300   1.595   0.960   0.834
  467SOL    HW2 2301   1.491   0.985   0.711
  468SOL     OW 2302   3.624   0.059   6.165
  468SOL    HW1 2303   3.662   0.117   6.093
  468SOL    HW2 2304   3.552   0.109   6.214
  469SOL     OW 2305   2.832   3.276   6.447
  469SOL    HW1 2306   2.774   3.357   6.436
  469SOL    HW2 2307   2.889   3.265   6.365
  470SOL     OW 2308   4.619   6.283   1.669
  470SOL    HW1 2309   4.621   6.193   1.712
  470SOL    HW2 2310   4.616   6.353   1.741
  471SOL     OW 2311   2.669   2.458   3.735
  471SOL    HW1 2312   2.673   2.503   3.645
  471SOL    HW2 2313   2.619   2.372   3.727
  472SOL     OW 2314   4.317   3.473   7.006
  472SOL    HW1 2315   4.231   3.463   0.037
  472SOL    HW2 2316   4.382   3.404   0.019
  473SOL     OW 2317   1.842   2.329   2.547
  473SOL    HW1 2318   1.869   2.255   2.485
  473SOL    HW2 2319   1.756   2.305   2.592
  474SOL     OW 2320   5.418   5.244   4.394
  474SOL    HW1 2321   5.401   5.163   4.449
  474SOL    HW2 2322   5.511   5.278   4.411
  475SOL     OW 2323   5.869   1.193   6.540
  475SOL    HW1 2324   5.902   1.172   6.632
  475SOL    HW2 2325   5.855   1.108   6.489
  476SOL     OW 2326   0.372   3.204   2.935
  476SOL    HW1 2327   0.415   3.252   3.012
  476SOL    HW2 2328   0.381   3.105   2.949
  477SOL     OW 2329   2.616   5.996   2.857
  477SOL    HW1 2330   2.559   6.049   2.920
  477SOL    HW2 2331   2.653   6.057   2.787
  478SOL     OW 2332   3.390   6.512   2.486
  478SOL    HW1 2333   3.463   6.444   2.492
  478SOL    HW2 2334   3.384   6.547   2.392
  479SOL     OW 2335   4.248   2.169   6.164
  479SOL    HW1 2336   4.149   2.163   6.155
  479SOL    HW2 2337   4.290   2.089   6.122
  480SOL     OW 2338   2.954   0.457   0.040
  480SOL    HW1 2339   2.908   0.546   0.037
  480SOL    HW2 2340   2.914   0.400   0.111
  481SOL     OW 2341   2.121   6.769   1.360
  481SOL    HW1 2342   2.087   6.798   1.271
  481SOL    HW2 2343   2.199   6.827   1.386
  482SOL     OW 2344   4.265   4.635   2.153
  482SOL    HW1 2345   4.177   4.681   2.157
  482SOL    HW2 2346   4.292   4.605   2.244
  483SOL     OW 2347   6.287   1.706   2.273
  483SOL    HW1 2348   6.280   1.640   2.198
  483SOL    HW2 2349   6.361   1.678   2.334
  484SOL     OW 2350   1.621   3.351   4.976
  484SOL    HW1 2351   1.591   3.438   4.937
  484SOL    HW2 2352   1.720   3.354   4.992
  485SOL     OW 2353   4.071   5.551   2.876
  485SOL    HW1 2354   3.997   5.515   2.819
  485SOL    HW2 2355   4.059   5.520   2.970
  486SOL     OW 2356   6.482   1.831   0.545
  486SOL    HW1 2357   6.469   1.732   0.534
  486SOL    HW2 2358   6.539   1.865   0.471
  487SOL     OW 2359   0.978   0.661   2.912
  487SOL    HW1 2360   0.943   0.664   3.006
  487SOL    HW2 2361   0.902   0.663   2.848
  488SOL     OW 2362   0.868   1.257   1.874
  488SOL    HW1 2363   0.930   1.193   1.919
  488SOL    HW2 2364   0.826   1.213   1.794
  489SOL     OW 2365   4.609   5.964   5.888
  489SOL    HW1 2366   4.611   5.919   5.799
  489SOL    HW2 2367   4.607   5.894   5.960
  490SOL     OW 2368   0.518   6.128   2.710
  490SOL    HW1 2369   0.540   6.221   2.740
  490SOL    HW2 2370   0.528   6.065   2.787
  491SOL     OW 2371   1.026   3.836   2.225
  491SOL    HW1 2372   1.089   3.761   2.207
  491SOL    HW2 2373   0.933   3.808   2.199
  492SOL     OW 2374   1.344   0.365   5.133
  492SOL    HW1 2375   1.281   0.345   5.208
  492SOL    HW2 2376   1.293   0.369   5.047
  493SOL     OW 2377   4.728   6.376   5.591
  493SOL    HW1 2378   4.657   6.440   5.562
  493SOL    HW2 2379   4.800   6.372   5.522
  494SOL     OW 2380   0.549   6.558   6.971
  494SOL    HW1 2381   0.455   6.546   7.003
  494SOL    HW2 2382   0.554   6.536   6.873
  495SOL     OW 2383   4.748   5.905   3.553
  495SOL    HW1 2384   4.838   5.948   3.541
  495SOL    HW2 2385   4.700   5.949   3.629
  496SOL     OW 2386   5.065   2.717   1.738
  496SOL    HW1 2387   5.003   2.748   1.810
  496SOL    HW2 2388   5.035   2.627   1.705
  497SOL     OW 2389   2.732   1.745   4.833
  497SOL    HW1 2390   2.763   1.793   4.915
  497SOL    HW2 2391   2.666   1.802   4.784
  498SOL     OW 2392   0.728   4.390   1.375
  498SOL    HW1 2393   0.664   4.420   1.304
  498SOL    HW2 2394   0.735   4.461   1.445
  499SOL     OW 2395   1.364   5.945   4.400
  499SOL    HW1 2396   1.409   5.881   4.463
  499SOL    HW2 2397   1.434   5.994   4.348
  500SOL     OW 2398   0.059   2.140   6.079
  500SOL    HW1 2399   0.073   2.107   6.173
  500SOL    HW2 2400   6.988   2.109   6.046
  501SOL     OW 2401   3.115   0.149   0.844
  501SOL    HW1 2402   3.134   0.246   0.860
  501SOL    HW2 2403   3.197   0.103   0.811
  502SOL     OW 2404   1.058   3.858   6.240
  502SOL    HW1 2405   1.121   3.854   6.317
  502SOL    HW2 2406   1.109   3.848   6.154
  503SOL     OW 2407   6.856   5.051   6.663
  503SOL    HW1 2408   6.932   4.988   6.649
  503SOL    HW2 2409   6.825   5.046   6.759
  504SOL     OW 2410   0.940   5.109   2.617
  504SOL    HW1 2411   0.880   5.086   2.694
  504SOL    HW2 2412   0.950   5.029   2.558
  505SOL     OW 2413   2.974   6.063   4.894
  505SOL    HW1 2414   2.899   6.013   4.937
  505SOL    HW2 2415   3.052   6.068   4.956
  506SOL     OW 2416   2.938   4.938   4.007
  506SOL    HW1 2417   2.937   4.879   4.088
  506SOL    HW2 2418   2.888   5.022   4.026
  507SOL     OW 2419   3.514   6.823   3.517
  507SOL    HW1 2420   3.462   6.893   3.467
  507SOL    HW2 2421   3.597   6.864   3.555
  508SOL     OW 2422   6.469   3.623   2.894
  508SOL    HW1 2423   6.502   3.530   2.878
  508SOL    HW2 2424   6.428   3.658   2.810
  509SOL     OW 2425   2.540   1.501   1.497
  509SOL    HW1 2426   2.524   1.560   1.577
  509SOL    HW2 2427   2.624   1.530   1.451
  510SOL     OW 2428   6.219   3.872   6.441
  510SOL    HW1 2429   6.258   3.794   6.392
  510SOL    HW2 2430   6.277   3.952   6.428
  511SOL     OW 2431   0.989   2.530   6.248
  511SOL    HW1 2432   1.078   2.497   6.279
  511SOL    HW2 2433   0.979   2.627   6.271
  512SOL     OW 2434   6.651   3.123   6.062
  512SOL    HW1 2435   6.634   3.222   6.055
  512SOL    HW2 2436   6.609   3.088   6.145
  513SOL     OW 2437   5.864   6.963   3.701
  513SOL    HW1 2438   5.850   6.926   3.609
  513SOL    HW2 2439   5.829   6.897   3.768
  514SOL     OW 2440   6.413   1.178   4.288
  514SOL    HW1 2441   6.408   1.150   4.384
  514SOL    HW2 2442   6.377   1.104   4.231
  515SOL     OW 2443   0.865   6.493   0.292
  515SOL    HW1 2444   0.793   6.434   0.255
  515SOL    HW2 2445   0.900   6.552   0.219
  516SOL     OW 2446   2.817   4.789   2.210
  516SOL    HW1 2447   2.739   4.814   2.267
  516SOL    HW2 2448   2.786   4.730   2.135
  517SOL     OW 2449   4.108   5.474   1.411
  517SOL    HW1 2450   4.114   5.573   1.398
  517SOL    HW2 2451   4.165   5.447   1.489
  518SOL     OW 2452   2.415   2.089   3.381
  518SOL    HW1 2453   2.384   2.161   3.444
  518SOL    HW2 2454   2.366   2.004   3.400
  519SOL     OW 2455   0.281   6.156   4.132
  519SOL    HW1 2456   0.246   6.248   4.152
  519SOL    HW2 2457   0.348   6.162   4.058
  520SOL     OW 2458   6.214   3.527   6.762
  520SOL    HW1 2459   6.291   3.466   6.781
  520SOL    HW2 2460   6.163   3.544   6.846
  521SOL     OW 2461   6.260   5.630   5.271
  521SOL    HW1 2462   6.199   5.551   5.269
  521SOL    HW2 2463   6.206   5.714   5.275
  522SOL     OW 2464   3.371   3.175   4.911
  522SOL    HW1 2465   3.343   3.256   4.860
  522SOL    HW2 2466   3.453   3.196   4.964
  523SOL     OW 2467   1.176   5.771   1.386
  523SOL    HW1 2468   1.161   5.838   1.459
  523SOL    HW2 2469   1.247   5.804   1.324
  524SOL     OW 2470   0.663   1.707   2.630
  524SOL    HW1 2471   0.616   1.663   2.707
  524SOL    HW2 2472   0.595   1.744   2.566
  525SOL     OW 2473   2.027   4.065   5.876
  525SOL    HW1 2474   1.997   3.996   5.810
  525SOL    HW2 2475   2.125   4.058   5.889
  526SOL     OW 2476   4.049   5.501   3.933
  526SOL    HW1 2477   4.071   5.599   3.933
  526SOL    HW2 2478   4.032   5.471   3.840
  527SOL     OW 2479   6.060   2.684   0.594
  527SOL    HW1 2480   6.145   2.661   0.546
  527SOL    HW2 2481   6.004   2.743   0.535
  528SOL     OW 2482   1.032   2.464   3.859
  528SOL    HW1 2483   0.958   2.403   3.829
  528SOL    HW2 2484   1.061   2.438   3.951
  529SOL     OW 2485   1.227   6.384   4.785
  529SOL    HW1 2486   1.286   6.461   4.760
  529SOL    HW2 2487   1.282   6.303   4.802
  530SOL     OW 2488   3.482   3.176   4.065
  530SOL    HW1 2489   3.504   3.134   3.977
  530SOL    HW2 2490   3.388   3.152   4.091
  531SOL     OW 2491   0.480   2.083   2.952
  531SOL    HW1 2492   0.524   2.088   3.041
  531SOL    HW2 2493   0.526   2.145   2.888
  532SOL     OW 2494   0.679   3.135   6.805
  532SOL    HW1 2495   0.762   3.140   6.860
  532SOL    HW2 2496   0.641   3.043   6.812
  533SOL     OW 2497   3.886   6.556   4.160
  533SOL    HW1 2498   3.808   6.511   4.117
  533SOL    HW2 2499   3.919   6.499   4.236
  534SOL     OW 2500   5.426   6.040   2.042
  534SOL    HW1 2501   5.508   6.005   2.088
  534SOL    HW2 2502   5.353   5.972   2.048
  535SOL     OW 2503   6.662   3.506   4.495
  535SOL    HW1 2504   6.668   3.605   4.481
  535SOL    HW2 2505   6.675   3.459   4.408
  536SOL     OW 2506   5.903   4.845   2.138
  536SOL    HW1 2507   5.892   4.941   2.110
  536SOL    HW2 2508   5.865   4.832   2.229
  537SOL     OW 2509   2.779   6.635   4.559
  537SOL    HW1 2510   2.830   6.667   4.638
  537SOL    HW2 2511   2.802   6.691   4.479
  538SOL     OW 2512   1.172   5.115   4.060
  538SOL    HW1 2513   1.208   5.028   4.028
  538SOL    HW2 2514   1.074   5.120   4.040
  539SOL     OW 2515   2.069   5.740   1.352
  539SOL    HW1 2516   2.032   5.756   1.444
  539SOL    HW2 2517   2.084   5.828   1.307
  540SOL     OW 2518   1.632   1.335   3.091
  540SOL    HW1 2519   1.672   1.404   3.030
  540SOL    HW2 2520   1.634   1.245   3.047
  541SOL     OW 2521   4.701   5.324   3.478
  541SOL    HW1 2522   4.608   5.310   3.512
  541SOL    HW2 2523   4.759   5.358   3.552
  542SOL     OW 2524   5.617   5.862   6.370
  542SOL    HW1 2525   5.711   5.832   6.354
  542SOL    HW2 2526   5.614   5.962   6.371
  543SOL     OW 2527   0.797   2.904   4.750
  543SOL    HW1 2528   0.805   2.808   4.776
  543SOL    HW2 2529   0.753   2.954   4.824
  544SOL     OW 2530   1.886   4.838   0.106
  544SOL    HW1 2531   1.796   4.872   0.077
  544SOL    HW2 2532   1.888   4.830   0.205
  545SOL     OW 2533   3.367   1.345   1.695
  545SOL    HW1 2534   3.406   1.432   1.725
  545SOL    HW2 2535   3.270   1.358   1.674
  546SOL     OW 2536   1.937   3.282   0.680
  546SOL    HW1 2537   1.916   3.211   0.613
  546SOL    HW2 2538   1.879   3.269   0.761
  547SOL     OW 2539   3.302   0.825   0.369
  547SOL    HW1 2540   3.245   0.777   0.302
  547SOL    HW2 2541   3.382   0.863   0.323
  548SOL     OW 2542   3.636   3.454   2.099
  548SOL    HW1 2543   3.697   3.528   2.129
  548SOL    HW2 2544   3.556   3.452   2.158
  549SOL     OW 2545   5.253   2.975   1.183
  549SOL    HW1 2546   5.225   3.058   1.231
  549SOL    HW2 2547   5.175   2.938   1.132
  550SOL     OW 2548   0.992   5.239   3.817
  550SOL    HW1 2549   1.029   5.328   3.791
  550SOL    HW2 2550   0.923   5.251   3.888
  551SOL     OW 2551   1.257   0.913   2.519
  551SOL    HW1 2552   1.185   0.842   2.519
  551SOL    HW2 2553   1.226   0.992   2.466
  552SOL     OW 2554   5.829   4.457   0.045
  552SOL    HW1 2555   5.855   4.362   0.059
  552SOL    HW2 2556   5.758   4.482   0.111
  553SOL     OW 2557   2.694   6.720   2.757
  553SOL    HW1 2558   2.783   6.678   2.737
  553SOL    HW2 2559   2.694   6.752   2.852
  554SOL     OW 2560   5.616   0.133   6.738
  554SOL    HW1 2561   5.628   0.202   6.810
  554SOL    HW2 2562   5.700   0.080   6.729
  555SOL     OW 2563   2.103   4.421   4.163
  555SOL    HW1 2564   2.112   4.398   4.067
  555SOL    HW2 2565   2.016   4.385   4.198
  556SOL     OW 2566   4.054   2.203   3.566
  556SOL    HW1 2567   4.044   2.190   3.467
  556SOL    HW2 2568   3.964   2.190   3.610
  557SOL     OW 2569   0.350   5.198   0.874
  557SOL    HW1 2570   0.430   5.237   0.828
  557SOL    HW2 2571   0.379   5.124   0.935
  558SOL     OW 2572   3.148   3.144   4.561
  558SOL    HW1 2573   3.094   3.110   4.638
  558SOL    HW2 2574   3.216   3.210   4.595
  559SOL     OW 2575   6.833   6.172   0.503
  559SOL    HW1 2576   6.825   6.271   0.511
  559SOL    HW2 2577   6.758   6.136   0.447
  560SOL     OW 2578   4.914   4.992   6.706
  560SOL    HW1 2579   4.875   5.071   6.660
  560SOL    HW2 2580   4.863   4.974   6.790
  561SOL     OW 2581   0.894   1.671   1.556
  561SOL    HW1 2582   0.829   1.715   1.619
  561SOL    HW2 2583   0.970   1.733   1.538
  562SOL     OW 2584   5.067   0.816   6.022
  562SOL    HW1 2585   5.131   0.798   5.947
  562SOL    HW2 2586   5.044   0.730   6.068
  563SOL     OW 2587   2.409   0.623   3.777
  563SOL    HW1 2588   2.309   0.623   3.789
  563SOL    HW2 2589   2.431   0.580   3.690
  564SOL     OW 2590   1.692   1.888   0.215
  564SOL    HW1 2591   1.701   1.789   0.204
  564SOL    HW2 2592   1.646   1.927   0.136
  565SOL     OW 2593   3.539   2.997   5.310
  565SOL    HW1 2594   3.581   3.024   5.396
  565SOL    HW2 2595   3.561   2.902   5.290
  566SOL     OW 2596   0.005   5.126   3.501
  566SOL    HW1 2597   0.100   5.096   3.509
  566SOL    HW2 2598   6.987   5.097   3.412
  567SOL     OW 2599   3.079   2.588   1.248
  567SOL    HW1 2600   3.041   2.645   1.176
  567SOL    HW2 2601   3.076   2.637   1.335
  568SOL     OW 2602   4.426   1.431   0.293
  568SOL    HW1 2603   4.404   1.401   0.386
  568SOL    HW2 2604   4.484   1.362   0.249
  569SOL     OW 2605   1.692   3.176   6.207
  569SOL    HW1 2606   1.607   3.225   6.227
  569SOL    HW2 2607   1.765   3.241   6.189
  570SOL     OW 2608   3.496   6.576   6.933
  570SOL    HW1 2609   3.504   6.560   6.835
  570SOL    HW2 2610   3.406   6.616   6.953
  571SOL     OW 2611   2.990   0.152   1.819
  571SOL    HW1 2612   2.942   0.233   1.786
  571SOL    HW2 2613   2.930   0.073   1.812
  572SOL     OW 2614   2.323   5.075   5.793
  572SOL    HW1 2615   2.411   5.070   5.840
  572SOL    HW2 2616   2.296   5.170   5.783
  573SOL     OW 2617   5.743   1.738   5.548
  573SOL    HW1 2618   5.708   1.660   5.496
  573SOL    HW2 2619   5.804   1.792   5.489
  574SOL     OW 2620   3.206   1.619   4.206
  574SOL    HW1 2621   3.213   1.566   4.122
  574SOL    HW2 2622   3.111   1.643   4.223
  575SOL     OW 2623   5.200   3.991   0.128
  575SOL    HW1 2624   5.171   4.068   0.070
  575SOL    HW2 2625   5.228   4.026   0.217
  576SOL     OW 2626   0.931   2.274   2.901
  576SOL    HW1 2627   0.917   2.181   2.935
  576SOL    HW2 2628   0.905   2.340   2.971
  577SOL     OW 2629   1.510   1.138   2.377
  577SOL    HW1 2630   1.527   1.210   2.310
  577SOL    HW2 2631   1.414   1.108   2.370
  578SOL     OW 2632   5.706   5.690   3.621
  578SOL    HW1 2633   5.764   5.743   3.558
  578SOL    HW2 2634   5.762   5.658   3.698
  579SOL     OW 2635   2.203   3.059   2.660
  579SOL    HW1 2636   2.185   2.973   2.707
  579SOL    HW2 2637   2.285   3.101   2.700
  580SOL     OW 2638   6.256   5.230   0.569
  580SOL    HW1 2639   6.247   5.151   0.630
  580SOL    HW2 2640   6.247   5.199   0.474
  581SOL     OW 2641   2.695   3.691   1.532
  581SOL    HW1 2642   2.759   3.648   1.469
  581SOL    HW2 2643   2.659   3.621   1.595
  582SOL     OW 2644   4.443   6.851   1.891
  582SOL    HW1 2645   4.372   6.921   1.899
  582SOL    HW2 2646   4.424   6.794   1.810
  583SOL     OW 2647   2.863   5.113   5.817
  583SOL    HW1 2648   2.954   5.149   5.836
  583SOL    HW2 2649   2.854   5.097   5.719
  584SOL     OW 2650   2.876   4.006   6.309
  584SOL    HW1 2651   2.841   4.092   6.272
  584SOL    HW2 2652   2.863   4.004   6.408
  585SOL     OW 2653   5.626   2.887   6.323
  585SOL    HW1 2654   5.621   2.955   6.396
  585SOL    HW2 2655   5.565   2.811   6.344
  586SOL     OW 2656   3.619   1.536   5.779
  586SOL    HW1 2657   3.612   1.585   5.866
  586SOL    HW2 2658   3.544   1.469   5.773
  587SOL     OW 2659   4.593   1.729   5.736
  587SOL    HW1 2660   4.495   1.724   5.756
  587SOL    HW2 2661   4.633   1.638   5.739
  588SOL     OW 2662   1.922   4.571   1.728
  588SOL    HW1 2663   1.834   4.573   1.775
  588SOL    HW2 2664   1.924   4.642   1.658
  589SOL     OW 2665   3.296   4.649   1.473
  589SOL    HW1 2666   3.244   4.727   1.439
  589SOL    HW2 2667   3.364   4.682   1.539
  590SOL     OW 2668   4.905   3.384   3.425
  590SOL    HW1 2669   5.005   3.376   3.417
  590SOL    HW2 2670   4.868   3.298   3.459
  591SOL     OW 2671   4.064   5.696   4.247
  591SOL    HW1 2672   4.040   5.747   4.329
  591SOL    HW2 2673   4.006   5.615   4.240
  592SOL     OW 2674   3.366   0.800   1.328
  592SOL    HW1 2675   3.430   0.869   1.363
  592SOL    HW2 2676   3.418   0.727   1.283
  593SOL     OW 2677   4.712   2.609   3.412
  593SOL    HW1 2678   4.758   2.595   3.324
  593SOL    HW2 2679   4.614   2.591   3.402
  594SOL     OW 2680   6.046   2.202   6.767
  594SOL    HW1 2681   6.125   2.257   6.796
  594SOL    HW2 2682   6.079   2.124   6.714
  595SOL     OW 2683   6.004   6.787   3.329
  595SOL    HW1 2684   5.916   6.771   3.375
  595SOL    HW2 2685   6.075   6.801   3.398
  596SOL     OW 2686   1.413   4.773   3.040
  596SOL    HW1 2687   1.508   4.767   3.072
  596SOL    HW2 2688   1.401   4.856   2.986
  597SOL     OW 2689   3.823   0.317   0.434
  597SOL    HW1 2690   3.736   0.338   0.389
  597SOL    HW2 2691   3.892   0.296   0.366
  598SOL     OW 2692   4.095   5.004   5.635
  598SOL    HW1 2693   4.027   4.947   5.588
  598SOL    HW2 2694   4.113   5.086   5.582
  599SOL     OW 2695   2.552   6.017   2.164
  599SOL    HW1 2696   2.552   6.055   2.071
  599SOL    HW2 2697   2.614   6.071   2.221
  600SOL     OW 2698   0.573   1.227   0.356
  600SOL    HW1 2699   0.506   1.301   0.366
  600SOL    HW2 2700   0.525   1.142   0.330
  601SOL     OW 2701   2.663   0.142   4.118
  601SOL    HW1 2702   2.601   0.181   4.050
  601SOL    HW2 2703   2.729   0.211   4.147
  602SOL     OW 2704   2.074   2.835   6.530
  602SOL    HW1 2705   2.013   2.888   6.589
  602SOL    HW2 2706   2.114   2.895   6.461
  603SOL     OW 2707   2.844   2.292   4.403
  603SOL    HW1 2708   2.801   2.324   4.488
  603SOL    HW2 2709   2.840   2.192   4.400
  604SOL     OW 2710   1.161   3.305   1.495
  604SOL    HW1 2711   1.180   3.401   1.477
  604SOL    HW2 2712   1.163   3.288   1.593
  605SOL     OW 2713   7.012   6.507   2.264
  605SOL    HW1 2714   6.975   6.414   2.267
  605SOL    HW2 2715   6.987   6.555   2.348
  606SOL     OW 2716   4.758   0.203   6.913
  606SOL    HW1 2717   4.771   0.125   6.851
  606SOL    HW2 2718   4.841   0.214   6.969
  607SOL     OW 2719   6.448   6.897   6.035
  607SOL    HW1 2720   6.472   6.952   6.115
  607SOL    HW2 2721   6.527   6.893   5.972
  608SOL     OW 2722   2.917   6.273   6.384
  608SOL    HW1 2723   2.903   6.244   6.289
  608SOL    HW2 2724   2.958   6.199   6.437
  609SOL     OW 2725   4.020   3.333   3.224
  609SOL    HW1 2726   3.954   3.404   3.203
  609SOL    HW2 2727   4.001   3.295   3.315
  610SOL     OW 2728   4.867   3.146   2.262
  610SOL    HW1 2729   4.910   3.209   2.198
  610SOL    HW2 2730   4.802   3.088   2.214
  611SOL     OW 2731   3.882   0.286   0.717
  611SOL    HW1 2732   3.841   0.295   0.626
  611SOL    HW2 2733   3.981   0.299   0.710
  612SOL     OW 2734   4.028   6.787   5.676
  612SOL    HW1 2735   4.029   6.717   5.747
  612SOL    HW2 2736   4.093   6.859   5.700
  613SOL     OW 2737   4.016   0.104   5.659
  613SOL    HW1 2738   3.976   0.191   5.686
  613SOL    HW2 2739   4.075   0.070   5.732
  614SOL     OW 2740   4.641   4.389   1.133
  614SOL    HW1 2741   4.564   4.443   1.167
  614SOL    HW2 2742   4.619   4.355   1.042
  615SOL     OW 2743   6.909   2.729   2.189
  615SOL    HW1 2744   6.920   2.813   2.243
  615SOL    HW2 2745   6.951   2.652   2.238
  616SOL     OW 2746   0.667   2.077   4.094
  616SOL    HW1 2747   0.765   2.087   4.083
  616SOL    HW2 2748   0.624   2.167   4.103
  617SOL     OW 2749   6.417   4.046   6.090
  617SOL    HW1 2750   6.498   4.103   6.079
  617SOL    HW2 2751   6.392   4.006   6.002
  618SOL     OW 2752   6.753   2.622   6.730
  618SOL    HW1 2753   6.671   2.656   6.685
  618SOL    HW2 2754   6.727   2.563   6.807
  619SOL     OW 2755   4.501   0.972   6.746
  619SOL    HW1 2756   4.503   0.872   6.743
  619SOL    HW2 2757   4.454   1.006   6.664
  620SOL     OW 2758   4.421   3.031   1.465
  620SOL    HW1 2759   4.507   3.082   1.459
  620SOL    HW2 2760   4.422   2.956   1.398
  621SOL     OW 2761   2.325   6.118   6.207
  621SOL    HW1 2762   2.341   6.216   6.213
  621SOL    HW2 2763   2.236   6.100   6.165
  622SOL     OW 2764   1.561   1.136   4.719
  622SOL    HW1 2765   1.655   1.109   4.737
  622SOL    HW2 2766   1.513   1.151   4.805
  623SOL     OW 2767   1.051   5.913   5.936
  623SOL    HW1 2768   1.095   5.835   5.890
  623SOL    HW2 2769   0.992   5.960   5.872
  624SOL     OW 2770   6.980   1.946   1.971
  624SOL    HW1 2771   0.010   1.892   1.903
  624SOL    HW2 2772   6.970   1.893   2.056
  625SOL     OW 2773   0.918   1.954   1.963
  625SOL    HW1 2774   0.926   1.979   2.060
  625SOL    HW2 2775   0.979   1.878   1.943
  626SOL     OW 2776   0.881   5.914   3.015
  626SOL    HW1 2777   0.800   5.874   2.971
  626SOL    HW2 2778   0.861   6.008   3.042
  627SOL     OW 2779   6.491   6.552   0.966
  627SOL    HW1 2780   6.481   6.463   0.922
  627SOL    HW2 2781   6.523   6.540   1.060
  628SOL     OW 2782   5.833   5.708   5.935
  628SOL    HW1 2783   5.813   5.703   5.837
  628SOL    HW2 2784   5.752   5.738   5.984
  629SOL     OW 2785   0.607   0.678   6.881
  629SOL    HW1 2786   0.647   0.592   6.850
  629SOL    HW2 2787   0.548   0.715   6.809
  630SOL     OW 2788   0.334   1.540   1.038
  630SOL    HW1 2789   0.273   1.614   1.011
  630SOL    HW2 2790   0.414   1.538   0.977
  631SOL     OW 2791   4.210   1.411   5.108
  631SOL    HW1 2792   4.124   1.459   5.126
  631SOL    HW2 2793   4.238   1.426   5.013
  632SOL     OW 2794   3.971   1.650   1.500
  632SOL    HW1 2795   3.949   1.729   1.443
  632SOL    HW2 2796   3.959   1.673   1.596
  633SOL     OW 2797   3.343   3.588   6.420
  633SOL    HW1 2798   3.383   3.496   6.421
  633SOL    HW2 2799   3.404   3.650   6.371
  634SOL     OW 2800   4.012   3.273   2.686
  634SOL    HW1 2801   3.995   3.181   2.651
  634SOL    HW2 2802   4.015   3.270   2.786
  635SOL     OW 2803   4.146   5.344   0.775
  635SOL    HW1 2804   4.152   5.440   0.802
  635SOL    HW2 2805   4.071   5.301   0.825
  636SOL     OW 2806   2.954   6.497   0.466
  636SOL    HW1 2807   3.005   6.561   0.523
  636SOL    HW2 2808   2.858   6.497   0.493
  637SOL     OW 2809   6.969   3.226   2.782
  637SOL    HW1 2810   6.935   3.308   2.735
  637SOL    HW2 2811   7.008   3.253   2.870
  638SOL     OW 2812   5.538   2.300   3.304
  638SOL    HW1 2813   5.451   2.272   3.264
  638SOL    HW2 2814   5.525   2.382   3.360
  639SOL     OW 2815   4.878   3.511   3.192
  639SOL    HW1 2816   4.973   3.540   3.186
  639SOL    HW2 2817   4.867   3.454   3.274
  640SOL     OW 2818   0.365   5.356   3.806
  640SOL    HW1 2819   0.302   5.351   3.883
  640SOL    HW2 2820   0.314   5.375   3.722
  641SOL     OW 2821   0.265   4.885   5.316
  641SOL    HW1 2822   0.280   4.906   5.219
  641SOL    HW2 2823   0.179   4.927   5.346
  642SOL     OW 2824   6.896   3.031   3.875
  642SOL    HW1 2825   6.847   3.005   3.792
  642SOL    HW2 2826   6.994   3.010   3.863
  643SOL     OW 2827   5.618   5.785   6.079
  643SOL    HW1 2828   5.562   5.762   5.999
  643SOL    HW2 2829   5.611   5.882   6.098
  644SOL     OW 2830   1.666   6.669   4.580
  644SOL    HW1 2831   1.654   6.574   4.607
  644SOL    HW2 2832   1.587   6.722   4.611
  645SOL     OW 2833   4.492   0.128   4.718
  645SOL    HW1 2834   4.522   0.073   4.641
  645SOL    HW2 2835   4.571   0.158   4.772
  646SOL     OW 2836   3.479   0.783   4.370
  646SOL    HW1 2837   3.540   0.704   4.374
  646SOL    HW2 2838   3.533   0.867   4.377
  647SOL     OW 2839   5.584   1.838   5.159
  647SOL    HW1 2840   5.662   1.779   5.180
  647SOL    HW2 2841   5.571   1.842   5.060
  648SOL     OW 2842   0.853   3.584   3.278
  648SOL    HW1 2843   0.825   3.644   3.353
  648SOL    HW2 2844   0.883   3.496   3.314
  649SOL     OW 2845   2.404   4.465   0.951
  649SOL    HW1 2846   2.480   4.400   0.960
  649SOL    HW2 2847   2.441   4.556   0.935
  650SOL     OW 2848   5.876   4.195   0.088
  650SOL    HW1 2849   5.860   4.151   0.176
  650SOL    HW2 2850   5.922   4.130   0.026
  651SOL     OW 2851   0.732   6.509   6.215
  651SOL    HW1 2852   0.793   6.535   6.140
  651SOL    HW2 2853   0.774   6.436   6.268
  652SOL     OW 2854   5.127   0.313   4.076
  652SOL    HW1 2855   5.049   0.272   4.030
  652SOL    HW2 2856   5.111   0.318   4.174
  653SOL     OW 2857   0.728   5.751   6.642
  653SOL    HW1 2858   0.648   5.803   6.613
  653SOL    HW2 2859   0.792   5.811   6.689
  654SOL     OW 2860   0.741   5.207   6.846
  654SOL    HW1 2861   0.747   5.110   6.825
  654SOL    HW2 2862   0.824   5.253   6.816
  655SOL     OW 2863   0.213   5.582   1.821
  655SOL    HW1 2864   0.275   5.504   1.833
  655SOL    HW2 2865   0.126   5.562   1.867
  656SOL     OW 2866   1.888   6.245   1.256
  656SOL    HW1 2867   1.895   6.311   1.332
  656SOL    HW2 2868   1.792   6.223   1.240
  657SOL     OW 2869   2.322   3.824   1.760
  657SOL    HW1 2870   2.245   3.847   1.701
  657SOL    HW2 2871   2.303   3.738   1.808
  658SOL     OW 2872   2.238   3.632   6.416
  658SOL    HW1 2873   2.287   3.557   6.373
  658SOL    HW2 2874   2.293   3.715   6.411
  659SOL     OW 2875   1.338   5.975   5.090
  659SOL    HW1 2876   1.287   6.047   5.044
  659SOL    HW2 2877   1.305   5.885   5.060
  660SOL     OW 2878   5.573   3.793   1.916
  660SOL    HW1 2879   5.657   3.812   1.967
  660SOL    HW2 2880   5.548   3.697   1.927
  661SOL     OW 2881   4.789   4.274   3.180
  661SOL    HW1 2882   4.772   4.294   3.084
  661SOL    HW2 2883   4.794   4.175   3.193
  662SOL     OW 2884   4.117   0.466   4.603
  662SOL    HW1 2885   4.215   0.458   4.620
  662SOL    HW2 2886   4.067   0.441   4.686
  663SOL     OW 2887   1.193   3.541   6.508
  663SOL    HW1 2888   1.282   3.577   6.537
  663SOL    HW2 2889   1.135   3.617   6.479
  664SOL     OW 2890   6.494   5.192   6.574
  664SOL    HW1 2891   6.445   5.151   6.497
  664SOL    HW2 2892   6.560   5.259   6.539
  665SOL     OW 2893   4.501   4.977   1.069
  665SOL    HW1 2894   4.469   5.049   1.007
  665SOL    HW2 2895   4.447   4.979   1.153
  666SOL     OW 2896   4.971   1.862   2.894
  666SOL    HW1 2897   4.877   1.843   2.865
  666SOL    HW2 2898   5.017   1.776   2.916
  667SOL     OW 2899   6.378   3.522   3.546
  667SOL    HW1 2900   6.350   3.609   3.505
  667SOL    HW2 2901   6.414   3.462   3.474
  668SOL     OW 2902   4.747   5.733   6.653
  668SOL    HW1 2903   4.654   5.760   6.681
  668SOL    HW2 2904   4.746   5.709   6.556
  669SOL     OW 2905   3.811   6.160   3.409
  669SOL    HW1 2906   3.802   6.062   3.391
  669SOL    HW2 2907   3.886   6.175   3.474
  670SOL     OW 2908   2.629   3.119   1.214
  670SOL    HW1 2909   2.710   3.060   1.217
  670SOL    HW2 2910   2.650   3.206   1.257
  671SOL     OW 2911   2.560   5.683   0.128
  671SOL    HW1 2912   2.482   5.734   0.093
  671SOL    HW2 2913   2.603   5.632   0.053
  672SOL     OW 2914   0.678   4.757   1.893
  672SOL    HW1 2915   0.598   4.698   1.881
  672SOL    HW2 2916   0.725   4.734   1.978
  673SOL     OW 2917   0.028   0.686   1.594
  673SOL    HW1 2918   0.073   0.659   1.509
  673SOL    HW2 2919   6.986   0.613   1.625
  674SOL     OW 2920   6.902   3.080   4.502
  674SOL    HW1 2921   6.811   3.120   4.512
  674SOL    HW2 2922   6.934   3.092   4.408
  675SOL     OW 2923   0.817   0.634   4.252
  675SOL    HW1 2924   0.778   0.616   4.161
  675SOL    HW2 2925   0.833   0.732   4.262
  676SOL     OW 2926   4.024   6.113   2.559
  676SOL    HW1 2927   4.034   6.046   2.633
  676SOL    HW2 2928   4.016   6.205   2.598
  677SOL     OW 2929   6.172   1.774   6.750
  677SOL    HW1 2930   6.098   1.711   6.730
  677SOL    HW2 2931   6.147   1.832   6.828
  678SOL     OW 2932   1.810   1.073   4.721
  678SOL    HW1 2933   1.860   1.109   4.642
  678SOL    HW2 2934   1.867   1.006   4.769
  679SOL     OW 2935   4.550   1.729   4.280
  679SOL    HW1 2936   4.587   1.652   4.331
  679SOL    HW2 2937   4.454   1.713   4.260
  680SOL     OW 2938   6.152   5.481   6.025
  680SOL    HW1 2939   6.053   5.487   6.019
  680SOL    HW2 2940   6.193   5.531   5.948
  681SOL     OW 2941   5.549   5.834   1.564
  681SOL    HW1 2942   5.531   5.929   1.538
  681SOL    HW2 2943   5.477   5.801   1.625
  682SOL     OW 2944   1.391   0.669   0.793
  682SOL    HW1 2945   1.488   0.648   0.804
  682SOL    HW2 2946   1.381   0.757   0.747
  683SOL     OW 2947   3.851   2.937   6.762
  683SOL    HW1 2948   3.864   3.008   6.693
  683SOL    HW2 2949   3.769   2.958   6.816
  684SOL     OW 2950   6.544   1.128   0.137
  684SOL    HW1 2951   6.473   1.138   0.067
  684SOL    HW2 2952   6.601   1.209   0.139
  685SOL     OW 2953   4.935   1.249   4.220
  685SOL    HW1 2954   4.879   1.186   4.274
  685SOL    HW2 2955   4.878   1.294   4.151
  686SOL     OW 2956   5.596   2.239   3.890
  686SOL    HW1 2957   5.667   2.291   3.938
  686SOL    HW2 2958   5.639   2.167   3.835
  687SOL     OW 2959   0.875   2.658   4.524
  687SOL    HW1 2960   0.819   2.645   4.605
  687SOL    HW2 2961   0.972   2.659   4.550
  688SOL     OW 2962   1.110   2.637   0.385
  688SOL    HW1 2963   1.185   2.629   0.450
  688SOL    HW2 2964   1.139   2.694   0.308
  689SOL     OW 2965   0.356   4.214   5.847
  689SOL    HW1 2966   0.454   4.214   5.827
  689SOL    HW2 2967   0.327   4.307   5.871
  690SOL     OW 2968   0.608   4.081   3.214
  690SOL    HW1 2969   0.517   4.120   3.222
  690SOL    HW2 2970   0.657   4.091   3.301
  691SOL     OW 2971   2.814   0.017   6.431
  691SOL    HW1 2972   2.727   0.031   6.477
  691SOL    HW2 2973   2.855   6.950   6.462
  692SOL     OW 2974   4.162   5.968   4.107
  692SOL    HW1 2975   4.133   5.902   4.176
  692SOL    HW2 2976   4.137   5.935   4.016
  693SOL     OW 2977   6.575   0.355   3.471
  693SOL    HW1 2978   6.529   0.440   3.444
  693SOL    HW2 2979   6.508   0.282   3.481
  694SOL     OW 2980   3.960   6.421   2.508
  694SOL    HW1 2981   3.872   6.465   2.489
  694SOL    HW2 2982   3.968   6.403   2.606
  695SOL     OW 2983   4.477   6.016   4.798
  695SOL    HW1 2984   4.465   6.104   4.843
  695SOL    HW2 2985   4.389   5.986   4.760
  696SOL     OW 2986   3.181   5.126   2.235
  696SOL    HW1 2987   3.191   5.223   2.254
  696SOL    HW2 2988   3.229   5.103   2.150
  697SOL     OW 2989   2.000   2.986   3.651
  697SOL    HW1 2990   2.035   3.039   3.574
  697SOL    HW2 2991   1.928   2.923   3.619
  698SOL     OW 2992   5.517   6.722   6.902
  698SOL    HW1 2993   5.575   6.769   6.836
  698SOL    HW2 2994   5.422   6.724   6.871
  699SOL     OW 2995   1.656   3.696   5.967
  699SOL    HW1 2996   1.615   3.768   6.023
  699SOL    HW2 2997   1.644   3.608   6.013
  700SOL     OW 2998   2.688   1.416   3.717
  700SOL    HW1 2999   2.604   1.371   3.684
  700SOL    HW2 3000   2.762   1.400   3.652
  701SOL     OW 3001   5.835   3.572   4.884
  701SOL    HW1 3002   5.871   3.538   4.971
  701SOL    HW2 3003   5.901   3.554   4.811
  702SOL     OW 3004   0.518   6.061   5.875
  702SOL    HW1 3005   0.476   6.106   5.954
  702SOL    HW2 3006   0.577   6.126   5.827
  703SOL     OW 3007   3.290   4.170   6.534
  703SOL    HW1 3008   3.368   4.117   6.567
  703SOL    HW2 3009   3.260   4.134   6.445
  704SOL     OW 3010   1.372   1.330   0.400
  704SOL    HW1 3011   1.357   1.359   0.495
  704SOL    HW2 3012   1.391   1.410   0.343
  705SOL     OW 3013   6.023   6.082   2.847
  705SOL    HW1 3014   6.056   6.127   2.930
  705SOL    HW2 3015   5.987   6.151   2.784
  706SOL     OW 3016   4.553   2.388   4.021
  706SOL    HW1 3017   4.590   2.325   3.953
  706SOL    HW2 3018   4.455   2.398   4.007
  707SOL     OW 3019   5.197   6.489   2.154
  707SOL    HW1 3020   5.273   6.479   2.218
  707SOL    HW2 3021   5.218   6.562   2.089
  708SOL     OW 3022   3.725   0.683   1.445
  708SOL    HW1 3023   3.653   0.656   1.382
  708SOL    HW2 3024   3.811   0.694   1.395
  709SOL     OW 3025   0.986   5.458   0.858
  709SOL    HW1 3026   0.936   5.468   0.944
  709SOL    HW2 3027   1.031   5.368   0.856
  710SOL     OW 3028   3.552   2.935   2.746
  710SOL    HW1 3029   3.572   2.919   2.842
  710SOL    HW2 3030   3.492   3.015   2.737
  711SOL     OW 3031   0.102   2.435   5.434
  711SOL    HW1 3032   0.073   2.407   5.525
  711SOL    HW2 3033   0.142   2.357   5.386
  712SOL     OW 3034   3.843   3.654   1.188
  712SOL    HW1 3035   3.785   3.573   1.186
  712SOL    HW2 3036   3.886   3.668   1.099
  713SOL     OW 3037   4.087   2.856   5.946
  713SOL    HW1 3038   3.998   2.839   5.904
  713SOL    HW2 3039   4.075   2.891   6.039
  714SOL     OW 3040   6.651   4.097   4.028
  714SOL    HW1 3041   6.590   4.042   3.971
  714SOL    HW2 3042   6.673   4.046   4.112
  715SOL     OW 3043   5.747   5.465   0.322
  715SOL    HW1 3044   5.734   5.367   0.307
  715SOL    HW2 3045   5.779   5.508   0.238
  716SOL     OW 3046   1.150   6.962   0.962
  716SOL    HW1 3047   1.177   0.023   1.015
  716SOL    HW2 3048   1.062   6.928   0.995
  717SOL     OW 3049   6.032   4.720   6.189
  717SOL    HW1 3050   6.057   4.793   6.124
  717SOL    HW2 3051   6.099   4.717   6.263
  718SOL     OW 3052   4.901   2.587   6.318
  718SOL    HW1 3053   4.919   2.685   6.309
  718SOL    HW2 3054   4.986   2.536   6.307
  719SOL     OW 3055   6.527   0.564   1.957
  719SOL    HW1 3056   6.444   0.581   2.011
  719SOL    HW2 3057   6.501   0.525   1.868
  720SOL     OW 3058   3.300   0.981   6.251
  720SOL    HW1 3059   3.226   0.952   6.311
  720SOL    HW2 3060   3.382   1.000   6.305
  721SOL     OW 3061   2.807   0.794   4.258
  721SOL    HW1 3062   2.780   0.888   4.280
  721SOL    HW2 3063   2.870   0.795   4.180
  722SOL     OW 3064   2.908   0.444   4.840
  722SOL    HW1 3065   2.900   0.346   4.818
  722SOL    HW2 3066   2.832   0.471   4.899
  723SOL     OW 3067   1.857   3.953   2.951
  723SOL    HW1 3068   1.955   3.937   2.963
  723SOL    HW2 3069   1.807   3.913   3.027
  724SOL     OW 3070   1.145   3.128   4.403
  724SOL    HW1 3071   1.155   3.096   4.309
  724SOL    HW2 3072   1.125   3.051   4.462
  725SOL     OW 3073   3.623   5.759   0.873
  725SOL    HW1 3074   3.676   5.836   0.839
  725SOL    HW2 3075   3.654   5.734   0.964
  726SOL     OW 3076   4.089   4.863   0.737
  726SOL    HW1 3077   4.026   4.797   0.696
  726SOL    HW2 3078   4.170   4.814   0.771
  727SOL     OW 3079   5.551   4.915   6.023
  727SOL    HW1 3080   5.631   4.921   6.083
  727SOL    HW2 3081   5.536   4.819   5.997
  728SOL     OW 3082   6.658   3.187   4.623
  728SOL    HW1 3083   6.652   3.285   4.604
  728SOL    HW2 3084   6.673   3.173   4.721
  729SOL     OW 3085   1.532   2.229   1.171
  729SOL    HW1 3086   1.548   2.302   1.104
  729SOL    HW2 3087   1.441   2.240   1.211
  730SOL     OW 3088   5.375   0.837   3.192
  730SOL    HW1 3089   5.441   0.815   3.264
  730SOL    HW2 3090   5.323   0.918   3.218
  731SOL     OW 3091   5.328   4.486   5.747
  731SOL    HW1 3092   5.248   4.438   5.711
  731SOL    HW2 3093   5.407   4.425   5.745
  732SOL     OW 3094   6.990   2.323   1.847
  732SOL    HW1 3095   7.005   2.336   1.749
  732SOL    HW2 3096   0.016   2.239   1.877
  733SOL     OW 3097   6.099   6.206   5.632
  733SOL    HW1 3098   6.001   6.227   5.636
  733SOL    HW2 3099   6.128   6.166   5.719
  734SOL     OW 3100   0.202   4.695   2.668
  734SOL    HW1 3101   0.256   4.748   2.603
  734SOL    HW2 3102   0.264   4.645   2.729
  735SOL     OW 3103   3.580   2.140   0.245
  735SOL    HW1 3104   3.624   2.089   0.319
  735SOL    HW2 3105   3.649   2.190   0.193
  736SOL     OW 3106   0.854   0.621   3.202
  736SOL    HW1 3107   0.867   0.720   3.216
  736SOL    HW2 3108   0.869   0.573   3.288
  737SOL     OW 3109   4.897   2.410   6.051
  737SOL    HW1 3110   4.811   2.440   6.009
  737SOL    HW2 3111   4.956   2.489   6.065
  738SOL     OW 3112   1.922   4.399   2.017
  738SOL    HW1 3113   1.882   4.403   2.109
  738SOL    HW2 3114   1.909   4.486   1.971
  739SOL     OW 3115   4.170   0.246   3.938
  739SOL    HW1 3116   4.146   0.278   3.847
  739SOL    HW2 3117   4.258   0.286   3.966
  740SOL     OW 3118   5.414   0.334   1.204
  740SOL    HW1 3119   5.371   0.397   1.139
  740SOL    HW2 3120   5.377   0.242   1.190
  741SOL     OW 3121   2.322   6.132   3.372
  741SOL    HW1 3122   2.357   6.089   3.456
  741SOL    HW2 3123   2.397   6.175   3.322
  742SOL     OW 3124   2.675   6.809   2.287
  742SOL    HW1 3125   2.577   6.808   2.271
  742SOL    HW2 3126   2.713   6.896   2.255
  743SOL     OW 3127   0.335   3.879   4.094
  743SOL    HW1 3128   0.252   3.828   4.072
  743SOL    HW2 3129   0.378   3.838   4.175
  744SOL     OW 3130   5.566   0.685   6.868
  744SOL    HW1 3131   5.491   0.620   6.879
  744SOL    HW2 3132   5.530   0.776   6.848
  745SOL     OW 3133   0.896   5.686   4.837
  745SOL    HW1 3134   0.857   5.598   4.809
  745SOL    HW2 3135   0.965   5.715   4.771
  746SOL     OW 3136   0.150   4.826   5.930
  746SOL    HW1 3137   0.149   4.736   5.972
  746SOL    HW2 3138   0.177   4.818   5.834
  747SOL     OW 3139   3.864   6.433   4.438
  747SOL    HW1 3140   3.937   6.445   4.504
  747SOL    HW2 3141   3.894   6.371   4.365
  748SOL     OW 3142   4.035   4.805   2.198
  748SOL    HW1 3143   4.009   4.855   2.280
  748SOL    HW2 3144   3.956   4.756   2.161
  749SOL     OW 3145   6.490   4.593   4.885
  749SOL    HW1 3146   6.535   4.670   4.841
  749SOL    HW2 3147   6.430   4.547   4.820
  750SOL     OW 3148   1.716   2.045   1.226
  750SOL    HW1 3149   1.657   2.125   1.211
  750SOL    HW2 3150   1.739   2.004   1.137
  751SOL     OW 3151   3.983   2.392   6.558
  751SOL    HW1 3152   3.956   2.429   6.647
  751SOL    HW2 3153   3.967   2.460   6.487
  752SOL     OW 3154   3.733   1.387   2.298
  752SOL    HW1 3155   3.696   1.301   2.333
  752SOL    HW2 3156   3.662   1.437   2.249
  753SOL     OW 3157   1.997   3.388   5.327
  753SOL    HW1 3158   1.998   3.441   5.412
  753SOL    HW2 3159   2.089   3.385   5.289
  754SOL     OW 3160   5.101   2.583   5.558
  754SOL    HW1 3161   5.199   2.583   5.578
  754SOL    HW2 3162   5.085   2.621   5.467
  755SOL     OW 3163   1.288   4.118   5.120
  755SOL    HW1 3164   1.333   4.092   5.205
  755SOL    HW2 3165   1.318   4.210   5.093
  756SOL     OW 3166   3.413   6.843   0.334
  756SOL    HW1 3167   3.419   6.916   0.402
  756SOL    HW2 3168   3.504   6.805   0.317
  757SOL     OW 3169   1.136   0.122   3.879
  757SOL    HW1 3170   1.119   0.048   3.944
  757SOL    HW2 3171   1.095   0.206   3.913
  758SOL     OW 3172   3.638   0.112   1.822
  758SOL    HW1 3173   3.693   0.195   1.831
  758SOL    HW2 3174   3.583   0.099   1.904
  759SOL     OW 3175   0.180   1.415   1.225
  759SOL    HW1 3176   0.253   1.457   1.172
  759SOL    HW2 3177   0.216   1.388   1.315
  760SOL     OW 3178   5.519   0.455   5.748
  760SOL    HW1 3179   5.508   0.356   5.761
  760SOL    HW2 3180   5.496   0.479   5.654
  761SOL     OW 3181   5.582   2.981   5.708
  761SOL    HW1 3182   5.632   3.052   5.756
  761SOL    HW2 3183   5.507   2.948   5.765
  762SOL     OW 3184   2.505   0.844   4.803
  762SOL    HW1 3185   2.570   0.768   4.795
  762SOL    HW2 3186   2.441   0.841   4.726
  763SOL     OW 3187   4.096   5.407   6.076
  763SOL    HW1 3188   4.195   5.418   6.070
  763SOL    HW2 3189   4.054   5.497   6.091
  764SOL     OW 3190   5.388   1.977   5.312
  764SOL    HW1 3191   5.458   1.917   5.274
  764SOL    HW2 3192   5.311   1.923   5.345
  765SOL     OW 3193   1.192   6.002   1.528
  765SOL    HW1 3194   1.291   6.000   1.512
  765SOL    HW2 3195   1.157   6.093   1.505
  766SOL     OW 3196   2.167   3.435   6.600
  766SOL    HW1 3197   2.170   3.501   6.525
  766SOL    HW2 3198   2.259   3.426   6.640
  767SOL     OW 3199   6.204   5.777   1.762
  767SOL    HW1 3200   6.110   5.743   1.760
  767SOL    HW2 3201   6.249   5.758   1.675
  768SOL     OW 3202   2.080   6.390   1.954
  768SOL    HW1 3203   2.125   6.437   2.029
  768SOL    HW2 3204   2.118   6.298   1.944
  769SOL     OW 3205   3.192   0.737   4.912
  769SOL    HW1 3206   3.285   0.761   4.939
  769SOL    HW2 3207   3.131   0.814   4.928
  770SOL     OW 3208   2.002   4.479   2.974
  770SOL    HW1 3209   1.906   4.497   2.995
  770SOL    HW2 3210   2.038   4.555   2.921
  771SOL     OW 3211   2.652   5.295   2.583
  771SOL    HW1 3212   2.733   5.351   2.572
  771SOL    HW2 3213   2.581   5.347   2.631
  772SOL     OW 3214   5.591   5.175   0.568
  772SOL    HW1 3215   5.571   5.158   0.665
  772SOL    HW2 3216   5.682   5.216   0.560
  773SOL     OW 3217   0.343   3.488   4.999
  773SOL    HW1 3218   0.302   3.404   4.963
  773SOL    HW2 3219   0.348   3.556   4.926
  774SOL     OW 3220   1.021   1.881   1.361
  774SOL    HW1 3221   0.923   1.890   1.343
  774SOL    HW2 3222   1.041   1.913   1.454
  775SOL     OW 3223   0.661   2.197   2.761
  775SOL    HW1 3224   0.611   2.283   2.754
  775SOL    HW2 3225   0.757   2.216   2.783
  776SOL     OW 3226   0.973   0.411   6.373
  776SOL    HW1 3227   1.055   0.380   6.325
  776SOL    HW2 3228   0.893   0.391   6.318
  777SOL     OW 3229   2.276   5.000   1.358
  777SOL    HW1 3230   2.323   4.939   1.294
  777SOL    HW2 3231   2.275   4.959   1.449
  778SOL     OW 3232   2.513   1.183   2.182
  778SOL    HW1 3233   2.554   1.274   2.180
  778SOL    HW2 3234   2.429   1.186   2.238
  779SOL     OW 3235   6.747   2.538   2.724
  779SOL    HW1 3236   6.841   2.564   2.700
  779SOL    HW2 3237   6.705   2.490   2.647
  780SOL     OW 3238   6.512   3.685   3.747
  780SOL    HW1 3239   6.590   3.634   3.784
  780SOL    HW2 3240   6.460   3.626   3.685
  781SOL     OW 3241   5.546   1.324   0.232
  781SOL    HW1 3242   5.546   1.285   0.324
  781SOL    HW2 3243   5.603   1.268   0.172
  782SOL     OW 3244   1.526   4.185   6.652
  782SOL    HW1 3245   1.609   4.206   6.600
  782SOL    HW2 3246   1.446   4.205   6.597
  783SOL     OW 3247   4.269   5.164   1.010
  783SOL    HW1 3248   4.313   5.126   1.091
  783SOL    HW2 3249   4.332   5.225   0.963
  784SOL     OW 3250   5.358   5.889   0.430
  784SOL    HW1 3251   5.274   5.939   0.412
  784SOL    HW2 3252   5.407   5.873   0.344
  785SOL     OW 3253   0.785   2.692   3.069
  785SOL    HW1 3254   0.883   2.679   3.055
  785SOL    HW2 3255   0.738   2.688   2.981
  786SOL     OW 3256   1.554   0.713   2.102
  786SOL    HW1 3257   1.625   0.687   2.037
  786SOL    HW2 3258   1.478   0.648   2.098
  787SOL     OW 3259   2.597   0.328   6.844
  787SOL    HW1 3260   2.564   0.386   6.919
  787SOL    HW2 3261   2.634   0.243   6.882
  788SOL     OW 3262   4.003   3.141   5.566
  788SOL    HW1 3263   3.976   3.051   5.599
  788SOL    HW2 3264   4.045   3.133   5.476
  789SOL     OW 3265   5.264   4.038   0.740
  789SOL    HW1 3266   5.234   3.946   0.766
  789SOL    HW2 3267   5.193   4.081   0.684
  790SOL     OW 3268   2.195   1.244   3.981
  790SOL    HW1 3269   2.242   1.156   3.968
  790SOL    HW2 3270   2.200   1.271   4.077
  791SOL     OW 3271   3.075   5.755   4.065
  791SOL    HW1 3272   3.130   5.818   4.120
  791SOL    HW2 3273   3.025   5.807   3.996
  792SOL     OW 3274   0.874   6.843   0.945
  792SOL    HW1 3275   0.785   6.880   0.920
  792SOL    HW2 3276   0.929   6.830   0.862
  793SOL     OW 3277   4.832   4.979   3.500
  793SOL    HW1 3278   4.863   4.945   3.589
  793SOL    HW2 3279   4.732   4.986   3.500
  794SOL     OW 3280   3.270   3.811   5.290
  794SOL    HW1 3281   3.336   3.781   5.221
  794SOL    HW2 3282   3.293   3.769   5.378
  795SOL     OW 3283   3.477   6.877   4.153
  795SOL    HW1 3284   3.482   6.821   4.070
  795SOL    HW2 3285   3.499   6.820   4.233
  796SOL     OW 3286   0.365   2.128   6.547
  796SOL    HW1 3287   0.357   2.040   6.500
  796SOL    HW2 3288   0.459   2.162   6.539
  797SOL     OW 3289   5.574   3.092   0.674
  797SOL    HW1 3290   5.543   3.146   0.751
  797SOL    HW2 3291   5.674   3.083   0.678
  798SOL     OW 3292   3.854   0.579   2.498
  798SOL    HW1 3293   3.795   0.609   2.573
  798SOL    HW2 3294   3.806   0.588   2.411
  799SOL     OW 3295   6.517   0.176   5.740
  799SOL    HW1 3296   6.552   0.232   5.665
  799SOL    HW2 3297   6.586   0.170   5.812
  800SOL     OW 3298   5.399   2.193   2.576
  800SOL    HW1 3299   5.300   2.194   2.590
  800SOL    HW2 3300   5.419   2.186   2.479
  801SOL     OW 3301   0.907   3.738   4.326
  801SOL    HW1 3302   0.954   3.705   4.407
  801SOL    HW2 3303   0.918   3.837   4.319
  802SOL     OW 3304   4.041   1.758   1.016
  802SOL    HW1 3305   3.945   1.734   1.033
  802SOL    HW2 3306   4.075   1.705   0.938
  803SOL     OW 3307   0.402   6.854   5.495
  803SOL    HW1 3308   0.334   6.848   5.422
  803SOL    HW2 3309   0.362   6.819   5.580
  804SOL     OW 3310   5.292   5.585   0.004
  804SOL    HW1 3311   5.284   5.613   6.927
  804SOL    HW2 3312   5.289   5.485   0.010
  805SOL     OW 3313   3.862   6.957   5.531
  805SOL    HW1 3314   3.916   6.890   5.479
  805SOL    HW2 3315   3.922   0.012   5.563
  806SOL     OW 3316   5.417   0.939   4.692
  806SOL    HW1 3317   5.488   0.978   4.632
  806SOL    HW2 3318   5.359   1.013   4.726
  807SOL     OW 3319   1.597   2.291   4.258
  807SOL    HW1 3320   1.583   2.348   4.339
  807SOL    HW2 3321   1.509   2.250   4.231
  808SOL     OW 3322   4.397   3.584   6.400
  808SOL    HW1 3323   4.457   3.609   6.324
  808SOL    HW2 3324   4.380   3.485   6.397
  809SOL     OW 3325   6.643   5.145   1.303
  809SOL    HW1 3326   6.625   5.064   1.358
  809SOL    HW2 3327   6.736   5.143   1.268
  810SOL     OW 3328   3.247   2.993   1.604
  810SOL    HW1 3329   3.184   2.918   1.624
  810SOL    HW2 3330   3.311   2.965   1.533
  811SOL     OW 3331   4.051   5.457   5.272
  811SOL    HW1 3332   4.073   5.518   5.348
  811SOL    HW2 3333   3.951   5.449   5.263
  812SOL     OW 3334   0.310   1.258   2.222
  812SOL    HW1 3335   0.368   1.177   2.209
  812SOL    HW2 3336   0.363   1.340   2.201
  813SOL     OW 3337   3.312   6.160   5.375
  813SOL    HW1 3338   3.307   6.156   5.475
  813SOL    HW2 3339   3.383   6.097   5.343
  814SOL     OW 3340   6.709   5.999   2.477
  814SOL    HW1 3341   6.772   5.983   2.553
  814SOL    HW2 3342   6.692   6.097   2.467
  815SOL     OW 3343   0.475   3.366   3.184
  815SOL    HW1 3344   0.386   3.339   3.221
  815SOL    HW2 3345   0.481   3.465   3.182
  816SOL     OW 3346   6.323   6.723   0.828
  816SOL    HW1 3347   6.403   6.670   0.856
  816SOL    HW2 3348   6.347   6.783   0.752
  817SOL     OW 3349   1.886   4.322   0.579
  817SOL    HW1 3350   1.853   4.253   0.643
  817SOL    HW2 3351   1.899   4.409   0.627
  818SOL     OW 3352   6.180   2.816   2.286
  818SOL    HW1 3353   6.135   2.903   2.265
  818SOL    HW2 3354   6.112   2.748   2.312
  819SOL     OW 3355   5.420   2.829   3.267
  819SOL    HW1 3356   5.473   2.865   3.344
  819SOL    HW2 3357   5.472   2.839   3.183
  820SOL     OW 3358   3.014   2.538   5.374
  820SOL    HW1 3359   3.082   2.480   5.329
  820SOL    HW2 3360   3.015   2.629   5.334
  821SOL     OW 3361   1.442   4.647   1.275
  821SOL    HW1 3362   1.350   4.615   1.296
  821SOL    HW2 3363   1.467   4.720   1.339
  822SOL     OW 3364   1.822   4.634   3.986
  822SOL    HW1 3365   1.780   4.560   4.039
  822SOL    HW2 3366   1.801   4.622   3.889
  823SOL     OW 3367   5.371   3.705   6.742
  823SOL    HW1 3368   5.276   3.736   6.745
  823SOL    HW2 3369   5.427   3.763   6.802
  824SOL     OW 3370   5.780   1.229   6.149
  824SOL    HW1 3371   5.786   1.285   6.067
  824SOL    HW2 3372   5.726   1.147   6.129
  825SOL     OW 3373   0.607   4.126   1.462
  825SOL    HW1 3374   0.625   4.187   1.539
  825SOL    HW2 3375   0.664   4.153   1.385
  826SOL     OW 3376   5.297   3.175   5.460
  826SOL    HW1 3377   5.365   3.230   5.412
  826SOL    HW2 3378   5.227   3.235   5.499
  827SOL     OW 3379   2.631   5.075   5.472
  827SOL    HW1 3380   2.588   4.993   5.510
  827SOL    HW2 3381   2.693   5.048   5.398
  828SOL     OW 3382   5.457   6.783   6.489
  828SOL    HW1 3383   5.398   6.788   6.409
  828SOL    HW2 3384   5.437   6.700   6.540
  829SOL     OW 3385   3.107   3.901   2.853
  829SOL    HW1 3386   3.085   3.925   2.947
  829SOL    HW2 3387   3.037   3.838   2.817
  830SOL     OW 3388   5.241   4.990   6.974
  830SOL    HW1 3389   5.284   4.921   6.916
  830SOL    HW2 3390   5.153   4.956   7.007
  831SOL     OW 3391   6.378   0.552   6.918
  831SOL    HW1 3392   6.331   0.478   6.966
  831SOL    HW2 3393   6.400   0.523   6.825
  832SOL     OW 3394   3.123   0.648   1.671
  832SOL    HW1 3395   3.175   0.733   1.662
  832SOL    HW2 3396   3.143   0.606   1.760
  833SOL     OW 3397   0.640   4.124   5.520
  833SOL    HW1 3398   0.684   4.035   5.513
  833SOL    HW2 3399   0.546   4.118   5.487
  834SOL     OW 3400   4.087   3.787   0.545
  834SOL    HW1 3401   4.024   3.746   0.479
  834SOL    HW2 3402   4.056   3.879   0.570
  835SOL     OW 3403   3.791   0.257   5.220
  835SOL    HW1 3404   3.751   0.315   5.149
  835SOL    HW2 3405   3.737   0.265   5.304
  836SOL     OW 3406   3.581   6.253   6.705
  836SOL    HW1 3407   3.653   6.300   6.757
  836SOL    HW2 3408   3.614   6.163   6.676
  837SOL     OW 3409   5.431   0.329   0.428
  837SOL    HW1 3410   5.400   0.420   0.456
  837SOL    HW2 3411   5.512   0.338   0.369
  838SOL     OW 3412   2.314   0.433   4.631
  838SOL    HW1 3413   2.397   0.384   4.606
  838SOL    HW2 3414   2.292   0.416   4.727
  839SOL     OW 3415   1.988   2.760   1.973
  839SOL    HW1 3416   1.997   2.845   2.025
  839SOL    HW2 3417   2.041   2.688   2.017
  840SOL     OW 3418   6.185   6.342   0.071
  840SOL    HW1 3419   6.225   6.284   0.142
  840SOL    HW2 3420   6.101   6.299   0.037
  841SOL     OW 3421   4.189   4.942   6.355
  841SOL    HW1 3422   4.271   4.994   6.331
  841SOL    HW2 3423   4.146   4.984   6.435
  842SOL     OW 3424   4.229   0.122   5.230
  842SOL    HW1 3425   4.286   0.160   5.157
  842SOL    HW2 3426   4.144   0.086   5.190
  843SOL     OW 3427   1.102   1.663   1.172
  843SOL    HW1 3428   1.075   1.737   1.235
  843SOL    HW2 3429   1.201   1.655   1.171
  844SOL     OW 3430   6.277   0.550   0.835
  844SOL    HW1 3431   6.195   0.494   0.833
  844SOL    HW2 3432   6.287   0.593   0.925
  845SOL     OW 3433   5.337   4.527   5.166
  845SOL    HW1 3434   5.315   4.488   5.077
  845SOL    HW2 3435   5.394   4.463   5.217
  846SOL     OW 3436   1.872   1.956   6.875
  846SOL    HW1 3437   1.915   2.042   6.901
  846SOL    HW2 3438   1.773   1.963   6.887
  847SOL     OW 3439   1.568   3.479   1.539
  847SOL    HW1 3440   1.656   3.459   1.583
  847SOL    HW2 3441   1.500   3.500   1.609
  848SOL     OW 3442   6.186   0.524   6.222
  848SOL    HW1 3443   6.230   0.611   6.200
  848SOL    HW2 3444   6.105   0.511   6.164
  849SOL     OW 3445   0.595   4.164   6.186
  849SOL    HW1 3446   0.589   4.262   6.207
  849SOL    HW2 3447   0.598   4.113   6.272
  850SOL     OW 3448   4.838   0.331   3.653
  850SOL    HW1 3449   4.919   0.366   3.699
  850SOL    HW2 3450   4.843   0.351   3.555
  851SOL     OW 3451   0.311   1.595   2.455
  851SOL    HW1 3452   0.333   1.689   2.484
  851SOL    HW2 3453   0.214   1.589   2.435
  852SOL     OW 3454   1.225   2.929   6.933
  852SOL    HW1 3455   1.210   3.018   6.975
  852SOL    HW2 3456   1.323   2.915   6.919
  853SOL     OW 3457   1.770   4.447   2.250
  853SOL    HW1 3458   1.771   4.425   2.347
  853SOL    HW2 3459   1.699   4.393   2.204
  854SOL     OW 3460   4.690   5.920   1.234
  854SOL    HW1 3461   4.590   5.921   1.236
  854SOL    HW2 3462   4.724   6.013   1.220
  855SOL     OW 3463   0.217   0.453   1.923
  855SOL    HW1 3464   0.279   0.499   1.859
  855SOL    HW2 3465   0.271   0.406   1.993
  856SOL     OW 3466   1.380   2.247   5.361
  856SOL    HW1 3467   1.334   2.168   5.400
  856SOL    HW2 3468   1.318   2.295   5.298
  857SOL     OW 3469   5.777   4.552   1.744
  857SOL    HW1 3470   5.831   4.470   1.763
  857SOL    HW2 3471   5.769   4.606   1.828
  858SOL     OW 3472   3.032   3.543   1.138
  858SOL    HW1 3473   3.038   3.444   1.132
  858SOL    HW2 3474   3.042   3.583   1.047
  859SOL     OW 3475   5.253   5.673   5.640
  859SOL    HW1 3476   5.229   5.770   5.640
  859SOL    HW2 3477   5.177   5.620   5.677
  860SOL     OW 3478   4.936   3.676   0.255
  860SOL    HW1 3479   5.025   3.633   0.242
  860SOL    HW2 3480   4.912   3.729   0.174
  861SOL     OW 3481   2.609   6.077   3.614
  861SOL    HW1 3482   2.637   6.039   3.527
  861SOL    HW2 3483   2.649   6.168   3.626
  862SOL     OW 3484   0.860   4.243   5.006
  862SOL    HW1 3485   0.816   4.208   5.089
  862SOL    HW2 3486   0.950   4.280   5.029
  863SOL     OW 3487   6.323   0.162   0.949
  863SOL    HW1 3488   6.349   0.241   1.006
  863SOL    HW2 3489   6.236   0.125   0.982
  864SOL     OW 3490   4.030   4.903   3.756
  864SOL    HW1 3491   4.113   4.956   3.776
  864SOL    HW2 3492   4.011   4.841   3.832
  865SOL     OW 3493   0.674   5.880   6.103
  865SOL    HW1 3494   0.652   5.961   6.048
  865SOL    HW2 3495   0.672   5.799   6.045
  866SOL     OW 3496   1.928   1.937   1.713
  866SOL    HW1 3497   1.869   1.992   1.654
  866SOL    HW2 3498   1.985   1.997   1.768
  867SOL     OW 3499   4.314   3.824   0.689
  867SOL    HW1 3500   4.235   3.798   0.635
  867SOL    HW2 3501   4.395   3.829   0.630
  868SOL     OW 3502   5.812   0.663   1.157
  868SOL    HW1 3503   5.747   0.606   1.207
  868SOL    HW2 3504   5.891   0.609   1.130
  869SOL     OW 3505   7.009   5.338   3.186
  869SOL    HW1 3506   6.953   5.255   3.189
  869SOL    HW2 3507   7.004   5.377   3.094
  870SOL     OW 3508   4.133   3.384   0.546
  870SOL    HW1 3509   4.185   3.435   0.478
  870SOL    HW2 3510   4.130   3.287   0.520
  871SOL     OW 3511   4.848   2.910   3.253
  871SOL    HW1 3512   4.888   3.002   3.251
  871SOL    HW2 3513   4.837   2.881   3.348
  872SOL     OW 3514   5.437   4.098   3.971
  872SOL    HW1 3515   5.437   4.030   3.897
  872SOL    HW2 3516   5.343   4.121   3.995
  873SOL     OW 3517   6.058   6.780   4.095
  873SOL    HW1 3518   6.072   6.870   4.055
  873SOL    HW2 3519   6.142   6.749   4.139
  874SOL     OW 3520   1.133   4.194   6.010
  874SOL    HW1 3521   1.133   4.117   5.946
  874SOL    HW2 3522   1.039   4.209   6.042
  875SOL     OW 3523   3.303   2.997   0.213
  875SOL    HW1 3524   3.257   2.924   0.263
  875SOL    HW2 3525   3.401   2.998   0.237
  876SOL     OW 3526   0.840   5.076   2.882
  876SOL    HW1 3527   0.910   5.013   2.917
  876SOL    HW2 3528   0.803   5.130   2.957
  877SOL     OW 3529   4.036   4.030   6.788
  877SOL    HW1 3530   4.132   4.011   6.809
  877SOL    HW2 3531   3.978   3.999   6.863
  878SOL     OW 3532   3.917   5.705   5.332
  878SOL    HW1 3533   3.889   5.778   5.269
  878SOL    HW2 3534   3.844   5.638   5.340
  879SOL     OW 3535   2.911   2.166   1.791
  879SOL    HW1 3536   2.839   2.099   1.773
  879SOL    HW2 3537   2.887   2.219   1.872
  880SOL     OW 3538   3.136   4.491   5.712
  880SOL    HW1 3539   3.060   4.472   5.774
  880SOL    HW2 3540   3.155   4.410   5.657
  881SOL     OW 3541   4.722   4.077   5.149
  881SOL    HW1 3542   4.735   4.136   5.068
  881SOL    HW2 3543   4.763   3.988   5.132
  882SOL     OW 3544   1.101   1.804   4.439
  882SOL    HW1 3545   1.102   1.839   4.345
  882SOL    HW2 3546   1.026   1.847   4.489
  883SOL     OW 3547   4.876   5.503   6.005
  883SOL    HW1 3548   4.909   5.598   6.006
  883SOL    HW2 3549   4.954   5.441   6.017
  884SOL     OW 3550   0.072   4.138   0.465
  884SOL    HW1 3551   0.122   4.065   0.512
  884SOL    HW2 3552   0.021   4.100   0.388
  885SOL     OW 3553   4.595   5.283   6.693
  885SOL    HW1 3554   4.598   5.198   6.745
  885SOL    HW2 3555   4.644   5.355   6.743
  886SOL     OW 3556   3.934   0.732   1.004
  886SOL    HW1 3557   4.022   0.776   1.017
  886SOL    HW2 3558   3.942   0.661   0.934
  887SOL     OW 3559   3.653   0.034   4.022
  887SOL    HW1 3560   3.605   0.007   3.938
  887SOL    HW2 3561   3.621   6.996   4.098
  888SOL     OW 3562   5.671   6.034   3.168
  888SOL    HW1 3563   5.707   6.101   3.103
  888SOL    HW2 3564   5.573   6.048   3.180
  889SOL     OW 3565   1.761   6.495   5.840
  889SOL    HW1 3566   1.685   6.449   5.794
  889SOL    HW2 3567   1.848   6.455   5.809
  890SOL     OW 3568   2.132   4.957   2.104
  890SOL    HW1 3569   2.152   4.867   2.142
  890SOL    HW2 3570   2.208   5.018   2.121
  891SOL     OW 3571   6.285   4.423   0.629
  891SOL    HW1 3572   6.312   4.519   0.616
  891SOL    HW2 3573   6.317   4.391   0.718
  892SOL     OW 3574   3.790   4.045   5.469
  892SOL    HW1 3575   3.842   4.077   5.389
  892SOL    HW2 3576   3.845   3.978   5.519
  893SOL     OW 3577   1.874   1.323   1.887
  893SOL    HW1 3578   1.903   1.250   1.948
  893SOL    HW2 3579   1.877   1.410   1.936
  894SOL     OW 3580   1.666   2.090   3.129
  894SOL    HW1 3581   1.749   2.122   3.173
  894SOL    HW2 3582   1.631   2.161   3.067
  895SOL     OW 3583   1.009   5.516   4.440
  895SOL    HW1 3584   1.022   5.612   4.466
  895SOL    HW2 3585   0.919   5.485   4.471
  896SOL     OW 3586   6.511   6.199   2.003
  896SOL    HW1 3587   6.487   6.115   1.955
  896SOL    HW2 3588   6.453   6.209   2.084
  897SOL     OW 3589   4.398   1.075   0.500
  897SOL    HW1 3590   4.326   1.016   0.462
  897SOL    HW2 3591   4.443   1.028   0.576
  898SOL     OW 3592   3.957   6.143   2.921
  898SOL    HW1 3593   4.047   6.108   2.895
  898SOL    HW2 3594   3.948   6.238   2.889
  899SOL     OW 3595   0.412   5.083   0.526
  899SOL    HW1 3596   0.331   5.128   0.564
  899SOL    HW2 3597   0.391   5.049   0.435
  900SOL     OW 3598   4.430   6.402   0.630
  900SOL    HW1 3599   4.433   6.323   0.569
  900SOL    HW2 3600   4.448   6.373   0.724
  901SOL     OW 3601   0.845   1.285   5.595
  901SOL    HW1 3602   0.796   1.201   5.622
  901SOL    HW2 3603   0.925   1.297   5.654
  902SOL     OW 3604   0.700   2.347   0.504
  902SOL    HW1 3605   0.734   2.409   0.433
  902SOL    HW2 3606   0.747   2.365   0.590
  903SOL     OW 3607   6.891   4.348   6.051
  903SOL    HW1 3608   6.857   4.437   6.082
  903SOL    HW2 3609   6.891   4.345   5.951
  904SOL     OW 3610   2.024   2.443   3.239
  904SOL    HW1 3611   1.937   2.488   3.260
  904SOL    HW2 3612   2.066   2.489   3.160
  905SOL     OW 3613   4.810   3.795   6.042
  905SOL    HW1 3614   4.898   3.752   6.020
  905SOL    HW2 3615   4.741   3.723   6.054
  906SOL     OW 3616   0.447   3.208   5.771
  906SOL    HW1 3617   0.425   3.270   5.696
  906SOL    HW2 3618   0.532   3.159   5.751
  907SOL     OW 3619   5.998   2.813   2.652
  907SOL    HW1 3620   6.051   2.827   2.736
  907SOL    HW2 3621   5.931   2.740   2.667
  908SOL     OW 3622   1.583   5.911   3.391
  908SOL    HW1 3623   1.552   5.823   3.356
  908SOL    HW2 3624   1.610   5.970   3.315
  909SOL     OW 3625   2.949   5.868   2.223
  909SOL    HW1 3626   3.035   5.884   2.175
  909SOL    HW2 3627   2.927   5.947   2.280
  910SOL     OW 3628   2.816   1.035   1.018
  910SOL    HW1 3629   2.786   0.945   0.989
  910SOL    HW2 3630   2.737   1.090   1.045
  911SOL     OW 3631   6.994   5.182   0.991
  911SOL    HW1 3632   0.062   5.229   0.977
  911SOL    HW2 3633   6.954   5.210   1.079
  912SOL     OW 3634   6.154   0.795   4.013
  912SOL    HW1 3635   6.093   0.767   3.939
  912SOL    HW2 3636   6.221   0.723   4.029
  913SOL     OW 3637   1.898   0.811   2.879
  913SOL    HW1 3638   1.802   0.808   2.852
  913SOL    HW2 3639   1.944   0.887   2.832
  914SOL     OW 3640   2.357   6.079   4.954
  914SOL    HW1 3641   2.447   6.100   4.916
  914SOL    HW2 3642   2.286   6.106   4.889
  915SOL     OW 3643   1.423   3.658   6.585
  915SOL    HW1 3644   1.429   3.660   6.684
  915SOL    HW2 3645   1.501   3.707   6.545
  916SOL     OW 3646   1.228   2.590   1.884
  916SOL    HW1 3647   1.213   2.642   1.800
  916SOL    HW2 3648   1.326   2.572   1.895
  917SOL     OW 3649   5.824   0.431   2.207
  917SOL    HW1 3650   5.743   0.397   2.159
  917SOL    HW2 3651   5.855   0.362   2.272
  918SOL     OW 3652   2.915   6.806   6.994
  918SOL    HW1 3653   2.833   6.786   6.940
  918SOL    HW2 3654   2.977   6.728   6.990
  919SOL     OW 3655   6.612   5.347   2.333
  919SOL    HW1 3656   6.594   5.341   2.431
  919SOL    HW2 3657   6.556   5.280   2.284
  920SOL     OW 3658   2.273   5.827   3.111
  920SOL    HW1 3659   2.327   5.824   3.027
  920SOL    HW2 3660   2.186   5.872   3.093
  921SOL     OW 3661   4.599   4.336   3.624
  921SOL    HW1 3662   4.666   4.262   3.629
  921SOL    HW2 3663   4.548   4.341   3.709
  922SOL     OW 3664   3.578   2.783   5.676
  922SOL    HW1 3665   3.556   2.742   5.765
  922SOL    HW2 3666   3.600   2.880   5.688
  923SOL     OW 3667   2.810   4.481   6.157
  923SOL    HW1 3668   2.770   4.500   6.247
  923SOL    HW2 3669   2.848   4.565   6.119
  924SOL     OW 3670   6.331   2.377   2.594
  924SOL    HW1 3671   6.267   2.311   2.555
  924SOL    HW2 3672   6.288   2.467   2.595
  925SOL     OW 3673   6.768   1.998   6.500
  925SOL    HW1 3674   6.720   1.947   6.571
  925SOL    HW2 3675   6.867   1.990   6.514
  926SOL     OW 3676   6.092   1.443   0.577
  926SOL    HW1 3677   5.998   1.410   0.585
  926SOL    HW2 3678   6.124   1.431   0.483
  927SOL     OW 3679   5.787   3.854   3.345
  927SOL    HW1 3680   5.801   3.886   3.252
  927SOL    HW2 3681   5.789   3.754   3.347
  928SOL     OW 3682   1.082   6.390   0.722
  928SOL    HW1 3683   1.132   6.422   0.641
  928SOL    HW2 3684   1.108   6.296   0.743
  929SOL     OW 3685   0.675   0.673   1.234
  929SOL    HW1 3686   0.684   0.574   1.224
  929SOL    HW2 3687   0.678   0.698   1.331
  930SOL     OW 3688   5.554   6.105   4.770
  930SOL    HW1 3689   5.491   6.027   4.773
  930SOL    HW2 3690   5.502   6.190   4.762
  931SOL     OW 3691   5.828   3.129   2.814
  931SOL    HW1 3692   5.864   3.039   2.838
  931SOL    HW2 3693   5.853   3.151   2.719
  932SOL     OW 3694   3.170   6.618   3.020
  932SOL    HW1 3695   3.260   6.588   2.988
  932SOL    HW2 3696   3.105   6.611   2.945
  933SOL     OW 3697   1.057   5.444   3.462
  933SOL    HW1 3698   1.053   5.346   3.443
  933SOL    HW2 3699   1.048   5.495   3.376
  934SOL     OW 3700   1.677   0.502   4.856
  934SOL    HW1 3701   1.739   0.478   4.930
  934SOL    HW2 3702   1.651   0.598   4.864
  935SOL     OW 3703   5.006   4.373   5.138
  935SOL    HW1 3704   4.957   4.363   5.225
  935SOL    HW2 3705   5.098   4.336   5.147
  936SOL     OW 3706   1.673   0.730   6.462
  936SOL    HW1 3707   1.583   0.742   6.420
  936SOL    HW2 3708   1.742   0.729   6.390
  937SOL     OW 3709   4.813   1.463   4.949
  937SOL    HW1 3710   4.877   1.511   4.888
  937SOL    HW2 3711   4.849   1.465   5.042
  938SOL     OW 3712   0.129   5.733   6.054
  938SOL    HW1 3713   0.081   5.649   6.027
  938SOL    HW2 3714   0.191   5.713   6.129
  939SOL     OW 3715   5.662   0.746   5.807
  939SOL    HW1 3716   5.639   0.729   5.711
  939SOL    HW2 3717   5.581   0.728   5.864
  940SOL     OW 3718   0.885   2.953   2.478
  940SOL    HW1 3719   0.926   2.974   2.566
  940SOL    HW2 3720   0.862   3.037   2.430
  941SOL     OW 3721   6.492   0.626   5.045
  941SOL    HW1 3722   6.395   0.648   5.053
  941SOL    HW2 3723   6.523   0.642   4.952
  942SOL     OW 3724   4.841   0.079   3.576
  942SOL    HW1 3725   4.784   0.088   3.494
  942SOL    HW2 3726   4.868   0.170   3.608
  943SOL     OW 3727   1.893   3.365   3.481
  943SOL    HW1 3728   1.863   3.323   3.567
  943SOL    HW2 3729   1.902   3.464   3.494
  944SOL     OW 3730   6.463   4.099   5.472
  944SOL    HW1 3731   6.416   4.166   5.529
  944SOL    HW2 3732   6.415   4.012   5.476
  945SOL     OW 3733   6.478   4.476   5.402
  945SOL    HW1 3734   6.488   4.476   5.303
  945SOL    HW2 3735   6.560   4.517   5.443
  946SOL     OW 3736   4.584   3.028   6.055
  946SOL    HW1 3737   4.542   2.945   6.020
  946SOL    HW2 3738   4.514   3.099   6.066
  947SOL     OW 3739   3.499   2.845   4.290
  947SOL    HW1 3740   3.595   2.827   4.313
  947SOL    HW2 3741   3.444   2.848   4.374
  948SOL     OW 3742   4.269   0.281   0.846
  948SOL    HW1 3743   4.212   0.307   0.925
  948SOL    HW2 3744   4.210   0.267   0.766
  949SOL     OW 3745   0.978   6.797   6.104
  949SOL    HW1 3746   1.003   6.894   6.101
  949SOL    HW2 3747   1.031   6.751   6.176
  950SOL     OW 3748   4.369   5.027   1.775
  950SOL    HW1 3749   4.455   4.976   1.779
  950SOL    HW2 3750   4.371   5.100   1.843
  951SOL     OW 3751   2.125   0.301   3.087
  951SOL    HW1 3752   2.089   0.215   3.051
  951SOL    HW2 3753   2.221   0.290   3.111
  952SOL     OW 3754   5.329   2.026   3.024
  952SOL    HW1 3755   5.382   1.947   2.992
  952SOL    HW2 3756   5.382   2.110   3.011
  953SOL     OW 3757   4.867   5.373   4.520
  953SOL    HW1 3758   4.946   5.318   4.494
  953SOL    HW2 3759   4.897   5.465   4.543
  954SOL     OW 3760   4.861   5.843   0.334
  954SOL    HW1 3761   4.769   5.843   0.294
  954SOL    HW2 3762   4.876   5.756   0.381
  955SOL     OW 3763   0.167   4.254   2.665
  955SOL    HW1 3764   0.234   4.181   2.656
  955SOL    HW2 3765   0.089   4.222   2.719
  956SOL     OW 3766   0.050   2.151   2.727
  956SOL    HW1 3767   0.002   2.215   2.787
  956SOL    HW2 3768   0.047   2.059   2.766
  957SOL     OW 3769   0.539   5.040   4.432
  957SOL    HW1 3770   0.608   5.003   4.493
  957SOL    HW2 3771   0.452   5.048   4.481
  958SOL     OW 3772   4.568   1.904   3.160
  958SOL    HW1 3773   4.660   1.866   3.172
  958SOL    HW2 3774   4.500   1.841   3.198
  959SOL     OW 3775   3.443   5.234   3.293
  959SOL    HW1 3776   3.409   5.143   3.319
  959SOL    HW2 3777   3.375   5.281   3.237
  960SOL     OW 3778   0.832   5.963   3.326
  960SOL    HW1 3779   0.841   6.024   3.247
  960SOL    HW2 3780   0.897   5.887   3.318
  961SOL     OW 3781   4.018   0.268   3.357
  961SOL    HW1 3782   3.956   0.256   3.279
  961SOL    HW2 3783   4.001   0.357   3.399
  962SOL     OW 3784   1.393   0.989   4.241
  962SOL    HW1 3785   1.391   1.078   4.285
  962SOL    HW2 3786   1.368   0.998   4.145
  963SOL     OW 3787   0.043   2.389   6.342
  963SOL    HW1 3788   0.033   2.398   6.243
  963SOL    HW2 3789   6.972   2.372   6.383
  964SOL     OW 3790   6.139   4.345   6.773
  964SOL    HW1 3791   6.179   4.335   6.864
  964SOL    HW2 3792   6.153   4.261   6.720
  965SOL     OW 3793   5.796   1.701   0.912
  965SOL    HW1 3794   5.842   1.737   0.831
  965SOL    HW2 3795   5.741   1.773   0.954
  966SOL     OW 3796   5.341   2.841   1.778
  966SOL    HW1 3797   5.266   2.778   1.756
  966SOL    HW2 3798   5.413   2.831   1.709
  967SOL     OW 3799   2.316   4.643   1.584
  967SOL    HW1 3800   2.250   4.643   1.660
  967SOL    HW2 3801   2.285   4.579   1.514
  968SOL     OW 3802   3.530   1.760   2.017
  968SOL    HW1 3803   3.556   1.731   2.109
  968SOL    HW2 3804   3.516   1.859   2.017
  969SOL     OW 3805   3.416   5.894   6.550
  969SOL    HW1 3806   3.377   5.857   6.466
  969SOL    HW2 3807   3.371   5.853   6.630
  970SOL     OW 3808   4.909   0.959   6.181
  970SOL    HW1 3809   4.965   0.917   6.110
  970SOL    HW2 3810   4.817   0.975   6.145
  971SOL     OW 3811   6.538   1.946   3.247
  971SOL    HW1 3812   6.485   1.974   3.166
  971SOL    HW2 3813   6.634   1.935   3.221
  972SOL     OW 3814   5.921   3.779   1.618
  972SOL    HW1 3815   5.959   3.764   1.527
  972SOL    HW2 3816   5.834   3.731   1.626
  973SOL     OW 3817   6.888   4.571   6.899
  973SOL    HW1 3818   6.832   4.652   6.918
  973SOL    HW2 3819   6.850   4.522   6.820
  974SOL     OW 3820   5.846   6.880   2.661
  974SOL    HW1 3821   5.798   6.944   2.601
  974SOL    HW2 3822   5.831   6.786   2.628
  975SOL     OW 3823   1.557   5.516   6.465
  975SOL    HW1 3824   1.647   5.485   6.435
  975SOL    HW2 3825   1.567   5.597   6.523
  976SOL     OW 3826   7.007   3.622   3.049
  976SOL    HW1 3827   6.958   3.676   3.118
  976SOL    HW2 3828   0.083   3.653   3.044
  977SOL     OW 3829   1.237   0.941   2.962
  977SOL    HW1 3830   1.145   0.950   2.999
  977SOL    HW2 3831   1.237   0.963   2.865
  978SOL     OW 3832   4.807   3.830   5.594
  978SOL    HW1 3833   4.888   3.775   5.613
  978SOL    HW2 3834   4.781   3.880   5.677
  979SOL     OW 3835   6.925   2.374   1.103
  979SOL    HW1 3836   6.950   2.458   1.151
  979SOL    HW2 3837   6.855   2.395   1.034
  980SOL     OW 3838   4.285   2.353   3.949
  980SOL    HW1 3839   4.274   2.341   3.850
  980SOL    HW2 3840   4.210   2.308   3.996
  981SOL     OW 3841   1.024   2.192   5.380
  981SOL    HW1 3842   1.088   2.116   5.392
  981SOL    HW2 3843   1.056   2.251   5.306
  982SOL     OW 3844   2.298   2.219   3.613
  982SOL    HW1 3845   2.233   2.166   3.669
  982SOL    HW2 3846   2.265   2.313   3.604
  983SOL     OW 3847   5.866   2.178   4.897
  983SOL    HW1 3848   5.940   2.214   4.840
  983SOL    HW2 3849   5.787   2.238   4.892
  984SOL     OW 3850   2.632   1.926   4.657
  984SOL    HW1 3851   2.599   1.988   4.586
  984SOL    HW2 3852   2.731   1.916   4.649
  985SOL     OW 3853   5.043   4.731   6.108
  985SOL    HW1 3854   5.094   4.817   6.106
  985SOL    HW2 3855   4.945   4.749   6.107
  986SOL     OW 3856   5.314   4.407   0.683
  986SOL    HW1 3857   5.291   4.362   0.769
  986SOL    HW2 3858   5.390   4.360   0.640
  987SOL     OW 3859   4.288   0.053   1.944
  987SOL    HW1 3860   4.204   0.093   1.908
  987SOL    HW2 3861   4.278   0.036   2.042
  988SOL     OW 3862   3.247   3.302   2.829
  988SOL    HW1 3863   3.325   3.298   2.766
  988SOL    HW2 3864   3.280   3.301   2.923
  989SOL     OW 3865   6.724   0.602   5.189
  989SOL    HW1 3866   6.670   0.609   5.105
  989SOL    HW2 3867   6.703   0.680   5.248
  990SOL     OW 3868   4.014   0.010   1.808
  990SOL    HW1 3869   3.956   0.005   1.890
  990SOL    HW2 3870   3.993   0.094   1.758
  991SOL     OW 3871   1.370   2.758   5.403
  991SOL    HW1 3872   1.295   2.813   5.440
  991SOL    HW2 3873   1.376   2.773   5.304
  992SOL     OW 3874   6.948   2.482   2.296
  992SOL    HW1 3875   6.911   2.389   2.292
  992SOL    HW2 3876   0.028   2.478   2.303
  993SOL     OW 3877   1.604   4.234   1.837
  993SOL    HW1 3878   1.626   4.240   1.739
  993SOL    HW2 3879   1.682   4.195   1.886
  994SOL     OW 3880   3.463   3.809   2.092
  994SOL    HW1 3881   3.368   3.780   2.096
  994SOL    HW2 3882   3.475   3.891   2.148
  995SOL     OW 3883   3.565   2.685   5.266
  995SOL    HW1 3884   3.623   2.673   5.346
  995SOL    HW2 3885   3.620   2.721   5.190
  996SOL     OW 3886   2.661   4.677   4.056
  996SOL    HW1 3887   2.628   4.592   4.098
  996SOL    HW2 3888   2.603   4.753   4.086
  997SOL     OW 3889   1.433   0.742   2.976
  997SOL    HW1 3890   1.352   0.799   2.965
  997SOL    HW2 3891   1.409   0.658   3.024
  998SOL     OW 3892   4.140   0.126   4.303
  998SOL    HW1 3893   4.084   0.081   4.233
  998SOL    HW2 3894   4.153   0.064   4.380
  999SOL     OW 3895   5.354   4.140   1.837
  999SOL    HW1 3896   5.283   4.072   1.855
  999SOL    HW2 3897   5.435   4.093   1.800
 1000SOL     OW 3898   2.326   1.274   2.367
 1000SOL    HW1 3899   2.323   1.259   2.465
 1000SOL    HW2 3900   2.314   1.372   2.348
 1001SOL     OW 3901   5.464   6.206   0.623
 1001SOL    HW1 3902   5.519   6.163   0.551
 1001SOL    HW2 3903   5.512   6.285   0.660
 1002SOL     OW 3904   6.142   1.717   0.396
 1002SOL    HW1 3905   6.188   1.674   0.473
 1002SOL    HW2 3906   6.199   1.790   0.359
 1003SOL     OW 3907   2.161   6.045   1.606
 1003SOL    HW1 3908   2.123   6.079   1.520
 1003SOL    HW2 3909   2.104   5.971   1.641
 1004SOL     OW 3910   0.373   0.634   1.796
 1004SOL    HW1 3911   0.323   0.679   1.722
 1004SOL    HW2 3912   0.468   0.667   1.796
 1005SOL     OW 3913   1.381   2.610   3.642
 1005SOL    HW1 3914   1.424   2.693   3.605
 1005SOL    HW2 3915   1.288   2.603   3.607
 1006SOL     OW 3916   1.414   4.922   0.992
 1006SOL    HW1 3917   1.351   4.884   0.924
 1006SOL    HW2 3918   1.377   4.909   1.083
 1007SOL     OW 3919   4.975   0.340   4.985
 1007SOL    HW1 3920   5.010   0.379   5.070
 1007SOL    HW2 3921   5.048   0.289   4.939
 1008SOL     OW 3922   1.933   3.163   4.847
 1008SOL    HW1 3923   2.029   3.159   4.875
 1008SOL    HW2 3924   1.885   3.230   4.903
 1009SOL     OW 3925   0.035   5.833   5.048
 1009SOL    HW1 3926   0.121   5.843   5.098
 1009SOL    HW2 3927   7.019   5.741   5.061
 1010SOL     OW 3928   3.605   2.361   5.751
 1010SOL    HW1 3929   3.526   2.386   5.695
 1010SOL    HW2 3930   3.577   2.296   5.822
 1011SOL     OW 3931   2.526   4.874   2.372
 1011SOL    HW1 3932   2.493   4.873   2.466
 1011SOL    HW2 3933   2.459   4.831   2.312
 1012SOL     OW 3934   6.304   0.661   1.090
 1012SOL    HW1 3935   6.344   0.749   1.065
 1012SOL    HW2 3936   6.265   0.667   1.181
 1013SOL     OW 3937   0.900   1.301   6.067
 1013SOL    HW1 3938   0.815   1.355   6.065
 1013SOL    HW2 3939   0.878   1.205   6.083
 1014SOL     OW 3940   5.098   5.576   6.597
 1014SOL    HW1 3941   5.077   5.654   6.657
 1014SOL    HW2 3942   5.013   5.530   6.573
 1015SOL     OW 3943   2.560   0.075   5.497
 1015SOL    HW1 3944   2.498   0.009   5.454
 1015SOL    HW2 3945   2.547   0.165   5.455
 1016SOL     OW 3946   3.686   3.560   6.938
 1016SOL    HW1 3947   3.759   3.501   6.973
 1016SOL    HW2 3948   3.599   3.511   6.942
 1017SOL     OW 3949   4.033   2.527   1.288
 1017SOL    HW1 3950   4.024   2.481   1.199
 1017SOL    HW2 3951   3.961   2.494   1.350
 1018SOL     OW 3952   0.750   3.442   4.211
 1018SOL    HW1 3953   0.753   3.540   4.189
 1018SOL    HW2 3954   0.745   3.430   4.310
 1019SOL     OW 3955   6.890   0.241   1.590
 1019SOL    HW1 3956   6.869   0.149   1.556
 1019SOL    HW2 3957   6.983   0.243   1.627
 1020SOL     OW 3958   0.883   6.759   1.192
 1020SOL    HW1 3959   0.890   6.781   1.095
 1020SOL    HW2 3960   0.958   6.699   1.219
 1021SOL     OW 3961   4.871   0.346   1.606
 1021SOL    HW1 3962   4.921   0.301   1.532
 1021SOL    HW2 3963   4.780   0.372   1.574
 1022SOL     OW 3964   3.460   4.786   6.091
 1022SOL    HW1 3965   3.547   4.760   6.050
 1022SOL    HW2 3966   3.449   4.739   6.178
 1023SOL     OW 3967   0.904   6.660   2.911
 1023SOL    HW1 3968   0.927   6.622   2.822
 1023SOL    HW2 3969   0.807   6.682   2.914
 1024SOL     OW 3970   0.007   2.755   3.917
 1024SOL    HW1 3971   0.054   2.838   3.886
 1024SOL    HW2 3972   0.070   2.701   3.973
 1025SOL     OW 3973   2.728   2.742   0.594
 1025SOL    HW1 3974   2.695   2.836   0.584
 1025SOL    HW2 3975   2.805   2.741   0.658
 1026SOL     OW 3976   2.462   2.775   1.337
 1026SOL    HW1 3977   2.453   2.676   1.337
 1026SOL    HW2 3978   2.491   2.805   1.246
 1027SOL     OW 3979   2.954   6.691   1.198
 1027SOL    HW1 3980   2.869   6.697   1.146
 1027SOL    HW2 3981   3.025   6.648   1.143
 1028SOL     OW 3982   2.771   6.155   0.464
 1028SOL    HW1 3983   2.749   6.181   0.558
 1028SOL    HW2 3984   2.692   6.108   0.423
 1029SOL     OW 3985   1.893   0.385   0.478
 1029SOL    HW1 3986   1.927   0.370   0.385
 1029SOL    HW2 3987   1.929   0.471   0.513
 1030SOL     OW 3988   3.252   3.507   1.804
 1030SOL    HW1 3989   3.205   3.581   1.756
 1030SOL    HW2 3990   3.215   3.498   1.896
 1031SOL     OW 3991   4.783   5.354   0.943
 1031SOL    HW1 3992   4.866   5.390   0.900
 1031SOL    HW2 3993   4.732   5.429   0.985
 1032SOL     OW 3994   2.067   1.746   4.799
 1032SOL    HW1 3995   2.113   1.681   4.739
 1032SOL    HW2 3996   2.123   1.762   4.880
 1033SOL     OW 3997   1.630   6.115   0.776
 1033SOL    HW1 3998   1.632   6.057   0.857
 1033SOL    HW2 3999   1.679   6.200   0.793
 1034SOL     OW 4000   0.579   5.630   5.234
 1034SOL    HW1 4001   0.585   5.656   5.330
 1034SOL    HW2 4002   0.508   5.683   5.189
 1035SOL     OW 4003   1.184   1.100   4.842
 1035SOL    HW1 4004   1.099   1.096   4.894
 1035SOL    HW2 4005   1.167   1.068   4.749
 1036SOL     OW 4006   3.133   1.138   2.018
 1036SOL    HW1 4007   3.219   1.134   1.966
 1036SOL    HW2 4008   3.057   1.122   1.956
 1037SOL     OW 4009   1.341   0.548   2.095
 1037SOL    HW1 4010   1.378   0.467   2.140
 1037SOL    HW2 4011   1.246   0.531   2.068
 1038SOL     OW 4012   1.552   0.058   5.512
 1038SOL    HW1 4013   1.533   7.016   5.589
 1038SOL    HW2 4014   1.635   0.028   5.465
 1039SOL     OW 4015   3.599   3.069   5.864
 1039SOL    HW1 4016   3.679   3.118   5.829
 1039SOL    HW2 4017   3.629   3.000   5.930
 1040SOL     OW 4018   4.813   2.835   2.743
 1040SOL    HW1 4019   4.814   2.902   2.668
 1040SOL    HW2 4020   4.759   2.756   2.716
 1041SOL     OW 4021   6.649   6.923   4.393
 1041SOL    HW1 4022   6.653   6.944   4.491
 1041SOL    HW2 4023   6.716   6.851   4.372
 1042SOL     OW 4024   4.458   4.890   2.261
 1042SOL    HW1 4025   4.372   4.854   2.225
 1042SOL    HW2 4026   4.475   4.852   2.352
 1043SOL     OW 4027   3.606   1.625   4.722
 1043SOL    HW1 4028   3.632   1.541   4.768
 1043SOL    HW2 4029   3.511   1.618   4.690
 1044SOL     OW 4030   5.054   4.206   2.164
 1044SOL    HW1 4031   4.969   4.173   2.123
 1044SOL    HW2 4032   5.130   4.148   2.134
 1045SOL     OW 4033   4.068   6.448   2.256
 1045SOL    HW1 4034   4.046   6.428   2.352
 1045SOL    HW2 4035   4.155   6.497   2.251
 1046SOL     OW 4036   1.014   0.351   0.490
 1046SOL    HW1 4037   0.972   0.417   0.552
 1046SOL    HW2 4038   0.948   0.279   0.469
 1047SOL     OW 4039   1.976   0.643   3.101
 1047SOL    HW1 4040   2.061   0.600   3.068
 1047SOL    HW2 4041   1.945   0.711   3.035
 1048SOL     OW 4042   5.679   6.093   4.534
 1048SOL    HW1 4043   5.641   6.086   4.626
 1048SOL    HW2 4044   5.683   6.189   4.507
 1049SOL     OW 4045   6.304   5.415   4.210
 1049SOL    HW1 4046   6.254   5.331   4.186
 1049SOL    HW2 4047   6.283   5.441   4.304
 1050SOL     OW 4048   4.423   5.370   1.264
 1050SOL    HW1 4049   4.432   5.469   1.257
 1050SOL    HW2 4050   4.344   5.340   1.211
 1051SOL     OW 4051   2.394   6.085   1.232
 1051SOL    HW1 4052   2.331   6.033   1.175
 1051SOL    HW2 4053   2.385   6.182   1.213
 1052SOL     OW 4054   3.875   0.547   4.511
 1052SOL    HW1 4055   3.836   0.591   4.591
 1052SOL    HW2 4056   3.968   0.518   4.531
 1053SOL     OW 4057   6.075   4.751   3.069
 1053SOL    HW1 4058   6.097   4.817   3.141
 1053SOL    HW2 4059   6.047   4.665   3.110
 1054SOL     OW 4060   2.367   4.313   5.790
 1054SOL    HW1 4061   2.416   4.294   5.705
 1054SOL    HW2 4062   2.318   4.400   5.781
 1055SOL     OW 4063   5.296   6.349   4.156
 1055SOL    HW1 4064   5.385   6.393   4.147
 1055SOL    HW2 4065   5.280   6.290   4.077
 1056SOL     OW 4066   1.479   4.981   5.567
 1056SOL    HW1 4067   1.464   4.882   5.566
 1056SOL    HW2 4068   1.496   5.013   5.474
 1057SOL     OW 4069   3.059   3.181   2.482
 1057SOL    HW1 4070   3.050   3.209   2.386
 1057SOL    HW2 4071   3.095   3.088   2.486
 1058SOL     OW 4072   4.743   1.459   3.336
 1058SOL    HW1 4073   4.759   1.438   3.432
 1058SOL    HW2 4074   4.831   1.463   3.288
 1059SOL     OW 4075   2.228   0.082   1.194
 1059SOL    HW1 4076   2.282   0.025   1.256
 1059SOL    HW2 4077   2.194   0.162   1.242
 1060SOL     OW 4078   0.206   4.422   4.316
 1060SOL    HW1 4079   0.265   4.355   4.272
 1060SOL    HW2 4080   0.139   4.375   4.373
 1061SOL     OW 4081   5.476   3.865   1.313
 1061SOL    HW1 4082   5.499   3.825   1.225
 1061SOL    HW2 4083   5.384   3.905   1.309
 1062SOL     OW 4084   5.787   3.635   6.306
 1062SOL    HW1 4085   5.739   3.608   6.223
 1062SOL    HW2 4086   5.831   3.724   6.291
 1063SOL     OW 4087   1.891   4.826   1.576
 1063SOL    HW1 4088   1.812   4.871   1.534
 1063SOL    HW2 4089   1.900   4.855   1.671
 1064SOL     OW 4090   2.027   3.958   1.955
 1064SOL    HW1 4091   2.125   3.973   1.968
 1064SOL    HW2 4092   2.008   3.937   1.859
 1065SOL     OW 4093   4.284   0.033   3.725
 1065SOL    HW1 4094   4.314   0.127   3.705
 1065SOL    HW2 4095   4.358   7.002   3.769
 1066SOL     OW 4096   4.804   0.454   3.967
 1066SOL    HW1 4097   4.748   0.535   3.945
 1066SOL    HW2 4098   4.786   0.425   4.061
 1067SOL     OW 4099   0.667   3.182   0.683
 1067SOL    HW1 4100   0.654   3.087   0.711
 1067SOL    HW2 4101   0.632   3.194   0.590
 1068SOL     OW 4102   5.489   4.858   2.840
 1068SOL    HW1 4103   5.533   4.772   2.865
 1068SOL    HW2 4104   5.557   4.930   2.834
 1069SOL     OW 4105   4.515   4.742   0.924
 1069SOL    HW1 4106   4.522   4.836   0.957
 1069SOL    HW2 4107   4.583   4.727   0.852
 1070SOL     OW 4108   0.199   0.044   2.359
 1070SOL    HW1 4109   0.204   0.015   2.455
 1070SOL    HW2 4110   0.222   0.142   2.353
 1071SOL     OW 4111   1.818   0.148   3.134
 1071SOL    HW1 4112   1.759   0.089   3.189
 1071SOL    HW2 4113   1.762   0.202   3.071
 1072SOL     OW 4114   1.670   0.416   1.096
 1072SOL    HW1 4115   1.676   0.349   1.022
 1072SOL    HW2 4116   1.720   0.381   1.176
 1073SOL     OW 4117   4.688   6.751   1.912
 1073SOL    HW1 4118   4.755   6.825   1.911
 1073SOL    HW2 4119   4.598   6.787   1.891
 1074SOL     OW 4120   2.763   5.146   0.844
 1074SOL    HW1 4121   2.709   5.182   0.920
 1074SOL    HW2 4122   2.756   5.208   0.766
 1075SOL     OW 4123   4.364   6.933   4.190
 1075SOL    HW1 4124   4.297   6.999   4.156
 1075SOL    HW2 4125   4.365   6.853   4.130
 1076SOL     OW 4126   6.536   3.686   5.459
 1076SOL    HW1 4127   6.516   3.617   5.389
 1076SOL    HW2 4128   6.582   3.764   5.417
 1077SOL     OW 4129   5.469   0.277   0.795
 1077SOL    HW1 4130   5.378   0.303   0.763
 1077SOL    HW2 4131   5.482   0.310   0.888
 1078SOL     OW 4132   0.786   1.373   2.142
 1078SOL    HW1 4133   0.826   1.353   2.053
 1078SOL    HW2 4134   0.737   1.293   2.176
 1079SOL     OW 4135   1.865   6.248   2.155
 1079SOL    HW1 4136   1.872   6.347   2.150
 1079SOL    HW2 4137   1.946   6.206   2.115
 1080SOL     OW 4138   1.487   4.415   3.409
 1080SOL    HW1 4139   1.539   4.450   3.487
 1080SOL    HW2 4140   1.530   4.331   3.376
 1081SOL     OW 4141   0.556   6.223   6.141
 1081SOL    HW1 4142   0.465   6.257   6.117
 1081SOL    HW2 4143   0.625   6.286   6.106
 1082SOL     OW 4144   3.817   1.669   5.609
 1082SOL    HW1 4145   3.731   1.624   5.633
 1082SOL    HW2 4146   3.827   1.753   5.663
 1083SOL     OW 4147   4.118   3.957   0.889
 1083SOL    HW1 4148   4.186   3.898   0.932
 1083SOL    HW2 4149   4.157   3.999   0.807
 1084SOL     OW 4150   6.207   5.686   0.368
 1084SOL    HW1 4151   6.198   5.771   0.316
 1084SOL    HW2 4152   6.204   5.608   0.306
 1085SOL     OW 4153   1.134   3.549   4.166
 1085SOL    HW1 4154   1.189   3.564   4.084
 1085SOL    HW2 4155   1.187   3.574   4.247
 1086SOL     OW 4156   6.335   6.479   1.552
 1086SOL    HW1 4157   6.380   6.568   1.560
 1086SOL    HW2 4158   6.302   6.450   1.641
 1087SOL     OW 4159   5.997   2.604   5.631
 1087SOL    HW1 4160   6.086   2.644   5.610
 1087SOL    HW2 4161   5.993   2.581   5.729
 1088SOL     OW 4162   6.439   4.427   3.487
 1088SOL    HW1 4163   6.382   4.392   3.412
 1088SOL    HW2 4164   6.517   4.477   3.449
 1089SOL     OW 4165   1.427   6.473   4.500
 1089SOL    HW1 4166   1.407   6.426   4.413
 1089SOL    HW2 4167   1.502   6.426   4.547
 1090SOL     OW 4168   2.361   1.608   3.598
 1090SOL    HW1 4169   2.360   1.508   3.597
 1090SOL    HW2 4170   2.276   1.642   3.558
 1091SOL     OW 4171   2.519   2.776   5.665
 1091SOL    HW1 4172   2.439   2.774   5.726
 1091SOL    HW2 4173   2.491   2.747   5.573
 1092SOL     OW 4174   1.774   4.172   0.837
 1092SOL    HW1 4175   1.736   4.261   0.862
 1092SOL    HW2 4176   1.866   4.163   0.876
 1093SOL     OW 4177   1.282   1.804   2.381
 1093SOL    HW1 4178   1.370   1.771   2.345
 1093SOL    HW2 4179   1.208   1.747   2.346
 1094SOL     OW 4180   0.920   6.232   3.879
 1094SOL    HW1 4181   0.831   6.263   3.845
 1094SOL    HW2 4182   0.985   6.228   3.804
 1095SOL     OW 4183   0.569   2.707   6.370
 1095SOL    HW1 4184   0.527   2.786   6.325
 1095SOL    HW2 4185   0.605   2.735   6.459
 1096SOL     OW 4186   3.409   4.383   1.645
 1096SOL    HW1 4187   3.463   4.302   1.623
 1096SOL    HW2 4188   3.469   4.463   1.652
 1097SOL     OW 4189   2.007   4.129   4.269
 1097SOL    HW1 4190   2.046   4.149   4.359
 1097SOL    HW2 4191   1.947   4.204   4.241
 1098SOL     OW 4192   4.532   3.588   0.890
 1098SOL    HW1 4193   4.495   3.577   0.798
 1098SOL    HW2 4194   4.567   3.500   0.922
 1099SOL     OW 4195   4.221   1.735   5.083
 1099SOL    HW1 4196   4.263   1.668   5.021
 1099SOL    HW2 4197   4.136   1.698   5.120
 1100SOL     OW 4198   3.357   2.096   6.135
 1100SOL    HW1 4199   3.260   2.112   6.153
 1100SOL    HW2 4200   3.367   2.030   6.060
 1101SOL     OW 4201   6.090   2.024   0.446
 1101SOL    HW1 4202   6.035   2.107   0.457
 1101SOL    HW2 4203   6.034   1.944   0.468
 1102SOL     OW 4204   0.875   5.777   4.480
 1102SOL    HW1 4205   0.777   5.762   4.495
 1102SOL    HW2 4206   0.891   5.798   4.383
 1103SOL     OW 4207   3.531   2.075   1.016
 1103SOL    HW1 4208   3.482   2.148   1.062
 1103SOL    HW2 4209   3.473   2.034   0.945
 1104SOL     OW 4210   2.274   3.391   5.285
 1104SOL    HW1 4211   2.360   3.438   5.305
 1104SOL    HW2 4212   2.280   3.297   5.319
 1105SOL     OW 4213   6.313   3.759   5.033
 1105SOL    HW1 4214   6.380   3.699   5.077
 1105SOL    HW2 4215   6.247   3.792   5.100
 1106SOL     OW 4216   0.752   2.129   1.600
 1106SOL    HW1 4217   0.772   2.206   1.539
 1106SOL    HW2 4218   0.804   2.140   1.685
 1107SOL     OW 4219   2.295   0.216   6.471
 1107SOL    HW1 4220   2.259   0.241   6.381
 1107SOL    HW2 4221   2.336   0.296   6.514
 1108SOL     OW 4222   3.443   0.808   5.564
 1108SOL    HW1 4223   3.475   0.878   5.501
 1108SOL    HW2 4224   3.344   0.795   5.552
 1109SOL     OW 4225   5.104   6.950   4.642
 1109SOL    HW1 4226   5.110   7.003   4.558
 1109SOL    HW2 4227   5.008   6.929   4.662
 1110SOL     OW 4228   2.472   2.180   3.136
 1110SOL    HW1 4229   2.436   2.149   3.224
 1110SOL    HW2 4230   2.461   2.108   3.068
 1111SOL     OW 4231   5.205   5.023   6.430
 1111SOL    HW1 4232   5.260   5.048   6.510
 1111SOL    HW2 4233   5.145   4.947   6.453
 1112SOL     OW 4234   5.105   1.357   2.192
 1112SOL    HW1 4235   5.165   1.431   2.164
 1112SOL    HW2 4236   5.159   1.284   2.233
 1113SOL     OW 4237   0.090   3.149   2.527
 1113SOL    HW1 4238   0.045   3.178   2.443
 1113SOL    HW2 4239   0.042   3.187   2.606
 1114SOL     OW 4240   4.181   1.840   6.160
 1114SOL    HW1 4241   4.214   1.889   6.241
 1114SOL    HW2 4242   4.084   1.820   6.170
 1115SOL     OW 4243   4.355   3.265   0.332
 1115SOL    HW1 4244   4.283   3.199   0.354
 1115SOL    HW2 4245   4.406   3.287   0.415
 1116SOL     OW 4246   5.291   6.247   5.261
 1116SOL    HW1 4247   5.333   6.278   5.176
 1116SOL    HW2 4248   5.214   6.307   5.284
 1117SOL     OW 4249   1.570   2.467   1.387
 1117SOL    HW1 4250   1.632   2.437   1.315
 1117SOL    HW2 4251   1.500   2.526   1.348
 1118SOL     OW 4252   2.764   4.217   1.473
 1118SOL    HW1 4253   2.711   4.267   1.405
 1118SOL    HW2 4254   2.782   4.276   1.552
 1119SOL     OW 4255   4.207   3.986   0.351
 1119SOL    HW1 4256   4.182   4.073   0.309
 1119SOL    HW2 4257   4.174   3.911   0.294
 1120SOL     OW 4258   6.117   0.068   4.712
 1120SOL    HW1 4259   6.063   0.008   4.653
 1120SOL    HW2 4260   6.099   0.046   4.808
 1121SOL     OW 4261   4.964   5.087   2.934
 1121SOL    HW1 4262   4.951   5.004   2.880
 1121SOL    HW2 4263   4.881   5.105   2.987
 1122SOL     OW 4264   4.885   3.405   6.812
 1122SOL    HW1 4265   4.913   3.477   6.747
 1122SOL    HW2 4266   4.786   3.406   6.822
 1123SOL     OW 4267   5.178   1.222   3.607
 1123SOL    HW1 4268   5.210   1.130   3.584
 1123SOL    HW2 4269   5.150   1.224   3.703
 1124SOL     OW 4270   6.153   4.071   5.070
 1124SOL    HW1 4271   6.144   3.987   5.123
 1124SOL    HW2 4272   6.227   4.060   5.003
 1125SOL     OW 4273   3.167   1.353   5.019
 1125SOL    HW1 4274   3.140   1.287   4.949
 1125SOL    HW2 4275   3.085   1.384   5.068
 1126SOL     OW 4276   5.422   5.332   6.831
 1126SOL    HW1 4277   5.424   5.284   6.918
 1126SOL    HW2 4278   5.511   5.376   6.815
 1127SOL     OW 4279   4.588   5.076   4.320
 1127SOL    HW1 4280   4.594   4.995   4.261
 1127SOL    HW2 4281   4.526   5.057   4.397
 1128SOL     OW 4282   5.584   1.970   5.671
 1128SOL    HW1 4283   5.611   1.895   5.611
 1128SOL    HW2 4284   5.510   1.940   5.731
 1129SOL     OW 4285   3.350   0.484   6.874
 1129SOL    HW1 4286   3.274   0.530   6.829
 1129SOL    HW2 4287   3.356   0.390   6.841
 1130SOL     OW 4288   2.166   4.573   0.589
 1130SOL    HW1 4289   2.183   4.482   0.625
 1130SOL    HW2 4290   2.104   4.622   0.649
 1131SOL     OW 4291   0.134   6.363   6.492
 1131SOL    HW1 4292   0.188   6.445   6.472
 1131SOL    HW2 4293   0.088   6.333   6.409
 1132SOL     OW 4294   4.950   0.113   1.402
 1132SOL    HW1 4295   4.963   0.077   1.309
 1132SOL    HW2 4296   4.992   0.051   1.468
 1133SOL     OW 4297   1.029   0.325   1.094
 1133SOL    HW1 4298   0.944   0.282   1.123
 1133SOL    HW2 4299   1.040   0.413   1.140
 1134SOL     OW 4300   4.985   1.404   1.770
 1134SOL    HW1 4301   4.920   1.458   1.717
 1134SOL    HW2 4302   5.048   1.465   1.818
 1135SOL     OW 4303   2.080   1.264   2.813
 1135SOL    HW1 4304   2.064   1.320   2.894
 1135SOL    HW2 4305   1.998   1.210   2.794
 1136SOL     OW 4306   2.783   4.944   4.660
 1136SOL    HW1 4307   2.863   4.942   4.720
 1136SOL    HW2 4308   2.738   5.033   4.668
 1137SOL     OW 4309   1.462   1.401   5.979
 1137SOL    HW1 4310   1.381   1.460   5.981
 1137SOL    HW2 4311   1.438   1.311   6.014
 1138SOL     OW 4312   0.798   1.350   6.778
 1138SOL    HW1 4313   0.815   1.414   6.852
 1138SOL    HW2 4314   0.818   1.257   6.808
 1139SOL     OW 4315   3.351   5.693   1.409
 1139SOL    HW1 4316   3.362   5.781   1.455
 1139SOL    HW2 4317   3.435   5.640   1.419
 1140SOL     OW 4318   4.020   1.023   1.978
 1140SOL    HW1 4319   3.971   0.979   2.053
 1140SOL    HW2 4320   3.971   1.006   1.892
 1141SOL     OW 4321   0.397   6.921   6.362
 1141SOL    HW1 4322   0.438   7.012   6.354
 1141SOL    HW2 4323   0.452   6.855   6.310
 1142SOL     OW 4324   2.776   0.174   4.383
 1142SOL    HW1 4325   2.806   0.085   4.418
 1142SOL    HW2 4326   2.680   0.168   4.356
 1143SOL     OW 4327   1.561   3.536   2.477
 1143SOL    HW1 4328   1.501   3.458   2.460
 1143SOL    HW2 4329   1.656   3.509   2.460
 1144SOL     OW 4330   6.727   4.975   5.493
 1144SOL    HW1 4331   6.789   5.048   5.521
 1144SOL    HW2 4332   6.681   4.937   5.574
 1145SOL     OW 4333   0.279   4.023   2.139
 1145SOL    HW1 4334   0.311   3.966   2.064
 1145SOL    HW2 4335   0.239   4.107   2.103
 1146SOL     OW 4336   6.191   0.686   1.808
 1146SOL    HW1 4337   6.183   0.638   1.720
 1146SOL    HW2 4338   6.254   0.763   1.799
 1147SOL     OW 4339   1.729   5.400   0.954
 1147SOL    HW1 4340   1.742   5.396   1.054
 1147SOL    HW2 4341   1.635   5.428   0.934
 1148SOL     OW 4342   5.019   6.991   0.317
 1148SOL    HW1 4343   4.929   6.969   0.278
 1148SOL    HW2 4344   5.082   7.018   0.244
 1149SOL     OW 4345   6.346   4.057   2.500
 1149SOL    HW1 4346   6.374   4.118   2.426
 1149SOL    HW2 4347   6.416   3.988   2.515
 1150SOL     OW 4348   2.794   4.098   0.557
 1150SOL    HW1 4349   2.841   4.024   0.605
 1150SOL    HW2 4350   2.787   4.076   0.459
 1151SOL     OW 4351   4.192   5.207   6.775
 1151SOL    HW1 4352   4.253   5.224   6.698
 1151SOL    HW2 4353   4.243   5.216   6.861
 1152SOL     OW 4354   6.482   5.351   6.171
 1152SOL    HW1 4355   6.416   5.385   6.238
 1152SOL    HW2 4356   6.544   5.287   6.215
 1153SOL     OW 4357   2.482   0.008   2.502
 1153SOL    HW1 4358   2.457   6.935   2.530
 1153SOL    HW2 4359   2.480   0.014   2.402
 1154SOL     OW 4360   0.909   3.930   1.550
 1154SOL    HW1 4361   0.859   3.858   1.598
 1154SOL    HW2 4362   0.861   3.954   1.465
 1155SOL     OW 4363   2.186   5.458   6.772
 1155SOL    HW1 4364   2.115   5.390   6.754
 1155SOL    HW2 4365   2.275   5.412   6.776
 1156SOL     OW 4366   2.875   1.193   4.959
 1156SOL    HW1 4367   2.812   1.140   4.902
 1156SOL    HW2 4368   2.941   1.241   4.900
 1157SOL     OW 4369   6.118   0.783   5.242
 1157SOL    HW1 4370   6.144   0.858   5.303
 1157SOL    HW2 4371   6.134   0.696   5.287
 1158SOL     OW 4372   0.194   6.151   5.328
 1158SOL    HW1 4373   0.119   6.205   5.367
 1158SOL    HW2 4374   0.209   6.178   5.233
 1159SOL     OW 4375   6.102   6.651   4.388
 1159SOL    HW1 4376   6.101   6.746   4.421
 1159SOL    HW2 4377   6.008   6.617   4.380
 1160SOL     OW 4378   3.504   3.147   0.880
 1160SOL    HW1 4379   3.428   3.188   0.830
 1160SOL    HW2 4380   3.585   3.144   0.821
 1161SOL     OW 4381   5.891   0.503   6.614
 1161SOL    HW1 4382   5.831   0.534   6.540
 1161SOL    HW2 4383   5.882   0.565   6.692
 1162SOL     OW 4384   2.840   2.303   6.423
 1162SOL    HW1 4385   2.828   2.320   6.521
 1162SOL    HW2 4386   2.897   2.375   6.383
 1163SOL     OW 4387   6.759   3.284   1.432
 1163SOL    HW1 4388   6.717   3.195   1.449
 1163SOL    HW2 4389   6.734   3.316   1.340
 1164SOL     OW 4390   5.360   2.747   5.011
 1164SOL    HW1 4391   5.414   2.663   5.017
 1164SOL    HW2 4392   5.363   2.795   5.099
 1165SOL     OW 4393   2.676   4.692   3.772
 1165SOL    HW1 4394   2.684   4.675   3.870
 1165SOL    HW2 4395   2.656   4.789   3.757
 1166SOL     OW 4396   3.742   6.805   0.252
 1166SOL    HW1 4397   3.724   6.783   0.348
 1166SOL    HW2 4398   3.829   6.852   0.244
 1167SOL     OW 4399   4.277   6.527   6.499
 1167SOL    HW1 4400   4.364   6.530   6.547
 1167SOL    HW2 4401   4.289   6.483   6.410
 1168SOL     OW 4402   5.564   1.850   4.169
 1168SOL    HW1 4403   5.651   1.881   4.208
 1168SOL    HW2 4404   5.503   1.823   4.243
 1169SOL     OW 4405   5.463   2.536   6.092
 1169SOL    HW1 4406   5.443   2.630   6.120
 1169SOL    HW2 4407   5.380   2.494   6.055
 1170SOL     OW 4408   5.146   1.322   2.973
 1170SOL    HW1 4409   5.241   1.318   3.002
 1170SOL    HW2 4410   5.133   1.263   2.893
 1171SOL     OW 4411   3.086   6.597   0.080
 1171SOL    HW1 4412   3.136   6.621   0.164
 1171SOL    HW2 4413   3.134   6.636   0.001
 1172SOL     OW 4414   3.272   4.034   2.138
 1172SOL    HW1 4415   3.231   3.963   2.081
 1172SOL    HW2 4416   3.274   4.120   2.088
 1173SOL     OW 4417   3.588   0.291   5.980
 1173SOL    HW1 4418   3.499   0.284   5.935
 1173SOL    HW2 4419   3.575   0.316   6.076
 1174SOL     OW 4420   2.940   4.144   6.814
 1174SOL    HW1 4421   2.931   4.237   6.848
 1174SOL    HW2 4422   2.971   4.084   6.888
 1175SOL     OW 4423   3.950   3.379   6.530
 1175SOL    HW1 4424   3.977   3.443   6.601
 1175SOL    HW2 4425   3.966   3.419   6.440
 1176SOL     OW 4426   5.809   4.553   0.474
 1176SOL    HW1 4427   5.817   4.603   0.388
 1176SOL    HW2 4428   5.897   4.514   0.499
 1177SOL     OW 4429   0.025   1.758   6.112
 1177SOL    HW1 4430   6.972   1.737   6.178
 1177SOL    HW2 4431   0.012   1.704   6.029
 1178SOL     OW 4432   3.271   3.344   1.359
 1178SOL    HW1 4433   3.343   3.278   1.337
 1178SOL    HW2 4434   3.183   3.298   1.361
 1179SOL     OW 4435   3.156   6.316   0.528
 1179SOL    HW1 4436   3.077   6.375   0.509
 1179SOL    HW2 4437   3.139   6.263   0.611
 1180SOL     OW 4438   2.326   5.776   3.889
 1180SOL    HW1 4439   2.373   5.707   3.834
 1180SOL    HW2 4440   2.246   5.736   3.932
 1181SOL     OW 4441   0.078   2.613   4.977
 1181SOL    HW1 4442   0.037   2.681   5.037
 1181SOL    HW2 4443   0.028   2.611   4.890
 1182SOL     OW 4444   3.030   5.358   3.608
 1182SOL    HW1 4445   2.992   5.448   3.586
 1182SOL    HW2 4446   3.120   5.368   3.649
 1183SOL     OW 4447   3.799   6.169   1.775
 1183SOL    HW1 4448   3.746   6.125   1.848
 1183SOL    HW2 4449   3.792   6.115   1.691
 1184SOL     OW 4450   4.948   7.013   6.655
 1184SOL    HW1 4451   4.976   0.090   6.647
 1184SOL    HW2 4452   4.853   7.008   6.686
 1185SOL     OW 4453   1.048   0.885   0.853
 1185SOL    HW1 4454   1.131   0.939   0.838
 1185SOL    HW2 4455   1.063   0.822   0.929
 1186SOL     OW 4456   5.865   6.198   6.032
 1186SOL    HW1 4457   5.958   6.234   6.027
 1186SOL    HW2 4458   5.807   6.246   5.966
 1187SOL     OW 4459   5.942   6.922   5.287
 1187SOL    HW1 4460   5.859   6.917   5.230
 1187SOL    HW2 4461   5.943   7.010   5.335
 1188SOL     OW 4462   3.794   5.767   5.972
 1188SOL    HW1 4463   3.831   5.851   5.934
 1188SOL    HW2 4464   3.696   5.779   5.991
 1189SOL     OW 4465   6.273   0.624   2.059
 1189SOL    HW1 4466   6.243   0.648   1.967
 1189SOL    HW2 4467   6.318   0.703   2.101
 1190SOL     OW 4468   3.292   5.136   3.579
 1190SOL    HW1 4469   3.307   5.234   3.592
 1190SOL    HW2 4470   3.203   5.121   3.537
 1191SOL     OW 4471   2.926   6.207   4.445
 1191SOL    HW1 4472   2.848   6.262   4.415
 1191SOL    HW2 4473   2.989   6.264   4.498
 1192SOL     OW 4474   5.360   6.269   2.989
 1192SOL    HW1 4475   5.268   6.302   3.011
 1192SOL    HW2 4476   5.356   6.171   2.969
 1193SOL     OW 4477   0.608   0.663   5.540
 1193SOL    HW1 4478   0.586   0.685   5.445
 1193SOL    HW2 4479   0.699   0.621   5.544
 1194SOL     OW 4480   0.133   1.713   0.930
 1194SOL    HW1 4481   0.132   1.788   0.997
 1194SOL    HW2 4482   0.054   1.654   0.945
 1195SOL     OW 4483   6.465   3.730   1.043
 1195SOL    HW1 4484   6.511   3.693   1.123
 1195SOL    HW2 4485   6.498   3.683   0.961
 1196SOL     OW 4486   5.837   4.611   2.612
 1196SOL    HW1 4487   5.882   4.656   2.689
 1196SOL    HW2 4488   5.900   4.545   2.571
 1197SOL     OW 4489   4.821   6.735   4.163
 1197SOL    HW1 4490   4.756   6.686   4.104
 1197SOL    HW2 4491   4.901   6.678   4.178
 1198SOL     OW 4492   1.238   3.606   2.635
 1198SOL    HW1 4493   1.143   3.636   2.632
 1198SOL    HW2 4494   1.292   3.659   2.569
 1199SOL     OW 4495   3.702   3.349   2.607
 1199SOL    HW1 4496   3.724   3.445   2.587
 1199SOL    HW2 4497   3.746   3.290   2.539
 1200SOL     OW 4498   3.987   3.887   4.088
 1200SOL    HW1 4499   3.972   3.790   4.069
 1200SOL    HW2 4500   4.029   3.930   4.008
 1201SOL     OW 4501   0.192   1.246   4.264
 1201SOL    HW1 4502   0.120   1.299   4.308
 1201SOL    HW2 4503   0.276   1.252   4.318
 1202SOL     OW 4504   6.309   0.159   6.064
 1202SOL    HW1 4505   6.367   0.100   6.007
 1202SOL    HW2 4506   6.217   0.120   6.070
 1203SOL     OW 4507   0.199   6.841   1.167
 1203SOL    HW1 4508   0.288   6.806   1.195
 1203SOL    HW2 4509   0.152   6.772   1.111
 1204SOL     OW 4510   4.604   1.614   2.076
 1204SOL    HW1 4511   4.624   1.534   2.132
 1204SOL    HW2 4512   4.505   1.632   2.078
 1205SOL     OW 4513   3.745   3.337   0.136
 1205SOL    HW1 4514   3.659   3.318   0.088
 1205SOL    HW2 4515   3.819   3.348   0.070
 1206SOL     OW 4516   1.460   2.928   4.463
 1206SOL    HW1 4517   1.470   2.971   4.552
 1206SOL    HW2 4518   1.503   2.838   4.464
 1207SOL     OW 4519   0.062   0.863   0.308
 1207SOL    HW1 4520   0.130   0.935   0.319
 1207SOL    HW2 4521   7.008   0.875   0.375
 1208SOL     OW 4522   3.296   3.584   1.210
 1208SOL    HW1 4523   3.293   3.507   1.274
 1208SOL    HW2 4524   3.213   3.582   1.153
 1209SOL     OW 4525   5.669   0.451   4.301
 1209SOL    HW1 4526   5.619   0.468   4.216
 1209SOL    HW2 4527   5.706   0.537   4.336
 1210SOL     OW 4528   4.827   6.637   3.412
 1210SOL    HW1 4529   4.749   6.699   3.403
 1210SOL    HW2 4530   4.897   6.661   3.344
 1211SOL     OW 4531   0.940   3.456   3.049
 1211SOL    HW1 4532   0.914   3.477   2.955
 1211SOL    HW2 4533   0.914   3.533   3.108
 1212SOL     OW 4534   6.459   0.902   5.981
 1212SOL    HW1 4535   6.522   0.911   6.059
 1212SOL    HW2 4536   6.448   0.991   5.937
 1213SOL     OW 4537   5.548   1.957   2.736
 1213SOL    HW1 4538   5.631   1.953   2.681
 1213SOL    HW2 4539   5.482   2.017   2.692
 1214SOL     OW 4540   0.500   2.419   6.495
 1214SOL    HW1 4541   0.590   2.377   6.486
 1214SOL    HW2 4542   0.493   2.466   6.583
 1215SOL     OW 4543   1.999   4.881   2.739
 1215SOL    HW1 4544   1.909   4.925   2.732
 1215SOL    HW2 4545   2.037   4.869   2.647
 1216SOL     OW 4546   6.496   1.519   0.785
 1216SOL    HW1 4547   6.462   1.546   0.695
 1216SOL    HW2 4548   6.468   1.425   0.804
 1217SOL     OW 4549   2.742   4.737   0.519
 1217SOL    HW1 4550   2.766   4.778   0.431
 1217SOL    HW2 4551   2.728   4.808   0.587
 1218SOL     OW 4552   1.487   3.692   5.726
 1218SOL    HW1 4553   1.565   3.656   5.777
 1218SOL    HW2 4554   1.462   3.629   5.653
 1219SOL     OW 4555   5.304   5.675   1.320
 1219SOL    HW1 4556   5.222   5.631   1.283
 1219SOL    HW2 4557   5.385   5.627   1.287
 1220SOL     OW 4558   6.790   3.773   2.269
 1220SOL    HW1 4559   6.785   3.863   2.313
 1220SOL    HW2 4560   6.878   3.765   2.221
 1221SOL     OW 4561   5.710   3.372   6.251
 1221SOL    HW1 4562   5.621   3.417   6.254
 1221SOL    HW2 4563   5.703   3.290   6.194
 1222SOL     OW 4564   0.575   0.882   0.054
 1222SOL    HW1 4565   0.613   0.814   7.009
 1222SOL    HW2 4566   0.647   0.913   0.115
 1223SOL     OW 4567   3.620   1.446   0.344
 1223SOL    HW1 4568   3.535   1.492   0.372
 1223SOL    HW2 4569   3.629   1.361   0.395
 1224SOL     OW 4570   3.292   5.745   6.767
 1224SOL    HW1 4571   3.253   5.821   6.819
 1224SOL    HW2 4572   3.274   5.659   6.815
 1225SOL     OW 4573   4.105   2.731   6.892
 1225SOL    HW1 4574   4.104   2.796   6.816
 1225SOL    HW2 4575   4.130   2.640   6.858
 1226SOL     OW 4576   4.332   6.153   0.510
 1226SOL    HW1 4577   4.274   6.148   0.592
 1226SOL    HW2 4578   4.276   6.178   0.432
 1227SOL     OW 4579   5.088   5.328   5.994
 1227SOL    HW1 4580   5.130   5.376   5.918
 1227SOL    HW2 4581   5.087   5.230   5.975
 1228SOL     OW 4582   3.377   2.559   6.810
 1228SOL    HW1 4583   3.321   2.481   6.780
 1228SOL    HW2 4584   3.431   2.593   6.732
 1229SOL     OW 4585   1.728   5.270   0.222
 1229SOL    HW1 4586   1.769   5.282   0.132
 1229SOL    HW2 4587   1.791   5.303   0.293
 1230SOL     OW 4588   5.984   5.779   2.268
 1230SOL    HW1 4589   5.910   5.839   2.299
 1230SOL    HW2 4590   5.945   5.700   2.221
 1231SOL     OW 4591   1.871   1.905   5.418
 1231SOL    HW1 4592   1.811   1.892   5.339
 1231SOL    HW2 4593   1.816   1.917   5.500
 1232SOL     OW 4594   6.530   1.386   4.970
 1232SOL    HW1 4595   6.512   1.480   4.943
 1232SOL    HW2 4596   6.474   1.324   4.915
 1233SOL     OW 4597   0.590   5.761   4.526
 1233SOL    HW1 4598   0.583   5.847   4.577
 1233SOL    HW2 4599   0.505   5.746   4.475
 1234SOL     OW 4600   6.109   2.129   5.507
 1234SOL    HW1 4601   6.131   2.040   5.467
 1234SOL    HW2 4602   6.117   2.124   5.607
 1235SOL     OW 4603   6.172   4.807   1.584
 1235SOL    HW1 4604   6.189   4.727   1.641
 1235SOL    HW2 4605   6.074   4.818   1.569
 1236SOL     OW 4606   4.103   1.497   1.812
 1236SOL    HW1 4607   4.162   1.533   1.740
 1236SOL    HW2 4608   4.088   1.567   1.882
 1237SOL     OW 4609   1.140   4.617   5.126
 1237SOL    HW1 4610   1.194   4.700   5.112
 1237SOL    HW2 4611   1.064   4.636   5.188
 1238SOL     OW 4612   1.216   0.585   6.079
 1238SOL    HW1 4613   1.135   0.539   6.043
 1238SOL    HW2 4614   1.194   0.680   6.102
 1239SOL     OW 4615   0.092   6.930   5.968
 1239SOL    HW1 4616   0.121   6.854   6.027
 1239SOL    HW2 4617   0.166   6.953   5.905
 1240SOL     OW 4618   6.007   5.913   1.201
 1240SOL    HW1 4619   6.100   5.949   1.193
 1240SOL    HW2 4620   5.951   5.976   1.254
 1241SOL     OW 4621   5.998   4.634   5.557
 1241SOL    HW1 4622   6.094   4.661   5.559
 1241SOL    HW2 4623   5.940   4.712   5.582
 1242SOL     OW 4624   2.510   4.732   0.891
 1242SOL    HW1 4625   2.546   4.824   0.905
 1242SOL    HW2 4626   2.583   4.670   0.863
 1243SOL     OW 4627   0.970   1.095   5.073
 1243SOL    HW1 4628   0.946   1.119   5.167
 1243SOL    HW2 4629   0.944   1.000   5.055
 1244SOL     OW 4630   5.012   5.796   5.102
 1244SOL    HW1 4631   5.056   5.707   5.092
 1244SOL    HW2 4632   4.914   5.787   5.085
 1245SOL     OW 4633   5.581   3.920   6.834
 1245SOL    HW1 4634   5.537   3.946   6.748
 1245SOL    HW2 4635   5.611   4.002   6.883
 1246SOL     OW 4636   2.921   1.483   2.190
 1246SOL    HW1 4637   2.950   1.393   2.159
 1246SOL    HW2 4638   2.916   1.483   2.290
 1247SOL     OW 4639   6.596   6.753   6.330
 1247SOL    HW1 4640   6.642   6.764   6.242
 1247SOL    HW2 4641   6.559   6.841   6.360
 1248SOL     OW 4642   1.878   6.063   3.695
 1248SOL    HW1 4643   1.794   6.090   3.742
 1248SOL    HW2 4644   1.918   6.144   3.651
 1249SOL     OW 4645   0.213   2.511   2.261
 1249SOL    HW1 4646   0.166   2.499   2.173
 1249SOL    HW2 4647   0.237   2.607   2.274
 1250SOL     OW 4648   5.403   5.193   3.387
 1250SOL    HW1 4649   5.329   5.213   3.323
 1250SOL    HW2 4650   5.395   5.252   3.467
 1251SOL     OW 4651   2.129   1.032   2.469
 1251SOL    HW1 4652   2.147   0.952   2.413
 1251SOL    HW2 4653   2.209   1.052   2.526
 1252SOL     OW 4654   3.777   4.654   6.604
 1252SOL    HW1 4655   3.718   4.681   6.681
 1252SOL    HW2 4656   3.745   4.700   6.521
 1253SOL     OW 4657   3.709   6.465   2.723
 1253SOL    HW1 4658   3.668   6.481   2.633
 1253SOL    HW2 4659   3.672   6.380   2.761
 1254SOL     OW 4660   0.496   2.276   3.734
 1254SOL    HW1 4661   0.586   2.313   3.757
 1254SOL    HW2 4662   0.506   2.180   3.707
 1255SOL     OW 4663   5.977   1.339   6.293
 1255SOL    HW1 4664   5.903   1.297   6.240
 1255SOL    HW2 4665   5.978   1.302   6.385
 1256SOL     OW 4666   0.502   6.722   4.383
 1256SOL    HW1 4667   0.586   6.669   4.371
 1256SOL    HW2 4668   0.478   6.726   4.480
 1257SOL     OW 4669   0.186   5.312   4.494
 1257SOL    HW1 4670   0.105   5.368   4.510
 1257SOL    HW2 4671   0.262   5.370   4.466
 1258SOL     OW 4672   1.784   4.994   2.634
 1258SOL    HW1 4673   1.784   5.094   2.636
 1258SOL    HW2 4674   1.712   4.962   2.573
 1259SOL     OW 4675   3.959   6.829   4.717
 1259SOL    HW1 4676   4.054   6.810   4.742
 1259SOL    HW2 4677   3.956   6.885   4.634
 1260SOL     OW 4678   3.460   1.829   0.540
 1260SOL    HW1 4679   3.530   1.861   0.477
 1260SOL    HW2 4680   3.417   1.907   0.585
 1261SOL     OW 4681   6.728   5.624   6.544
 1261SOL    HW1 4682   6.749   5.654   6.637
 1261SOL    HW2 4683   6.812   5.622   6.490
 1262SOL     OW 4684   5.371   4.801   1.132
 1262SOL    HW1 4685   5.359   4.741   1.054
 1262SOL    HW2 4686   5.324   4.763   1.212
 1263SOL     OW 4687   6.979   1.944   1.626
 1263SOL    HW1 4688   6.906   1.999   1.587
 1263SOL    HW2 4689   0.034   2.004   1.657
 1264SOL     OW 4690   0.170   3.669   1.599
 1264SOL    HW1 4691   0.176   3.767   1.617
 1264SOL    HW2 4692   0.090   3.632   1.647
 1265SOL     OW 4693   5.088   5.733   3.483
 1265SOL    HW1 4694   4.990   5.713   3.483
 1265SOL    HW2 4695   5.139   5.647   3.490
 1266SOL     OW 4696   0.873   1.265   3.999
 1266SOL    HW1 4697   0.829   1.319   4.072
 1266SOL    HW2 4698   0.803   1.215   3.948
 1267SOL     OW 4699   5.196   6.278   1.380
 1267SOL    HW1 4700   5.241   6.203   1.428
 1267SOL    HW2 4701   5.244   6.296   1.294
 1268SOL     OW 4702   4.142   2.911   0.084
 1268SOL    HW1 4703   4.132   2.877   0.177
 1268SOL    HW2 4704   4.133   2.834   0.020
 1269SOL     OW 4705   5.443   6.171   5.750
 1269SOL    HW1 4706   5.393   6.090   5.781
 1269SOL    HW2 4707   5.463   6.161   5.652
 1270SOL     OW 4708   2.321   4.255   3.981
 1270SOL    HW1 4709   2.237   4.282   3.933
 1270SOL    HW2 4710   2.296   4.204   4.063
 1271SOL     OW 4711   2.965   2.269   4.161
 1271SOL    HW1 4712   2.904   2.288   4.084
 1271SOL    HW2 4713   2.918   2.291   4.247
 1272SOL     OW 4714   5.460   5.740   0.223
 1272SOL    HW1 4715   5.364   5.733   0.195
 1272SOL    HW2 4716   5.515   5.680   0.165
 1273SOL     OW 4717   0.510   4.613   6.928
 1273SOL    HW1 4718   0.453   4.563   6.862
 1273SOL    HW2 4719   0.593   4.560   6.946
 1274SOL     OW 4720   6.365   3.822   1.725
 1274SOL    HW1 4721   6.271   3.849   1.744
 1274SOL    HW2 4722   6.384   3.734   1.769
 1275SOL     OW 4723   3.643   1.514   4.355
 1275SOL    HW1 4724   3.676   1.462   4.434
 1275SOL    HW2 4725   3.718   1.565   4.314
 1276SOL     OW 4726   6.987   0.234   4.761
 1276SOL    HW1 4727   6.892   0.248   4.789
 1276SOL    HW2 4728   7.016   0.312   4.705
 1277SOL     OW 4729   0.890   6.569   5.974
 1277SOL    HW1 4730   0.922   6.660   6.000
 1277SOL    HW2 4731   0.962   6.522   5.923
 1278SOL     OW 4732   1.218   0.330   5.456
 1278SOL    HW1 4733   1.250   0.347   5.549
 1278SOL    HW2 4734   1.293   0.291   5.402
 1279SOL     OW 4735   3.554   6.320   0.785
 1279SOL    HW1 4736   3.485   6.384   0.751
 1279SOL    HW2 4737   3.509   6.242   0.829
 1280SOL     OW 4738   3.066   6.425   4.521
 1280SOL    HW1 4739   3.063   6.518   4.485
 1280SOL    HW2 4740   3.152   6.409   4.568
 1281SOL     OW 4741   1.364   6.539   3.621
 1281SOL    HW1 4742   1.350   6.495   3.532
 1281SOL    HW2 4743   1.406   6.474   3.684
 1282SOL     OW 4744   0.846   1.876   6.700
 1282SOL    HW1 4745   0.834   1.785   6.660
 1282SOL    HW2 4746   0.770   1.934   6.673
 1283SOL     OW 4747   6.530   2.915   5.200
 1283SOL    HW1 4748   6.597   2.987   5.220
 1283SOL    HW2 4749   6.469   2.903   5.278
 1284SOL     OW 4750   4.896   1.542   2.198
 1284SOL    HW1 4751   4.966   1.470   2.200
 1284SOL    HW2 4752   4.808   1.504   2.225
 1285SOL     OW 4753   4.738   2.243   6.391
 1285SOL    HW1 4754   4.696   2.213   6.476
 1285SOL    HW2 4755   4.695   2.327   6.359
 1286SOL     OW 4756   4.864   3.660   2.246
 1286SOL    HW1 4757   4.869   3.750   2.204
 1286SOL    HW2 4758   4.856   3.590   2.174
 1287SOL     OW 4759   5.239   5.185   5.298
 1287SOL    HW1 4760   5.316   5.189   5.235
 1287SOL    HW2 4761   5.153   5.186   5.247
 1288SOL     OW 4762   4.639   3.676   6.761
 1288SOL    HW1 4763   4.691   3.626   6.691
 1288SOL    HW2 4764   4.587   3.611   6.816
 1289SOL     OW 4765   0.850   6.268   2.048
 1289SOL    HW1 4766   0.903   6.235   1.970
 1289SOL    HW2 4767   0.783   6.198   2.074
 1290SOL     OW 4768   1.199   6.683   6.913
 1290SOL    HW1 4769   1.278   6.692   6.974
 1290SOL    HW2 4770   1.225   6.711   6.820
 1291SOL     OW 4771   0.025   4.103   5.301
 1291SOL    HW1 4772   6.953   4.086   5.337
 1291SOL    HW2 4773   0.034   4.200   5.279
 1292SOL     OW 4774   0.439   5.932   2.509
 1292SOL    HW1 4775   0.362   5.902   2.566
 1292SOL    HW2 4776   0.495   5.997   2.559
 1293SOL     OW 4777   1.560   1.925   0.441
 1293SOL    HW1 4778   1.463   1.922   0.418
 1293SOL    HW2 4779   1.615   1.908   0.359
 1294SOL     OW 4780   0.943   3.506   6.872
 1294SOL    HW1 4781   1.034   3.473   6.846
 1294SOL    HW2 4782   0.917   3.468   6.961
 1295SOL     OW 4783   0.184   3.628   2.592
 1295SOL    HW1 4784   0.223   3.708   2.546
 1295SOL    HW2 4785   0.115   3.586   2.534
 1296SOL     OW 4786   3.673   0.134   5.477
 1296SOL    HW1 4787   3.646   0.183   5.560
 1296SOL    HW2 4788   3.737   0.062   5.500
 1297SOL     OW 4789   6.456   0.872   1.007
 1297SOL    HW1 4790   6.510   0.954   0.989
 1297SOL    HW2 4791   6.515   0.792   1.007
 1298SOL     OW 4792   5.907   4.761   2.831
 1298SOL    HW1 4793   5.847   4.842   2.829
 1298SOL    HW2 4794   5.962   4.762   2.915
 1299SOL     OW 4795   1.332   3.628   3.404
 1299SOL    HW1 4796   1.336   3.528   3.409
 1299SOL    HW2 4797   1.250   3.656   3.353
 1300SOL     OW 4798   3.232   2.901   1.979
 1300SOL    HW1 4799   3.326   2.870   1.962
 1300SOL    HW2 4800   3.173   2.870   1.904
 1301SOL     OW 4801   0.655   5.818   1.297
 1301SOL    HW1 4802   0.556   5.817   1.308
 1301SOL    HW2 4803   0.680   5.884   1.226
 1302SOL     OW 4804   4.932   0.528   5.480
 1302SOL    HW1 4805   4.921   0.597   5.409
 1302SOL    HW2 4806   4.980   0.449   5.443
 1303SOL     OW 4807   4.572   1.565   2.463
 1303SOL    HW1 4808   4.603   1.509   2.387
 1303SOL    HW2 4809   4.483   1.531   2.495
 1304SOL     OW 4810   1.998   0.716   6.675
 1304SOL    HW1 4811   2.028   0.756   6.589
 1304SOL    HW2 4812   1.928   0.648   6.657
 1305SOL     OW 4813   5.087   2.970   0.015
 1305SOL    HW1 4814   5.071   3.064   7.003
 1305SOL    HW2 4815   5.180   2.942   7.009
 1306SOL     OW 4816   0.502   4.350   4.428
 1306SOL    HW1 4817   0.422   4.296   4.402
 1306SOL    HW2 4818   0.482   4.447   4.413
 1307SOL     OW 4819   0.602   3.674   4.510
 1307SOL    HW1 4820   0.644   3.583   4.506
 1307SOL    HW2 4821   0.671   3.742   4.532
 1308SOL     OW 4822   5.829   6.327   5.056
 1308SOL    HW1 4823   5.808   6.233   5.086
 1308SOL    HW2 4824   5.831   6.331   4.957
 1309SOL     OW 4825   5.063   3.329   5.531
 1309SOL    HW1 4826   4.987   3.361   5.474
 1309SOL    HW2 4827   5.119   3.407   5.559
 1310SOL     OW 4828   0.043   3.597   4.193
 1310SOL    HW1 4829   0.083   3.527   4.133
 1310SOL    HW2 4830   0.087   3.594   4.282
 1311SOL     OW 4831   0.616   6.844   4.748
 1311SOL    HW1 4832   0.536   6.792   4.716
 1311SOL    HW2 4833   0.640   6.913   4.680
 1312SOL     OW 4834   1.888   0.284   6.236
 1312SOL    HW1 4835   1.834   0.367   6.219
 1312SOL    HW2 4836   1.884   0.225   6.155
 1313SOL     OW 4837   0.744   4.113   3.763
 1313SOL    HW1 4838   0.747   4.068   3.852
 1313SOL    HW2 4839   0.653   4.102   3.724
 1314SOL     OW 4840   4.185   0.930   5.748
 1314SOL    HW1 4841   4.175   0.844   5.697
 1314SOL    HW2 4842   4.217   1.002   5.686
 1315SOL     OW 4843   0.072   1.242   1.033
 1315SOL    HW1 4844   0.105   1.312   1.096
 1315SOL    HW2 4845   0.015   1.176   1.082
 1316SOL     OW 4846   2.105   6.457   4.940
 1316SOL    HW1 4847   2.172   6.512   4.990
 1316SOL    HW2 4848   2.098   6.489   4.846
 1317SOL     OW 4849   1.996   4.410   5.903
 1317SOL    HW1 4850   2.044   4.447   5.825
 1317SOL    HW2 4851   1.969   4.315   5.885
 1318SOL     OW 4852   1.191   1.183   1.142
 1318SOL    HW1 4853   1.182   1.136   1.230
 1318SOL    HW2 4854   1.252   1.261   1.152
 1319SOL     OW 4855   0.075   1.006   6.650
 1319SOL    HW1 4856   0.013   1.062   6.704
 1319SOL    HW2 4857   0.035   0.915   6.636
 1320SOL     OW 4858   5.299   3.660   0.387
 1320SOL    HW1 4859   5.240   3.616   0.319
 1320SOL    HW2 4860   5.337   3.590   0.448
 1321SOL     OW 4861   5.586   1.914   6.046
 1321SOL    HW1 4862   5.607   1.910   6.144
 1321SOL    HW2 4863   5.648   1.979   6.001
 1322SOL     OW 4864   3.471   0.621   4.045
 1322SOL    HW1 4865   3.500   0.711   4.078
 1322SOL    HW2 4866   3.502   0.550   4.109
 1323SOL     OW 4867   4.811   1.490   5.757
 1323SOL    HW1 4868   4.821   1.395   5.726
 1323SOL    HW2 4869   4.822   1.494   5.856
 1324SOL     OW 4870   1.457   3.488   0.165
 1324SOL    HW1 4871   1.367   3.506   0.203
 1324SOL    HW2 4872   1.517   3.449   0.235
 1325SOL     OW 4873   2.241   6.724   2.391
 1325SOL    HW1 4874   2.323   6.733   2.447
 1325SOL    HW2 4875   2.164   6.697   2.449
 1326SOL     OW 4876   4.940   3.358   4.966
 1326SOL    HW1 4877   4.906   3.451   4.983
 1326SOL    HW2 4878   4.946   3.308   5.053
 1327SOL     OW 4879   1.335   4.990   1.696
 1327SOL    HW1 4880   1.244   5.004   1.736
 1327SOL    HW2 4881   1.337   4.902   1.649
 1328SOL     OW 4882   1.401   3.212   0.992
 1328SOL    HW1 4883   1.439   3.204   1.084
 1328SOL    HW2 4884   1.450   3.283   0.941
 1329SOL     OW 4885   0.366   2.068   1.490
 1329SOL    HW1 4886   0.292   2.096   1.429
 1329SOL    HW2 4887   0.447   2.045   1.436
 1330SOL     OW 4888   6.922   1.396   1.830
 1330SOL    HW1 4889   6.938   1.312   1.883
 1330SOL    HW2 4890   6.949   1.475   1.884
 1331SOL     OW 4891   5.018   2.669   3.534
 1331SOL    HW1 4892   4.973   2.757   3.517
 1331SOL    HW2 4893   4.991   2.634   3.624
 1332SOL     OW 4894   2.988   6.918   0.227
 1332SOL    HW1 4895   2.973   6.884   0.134
 1332SOL    HW2 4896   3.046   6.855   0.277
 1333SOL     OW 4897   3.594   3.810   5.235
 1333SOL    HW1 4898   3.660   3.799   5.161
 1333SOL    HW2 4899   3.583   3.907   5.256
 1334SOL     OW 4900   6.672   2.251   4.163
 1334SOL    HW1 4901   6.662   2.348   4.138
 1334SOL    HW2 4902   6.768   2.232   4.183
 1335SOL     OW 4903   2.460   1.570   3.342
 1335SOL    HW1 4904   2.447   1.471   3.347
 1335SOL    HW2 4905   2.432   1.612   3.429
 1336SOL     OW 4906   1.558   2.166   5.668
 1336SOL    HW1 4907   1.604   2.211   5.745
 1336SOL    HW2 4908   1.532   2.235   5.600
 1337SOL     OW 4909   2.020   2.006   5.091
 1337SOL    HW1 4910   2.109   2.045   5.068
 1337SOL    HW2 4911   1.986   2.048   5.175
 1338SOL     OW 4912   5.831   2.218   5.552
 1338SOL    HW1 4913   5.919   2.234   5.508
 1338SOL    HW2 4914   5.784   2.142   5.506
 1339SOL     OW 4915   1.089   1.720   6.252
 1339SOL    HW1 4916   1.018   1.742   6.185
 1339SOL    HW2 4917   1.065   1.636   6.300
 1340SOL     OW 4918   0.431   1.853   2.504
 1340SOL    HW1 4919   0.481   1.931   2.467
 1340SOL    HW2 4920   0.397   1.876   2.595
 1341SOL     OW 4921   5.230   0.159   5.880
 1341SOL    HW1 4922   5.170   0.129   5.805
 1341SOL    HW2 4923   5.182   0.226   5.936
 1342SOL     OW 4924   1.786   5.531   6.068
 1342SOL    HW1 4925   1.801   5.463   6.140
 1342SOL    HW2 4926   1.833   5.503   5.985
 1343SOL     OW 4927   4.791   6.023   3.174
 1343SOL    HW1 4928   4.764   5.943   3.120
 1343SOL    HW2 4929   4.726   6.036   3.248
 1344SOL     OW 4930   6.909   4.674   4.139
 1344SOL    HW1 4931   6.980   4.609   4.113
 1344SOL    HW2 4932   6.943   4.767   4.126
 1345SOL     OW 4933   2.242   0.530   2.603
 1345SOL    HW1 4934   2.149   0.504   2.629
 1345SOL    HW2 4935   2.307   0.462   2.637
 1346SOL     OW 4936   0.631   6.319   4.277
 1346SOL    HW1 4937   0.684   6.327   4.361
 1346SOL    HW2 4938   0.537   6.348   4.294
 1347SOL     OW 4939   6.341   5.810   4.466
 1347SOL    HW1 4940   6.362   5.752   4.545
 1347SOL    HW2 4941   6.246   5.797   4.439
 1348SOL     OW 4942   5.101   5.015   2.543
 1348SOL    HW1 4943   5.186   4.965   2.557
 1348SOL    HW2 4944   5.041   4.962   2.482
 1349SOL     OW 4945   4.590   2.562   6.338
 1349SOL    HW1 4946   4.576   2.633   6.268
 1349SOL    HW2 4947   4.683   2.570   6.374
 1350SOL     OW 4948   5.125   4.309   6.549
 1350SOL    HW1 4949   5.176   4.311   6.635
 1350SOL    HW2 4950   5.046   4.370   6.555
 1351SOL     OW 4951   6.665   1.064   3.323
 1351SOL    HW1 4952   6.716   1.123   3.385
 1351SOL    HW2 4953   6.567   1.074   3.339
 1352SOL     OW 4954   6.783   6.799   3.143
 1352SOL    HW1 4955   6.794   6.823   3.047
 1352SOL    HW2 4956   6.783   6.882   3.198
 1353SOL     OW 4957   6.863   3.782   6.337
 1353SOL    HW1 4958   6.907   3.694   6.317
 1353SOL    HW2 4959   6.930   3.855   6.324
 1354SOL     OW 4960   1.037   2.897   0.642
 1354SOL    HW1 4961   1.011   2.802   0.620
 1354SOL    HW2 4962   1.000   2.921   0.731
 1355SOL     OW 4963   6.853   2.460   5.332
 1355SOL    HW1 4964   6.809   2.440   5.420
 1355SOL    HW2 4965   6.949   2.430   5.336
 1356SOL     OW 4966   2.954   3.692   2.773
 1356SOL    HW1 4967   2.858   3.694   2.803
 1356SOL    HW2 4968   2.959   3.717   2.676
 1357SOL     OW 4969   1.142   3.514   5.009
 1357SOL    HW1 4970   1.050   3.542   5.036
 1357SOL    HW2 4971   1.198   3.596   4.991
 1358SOL     OW 4972   3.818   1.043   6.052
 1358SOL    HW1 4973   3.759   1.121   6.035
 1358SOL    HW2 4974   3.896   1.072   6.108
 1359SOL     OW 4975   5.725   4.735   1.966
 1359SOL    HW1 4976   5.791   4.768   2.034
 1359SOL    HW2 4977   5.632   4.751   2.000
 1360SOL     OW 4978   3.951   2.739   0.445
 1360SOL    HW1 4979   3.911   2.786   0.367
 1360SOL    HW2 4980   3.944   2.798   0.526
 1361SOL     OW 4981   0.240   5.416   5.483
 1361SOL    HW1 4982   0.252   5.405   5.384
 1361SOL    HW2 4983   0.328   5.435   5.526
 1362SOL     OW 4984   3.079   3.986   4.362
 1362SOL    HW1 4985   3.039   3.954   4.448
 1362SOL    HW2 4986   3.157   4.045   4.382
 1363SOL     OW 4987   6.853   5.847   3.640
 1363SOL    HW1 4988   6.901   5.834   3.727
 1363SOL    HW2 4989   6.911   5.816   3.565
 1364SOL     OW 4990   6.438   2.511   1.332
 1364SOL    HW1 4991   6.351   2.519   1.282
 1364SOL    HW2 4992   6.440   2.423   1.381
 1365SOL     OW 4993   0.852   3.009   5.964
 1365SOL    HW1 4994   0.936   3.012   5.910
 1365SOL    HW2 4995   0.804   3.097   5.955
 1366SOL     OW 4996   0.394   4.552   0.626
 1366SOL    HW1 4997   0.484   4.519   0.599
 1366SOL    HW2 4998   0.395   4.652   0.630
 1367SOL     OW 4999   1.550   6.313   2.524
 1367SOL    HW1 5000   1.469   6.281   2.475
 1367SOL    HW2 5001   1.538   6.409   2.549
 1368SOL     OW 5002   0.231   0.443   3.886
 1368SOL    HW1 5003   0.198   0.349   3.879
 1368SOL    HW2 5004   0.160   0.501   3.928
 1369SOL     OW 5005   2.414   0.268   2.339
 1369SOL    HW1 5006   2.510   0.264   2.368
 1369SOL    HW2 5007   2.393   0.360   2.306
 1370SOL     OW 5008   4.323   1.466   2.561
 1370SOL    HW1 5009   4.294   1.454   2.466
 1370SOL    HW2 5010   4.249   1.508   2.613
 1371SOL     OW 5011   6.356   1.566   4.690
 1371SOL    HW1 5012   6.450   1.541   4.665
 1371SOL    HW2 5013   6.346   1.561   4.790
 1372SOL     OW 5014   1.292   2.977   0.636
 1372SOL    HW1 5015   1.198   2.944   0.642
 1372SOL    HW2 5016   1.336   2.971   0.726
 1373SOL     OW 5017   4.206   2.542   6.674
 1373SOL    HW1 5018   4.145   2.613   6.638
 1373SOL    HW2 5019   4.277   2.523   6.607
 1374SOL     OW 5020   4.548   2.265   0.655
 1374SOL    HW1 5021   4.522   2.186   0.599
 1374SOL    HW2 5022   4.487   2.342   0.635
 1375SOL     OW 5023   0.154   5.415   6.404
 1375SOL    HW1 5024   0.073   5.397   6.349
 1375SOL    HW2 5025   0.206   5.331   6.416
 1376SOL     OW 5026   4.522   4.689   5.164
 1376SOL    HW1 5027   4.540   4.782   5.133
 1376SOL    HW2 5028   4.486   4.635   5.089
 1377SOL     OW 5029   0.385   3.003   5.430
 1377SOL    HW1 5030   0.400   2.920   5.377
 1377SOL    HW2 5031   0.294   3.038   5.411
 1378SOL     OW 5032   6.162   1.397   4.552
 1378SOL    HW1 5033   6.096   1.442   4.491
 1378SOL    HW2 5034   6.199   1.464   4.616
 1379SOL     OW 5035   3.823   6.528   3.180
 1379SOL    HW1 5036   3.855   6.588   3.106
 1379SOL    HW2 5037   3.901   6.488   3.227
 1380SOL     OW 5038   0.801   0.188   3.725
 1380SOL    HW1 5039   0.714   0.171   3.680
 1380SOL    HW2 5040   0.876   0.157   3.666
 1381SOL     OW 5041   6.109   1.959   6.936
 1381SOL    HW1 5042   6.196   2.009   6.937
 1381SOL    HW2 5043   6.040   2.010   6.987
 1382SOL     OW 5044   5.189   3.426   0.622
 1382SOL    HW1 5045   5.126   3.410   0.546
 1382SOL    HW2 5046   5.204   3.341   0.672
 1383SOL     OW 5047   0.572   0.386   2.305
 1383SOL    HW1 5048   0.592   0.294   2.337
 1383SOL    HW2 5049   0.651   0.446   2.321
 1384SOL     OW 5050   4.641   0.660   2.124
 1384SOL    HW1 5051   4.734   0.625   2.114
 1384SOL    HW2 5052   4.622   0.727   2.053
 1385SOL     OW 5053   2.251   4.249   3.335
 1385SOL    HW1 5054   2.173   4.300   3.298
 1385SOL    HW2 5055   2.257   4.262   3.434
 1386SOL     OW 5056   3.029   0.559   4.410
 1386SOL    HW1 5057   3.123   0.571   4.378
 1386SOL    HW2 5058   2.966   0.596   4.341
 1387SOL     OW 5059   3.271   6.000   2.964
 1387SOL    HW1 5060   3.237   6.094   2.973
 1387SOL    HW2 5061   3.270   5.973   2.868
 1388SOL     OW 5062   0.416   0.713   3.185
 1388SOL    HW1 5063   0.374   0.788   3.236
 1388SOL    HW2 5064   0.477   0.662   3.246
 1389SOL     OW 5065   6.780   1.837   4.248
 1389SOL    HW1 5066   6.828   1.776   4.185
 1389SOL    HW2 5067   6.691   1.797   4.272
 1390SOL     OW 5068   6.620   3.406   6.052
 1390SOL    HW1 5069   6.548   3.476   6.047
 1390SOL    HW2 5070   6.684   3.420   5.977
 1391SOL     OW 5071   5.904   0.173   5.473
 1391SOL    HW1 5072   5.837   0.246   5.466
 1391SOL    HW2 5073   5.977   0.201   5.535
 1392SOL     OW 5074   6.153   6.423   5.505
 1392SOL    HW1 5075   6.249   6.446   5.492
 1392SOL    HW2 5076   6.145   6.343   5.563
 1393SOL     OW 5077   6.826   4.573   6.218
 1393SOL    HW1 5078   6.763   4.572   6.296
 1393SOL    HW2 5079   6.795   4.640   6.151
 1394SOL     OW 5080   3.405   5.871   5.435
 1394SOL    HW1 5081   3.354   5.788   5.412
 1394SOL    HW2 5082   3.426   5.872   5.533
 1395SOL     OW 5083   1.823   4.309   4.889
 1395SOL    HW1 5084   1.896   4.341   4.950
 1395SOL    HW2 5085   1.863   4.284   4.800
 1396SOL     OW 5086   0.314   1.152   4.990
 1396SOL    HW1 5087   0.384   1.084   5.012
 1396SOL    HW2 5088   0.310   1.164   4.890
 1397SOL     OW 5089   0.085   6.348   4.814
 1397SOL    HW1 5090   0.106   6.258   4.776
 1397SOL    HW2 5091   0.040   6.404   4.744
 1398SOL     OW 5092   3.086   0.889   6.416
 1398SOL    HW1 5093   3.126   0.857   6.502
 1398SOL    HW2 5094   3.048   0.980   6.428
 1399SOL     OW 5095   4.075   5.842   0.522
 1399SOL    HW1 5096   4.073   5.873   0.427
 1399SOL    HW2 5097   4.041   5.749   0.527
 1400SOL     OW 5098   0.457   1.737   3.901
 1400SOL    HW1 5099   0.454   1.643   3.934
 1400SOL    HW2 5100   0.395   1.748   3.823
 1401SOL     OW 5101   5.797   0.212   4.361
 1401SOL    HW1 5102   5.881   0.222   4.307
 1401SOL    HW2 5103   5.741   0.294   4.350
 1402SOL     OW 5104   5.535   4.377   6.392
 1402SOL    HW1 5105   5.602   4.328   6.337
 1402SOL    HW2 5106   5.507   4.460   6.345
 1403SOL     OW 5107   2.543   1.987   0.710
 1403SOL    HW1 5108   2.461   1.946   0.753
 1403SOL    HW2 5109   2.622   1.929   0.728
 1404SOL     OW 5110   6.684   0.726   6.966
 1404SOL    HW1 5111   6.744   0.651   6.941
 1404SOL    HW2 5112   6.594   0.690   6.991
 1405SOL     OW 5113   2.621   3.620   0.565
 1405SOL    HW1 5114   2.606   3.706   0.615
 1405SOL    HW2 5115   2.588   3.544   0.621
 1406SOL     OW 5116   1.469   5.808   0.795
 1406SOL    HW1 5117   1.432   5.865   0.721
 1406SOL    HW2 5118   1.560   5.840   0.819
 1407SOL     OW 5119   0.502   3.722   3.513
 1407SOL    HW1 5120   0.441   3.801   3.506
 1407SOL    HW2 5121   0.596   3.752   3.503
 1408SOL     OW 5122   5.303   0.664   6.681
 1408SOL    HW1 5123   5.364   0.732   6.720
 1408SOL    HW2 5124   5.336   0.573   6.702
 1409SOL     OW 5125   0.532   0.678   5.264
 1409SOL    HW1 5126   0.531   0.585   5.300
 1409SOL    HW2 5127   0.621   0.696   5.222
 1410SOL     OW 5128   1.307   4.404   6.179
 1410SOL    HW1 5129   1.310   4.388   6.081
 1410SOL    HW2 5130   1.251   4.334   6.223
 1411SOL     OW 5131   3.245   6.357   0.297
 1411SOL    HW1 5132   3.208   6.335   0.388
 1411SOL    HW2 5133   3.180   6.327   0.227
 1412SOL     OW 5134   0.747   3.618   1.272
 1412SOL    HW1 5135   0.790   3.573   1.194
 1412SOL    HW2 5136   0.756   3.560   1.353
 1413SOL     OW 5137   2.223   1.085   4.391
 1413SOL    HW1 5138   2.319   1.078   4.417
 1413SOL    HW2 5139   2.209   1.035   4.305
 1414SOL     OW 5140   2.254   1.673   1.813
 1414SOL    HW1 5141   2.235   1.585   1.855
 1414SOL    HW2 5142   2.225   1.747   1.874
 1415SOL     OW 5143   2.590   1.407   4.175
 1415SOL    HW1 5144   2.494   1.432   4.172
 1415SOL    HW2 5145   2.613   1.350   4.096
 1416SOL     OW 5146   4.453   6.448   5.048
 1416SOL    HW1 5147   4.513   6.496   4.984
 1416SOL    HW2 5148   4.419   6.511   5.117
 1417SOL     OW 5149   2.922   2.464   0.095
 1417SOL    HW1 5150   3.004   2.519   0.112
 1417SOL    HW2 5151   2.845   2.525   0.078
 1418SOL     OW 5152   3.087   3.717   1.695
 1418SOL    HW1 5153   3.165   3.778   1.681
 1418SOL    HW2 5154   3.063   3.673   1.608
 1419SOL     OW 5155   3.556   6.046   4.279
 1419SOL    HW1 5156   3.480   6.096   4.239
 1419SOL    HW2 5157   3.620   6.019   4.207
 1420SOL     OW 5158   3.574   5.737   3.144
 1420SOL    HW1 5159   3.496   5.738   3.082
 1420SOL    HW2 5160   3.594   5.642   3.170
 1421SOL     OW 5161   1.553   4.363   4.208
 1421SOL    HW1 5162   1.525   4.281   4.258
 1421SOL    HW2 5163   1.474   4.400   4.159
 1422SOL     OW 5164   1.623   4.289   6.296
 1422SOL    HW1 5165   1.563   4.368   6.283
 1422SOL    HW2 5166   1.614   4.227   6.218
 1423SOL     OW 5167   4.508   6.836   4.382
 1423SOL    HW1 5168   4.448   6.881   4.317
 1423SOL    HW2 5169   4.595   6.813   4.337
 1424SOL     OW 5170   6.770   3.704   6.701
 1424SOL    HW1 5171   6.779   3.669   6.607
 1424SOL    HW2 5172   6.820   3.644   6.763
 1425SOL     OW 5173   1.757   5.366   5.603
 1425SOL    HW1 5174   1.680   5.427   5.585
 1425SOL    HW2 5175   1.825   5.375   5.530
 1426SOL     OW 5176   2.606   2.435   6.940
 1426SOL    HW1 5177   2.638   2.343   6.917
 1426SOL    HW2 5178   2.609   2.492   6.858
 1427SOL     OW 5179   6.719   0.088   4.654
 1427SOL    HW1 5180   6.692   0.137   4.737
 1427SOL    HW2 5181   6.817   0.072   4.655
 1428SOL     OW 5182   0.803   2.289   0.991
 1428SOL    HW1 5183   0.714   2.247   1.008
 1428SOL    HW2 5184   0.816   2.366   1.053
 1429SOL     OW 5185   5.146   1.521   0.645
 1429SOL    HW1 5186   5.211   1.452   0.611
 1429SOL    HW2 5187   5.069   1.475   0.689
 1430SOL     OW 5188   1.985   5.052   3.985
 1430SOL    HW1 5189   2.012   4.957   4.001
 1430SOL    HW2 5190   1.909   5.055   3.919
 1431SOL     OW 5191   2.810   2.649   6.876
 1431SOL    HW1 5192   2.866   2.720   6.919
 1431SOL    HW2 5193   2.823   2.652   6.777
 1432SOL     OW 5194   3.167   1.342   0.965
 1432SOL    HW1 5195   3.155   1.257   1.015
 1432SOL    HW2 5196   3.104   1.344   0.887
 1433SOL     OW 5197   5.189   0.626   5.860
 1433SOL    HW1 5198   5.193   0.536   5.817
 1433SOL    HW2 5199   5.276   0.646   5.903
 1434SOL     OW 5200   0.702   0.770   6.354
 1434SOL    HW1 5201   0.625   0.830   6.377
 1434SOL    HW2 5202   0.740   0.730   6.437
 1435SOL     OW 5203   0.006   0.015   2.998
 1435SOL    HW1 5204   6.964   6.971   2.951
 1435SOL    HW2 5205   6.977   0.101   3.015
 1436SOL     OW 5206   5.281   4.261   6.850
 1436SOL    HW1 5207   5.319   4.269   6.942
 1436SOL    HW2 5208   5.236   4.172   6.841
 1437SOL     OW 5209   3.241   1.936   5.690
 1437SOL    HW1 5210   3.276   2.024   5.657
 1437SOL    HW2 5211   3.141   1.938   5.692
 1438SOL     OW 5212   2.663   0.108   1.968
 1438SOL    HW1 5213   2.705   0.198   1.984
 1438SOL    HW2 5214   2.568   0.109   2.000
 1439SOL     OW 5215   6.878   4.740   0.899
 1439SOL    HW1 5216   6.938   4.816   0.875
 1439SOL    HW2 5217   6.929   4.654   0.895
 1440SOL     OW 5218   3.633   2.748   5.994
 1440SOL    HW1 5219   3.618   2.812   6.069
 1440SOL    HW2 5220   3.557   2.683   5.989
 1441SOL     OW 5221   6.018   2.255   3.991
 1441SOL    HW1 5222   5.946   2.300   4.044
 1441SOL    HW2 5223   6.006   2.277   3.894
 1442SOL     OW 5224   5.905   5.097   0.041
 1442SOL    HW1 5225   5.845   5.102   6.980
 1442SOL    HW2 5226   6.000   5.106   0.012
 1443SOL     OW 5227   0.789   2.958   4.382
 1443SOL    HW1 5228   0.833   2.918   4.301
 1443SOL    HW2 5229   0.800   2.896   4.460
 1444SOL     OW 5230   4.023   5.970   1.431
 1444SOL    HW1 5231   4.056   5.892   1.378
 1444SOL    HW2 5232   4.078   6.051   1.410
 1445SOL     OW 5233   0.418   2.577   2.006
 1445SOL    HW1 5234   0.394   2.673   2.018
 1445SOL    HW2 5235   0.334   2.522   2.001
 1446SOL     OW 5236   4.633   2.272   0.181
 1446SOL    HW1 5237   4.652   2.195   0.121
 1446SOL    HW2 5238   4.711   2.286   0.243
 1447SOL     OW 5239   6.141   6.841   5.641
 1447SOL    HW1 5240   6.202   6.769   5.676
 1447SOL    HW2 5241   6.190   6.927   5.637
 1448SOL     OW 5242   6.632   2.886   0.007
 1448SOL    HW1 5243   6.607   2.919   6.935
 1448SOL    HW2 5244   6.641   2.964   0.069
 1449SOL     OW 5245   0.318   0.863   0.142
 1449SOL    HW1 5246   0.280   0.774   0.117
 1449SOL    HW2 5247   0.411   0.870   0.106
 1450SOL     OW 5248   0.711   1.841   1.699
 1450SOL    HW1 5249   0.746   1.927   1.660
 1450SOL    HW2 5250   0.665   1.860   1.785
 1451SOL     OW 5251   2.519   0.613   2.596
 1451SOL    HW1 5252   2.469   0.671   2.532
 1451SOL    HW2 5253   2.611   0.597   2.561
 1452SOL     OW 5254   4.371   0.372   4.666
 1452SOL    HW1 5255   4.449   0.434   4.652
 1452SOL    HW2 5256   4.403   0.277   4.662
 1453SOL     OW 5257   0.083   3.857   5.236
 1453SOL    HW1 5258   0.083   3.953   5.263
 1453SOL    HW2 5259   0.166   3.813   5.269
 1454SOL     OW 5260   6.644   2.871   2.459
 1454SOL    HW1 5261   6.692   2.951   2.422
 1454SOL    HW2 5262   6.681   2.789   2.417
 1455SOL     OW 5263   1.159   0.308   1.796
 1455SOL    HW1 5264   1.088   0.309   1.866
 1455SOL    HW2 5265   1.127   0.258   1.716
 1456SOL     OW 5266   6.436   6.486   5.462
 1456SOL    HW1 5267   6.429   6.584   5.479
 1456SOL    HW2 5268   6.507   6.469   5.393
 1457SOL     OW 5269   1.186   6.665   1.216
 1457SOL    HW1 5270   1.280   6.695   1.200
 1457SOL    HW2 5271   1.160   6.596   1.148
 1458SOL     OW 5272   5.726   5.607   3.209
 1458SOL    HW1 5273   5.799   5.591   3.142
 1458SOL    HW2 5274   5.641   5.567   3.176
 1459SOL     OW 5275   2.812   5.284   5.534
 1459SOL    HW1 5276   2.750   5.206   5.527
 1459SOL    HW2 5277   2.803   5.341   5.452
 1460SOL     OW 5278   0.876   5.478   5.303
 1460SOL    HW1 5279   0.955   5.534   5.328
 1460SOL    HW2 5280   0.897   5.422   5.224
 1461SOL     OW 5281   6.957   5.344   3.653
 1461SOL    HW1 5282   6.975   5.255   3.610
 1461SOL    HW2 5283   6.902   5.330   3.736
 1462SOL     OW 5284   0.982   0.774   6.435
 1462SOL    HW1 5285   0.997   0.681   6.403
 1462SOL    HW2 5286   0.960   0.773   6.533
 1463SOL     OW 5287   0.039   5.548   6.705
 1463SOL    HW1 5288   0.103   5.526   6.778
 1463SOL    HW2 5289   7.001   5.468   6.686
 1464SOL     OW 5290   5.824   7.005   0.676
 1464SOL    HW1 5291   5.725   7.001   0.692
 1464SOL    HW2 5292   5.872   6.974   0.758
 1465SOL     OW 5293   1.610   0.786   3.626
 1465SOL    HW1 5294   1.524   0.792   3.575
 1465SOL    HW2 5295   1.599   0.829   3.715
 1466SOL     OW 5296   1.146   1.660   2.147
 1466SOL    HW1 5297   1.129   1.748   2.102
 1466SOL    HW2 5298   1.205   1.605   2.089
 1467SOL     OW 5299   2.025   1.979   2.592
 1467SOL    HW1 5300   1.952   1.921   2.629
 1467SOL    HW2 5301   2.063   2.035   2.666
 1468SOL     OW 5302   5.498   5.625   2.892
 1468SOL    HW1 5303   5.435   5.667   2.957
 1468SOL    HW2 5304   5.530   5.695   2.827
 1469SOL     OW 5305   0.574   0.776   2.112
 1469SOL    HW1 5306   0.572   0.845   2.185
 1469SOL    HW2 5307   0.669   0.757   2.088
 1470SOL     OW 5308   1.591   1.760   2.545
 1470SOL    HW1 5309   1.587   1.800   2.636
 1470SOL    HW2 5310   1.578   1.661   2.551
 1471SOL     OW 5311   0.806   0.132   0.462
 1471SOL    HW1 5312   0.807   0.044   0.415
 1471SOL    HW2 5313   0.778   0.203   0.398
 1472SOL     OW 5314   3.875   6.166   5.172
 1472SOL    HW1 5315   3.803   6.190   5.107
 1472SOL    HW2 5316   3.849   6.195   5.264
 1473SOL     OW 5317   5.242   5.918   4.524
 1473SOL    HW1 5318   5.176   5.961   4.586
 1473SOL    HW2 5319   5.204   5.831   4.491
 1474SOL     OW 5320   5.498   5.242   2.639
 1474SOL    HW1 5321   5.519   5.269   2.733
 1474SOL    HW2 5322   5.571   5.274   2.579
 1475SOL     OW 5323   6.124   6.919   2.035
 1475SOL    HW1 5324   6.054   6.853   2.007
 1475SOL    HW2 5325   6.086   6.980   2.105
 1476SOL     OW 5326   2.279   1.024   1.563
 1476SOL    HW1 5327   2.269   1.061   1.471
 1476SOL    HW2 5328   2.364   1.059   1.604
 1477SOL     OW 5329   3.228   0.617   6.647
 1477SOL    HW1 5330   3.128   0.616   6.657
 1477SOL    HW2 5331   3.254   0.565   6.566
 1478SOL     OW 5332   6.024   5.309   0.301
 1478SOL    HW1 5333   6.105   5.294   0.244
 1478SOL    HW2 5334   6.011   5.231   0.363
 1479SOL     OW 5335   1.592   3.257   0.054
 1479SOL    HW1 5336   1.564   3.196   6.999
 1479SOL    HW2 5337   1.536   3.339   0.052
 1480SOL     OW 5338   3.518   0.571   5.597
 1480SOL    HW1 5339   3.607   0.546   5.561
 1480SOL    HW2 5340   3.490   0.660   5.561
 1481SOL     OW 5341   6.264   2.515   5.288
 1481SOL    HW1 5342   6.255   2.481   5.195
 1481SOL    HW2 5343   6.261   2.439   5.353
 1482SOL     OW 5344   4.960   2.337   1.322
 1482SOL    HW1 5345   4.941   2.291   1.409
 1482SOL    HW2 5346   4.898   2.302   1.252
 1483SOL     OW 5347   5.233   1.965   6.535
 1483SOL    HW1 5348   5.241   2.054   6.581
 1483SOL    HW2 5349   5.156   1.967   6.472
 1484SOL     OW 5350   5.962   4.785   3.791
 1484SOL    HW1 5351   5.939   4.863   3.849
 1484SOL    HW2 5352   6.052   4.750   3.815
 1485SOL     OW 5353   3.442   1.791   3.216
 1485SOL    HW1 5354   3.519   1.797   3.280
 1485SOL    HW2 5355   3.400   1.881   3.206
 1486SOL     OW 5356   4.847   1.992   3.150
 1486SOL    HW1 5357   4.894   2.080   3.154
 1486SOL    HW2 5358   4.874   1.943   3.067
 1487SOL     OW 5359   6.537   2.615   6.324
 1487SOL    HW1 5360   6.520   2.713   6.326
 1487SOL    HW2 5361   6.624   2.595   6.370
 1488SOL     OW 5362   5.358   1.374   3.893
 1488SOL    HW1 5363   5.278   1.315   3.894
 1488SOL    HW2 5364   5.329   1.470   3.884
 1489SOL     OW 5365   4.018   5.331   4.494
 1489SOL    HW1 5366   3.920   5.325   4.477
 1489SOL    HW2 5367   4.036   5.307   4.589
 1490SOL     OW 5368   1.133   2.781   1.719
 1490SOL    HW1 5369   1.196   2.806   1.646
 1490SOL    HW2 5370   1.072   2.858   1.738
 1491SOL     OW 5371   6.639   3.897   3.555
 1491SOL    HW1 5372   6.589   3.888   3.641
 1491SOL    HW2 5373   6.638   3.993   3.526
 1492SOL     OW 5374   5.476   0.663   2.487
 1492SOL    HW1 5375   5.471   0.756   2.451
 1492SOL    HW2 5376   5.569   0.628   2.479
 1493SOL     OW 5377   4.207   6.549   4.436
 1493SOL    HW1 5378   4.281   6.607   4.471
 1493SOL    HW2 5379   4.139   6.534   4.507
 1494SOL     OW 5380   5.721   2.085   5.865
 1494SOL    HW1 5381   5.817   2.075   5.838
 1494SOL    HW2 5382   5.662   2.072   5.786
 1495SOL     OW 5383   6.739   2.557   4.469
 1495SOL    HW1 5384   6.715   2.507   4.552
 1495SOL    HW2 5385   6.811   2.623   4.490
 1496SOL     OW 5386   0.322   1.394   1.478
 1496SOL    HW1 5387   0.400   1.403   1.416
 1496SOL    HW2 5388   0.354   1.370   1.570
 1497SOL     OW 5389   6.606   2.898   3.188
 1497SOL    HW1 5390   6.614   2.953   3.104
 1497SOL    HW2 5391   6.570   2.808   3.165
 1498SOL     OW 5392   1.798   4.968   6.183
 1498SOL    HW1 5393   1.846   4.940   6.100
 1498SOL    HW2 5394   1.746   4.891   6.219
 1499SOL     OW 5395   1.246   3.237   6.539
 1499SOL    HW1 5396   1.333   3.197   6.510
 1499SOL    HW2 5397   1.249   3.336   6.525
 1500SOL     OW 5398   6.830   6.299   0.124
 1500SOL    HW1 5399   6.783   6.214   0.146
 1500SOL    HW2 5400   6.879   6.331   0.206
 1501SOL     OW 5401   5.608   1.989   6.327
 1501SOL    HW1 5402   5.705   2.002   6.306
 1501SOL    HW2 5403   5.560   2.076   6.317
 1502SOL     OW 5404   5.338   0.537   0.555
 1502SOL    HW1 5405   5.248   0.575   0.533
 1502SOL    HW2 5406   5.366   0.567   0.646
 1503SOL     OW 5407   1.523   3.021   1.625
 1503SOL    HW1 5408   1.527   3.111   1.581
 1503SOL    HW2 5409   1.469   3.027   1.709
 1504SOL     OW 5410   0.922   0.321   5.806
 1504SOL    HW1 5411   0.943   0.317   5.709
 1504SOL    HW2 5412   0.875   0.238   5.835
 1505SOL     OW 5413   5.942   1.138   5.652
 1505SOL    HW1 5414   5.994   1.200   5.711
 1505SOL    HW2 5415   5.913   1.058   5.704
 1506SOL     OW 5416   1.673   5.725   1.127
 1506SOL    HW1 5417   1.708   5.691   1.214
 1506SOL    HW2 5418   1.576   5.704   1.119
 1507SOL     OW 5419   1.063   1.854   5.579
 1507SOL    HW1 5420   1.030   1.780   5.638
 1507SOL    HW2 5421   0.988   1.885   5.520
 1508SOL     OW 5422   6.713   0.927   2.113
 1508SOL    HW1 5423   6.811   0.911   2.116
 1508SOL    HW2 5424   6.668   0.876   2.186
 1509SOL     OW 5425   4.441   2.701   6.110
 1509SOL    HW1 5426   4.364   2.693   6.172
 1509SOL    HW2 5427   4.411   2.743   6.024
 1510SOL     OW 5428   4.788   2.206   4.876
 1510SOL    HW1 5429   4.754   2.114   4.895
 1510SOL    HW2 5430   4.873   2.221   4.926
 1511SOL     OW 5431   3.155   3.226   1.737
 1511SOL    HW1 5432   3.199   3.239   1.826
 1511SOL    HW2 5433   3.186   3.140   1.697
 1512SOL     OW 5434   0.900   5.208   1.047
 1512SOL    HW1 5435   0.966   5.166   1.109
 1512SOL    HW2 5436   0.874   5.298   1.081
 1513SOL     OW 5437   3.086   0.429   3.732
 1513SOL    HW1 5438   3.181   0.438   3.760
 1513SOL    HW2 5439   3.070   0.483   3.649
 1514SOL     OW 5440   4.202   1.997   5.788
 1514SOL    HW1 5441   4.293   2.032   5.813
 1514SOL    HW2 5442   4.210   1.902   5.758
 1515SOL     OW 5443   5.922   2.446   4.413
 1515SOL    HW1 5444   5.920   2.350   4.441
 1515SOL    HW2 5445   5.828   2.482   4.412
 1516SOL     OW 5446   6.493   0.324   0.643
 1516SOL    HW1 5447   6.398   0.357   0.638
 1516SOL    HW2 5448   6.496   0.228   0.615
 1517SOL     OW 5449   4.557   6.137   3.966
 1517SOL    HW1 5450   4.611   6.196   4.025
 1517SOL    HW2 5451   4.460   6.147   3.989
 1518SOL     OW 5452   0.890   3.353   0.073
 1518SOL    HW1 5453   0.802   3.369   0.118
 1518SOL    HW2 5454   0.963   3.365   0.140
 1519SOL     OW 5455   5.940   4.960   1.824
 1519SOL    HW1 5456   6.023   4.924   1.868
 1519SOL    HW2 5457   5.880   4.884   1.801
 1520SOL     OW 5458   0.593   3.833   2.360
 1520SOL    HW1 5459   0.591   3.751   2.416
 1520SOL    HW2 5460   0.625   3.911   2.415
 1521SOL     OW 5461   1.522   4.228   6.924
 1521SOL    HW1 5462   1.522   4.189   6.832
 1521SOL    HW2 5463   1.616   4.232   6.959
 1522SOL     OW 5464   6.211   6.840   5.361
 1522SOL    HW1 5465   6.196   6.872   5.455
 1522SOL    HW2 5466   6.127   6.848   5.309
 1523SOL     OW 5467   5.297   5.099   0.651
 1523SOL    HW1 5468   5.298   5.073   0.747
 1523SOL    HW2 5469   5.322   5.020   0.594
 1524SOL     OW 5470   1.607   2.252   2.023
 1524SOL    HW1 5471   1.579   2.182   2.089
 1524SOL    HW2 5472   1.706   2.267   2.030
 1525SOL     OW 5473   6.699   2.314   0.159
 1525SOL    HW1 5474   6.671   2.226   0.121
 1525SOL    HW2 5475   6.775   2.351   0.104
 1526SOL     OW 5476   6.918   6.669   0.225
 1526SOL    HW1 5477   6.941   6.577   0.256
 1526SOL    HW2 5478   6.928   6.674   0.126
 1527SOL     OW 5479   3.555   1.538   5.144
 1527SOL    HW1 5480   3.469   1.505   5.185
 1527SOL    HW2 5481   3.535   1.582   5.057
 1528SOL     OW 5482   4.789   6.334   2.602
 1528SOL    HW1 5483   4.698   6.295   2.593
 1528SOL    HW2 5484   4.857   6.272   2.562
 1529SOL     OW 5485   3.494   0.601   0.522
 1529SOL    HW1 5486   3.422   0.649   0.473
 1529SOL    HW2 5487   3.569   0.580   0.458
 1530SOL     OW 5488   3.652   1.557   1.871
 1530SOL    HW1 5489   3.619   1.620   1.941
 1530SOL    HW2 5490   3.580   1.543   1.802
 1531SOL     OW 5491   4.507   0.756   4.686
 1531SOL    HW1 5492   4.547   0.847   4.677
 1531SOL    HW2 5493   4.544   0.696   4.615
 1532SOL     OW 5494   2.732   3.842   6.008
 1532SOL    HW1 5495   2.701   3.914   6.069
 1532SOL    HW2 5496   2.771   3.767   6.062
 1533SOL     OW 5497   6.679   3.318   0.170
 1533SOL    HW1 5498   6.600   3.337   0.113
 1533SOL    HW2 5499   6.692   3.219   0.176
 1534SOL     OW 5500   1.763   4.700   5.998
 1534SOL    HW1 5501   1.754   4.673   6.094
 1534SOL    HW2 5502   1.845   4.756   5.987
 1535SOL     OW 5503   4.865   6.523   3.971
 1535SOL    HW1 5504   4.909   6.494   4.056
 1535SOL    HW2 5505   4.904   6.472   3.894
 1536SOL     OW 5506   4.245   4.203   5.277
 1536SOL    HW1 5507   4.324   4.142   5.274
 1536SOL    HW2 5508   4.272   4.294   5.245
 1537SOL     OW 5509   4.235   6.439   3.625
 1537SOL    HW1 5510   4.229   6.339   3.629
 1537SOL    HW2 5511   4.187   6.478   3.704
 1538SOL     OW 5512   4.347   6.580   5.744
 1538SOL    HW1 5513   4.266   6.530   5.713
 1538SOL    HW2 5514   4.320   6.665   5.790
 1539SOL     OW 5515   4.140   3.823   1.994
 1539SOL    HW1 5516   4.199   3.883   1.939
 1539SOL    HW2 5517   4.049   3.820   1.953
 1540SOL     OW 5518   2.027   6.413   6.101
 1540SOL    HW1 5519   2.004   6.491   6.043
 1540SOL    HW2 5520   1.986   6.330   6.063
 1541SOL     OW 5521   3.553   2.869   2.436
 1541SOL    HW1 5522   3.652   2.855   2.441
 1541SOL    HW2 5523   3.515   2.873   2.529
 1542SOL     OW 5524   6.285   5.767   2.027
 1542SOL    HW1 5525   6.234   5.707   2.088
 1542SOL    HW2 5526   6.263   5.746   1.932
 1543SOL     OW 5527   3.491   4.092   4.930
 1543SOL    HW1 5528   3.445   4.136   5.007
 1543SOL    HW2 5529   3.589   4.116   4.932
 1544SOL     OW 5530   3.335   3.612   2.965
 1544SOL    HW1 5531   3.283   3.608   3.051
 1544SOL    HW2 5532   3.408   3.544   2.967
 1545SOL     OW 5533   4.870   0.710   4.123
 1545SOL    HW1 5534   4.928   0.786   4.152
 1545SOL    HW2 5535   4.825   0.734   4.037
 1546SOL     OW 5536   4.121   6.897   6.285
 1546SOL    HW1 5537   4.106   6.884   6.187
 1546SOL    HW2 5538   4.150   6.810   6.326
 1547SOL     OW 5539   1.502   3.601   3.168
 1547SOL    HW1 5540   1.584   3.561   3.209
 1547SOL    HW2 5541   1.451   3.651   3.238
 1548SOL     OW 5542   4.796   4.107   5.636
 1548SOL    HW1 5543   4.799   4.045   5.557
 1548SOL    HW2 5544   4.767   4.056   5.717
 1549SOL     OW 5545   4.089   1.150   3.481
 1549SOL    HW1 5546   4.101   1.120   3.386
 1549SOL    HW2 5547   4.143   1.092   3.541
 1550SOL     OW 5548   2.321   5.048   6.377
 1550SOL    HW1 5549   2.398   5.052   6.440
 1550SOL    HW2 5550   2.236   5.068   6.426
 1551SOL     OW 5551   2.046   3.907   6.790
 1551SOL    HW1 5552   2.130   3.957   6.767
 1551SOL    HW2 5553   1.972   3.936   6.729
 1552SOL     OW 5554   0.112   0.034   0.621
 1552SOL    HW1 5555   0.051   6.996   0.565
 1552SOL    HW2 5556   0.101   0.130   0.595
 1553SOL     OW 5557   0.492   1.198   5.590
 1553SOL    HW1 5558   0.511   1.101   5.602
 1553SOL    HW2 5559   0.416   1.225   5.650
 1554SOL     OW 5560   4.382   1.474   3.440
 1554SOL    HW1 5561   4.288   1.457   3.471
 1554SOL    HW2 5562   4.409   1.403   3.376
 1555SOL     OW 5563   5.042   2.246   0.606
 1555SOL    HW1 5564   4.953   2.273   0.644
 1555SOL    HW2 5565   5.098   2.205   0.678
 1556SOL     OW 5566   2.849   1.123   0.734
 1556SOL    HW1 5567   2.857   1.050   0.802
 1556SOL    HW2 5568   2.866   1.211   0.777
 1557SOL     OW 5569   2.028   1.112   6.422
 1557SOL    HW1 5570   2.121   1.138   6.398
 1557SOL    HW2 5571   1.967   1.190   6.409
 1558SOL     OW 5572   5.352   0.980   4.363
 1558SOL    HW1 5573   5.432   0.981   4.303
 1558SOL    HW2 5574   5.345   1.067   4.410
 1559SOL     OW 5575   0.155   2.803   0.057
 1559SOL    HW1 5576   0.065   2.760   0.056
 1559SOL    HW2 5577   0.222   2.738   0.093
 1560SOL     OW 5578   2.742   2.216   6.009
 1560SOL    HW1 5579   2.653   2.185   5.978
 1560SOL    HW2 5580   2.802   2.232   5.930
 1561SOL     OW 5581   0.047   6.051   2.888
 1561SOL    HW1 5582   0.049   6.114   2.810
 1561SOL    HW2 5583   6.979   6.063   2.937
 1562SOL     OW 5584   3.902   5.852   1.821
 1562SOL    HW1 5585   3.879   5.791   1.897
 1562SOL    HW2 5586   3.945   5.935   1.857
 1563SOL     OW 5587   2.338   0.957   6.056
 1563SOL    HW1 5588   2.278   0.885   6.024
 1563SOL    HW2 5589   2.408   0.977   5.987
 1564SOL     OW 5590   1.191   3.018   2.933
 1564SOL    HW1 5591   1.206   2.941   2.994
 1564SOL    HW2 5592   1.249   3.009   2.852
 1565SOL     OW 5593   4.118   5.130   4.346
 1565SOL    HW1 5594   4.083   5.143   4.253
 1565SOL    HW2 5595   4.085   5.204   4.405
 1566SOL     OW 5596   5.700   4.671   4.257
 1566SOL    HW1 5597   5.613   4.701   4.219
 1566SOL    HW2 5598   5.742   4.604   4.196
 1567SOL     OW 5599   6.230   6.140   0.324
 1567SOL    HW1 5600   6.201   6.229   0.360
 1567SOL    HW2 5601   6.316   6.113   0.369
 1568SOL     OW 5602   2.350   5.694   1.306
 1568SOL    HW1 5603   2.373   5.597   1.304
 1568SOL    HW2 5604   2.252   5.705   1.322
 1569SOL     OW 5605   2.694   6.988   3.669
 1569SOL    HW1 5606   2.638   6.928   3.727
 1569SOL    HW2 5607   2.676   6.968   3.573
 1570SOL     OW 5608   2.071   6.782   0.629
 1570SOL    HW1 5609   2.134   6.750   0.700
 1570SOL    HW2 5610   2.091   6.734   0.544
 1571SOL     OW 5611   5.978   1.280   2.473
 1571SOL    HW1 5612   5.917   1.204   2.454
 1571SOL    HW2 5613   6.072   1.253   2.452
 1572SOL     OW 5614   1.319   5.936   0.605
 1572SOL    HW1 5615   1.227   5.972   0.621
 1572SOL    HW2 5616   1.330   5.916   0.508
 1573SOL     OW 5617   6.005   3.293   2.211
 1573SOL    HW1 5618   6.045   3.367   2.157
 1573SOL    HW2 5619   5.909   3.314   2.229
 1574SOL     OW 5620   0.066   1.141   3.203
 1574SOL    HW1 5621   0.042   1.223   3.256
 1574SOL    HW2 5622   0.165   1.136   3.193
 1575SOL     OW 5623   2.628   2.183   1.606
 1575SOL    HW1 5624   2.536   2.168   1.571
 1575SOL    HW2 5625   2.678   2.096   1.606
 1576SOL     OW 5626   0.971   0.976   3.043
 1576SOL    HW1 5627   0.927   1.059   3.009
 1576SOL    HW2 5628   0.914   0.934   3.113
 1577SOL     OW 5629   2.897   0.559   5.501
 1577SOL    HW1 5630   2.876   0.657   5.509
 1577SOL    HW2 5631   2.853   0.510   5.576
 1578SOL     OW 5632   5.625   2.933   6.050
 1578SOL    HW1 5633   5.703   2.888   6.007
 1578SOL    HW2 5634   5.623   2.910   6.148
 1579SOL     OW 5635   0.599   2.035   2.374
 1579SOL    HW1 5636   0.678   2.045   2.434
 1579SOL    HW2 5637   0.568   2.125   2.344
 1580SOL     OW 5638   3.354   4.101   3.862
 1580SOL    HW1 5639   3.394   4.130   3.949
 1580SOL    HW2 5640   3.254   4.103   3.868
 1581SOL     OW 5641   6.687   4.506   5.023
 1581SOL    HW1 5642   6.693   4.410   4.997
 1581SOL    HW2 5643   6.599   4.544   4.993
 1582SOL     OW 5644   2.292   6.777   4.057
 1582SOL    HW1 5645   2.350   6.797   3.977
 1582SOL    HW2 5646   2.327   6.696   4.103
 1583SOL     OW 5647   0.871   5.346   2.520
 1583SOL    HW1 5648   0.923   5.263   2.544
 1583SOL    HW2 5649   0.893   5.372   2.426
 1584SOL     OW 5650   0.761   6.305   6.398
 1584SOL    HW1 5651   0.807   6.228   6.354
 1584SOL    HW2 5652   0.671   6.277   6.430
 1585SOL     OW 5653   4.732   1.829   3.667
 1585SOL    HW1 5654   4.776   1.754   3.716
 1585SOL    HW2 5655   4.780   1.845   3.580
 1586SOL     OW 5656   3.256   4.831   1.764
 1586SOL    HW1 5657   3.345   4.793   1.740
 1586SOL    HW2 5658   3.250   4.926   1.732
 1587SOL     OW 5659   2.968   6.053   6.134
 1587SOL    HW1 5660   3.045   6.112   6.109
 1587SOL    HW2 5661   2.959   5.979   6.068
 1588SOL     OW 5662   3.831   0.984   2.655
 1588SOL    HW1 5663   3.823   1.028   2.745
 1588SOL    HW2 5664   3.927   0.981   2.628
 1589SOL     OW 5665   6.728   3.012   2.073
 1589SOL    HW1 5666   6.647   2.955   2.081
 1589SOL    HW2 5667   6.758   3.015   1.978
 1590SOL     OW 5668   4.304   0.244   4.949
 1590SOL    HW1 5669   4.349   0.285   4.869
 1590SOL    HW2 5670   4.237   0.177   4.919
 1591SOL     OW 5671   6.920   5.317   1.743
 1591SOL    HW1 5672   6.850   5.266   1.693
 1591SOL    HW2 5673   6.898   5.414   1.742
 1592SOL     OW 5674   1.657   3.597   6.924
 1592SOL    HW1 5675   1.730   3.617   6.990
 1592SOL    HW2 5676   1.614   3.683   6.895
 1593SOL     OW 5677   1.238   6.495   5.522
 1593SOL    HW1 5678   1.288   6.575   5.556
 1593SOL    HW2 5679   1.281   6.463   5.438
 1594SOL     OW 5680   0.612   6.349   1.836
 1594SOL    HW1 5681   0.547   6.274   1.852
 1594SOL    HW2 5682   0.578   6.432   1.881
 1595SOL     OW 5683   1.939   4.790   0.372
 1595SOL    HW1 5684   1.878   4.715   0.399
 1595SOL    HW2 5685   1.921   4.871   0.427
 1596SOL     OW 5686   0.064   2.245   4.011
 1596SOL    HW1 5687   0.049   2.190   4.093
 1596SOL    HW2 5688   0.147   2.212   3.964
 1597SOL     OW 5689   1.466   6.365   0.343
 1597SOL    HW1 5690   1.404   6.408   0.278
 1597SOL    HW2 5691   1.523   6.298   0.294
 1598SOL     OW 5692   0.342   4.490   5.857
 1598SOL    HW1 5693   0.441   4.497   5.845
 1598SOL    HW2 5694   0.298   4.480   5.767
 1599SOL     OW 5695   4.595   4.936   5.031
 1599SOL    HW1 5696   4.527   4.964   4.964
 1599SOL    HW2 5697   4.663   5.009   5.042
 1600SOL     OW 5698   3.758   1.293   3.104
 1600SOL    HW1 5699   3.694   1.317   3.031
 1600SOL    HW2 5700   3.768   1.372   3.166
 1601SOL     OW 5701   6.695   5.748   4.456
 1601SOL    HW1 5702   6.736   5.692   4.528
 1601SOL    HW2 5703   6.619   5.800   4.493
 1602SOL     OW 5704   3.985   6.058   3.664
 1602SOL    HW1 5705   3.939   6.076   3.751
 1602SOL    HW2 5706   3.946   5.976   3.623
 1603SOL     OW 5707   1.416   6.023   3.558
 1603SOL    HW1 5708   1.497   5.988   3.511
 1603SOL    HW2 5709   1.336   6.010   3.500
 1604SOL     OW 5710   5.747   4.292   1.310
 1604SOL    HW1 5711   5.678   4.359   1.339
 1604SOL    HW2 5712   5.810   4.275   1.385
 1605SOL     OW 5713   6.368   4.983   1.527
 1605SOL    HW1 5714   6.289   4.922   1.531
 1605SOL    HW2 5715   6.451   4.932   1.550
 1606SOL     OW 5716   3.890   0.818   5.539
 1606SOL    HW1 5717   3.866   0.857   5.628
 1606SOL    HW2 5718   3.974   0.764   5.548
 1607SOL     OW 5719   4.388   1.059   1.104
 1607SOL    HW1 5720   4.356   1.104   1.187
 1607SOL    HW2 5721   4.311   1.013   1.059
 1608SOL     OW 5722   1.293   1.150   3.441
 1608SOL    HW1 5723   1.208   1.157   3.493
 1608SOL    HW2 5724   1.347   1.233   3.453
 1609SOL     OW 5725   4.341   0.178   0.464
 1609SOL    HW1 5726   4.434   0.214   0.453
 1609SOL    HW2 5727   4.289   0.191   0.380
 1610SOL     OW 5728   6.058   4.537   6.613
 1610SOL    HW1 5729   5.958   4.531   6.603
 1610SOL    HW2 5730   6.092   4.457   6.661
 1611SOL     OW 5731   2.137   4.007   1.313
 1611SOL    HW1 5732   2.178   3.948   1.244
 1611SOL    HW2 5733   2.197   4.085   1.331
 1612SOL     OW 5734   2.679   6.738   6.837
 1612SOL    HW1 5735   2.664   6.672   6.764
 1612SOL    HW2 5736   2.694   6.829   6.798
 1613SOL     OW 5737   1.229   5.686   1.800
 1613SOL    HW1 5738   1.324   5.706   1.826
 1613SOL    HW2 5739   1.192   5.762   1.748
 1614SOL     OW 5740   5.369   3.084   6.775
 1614SOL    HW1 5741   5.343   2.990   6.797
 1614SOL    HW2 5742   5.288   3.143   6.777
 1615SOL     OW 5743   5.967   5.509   0.705
 1615SOL    HW1 5744   5.961   5.566   0.624
 1615SOL    HW2 5745   5.903   5.432   0.698
 1616SOL     OW 5746   3.417   1.262   5.239
 1616SOL    HW1 5747   3.332   1.253   5.187
 1616SOL    HW2 5748   3.435   1.178   5.290
 1617SOL     OW 5749   5.955   6.605   2.815
 1617SOL    HW1 5750   5.884   6.602   2.886
 1617SOL    HW2 5751   6.000   6.694   2.817
 1618SOL     OW 5752   1.717   5.228   1.712
 1618SOL    HW1 5753   1.656   5.304   1.690
 1618SOL    HW2 5754   1.726   5.220   1.812
 1619SOL     OW 5755   1.039   3.995   1.793
 1619SOL    HW1 5756   0.989   4.068   1.746
 1619SOL    HW2 5757   0.979   3.916   1.805
 1620SOL     OW 5758   2.831   4.747   1.708
 1620SOL    HW1 5759   2.862   4.827   1.760
 1620SOL    HW2 5760   2.852   4.664   1.760
 1621SOL     OW 5761   6.962   1.308   0.800
 1621SOL    HW1 5762   7.017   1.285   0.881
 1621SOL    HW2 5763   6.937   1.405   0.803
 1622SOL     OW 5764   0.663   3.046   4.938
 1622SOL    HW1 5765   0.583   3.016   4.887
 1622SOL    HW2 5766   0.637   3.068   5.032
 1623SOL     OW 5767   2.191   3.208   4.920
 1623SOL    HW1 5768   2.211   3.290   4.975
 1623SOL    HW2 5769   2.241   3.130   4.956
 1624SOL     OW 5770   3.290   0.965   5.167
 1624SOL    HW1 5771   3.366   0.900   5.168
 1624SOL    HW2 5772   3.233   0.951   5.248
 1625SOL     OW 5773   1.371   4.986   0.203
 1625SOL    HW1 5774   1.411   5.076   0.219
 1625SOL    HW2 5775   1.433   4.931   0.148
 1626SOL     OW 5776   4.260   1.821   0.132
 1626SOL    HW1 5777   4.250   1.731   0.174
 1626SOL    HW2 5778   4.266   1.891   0.203
 1627SOL     OW 5779   6.421   3.390   3.312
 1627SOL    HW1 5780   6.485   3.451   3.266
 1627SOL    HW2 5781   6.372   3.336   3.244
 1628SOL     OW 5782   4.901   4.253   6.799
 1628SOL    HW1 5783   4.867   4.206   6.718
 1628SOL    HW2 5784   4.953   4.334   6.771
 1629SOL     OW 5785   3.102   0.735   4.130
 1629SOL    HW1 5786   3.125   0.831   4.149
 1629SOL    HW2 5787   3.158   0.676   4.188
 1630SOL     OW 5788   1.176   4.951   5.549
 1630SOL    HW1 5789   1.184   4.892   5.629
 1630SOL    HW2 5790   1.262   4.950   5.498
 1631SOL     OW 5791   1.209   3.203   0.048
 1631SOL    HW1 5792   1.204   3.288   7.013
 1631SOL    HW2 5793   1.217   3.226   0.145
 1632SOL     OW 5794   6.369   2.618   0.524
 1632SOL    HW1 5795   6.325   2.528   0.532
 1632SOL    HW2 5796   6.443   2.614   0.457
 1633SOL     OW 5797   5.279   3.770   4.304
 1633SOL    HW1 5798   5.217   3.748   4.379
 1633SOL    HW2 5799   5.352   3.701   4.300
 1634SOL     OW 5800   4.399   5.865   5.064
 1634SOL    HW1 5801   4.448   5.846   5.149
 1634SOL    HW2 5802   4.423   5.956   5.032
 1635SOL     OW 5803   6.796   4.885   6.409
 1635SOL    HW1 5804   6.731   4.897   6.484
 1635SOL    HW2 5805   6.747   4.890   6.322
 1636SOL     OW 5806   2.746   4.400   1.675
 1636SOL    HW1 5807   2.662   4.451   1.662
 1636SOL    HW2 5808   2.787   4.424   1.763
 1637SOL     OW 5809   1.034   0.453   2.530
 1637SOL    HW1 5810   0.998   0.432   2.621
 1637SOL    HW2 5811   1.120   0.404   2.516
 1638SOL     OW 5812   0.085   4.275   3.349
 1638SOL    HW1 5813   0.175   4.289   3.389
 1638SOL    HW2 5814   0.016   4.270   3.421
 1639SOL     OW 5815   4.994   6.603   2.293
 1639SOL    HW1 5816   5.075   6.556   2.257
 1639SOL    HW2 5817   4.924   6.608   2.222
 1640SOL     OW 5818   6.317   0.737   0.266
 1640SOL    HW1 5819   6.409   0.768   0.242
 1640SOL    HW2 5820   6.254   0.762   0.193
 1641SOL     OW 5821   4.514   2.229   3.501
 1641SOL    HW1 5822   4.503   2.326   3.519
 1641SOL    HW2 5823   4.610   2.202   3.514
 1642SOL     OW 5824   6.319   3.636   6.260
 1642SOL    HW1 5825   6.414   3.666   6.263
 1642SOL    HW2 5826   6.267   3.695   6.199
 1643SOL     OW 5827   2.996   4.867   4.850
 1643SOL    HW1 5828   3.037   4.810   4.779
 1643SOL    HW2 5829   2.941   4.809   4.911
 1644SOL     OW 5830   6.278   3.532   0.474
 1644SOL    HW1 5831   6.314   3.622   0.499
 1644SOL    HW2 5832   6.254   3.532   0.377
 1645SOL     OW 5833   3.136   5.226   5.737
 1645SOL    HW1 5834   3.170   5.189   5.651
 1645SOL    HW2 5835   3.085   5.310   5.720
 1646SOL     OW 5836   2.884   6.420   0.178
 1646SOL    HW1 5837   2.926   6.497   0.130
 1646SOL    HW2 5838   2.891   6.434   0.277
 1647SOL     OW 5839   5.728   2.991   4.735
 1647SOL    HW1 5840   5.707   3.013   4.640
 1647SOL    HW2 5841   5.643   2.970   4.784
 1648SOL     OW 5842   5.027   5.168   0.703
 1648SOL    HW1 5843   5.124   5.163   0.680
 1648SOL    HW2 5844   5.017   5.171   0.803
 1649SOL     OW 5845   3.319   1.165   4.409
 1649SOL    HW1 5846   3.362   1.252   4.386
 1649SOL    HW2 5847   3.353   1.135   4.498
 1650SOL     OW 5848   1.933   6.309   5.764
 1650SOL    HW1 5849   1.979   6.304   5.675
 1650SOL    HW2 5850   1.931   6.218   5.806
 1651SOL     OW 5851   0.326   1.810   1.988
 1651SOL    HW1 5852   0.413   1.839   2.029
 1651SOL    HW2 5853   0.331   1.819   1.889
 1652SOL     OW 5854   1.038   3.824   2.524
 1652SOL    HW1 5855   1.048   3.759   2.449
 1652SOL    HW2 5856   1.122   3.878   2.532
 1653SOL     OW 5857   0.623   6.916   1.239
 1653SOL    HW1 5858   0.700   6.863   1.202
 1653SOL    HW2 5859   0.544   6.856   1.251
 1654SOL     OW 5860   0.698   3.724   1.613
 1654SOL    HW1 5861   0.750   3.650   1.571
 1654SOL    HW2 5862   0.620   3.747   1.554
 1655SOL     OW 5863   0.587   2.272   5.195
 1655SOL    HW1 5864   0.516   2.221   5.146
 1655SOL    HW2 5865   0.637   2.210   5.256
 1656SOL     OW 5866   2.538   4.601   2.165
 1656SOL    HW1 5867   2.484   4.595   2.082
 1656SOL    HW2 5868   2.635   4.595   2.143
 1657SOL     OW 5869   0.403   1.355   3.491
 1657SOL    HW1 5870   0.430   1.333   3.398
 1657SOL    HW2 5871   0.329   1.423   3.489
 1658SOL     OW 5872   6.952   5.944   1.013
 1658SOL    HW1 5873   6.915   6.030   1.048
 1658SOL    HW2 5874   0.030   5.955   0.992
 1659SOL     OW 5875   3.844   6.963   6.378
 1659SOL    HW1 5876   3.835   0.042   6.364
 1659SOL    HW2 5877   3.941   6.939   6.384
 1660SOL     OW 5878   1.068   5.155   3.552
 1660SOL    HW1 5879   1.153   5.191   3.515
 1660SOL    HW2 5880   1.055   5.190   3.645
 1661SOL     OW 5881   2.405   0.220   1.713
 1661SOL    HW1 5882   2.413   0.256   1.806
 1661SOL    HW2 5883   2.474   0.149   1.698
 1662SOL     OW 5884   6.656   0.662   4.296
 1662SOL    HW1 5885   6.562   0.695   4.291
 1662SOL    HW2 5886   6.718   0.741   4.297
 1663SOL     OW 5887   4.434   6.291   2.927
 1663SOL    HW1 5888   4.394   6.302   2.837
 1663SOL    HW2 5889   4.498   6.366   2.945
 1664SOL     OW 5890   1.846   0.165   4.683
 1664SOL    HW1 5891   1.809   0.252   4.649
 1664SOL    HW2 5892   1.793   0.089   4.645
 1665SOL     OW 5893   0.154   1.681   2.828
 1665SOL    HW1 5894   0.154   1.777   2.799
 1665SOL    HW2 5895   0.226   1.632   2.779
 1666SOL     OW 5896   5.744   1.943   6.796
 1666SOL    HW1 5897   5.768   2.013   6.863
 1666SOL    HW2 5898   5.652   1.908   6.815
 1667SOL     OW 5899   6.793   5.996   1.344
 1667SOL    HW1 5900   6.881   5.949   1.353
 1667SOL    HW2 5901   6.724   5.949   1.399
 1668SOL     OW 5902   5.330   6.437   5.025
 1668SOL    HW1 5903   5.259   6.507   5.029
 1668SOL    HW2 5904   5.420   6.479   5.037
 1669SOL     OW 5905   6.256   5.770   6.523
 1669SOL    HW1 5906   6.275   5.744   6.617
 1669SOL    HW2 5907   6.341   5.764   6.469
 1670SOL     OW 5908   0.106   4.281   5.618
 1670SOL    HW1 5909   0.030   4.315   5.562
 1670SOL    HW2 5910   0.098   4.182   5.628
 1671SOL     OW 5911   5.163   1.552   1.909
 1671SOL    HW1 5912   5.112   1.632   1.939
 1671SOL    HW2 5913   5.218   1.576   1.829
 1672SOL     OW 5914   1.794   3.245   0.935
 1672SOL    HW1 5915   1.850   3.166   0.958
 1672SOL    HW2 5916   1.848   3.329   0.947
 1673SOL     OW 5917   1.105   1.417   4.135
 1673SOL    HW1 5918   1.052   1.349   4.084
 1673SOL    HW2 5919   1.103   1.504   4.086
 1674SOL     OW 5920   0.802   3.172   2.331
 1674SOL    HW1 5921   0.746   3.148   2.251
 1674SOL    HW2 5922   0.744   3.211   2.402
 1675SOL     OW 5923   5.194   0.046   0.130
 1675SOL    HW1 5924   5.149   0.038   0.041
 1675SOL    HW2 5925   5.285   0.004   0.125
 1676SOL     OW 5926   2.201   2.406   2.006
 1676SOL    HW1 5927   2.281   2.459   1.978
 1676SOL    HW2 5928   2.138   2.398   1.929
 1677SOL     OW 5929   3.204   3.704   4.469
 1677SOL    HW1 5930   3.275   3.737   4.407
 1677SOL    HW2 5931   3.161   3.622   4.430
 1678SOL     OW 5932   5.145   4.107   4.026
 1678SOL    HW1 5933   5.127   4.122   3.928
 1678SOL    HW2 5934   5.058   4.096   4.074
 1679SOL     OW 5935   2.383   2.332   4.460
 1679SOL    HW1 5936   2.451   2.403   4.476
 1679SOL    HW2 5937   2.295   2.373   4.439
 1680SOL     OW 5938   6.763   2.670   4.864
 1680SOL    HW1 5939   6.796   2.581   4.832
 1680SOL    HW2 5940   6.711   2.657   4.949
 1681SOL     OW 5941   6.782   5.758   0.233
 1681SOL    HW1 5942   6.794   5.856   0.215
 1681SOL    HW2 5943   6.692   5.742   0.275
 1682SOL     OW 5944   1.480   0.960   4.519
 1682SOL    HW1 5945   1.519   1.035   4.572
 1682SOL    HW2 5946   1.428   0.996   4.442
 1683SOL     OW 5947   4.973   4.867   1.173
 1683SOL    HW1 5948   5.038   4.925   1.223
 1683SOL    HW2 5949   5.020   4.786   1.138
 1684SOL     OW 5950   1.541   6.022   2.017
 1684SOL    HW1 5951   1.497   6.036   2.106
 1684SOL    HW2 5952   1.502   6.085   1.950
 1685SOL     OW 5953   2.839   0.912   4.704
 1685SOL    HW1 5954   2.807   0.827   4.663
 1685SOL    HW2 5955   2.761   0.961   4.745
 1686SOL     OW 5956   3.015   6.020   4.620
 1686SOL    HW1 5957   2.980   6.030   4.714
 1686SOL    HW2 5958   2.979   6.094   4.563
 1687SOL     OW 5959   2.122   3.672   1.434
 1687SOL    HW1 5960   2.111   3.767   1.462
 1687SOL    HW2 5961   2.136   3.614   1.514
 1688SOL     OW 5962   2.401   2.649   4.186
 1688SOL    HW1 5963   2.323   2.711   4.192
 1688SOL    HW2 5964   2.446   2.660   4.098
 1689SOL     OW 5965   5.756   1.408   3.011
 1689SOL    HW1 5966   5.850   1.378   3.024
 1689SOL    HW2 5967   5.750   1.464   2.928
 1690SOL     OW 5968   1.342   2.898   3.786
 1690SOL    HW1 5969   1.296   2.820   3.829
 1690SOL    HW2 5970   1.436   2.873   3.764
 1691SOL     OW 5971   6.101   3.472   3.670
 1691SOL    HW1 5972   6.194   3.484   3.635
 1691SOL    HW2 5973   6.104   3.457   3.769
 1692SOL     OW 5974   5.543   6.448   1.281
 1692SOL    HW1 5975   5.494   6.507   1.345
 1692SOL    HW2 5976   5.569   6.363   1.327
 1693SOL     OW 5977   0.161   2.159   2.077
 1693SOL    HW1 5978   0.163   2.166   2.176
 1693SOL    HW2 5979   0.113   2.075   2.051
 1694SOL     OW 5980   5.384   0.415   2.539
 1694SOL    HW1 5981   5.317   0.401   2.612
 1694SOL    HW2 5982   5.413   0.511   2.538
 1695SOL     OW 5983   3.806   0.982   5.175
 1695SOL    HW1 5984   3.759   1.052   5.121
 1695SOL    HW2 5985   3.885   1.023   5.220
 1696SOL     OW 5986   4.259   4.604   0.518
 1696SOL    HW1 5987   4.354   4.577   0.502
 1696SOL    HW2 5988   4.255   4.661   0.600
 1697SOL     OW 5989   5.733   0.339   0.653
 1697SOL    HW1 5990   5.781   0.277   0.592
 1697SOL    HW2 5991   5.638   0.308   0.665
 1698SOL     OW 5992   4.146   0.395   0.614
 1698SOL    HW1 5993   4.232   0.430   0.576
 1698SOL    HW2 5994   4.125   0.306   0.573
 1699SOL     OW 5995   1.591   0.684   1.116
 1699SOL    HW1 5996   1.502   0.693   1.162
 1699SOL    HW2 5997   1.621   0.589   1.119
 1700SOL     OW 5998   5.674   2.703   3.589
 1700SOL    HW1 5999   5.773   2.719   3.590
 1700SOL    HW2 6000   5.628   2.788   3.564
 1701SOL     OW 6001   4.552   4.315   6.277
 1701SOL    HW1 6002   4.574   4.219   6.287
 1701SOL    HW2 6003   4.454   4.329   6.296
 1702SOL     OW 6004   6.706   2.466   0.503
 1702SOL    HW1 6005   6.666   2.400   0.567
 1702SOL    HW2 6006   6.783   2.423   0.455
 1703SOL     OW 6007   2.908   2.598   1.694
 1703SOL    HW1 6008   2.900   2.517   1.751
 1703SOL    HW2 6009   2.818   2.627   1.663
 1704SOL     OW 6010   1.421   2.509   1.078
 1704SOL    HW1 6011   1.483   2.559   1.017
 1704SOL    HW2 6012   1.396   2.568   1.155
 1705SOL     OW 6013   3.384   1.772   1.588
 1705SOL    HW1 6014   3.472   1.783   1.542
 1705SOL    HW2 6015   3.397   1.718   1.671
 1706SOL     OW 6016   4.893   1.089   2.378
 1706SOL    HW1 6017   4.906   1.113   2.282
 1706SOL    HW2 6018   4.920   1.165   2.436
 1707SOL     OW 6019   4.986   2.180   2.311
 1707SOL    HW1 6020   4.928   2.100   2.295
 1707SOL    HW2 6021   5.051   2.188   2.235
 1708SOL     OW 6022   4.888   5.137   1.493
 1708SOL    HW1 6023   4.957   5.100   1.430
 1708SOL    HW2 6024   4.805   5.160   1.442
 1709SOL     OW 6025   3.342   5.773   2.414
 1709SOL    HW1 6026   3.381   5.702   2.356
 1709SOL    HW2 6027   3.261   5.738   2.460
 1710SOL     OW 6028   5.316   4.987   3.982
 1710SOL    HW1 6029   5.238   4.925   3.988
 1710SOL    HW2 6030   5.288   5.073   3.939
 1711SOL     OW 6031   1.278   4.420   4.051
 1711SOL    HW1 6032   1.246   4.440   3.959
 1711SOL    HW2 6033   1.233   4.480   4.116
 1712SOL     OW 6034   6.711   2.379   5.548
 1712SOL    HW1 6035   6.663   2.397   5.633
 1712SOL    HW2 6036   6.656   2.317   5.491
 1713SOL     OW 6037   4.536   2.383   1.397
 1713SOL    HW1 6038   4.492   2.365   1.485
 1713SOL    HW2 6039   4.584   2.471   1.401
 1714SOL     OW 6040   3.096   1.495   5.500
 1714SOL    HW1 6041   3.166   1.558   5.469
 1714SOL    HW2 6042   3.073   1.514   5.596
 1715SOL     OW 6043   0.378   5.636   2.903
 1715SOL    HW1 6044   0.379   5.735   2.888
 1715SOL    HW2 6045   0.340   5.616   2.993
 1716SOL     OW 6046   5.027   6.661   3.251
 1716SOL    HW1 6047   5.037   6.572   3.295
 1716SOL    HW2 6048   5.091   6.669   3.175
 1717SOL     OW 6049   2.516   6.734   5.741
 1717SOL    HW1 6050   2.442   6.702   5.800
 1717SOL    HW2 6051   2.579   6.791   5.794
 1718SOL     OW 6052   2.346   1.869   1.401
 1718SOL    HW1 6053   2.355   1.793   1.337
 1718SOL    HW2 6054   2.281   1.844   1.473
 1719SOL     OW 6055   1.588   3.443   0.986
 1719SOL    HW1 6056   1.626   3.532   1.012
 1719SOL    HW2 6057   1.661   3.386   0.948
 1720SOL     OW 6058   0.238   3.199   6.935
 1720SOL    HW1 6059   0.149   3.174   6.973
 1720SOL    HW2 6060   0.311   3.166   6.995
 1721SOL     OW 6061   1.531   6.160   1.386
 1721SOL    HW1 6062   1.514   6.258   1.386
 1721SOL    HW2 6063   1.613   6.140   1.440
 1722SOL     OW 6064   3.589   1.402   3.559
 1722SOL    HW1 6065   3.674   1.353   3.579
 1722SOL    HW2 6066   3.549   1.436   3.644
 1723SOL     OW 6067   6.155   2.498   2.845
 1723SOL    HW1 6068   6.196   2.412   2.875
 1723SOL    HW2 6069   6.227   2.567   2.832
 1724SOL     OW 6070   6.883   2.663   1.913
 1724SOL    HW1 6071   6.900   2.673   2.011
 1724SOL    HW2 6072   6.961   2.698   1.861
 1725SOL     OW 6073   1.707   4.741   6.324
 1725SOL    HW1 6074   1.644   4.664   6.312
 1725SOL    HW2 6075   1.665   4.809   6.385
 1726SOL     OW 6076   5.735   4.845   4.828
 1726SOL    HW1 6077   5.669   4.894   4.885
 1726SOL    HW2 6078   5.809   4.809   4.886
 1727SOL     OW 6079   3.390   2.884   4.050
 1727SOL    HW1 6080   3.420   2.844   4.137
 1727SOL    HW2 6081   3.309   2.941   4.066
 1728SOL     OW 6082   5.010   4.858   5.401
 1728SOL    HW1 6083   5.025   4.836   5.498
 1728SOL    HW2 6084   4.919   4.898   5.390
 1729SOL     OW 6085   2.252   4.354   2.958
 1729SOL    HW1 6086   2.159   4.388   2.974
 1729SOL    HW2 6087   2.309   4.373   3.038
 1730SOL     OW 6088   1.420   6.621   5.750
 1730SOL    HW1 6089   1.409   6.663   5.660
 1730SOL    HW2 6090   1.471   6.536   5.741
 1731SOL     OW 6091   6.614   3.856   2.920
 1731SOL    HW1 6092   6.554   3.776   2.922
 1731SOL    HW2 6093   6.706   3.828   2.893
 1732SOL     OW 6094   2.486   5.530   5.373
 1732SOL    HW1 6095   2.495   5.501   5.278
 1732SOL    HW2 6096   2.456   5.453   5.429
 1733SOL     OW 6097   2.035   4.718   1.369
 1733SOL    HW1 6098   1.997   4.748   1.456
 1733SOL    HW2 6099   2.105   4.648   1.386
 1734SOL     OW 6100   4.501   3.188   0.835
 1734SOL    HW1 6101   4.548   3.249   0.900
 1734SOL    HW2 6102   4.548   3.100   0.833
 1735SOL     OW 6103   5.087   5.972   0.417
 1735SOL    HW1 6104   5.088   6.070   0.395
 1735SOL    HW2 6105   4.994   5.936   0.405
 1736SOL     OW 6106   3.214   3.270   0.153
 1736SOL    HW1 6107   3.271   3.215   0.213
 1736SOL    HW2 6108   3.248   3.363   0.150
 1737SOL     OW 6109   3.104   1.326   4.364
 1737SOL    HW1 6110   3.185   1.267   4.359
 1737SOL    HW2 6111   3.027   1.273   4.399
 1738SOL     OW 6112   2.152   2.316   4.086
 1738SOL    HW1 6113   2.246   2.302   4.055
 1738SOL    HW2 6114   2.151   2.387   4.156
 1739SOL     OW 6115   0.428   2.083   5.490
 1739SOL    HW1 6116   0.511   2.139   5.485
 1739SOL    HW2 6117   0.401   2.072   5.586
 1740SOL     OW 6118   0.033   1.663   5.518
 1740SOL    HW1 6119   0.100   1.591   5.537
 1740SOL    HW2 6120   6.962   1.635   5.552
 1741SOL     OW 6121   2.357   0.581   3.486
 1741SOL    HW1 6122   2.356   0.673   3.446
 1741SOL    HW2 6123   2.407   0.519   3.427
 1742SOL     OW 6124   5.713   0.492   6.354
 1742SOL    HW1 6125   5.704   0.399   6.390
 1742SOL    HW2 6126   5.784   0.494   6.283
 1743SOL     OW 6127   1.055   2.400   1.396
 1743SOL    HW1 6128   1.065   2.477   1.333
 1743SOL    HW2 6129   0.962   2.364   1.392
 1744SOL     OW 6130   6.395   1.621   2.738
 1744SOL    HW1 6131   6.324   1.662   2.795
 1744SOL    HW2 6132   6.400   1.523   2.756
 1745SOL     OW 6133   5.915   5.902   2.614
 1745SOL    HW1 6134   5.953   5.854   2.693
 1745SOL    HW2 6135   5.987   5.956   2.570
 1746SOL     OW 6136   0.928   4.199   4.603
 1746SOL    HW1 6137   0.959   4.216   4.510
 1746SOL    HW2 6138   0.996   4.234   4.668
 1747SOL     OW 6139   5.032   1.392   3.254
 1747SOL    HW1 6140   5.107   1.450   3.286
 1747SOL    HW2 6141   5.059   1.345   3.171
 1748SOL     OW 6142   1.254   1.028   5.347
 1748SOL    HW1 6143   1.240   0.963   5.272
 1748SOL    HW2 6144   1.166   1.053   5.386
 1749SOL     OW 6145   2.612   0.603   4.566
 1749SOL    HW1 6146   2.708   0.629   4.574
 1749SOL    HW2 6147   2.604   0.504   4.564
 1750SOL     OW 6148   5.367   6.095   4.348
 1750SOL    HW1 6149   5.367   6.044   4.434
 1750SOL    HW2 6150   5.276   6.132   4.331
 1751SOL     OW 6151   3.806   6.455   5.050
 1751SOL    HW1 6152   3.816   6.538   5.105
 1751SOL    HW2 6153   3.893   6.406   5.047
 1752SOL     OW 6154   6.591   2.128   1.626
 1752SOL    HW1 6155   6.599   2.029   1.639
 1752SOL    HW2 6156   6.560   2.171   1.711
 1753SOL     OW 6157   0.310   1.156   0.849
 1753SOL    HW1 6158   0.237   1.212   0.887
 1753SOL    HW2 6159   0.396   1.207   0.853
 1754SOL     OW 6160   1.069   4.506   6.875
 1754SOL    HW1 6161   1.151   4.453   6.851
 1754SOL    HW2 6162   1.041   4.484   6.969
 1755SOL     OW 6163   0.101   6.032   2.437
 1755SOL    HW1 6164   0.167   6.100   2.406
 1755SOL    HW2 6165   0.063   5.984   2.358
 1756SOL     OW 6166   4.348   5.815   6.133
 1756SOL    HW1 6167   4.296   5.794   6.050
 1756SOL    HW2 6168   4.394   5.732   6.165
 1757SOL     OW 6169   2.786   5.764   4.820
 1757SOL    HW1 6170   2.726   5.815   4.758
 1757SOL    HW2 6171   2.799   5.671   4.786
 1758SOL     OW 6172   2.112   0.023   3.983
 1758SOL    HW1 6173   2.174   0.100   3.995
 1758SOL    HW2 6174   2.139   6.967   4.044
 1759SOL     OW 6175   1.464   5.858   6.332
 1759SOL    HW1 6176   1.558   5.889   6.322
 1759SOL    HW2 6177   1.457   5.762   6.307
 1760SOL     OW 6178   5.332   1.271   3.171
 1760SOL    HW1 6179   5.418   1.246   3.125
 1760SOL    HW2 6180   5.348   1.351   3.229
 1761SOL     OW 6181   0.233   0.522   0.697
 1761SOL    HW1 6182   0.250   0.531   0.795
 1761SOL    HW2 6183   0.202   0.610   0.660
 1762SOL     OW 6184   0.587   0.981   4.990
 1762SOL    HW1 6185   0.549   0.969   5.081
 1762SOL    HW2 6186   0.524   0.944   4.922
 1763SOL     OW 6187   1.205   3.641   3.897
 1763SOL    HW1 6188   1.127   3.673   3.842
 1763SOL    HW2 6189   1.290   3.673   3.855
 1764SOL     OW 6190   2.126   3.937   2.597
 1764SOL    HW1 6191   2.166   4.026   2.576
 1764SOL    HW2 6192   2.128   3.879   2.516
 1765SOL     OW 6193   3.476   0.990   0.877
 1765SOL    HW1 6194   3.448   0.951   0.790
 1765SOL    HW2 6195   3.548   0.934   0.917
 1766SOL     OW 6196   4.828   3.863   2.484
 1766SOL    HW1 6197   4.907   3.877   2.424
 1766SOL    HW2 6198   4.754   3.820   2.432
 1767SOL     OW 6199   0.670   3.706   2.792
 1767SOL    HW1 6200   0.724   3.622   2.799
 1767SOL    HW2 6201   0.573   3.685   2.799
 1768SOL     OW 6202   4.256   1.646   5.979
 1768SOL    HW1 6203   4.256   1.718   6.048
 1768SOL    HW2 6204   4.172   1.592   5.987
 1769SOL     OW 6205   4.186   1.726   5.710
 1769SOL    HW1 6206   4.156   1.643   5.664
 1769SOL    HW2 6207   4.197   1.708   5.807
 1770SOL     OW 6208   0.141   4.293   4.614
 1770SOL    HW1 6209   0.138   4.207   4.666
 1770SOL    HW2 6210   0.055   4.307   4.566
 1771SOL     OW 6211   2.117   5.040   0.264
 1771SOL    HW1 6212   2.040   4.978   0.254
 1771SOL    HW2 6213   2.140   5.080   0.175
 1772SOL     OW 6214   3.345   0.000   3.387
 1772SOL    HW1 6215   3.405   0.057   3.329
 1772SOL    HW2 6216   3.281   6.970   3.328
 1773SOL     OW 6217   3.074   3.678   6.860
 1773SOL    HW1 6218   3.137   3.685   6.783
 1773SOL    HW2 6219   3.049   3.769   6.893
 1774SOL     OW 6220   4.486   0.231   1.700
 1774SOL    HW1 6221   4.500   0.329   1.712
 1774SOL    HW2 6222   4.399   0.204   1.742
 1775SOL     OW 6223   1.658   5.636   5.086
 1775SOL    HW1 6224   1.733   5.671   5.141
 1775SOL    HW2 6225   1.596   5.583   5.143
 1776SOL     OW 6226   4.680   1.021   6.055
 1776SOL    HW1 6227   4.691   0.955   5.980
 1776SOL    HW2 6228   4.662   1.112   6.018
 1777SOL     OW 6229   2.953   5.895   5.574
 1777SOL    HW1 6230   2.974   5.878   5.478
 1777SOL    HW2 6231   2.897   5.820   5.610
 1778SOL     OW 6232   4.128   2.237   4.366
 1778SOL    HW1 6233   4.066   2.256   4.442
 1778SOL    HW2 6234   4.213   2.198   4.401
 1779SOL     OW 6235   3.993   1.940   4.413
 1779SOL    HW1 6236   4.022   2.016   4.472
 1779SOL    HW2 6237   3.917   1.970   4.355
 1780SOL     OW 6238   2.092   4.421   5.447
 1780SOL    HW1 6239   2.052   4.477   5.374
 1780SOL    HW2 6240   2.039   4.336   5.456
 1781SOL     OW 6241   5.094   5.329   3.704
 1781SOL    HW1 6242   5.006   5.362   3.738
 1781SOL    HW2 6243   5.125   5.387   3.630
 1782SOL     OW 6244   2.743   1.824   3.418
 1782SOL    HW1 6245   2.802   1.772   3.479
 1782SOL    HW2 6246   2.652   1.833   3.458
 1783SOL     OW 6247   2.130   3.333   6.126
 1783SOL    HW1 6248   2.159   3.249   6.172
 1783SOL    HW2 6249   2.208   3.375   6.080
 1784SOL     OW 6250   2.958   0.936   2.826
 1784SOL    HW1 6251   3.050   0.941   2.866
 1784SOL    HW2 6252   2.923   1.029   2.812
 1785SOL     OW 6253   5.489   5.611   3.477
 1785SOL    HW1 6254   5.488   5.641   3.382
 1785SOL    HW2 6255   5.575   5.637   3.520
 1786SOL     OW 6256   0.992   3.626   0.632
 1786SOL    HW1 6257   0.950   3.678   0.707
 1786SOL    HW2 6258   0.974   3.528   0.646
 1787SOL     OW 6259   2.241   0.867   5.215
 1787SOL    HW1 6260   2.223   0.963   5.237
 1787SOL    HW2 6261   2.252   0.815   5.299
 1788SOL     OW 6262   3.383   3.812   6.991
 1788SOL    HW1 6263   3.310   3.811   0.041
 1788SOL    HW2 6264   3.343   3.797   6.901
 1789SOL     OW 6265   6.148   2.219   2.491
 1789SOL    HW1 6266   6.059   2.264   2.489
 1789SOL    HW2 6267   6.135   2.120   2.487
 1790SOL     OW 6268   4.031   6.500   4.651
 1790SOL    HW1 6269   4.102   6.518   4.719
 1790SOL    HW2 6270   3.943   6.491   4.698
 1791SOL     OW 6271   0.735   1.662   4.627
 1791SOL    HW1 6272   0.820   1.646   4.678
 1791SOL    HW2 6273   0.658   1.622   4.677
 1792SOL     OW 6274   0.771   1.247   4.331
 1792SOL    HW1 6275   0.712   1.325   4.312
 1792SOL    HW2 6276   0.733   1.165   4.288
 1793SOL     OW 6277   6.790   0.213   3.600
 1793SOL    HW1 6278   6.871   0.250   3.555
 1793SOL    HW2 6279   6.713   0.277   3.588
 1794SOL     OW 6280   5.021   6.465   6.158
 1794SOL    HW1 6281   5.037   6.537   6.091
 1794SOL    HW2 6282   5.064   6.490   6.245
 1795SOL     OW 6283   7.016   4.826   1.783
 1795SOL    HW1 6284   6.949   4.864   1.846
 1795SOL    HW2 6285   0.002   4.727   1.795
 1796SOL     OW 6286   2.326   1.474   4.095
 1796SOL    HW1 6287   2.305   1.552   4.037
 1796SOL    HW2 6288   2.293   1.390   4.050
 1797SOL     OW 6289   1.404   7.015   6.000
 1797SOL    HW1 6290   1.483   0.030   5.950
 1797SOL    HW2 6291   1.391   6.918   5.981
 1798SOL     OW 6292   4.736   2.924   5.616
 1798SOL    HW1 6293   4.795   2.989   5.569
 1798SOL    HW2 6294   4.759   2.831   5.588
 1799SOL     OW 6295   5.808   2.182   6.426
 1799SOL    HW1 6296   5.725   2.221   6.386
 1799SOL    HW2 6297   5.854   2.252   6.481
 1800SOL     OW 6298   5.172   4.259   3.467
 1800SOL    HW1 6299   5.222   4.208   3.397
 1800SOL    HW2 6300   5.230   4.332   3.504
 1801SOL     OW 6301   1.209   1.523   2.956
 1801SOL    HW1 6302   1.132   1.585   2.944
 1801SOL    HW2 6303   1.180   1.429   2.937
 1802SOL     OW 6304   5.922   5.372   2.732
 1802SOL    HW1 6305   5.871   5.439   2.786
 1802SOL    HW2 6306   5.955   5.299   2.792
 1803SOL     OW 6307   6.664   6.391   1.367
 1803SOL    HW1 6308   6.645   6.329   1.444
 1803SOL    HW2 6309   6.753   6.368   1.328
 1804SOL     OW 6310   3.412   3.276   5.309
 1804SOL    HW1 6311   3.417   3.184   5.347
 1804SOL    HW2 6312   3.491   3.292   5.250
 1805SOL     OW 6313   0.956   4.196   5.678
 1805SOL    HW1 6314   1.006   4.116   5.711
 1805SOL    HW2 6315   0.942   4.188   5.580
 1806SOL     OW 6316   1.636   2.181   1.731
 1806SOL    HW1 6317   1.735   2.178   1.728
 1806SOL    HW2 6318   1.606   2.208   1.823
 1807SOL     OW 6319   6.169   2.354   6.362
 1807SOL    HW1 6320   6.187   2.413   6.283
 1807SOL    HW2 6321   6.151   2.261   6.331
 1808SOL     OW 6322   5.981   4.825   4.674
 1808SOL    HW1 6323   6.058   4.804   4.735
 1808SOL    HW2 6324   5.904   4.858   4.727
 1809SOL     OW 6325   2.470   2.346   4.786
 1809SOL    HW1 6326   2.436   2.252   4.778
 1809SOL    HW2 6327   2.562   2.345   4.826
 1810SOL     OW 6328   2.012   6.854   5.266
 1810SOL    HW1 6329   2.006   6.876   5.169
 1810SOL    HW2 6330   2.040   6.758   5.276
 1811SOL     OW 6331   4.464   4.602   3.514
 1811SOL    HW1 6332   4.510   4.538   3.576
 1811SOL    HW2 6333   4.456   4.561   3.423
 1812SOL     OW 6334   5.168   6.985   5.695
 1812SOL    HW1 6335   5.264   6.962   5.682
 1812SOL    HW2 6336   5.121   6.985   5.607
 1813SOL     OW 6337   4.284   5.031   1.274
 1813SOL    HW1 6338   4.203   4.984   1.239
 1813SOL    HW2 6339   4.324   4.978   1.349
 1814SOL     OW 6340   6.625   0.667   0.901
 1814SOL    HW1 6341   6.715   0.622   0.896
 1814SOL    HW2 6342   6.566   0.630   0.830
 1815SOL     OW 6343   5.847   0.859   2.440
 1815SOL    HW1 6344   5.898   0.855   2.526
 1815SOL    HW2 6345   5.911   0.867   2.364
 1816SOL     OW 6346   2.359   4.782   0.644
 1816SOL    HW1 6347   2.299   4.704   0.625
 1816SOL    HW2 6348   2.424   4.757   0.716
 1817SOL     OW 6349   3.601   6.817   3.073
 1817SOL    HW1 6350   3.552   6.783   2.993
 1817SOL    HW2 6351   3.699   6.802   3.062
 1818SOL     OW 6352   2.554   5.866   1.242
 1818SOL    HW1 6353   2.489   5.796   1.270
 1818SOL    HW2 6354   2.508   5.954   1.236
 1819SOL     OW 6355   0.885   6.510   1.921
 1819SOL    HW1 6356   0.912   6.477   1.831
 1819SOL    HW2 6357   0.845   6.435   1.974
 1820SOL     OW 6358   3.139   0.229   2.093
 1820SOL    HW1 6359   3.091   0.264   2.013
 1820SOL    HW2 6360   3.085   0.246   2.175
 1821SOL     OW 6361   2.589   0.810   1.534
 1821SOL    HW1 6362   2.642   0.763   1.605
 1821SOL    HW2 6363   2.632   0.794   1.445
 1822SOL     OW 6364   1.210   2.881   1.469
 1822SOL    HW1 6365   1.303   2.901   1.438
 1822SOL    HW2 6366   1.148   2.883   1.390
 1823SOL     OW 6367   3.220   5.444   3.184
 1823SOL    HW1 6368   3.124   5.429   3.207
 1823SOL    HW2 6369   3.232   5.537   3.149
 1824SOL     OW 6370   3.894   3.172   0.277
 1824SOL    HW1 6371   3.859   3.078   0.271
 1824SOL    HW2 6372   3.827   3.235   0.238
 1825SOL     OW 6373   2.063   2.059   4.310
 1825SOL    HW1 6374   2.139   2.086   4.370
 1825SOL    HW2 6375   1.989   2.126   4.320
 1826SOL     OW 6376   3.650   1.807   1.462
 1826SOL    HW1 6377   3.697   1.722   1.438
 1826SOL    HW2 6378   3.649   1.867   1.382
 1827SOL     OW 6379   6.554   5.385   1.357
 1827SOL    HW1 6380   6.461   5.371   1.390
 1827SOL    HW2 6381   6.592   5.297   1.328
 1828SOL     OW 6382   1.746   2.417   0.321
 1828SOL    HW1 6383   1.717   2.351   0.390
 1828SOL    HW2 6384   1.686   2.497   0.325
 1829SOL     OW 6385   3.302   0.477   3.134
 1829SOL    HW1 6386   3.205   0.457   3.120
 1829SOL    HW2 6387   3.357   0.408   3.089
 1830SOL     OW 6388   5.535   5.662   4.441
 1830SOL    HW1 6389   5.559   5.752   4.405
 1830SOL    HW2 6390   5.436   5.653   4.448
 1831SOL     OW 6391   5.730   6.886   1.564
 1831SOL    HW1 6392   5.815   6.851   1.525
 1831SOL    HW2 6393   5.731   6.875   1.663
 1832SOL     OW 6394   4.440   2.401   0.965
 1832SOL    HW1 6395   4.496   2.479   0.935
 1832SOL    HW2 6396   4.402   2.420   1.055
 1833SOL     OW 6397   5.211   0.841   0.820
 1833SOL    HW1 6398   5.296   0.843   0.872
 1833SOL    HW2 6399   5.230   0.811   0.726
 1834SOL     OW 6400   2.165   3.944   0.957
 1834SOL    HW1 6401   2.095   3.882   0.922
 1834SOL    HW2 6402   2.248   3.892   0.979
 1835SOL     OW 6403   0.112   4.544   1.570
 1835SOL    HW1 6404   0.166   4.464   1.547
 1835SOL    HW2 6405   0.134   4.575   1.663
 1836SOL     OW 6406   5.190   2.263   1.495
 1836SOL    HW1 6407   5.117   2.194   1.499
 1836SOL    HW2 6408   5.257   2.236   1.426
 1837SOL     OW 6409   0.815   7.017   4.890
 1837SOL    HW1 6410   0.849   0.041   4.973
 1837SOL    HW2 6411   0.892   6.978   4.839
 1838SOL     OW 6412   6.676   1.127   5.739
 1838SOL    HW1 6413   6.772   1.155   5.733
 1838SOL    HW2 6414   6.640   1.112   5.646
 1839SOL     OW 6415   0.407   1.680   5.422
 1839SOL    HW1 6416   0.387   1.582   5.429
 1839SOL    HW2 6417   0.325   1.728   5.388
 1840SOL     OW 6418   3.881   0.133   1.351
 1840SOL    HW1 6419   3.798   0.175   1.389
 1840SOL    HW2 6420   3.878   0.137   1.251
 1841SOL     OW 6421   2.451   1.337   3.618
 1841SOL    HW1 6422   2.427   1.330   3.521
 1841SOL    HW2 6423   2.458   1.245   3.658
 1842SOL     OW 6424   1.381   5.807   0.384
 1842SOL    HW1 6425   1.443   5.861   0.327
 1842SOL    HW2 6426   1.367   5.717   0.342
 1843SOL     OW 6427   6.349   1.475   4.318
 1843SOL    HW1 6428   6.366   1.385   4.277
 1843SOL    HW2 6429   6.312   1.463   4.410
 1844SOL     OW 6430   3.379   6.396   5.244
 1844SOL    HW1 6431   3.361   6.305   5.281
 1844SOL    HW2 6432   3.378   6.463   5.319
 1845SOL     OW 6433   3.320   6.761   4.932
 1845SOL    HW1 6434   3.282   6.844   4.891
 1845SOL    HW2 6435   3.245   6.697   4.952
 1846SOL     OW 6436   3.627   1.078   1.922
 1846SOL    HW1 6437   3.693   1.036   1.859
 1846SOL    HW2 6438   3.667   1.159   1.964
 1847SOL     OW 6439   1.271   0.626   6.544
 1847SOL    HW1 6440   1.195   0.577   6.588
 1847SOL    HW2 6441   1.279   0.596   6.449
 1848SOL     OW 6442   2.087   6.028   3.319
 1848SOL    HW1 6443   2.026   6.001   3.393
 1848SOL    HW2 6444   2.166   6.076   3.357
 1849SOL     OW 6445   3.996   2.733   1.715
 1849SOL    HW1 6446   4.090   2.760   1.736
 1849SOL    HW2 6447   3.991   2.634   1.706
 1850SOL     OW 6448   0.220   2.383   2.655
 1850SOL    HW1 6449   0.190   2.299   2.702
 1850SOL    HW2 6450   0.255   2.360   2.565
 1851SOL     OW 6451   0.696   3.259   6.586
 1851SOL    HW1 6452   0.794   3.280   6.576
 1851SOL    HW2 6453   0.683   3.202   6.667
 1852SOL     OW 6454   6.572   4.478   2.458
 1852SOL    HW1 6455   6.548   4.462   2.554
 1852SOL    HW2 6456   6.672   4.473   2.448
 1853SOL     OW 6457   0.674   2.502   3.549
 1853SOL    HW1 6458   0.726   2.522   3.466
 1853SOL    HW2 6459   0.579   2.530   3.536
 1854SOL     OW 6460   2.174   5.551   3.036
 1854SOL    HW1 6461   2.185   5.629   3.098
 1854SOL    HW2 6462   2.148   5.470   3.088
 1855SOL     OW 6463   5.201   4.050   5.400
 1855SOL    HW1 6464   5.177   3.960   5.364
 1855SOL    HW2 6465   5.293   4.046   5.441
 1856SOL     OW 6466   5.147   4.027   5.995
 1856SOL    HW1 6467   5.109   4.015   5.903
 1856SOL    HW2 6468   5.161   4.124   6.013
 1857SOL     OW 6469   4.173   2.180   6.593
 1857SOL    HW1 6470   4.224   2.219   6.670
 1857SOL    HW2 6471   4.091   2.234   6.577
 1858SOL     OW 6472   5.546   3.444   3.132
 1858SOL    HW1 6473   5.482   3.433   3.208
 1858SOL    HW2 6474   5.556   3.540   3.109
 1859SOL     OW 6475   4.841   1.965   4.016
 1859SOL    HW1 6476   4.834   2.055   3.973
 1859SOL    HW2 6477   4.824   1.894   3.948
 1860SOL     OW 6478   0.441   0.916   5.224
 1860SOL    HW1 6479   0.466   0.820   5.240
 1860SOL    HW2 6480   0.376   0.945   5.295
 1861SOL     OW 6481   6.709   6.691   2.056
 1861SOL    HW1 6482   6.661   6.604   2.070
 1861SOL    HW2 6483   6.657   6.747   1.992
 1862SOL     OW 6484   2.998   0.366   6.688
 1862SOL    HW1 6485   3.067   0.336   6.754
 1862SOL    HW2 6486   3.016   0.326   6.599
 1863SOL     OW 6487   0.564   2.510   3.201
 1863SOL    HW1 6488   0.507   2.522   3.282
 1863SOL    HW2 6489   0.659   2.500   3.228
 1864SOL     OW 6490   1.779   6.442   4.887
 1864SOL    HW1 6491   1.796   6.358   4.938
 1864SOL    HW2 6492   1.828   6.518   4.929
 1865SOL     OW 6493   3.954   7.011   0.239
 1865SOL    HW1 6494   3.953   0.092   0.249
 1865SOL    HW2 6495   3.924   6.987   0.147
 1866SOL     OW 6496   6.125   4.910   3.322
 1866SOL    HW1 6497   6.065   4.886   3.398
 1866SOL    HW2 6498   6.220   4.897   3.349
 1867SOL     OW 6499   0.941   3.816   0.187
 1867SOL    HW1 6500   0.927   3.758   0.267
 1867SOL    HW2 6501   0.895   3.904   0.201
 1868SOL     OW 6502   4.677   3.862   6.546
 1868SOL    HW1 6503   4.697   3.797   6.473
 1868SOL    HW2 6504   4.677   3.814   6.634
 1869SOL     OW 6505   6.934   3.469   4.552
 1869SOL    HW1 6506   6.838   3.486   4.533
 1869SOL    HW2 6507   6.946   3.449   4.650
 1870SOL     OW 6508   1.710   2.931   4.994
 1870SOL    HW1 6509   1.697   2.836   5.024
 1870SOL    HW2 6510   1.751   2.931   4.904
 1871SOL     OW 6511   0.460   0.934   6.408
 1871SOL    HW1 6512   0.429   0.847   6.371
 1871SOL    HW2 6513   0.382   0.997   6.415
 1872SOL     OW 6514   4.531   2.062   0.460
 1872SOL    HW1 6515   4.463   2.084   0.390
 1872SOL    HW2 6516   4.617   2.035   0.416
 1873SOL     OW 6517   6.047   1.322   5.830
 1873SOL    HW1 6518   6.088   1.386   5.765
 1873SOL    HW2 6519   6.073   1.348   5.923
 1874SOL     OW 6520   2.146   0.995   6.955
 1874SOL    HW1 6521   2.197   0.909   6.954
 1874SOL    HW2 6522   2.195   1.065   6.903
 1875SOL     OW 6523   6.913   1.067   1.147
 1875SOL    HW1 6524   6.857   0.988   1.125
 1875SOL    HW2 6525   6.882   1.108   1.233
 1876SOL     OW 6526   3.808   6.456   6.003
 1876SOL    HW1 6527   3.843   6.546   5.977
 1876SOL    HW2 6528   3.882   6.403   6.046
 1877SOL     OW 6529   0.443   1.723   3.460
 1877SOL    HW1 6530   0.517   1.720   3.528
 1877SOL    HW2 6531   0.416   1.629   3.438
 1878SOL     OW 6532   6.779   2.770   4.187
 1878SOL    HW1 6533   6.716   2.809   4.120
 1878SOL    HW2 6534   6.862   2.740   4.140
 1879SOL     OW 6535   1.917   5.457   3.358
 1879SOL    HW1 6536   1.934   5.553   3.378
 1879SOL    HW2 6537   1.818   5.442   3.345
 1880SOL     OW 6538   0.345   1.840   3.684
 1880SOL    HW1 6539   0.278   1.912   3.671
 1880SOL    HW2 6540   0.354   1.786   3.600
 1881SOL     OW 6541   1.422   2.378   3.234
 1881SOL    HW1 6542   1.506   2.389   3.181
 1881SOL    HW2 6543   1.405   2.461   3.287
 1882SOL     OW 6544   1.063   4.064   6.767
 1882SOL    HW1 6545   1.079   4.039   6.862
 1882SOL    HW2 6546   0.975   4.027   6.737
 1883SOL     OW 6547   0.792   3.008   3.786
 1883SOL    HW1 6548   0.736   2.925   3.790
 1883SOL    HW2 6549   0.888   2.985   3.799
 1884SOL     OW 6550   6.071   2.798   0.063
 1884SOL    HW1 6551   6.094   2.701   0.053
 1884SOL    HW2 6552   5.996   2.808   0.127
 1885SOL     OW 6553   0.108   2.292   6.769
 1885SOL    HW1 6554   0.169   2.234   6.824
 1885SOL    HW2 6555   0.153   2.315   6.683
 1886SOL     OW 6556   1.936   1.354   1.453
 1886SOL    HW1 6557   1.836   1.351   1.455
 1886SOL    HW2 6558   1.966   1.444   1.422
 1887SOL     OW 6559   1.003   5.843   6.787
 1887SOL    HW1 6560   1.053   5.928   6.772
 1887SOL    HW2 6561   0.996   5.825   6.885
 1888SOL     OW 6562   2.809   2.348   6.700
 1888SOL    HW1 6563   2.896   2.388   6.727
 1888SOL    HW2 6564   2.780   2.281   6.768
 1889SOL     OW 6565   5.417   2.668   6.412
 1889SOL    HW1 6566   5.370   2.648   6.326
 1889SOL    HW2 6567   5.407   2.591   6.475
 1890SOL     OW 6568   1.446   6.000   5.350
 1890SOL    HW1 6569   1.402   6.000   5.260
 1890SOL    HW2 6570   1.388   5.951   5.416
 1891SOL     OW 6571   5.909   2.470   3.551
 1891SOL    HW1 6572   5.908   2.389   3.610
 1891SOL    HW2 6573   5.862   2.545   3.597
 1892SOL     OW 6574   3.970   0.743   0.516
 1892SOL    HW1 6575   3.922   0.657   0.531
 1892SOL    HW2 6576   4.046   0.750   0.581
 1893SOL     OW 6577   3.101   2.469   6.469
 1893SOL    HW1 6578   3.025   2.515   6.423
 1893SOL    HW2 6579   3.161   2.538   6.511
 1894SOL     OW 6580   3.494   3.383   2.973
 1894SOL    HW1 6581   3.588   3.362   2.949
 1894SOL    HW2 6582   3.443   3.298   2.989
 1895SOL     OW 6583   5.490   0.705   2.852
 1895SOL    HW1 6584   5.579   0.687   2.811
 1895SOL    HW2 6585   5.502   0.767   2.930
 1896SOL     OW 6586   0.767   0.631   2.703
 1896SOL    HW1 6587   0.749   0.539   2.667
 1896SOL    HW2 6588   0.680   0.675   2.726
 1897SOL     OW 6589   1.097   4.942   2.306
 1897SOL    HW1 6590   1.088   4.871   2.236
 1897SOL    HW2 6591   1.071   4.905   2.395
 1898SOL     OW 6592   3.560   4.890   2.313
 1898SOL    HW1 6593   3.464   4.864   2.307
 1898SOL    HW2 6594   3.594   4.873   2.405
 1899SOL     OW 6595   1.027   2.015   2.638
 1899SOL    HW1 6596   1.046   2.057   2.549
 1899SOL    HW2 6597   0.934   1.978   2.638
 1900SOL     OW 6598   1.354   0.382   5.726
 1900SOL    HW1 6599   1.319   0.301   5.774
 1900SOL    HW2 6600   1.443   0.360   5.684
 1901SOL     OW 6601   1.947   1.169   1.666
 1901SOL    HW1 6602   1.949   1.224   1.750
 1901SOL    HW2 6603   1.959   1.229   1.587
 1902SOL     OW 6604   1.961   2.436   4.890
 1902SOL    HW1 6605   1.936   2.474   4.980
 1902SOL    HW2 6606   1.896   2.365   4.865
 1903SOL     OW 6607   6.030   2.996   3.437
 1903SOL    HW1 6608   6.120   2.992   3.482
 1903SOL    HW2 6609   6.027   3.076   3.377
 1904SOL     OW 6610   6.025   6.707   4.690
 1904SOL    HW1 6611   5.982   6.768   4.623
 1904SOL    HW2 6612   5.977   6.619   4.690
 1905SOL     OW 6613   1.974   0.943   4.063
 1905SOL    HW1 6614   1.884   0.980   4.085
 1905SOL    HW2 6615   1.990   0.952   3.965
 1906SOL     OW 6616   2.608   0.291   5.304
 1906SOL    HW1 6617   2.511   0.280   5.282
 1906SOL    HW2 6618   2.652   0.342   5.231
 1907SOL     OW 6619   3.184   6.907   3.156
 1907SOL    HW1 6620   3.162   6.985   3.097
 1907SOL    HW2 6621   3.196   6.826   3.100
 1908SOL     OW 6622   4.003   0.414   4.846
 1908SOL    HW1 6623   3.926   0.428   4.908
 1908SOL    HW2 6624   4.011   0.317   4.825
 1909SOL     OW 6625   1.274   3.956   2.537
 1909SOL    HW1 6626   1.300   4.052   2.551
 1909SOL    HW2 6627   1.356   3.899   2.546
 1910SOL     OW 6628   0.243   2.841   6.483
 1910SOL    HW1 6629   0.227   2.912   6.415
 1910SOL    HW2 6630   0.159   2.786   6.494
 1911SOL     OW 6631   5.624   3.735   4.900
 1911SOL    HW1 6632   5.706   3.677   4.898
 1911SOL    HW2 6633   5.623   3.794   4.819
 1912SOL     OW 6634   2.658   0.050   0.886
 1912SOL    HW1 6635   2.634   0.099   0.803
 1912SOL    HW2 6636   2.740   0.092   0.927
 1913SOL     OW 6637   1.101   5.826   5.038
 1913SOL    HW1 6638   1.032   5.850   4.970
 1913SOL    HW2 6639   1.061   5.828   5.129
 1914SOL     OW 6640   3.497   2.976   6.418
 1914SOL    HW1 6641   3.444   3.042   6.365
 1914SOL    HW2 6642   3.525   3.017   6.505
 1915SOL     OW 6643   3.375   1.943   5.376
 1915SOL    HW1 6644   3.318   1.972   5.299
 1915SOL    HW2 6645   3.461   1.904   5.341
 1916SOL     OW 6646   3.162   5.790   1.239
 1916SOL    HW1 6647   3.084   5.822   1.293
 1916SOL    HW2 6648   3.231   5.751   1.300
 1917SOL     OW 6649   3.031   3.398   4.911
 1917SOL    HW1 6650   3.073   3.439   4.992
 1917SOL    HW2 6651   2.971   3.323   4.938
 1918SOL     OW 6652   0.997   1.491   6.376
 1918SOL    HW1 6653   1.042   1.415   6.328
 1918SOL    HW2 6654   0.912   1.458   6.418
 1919SOL     OW 6655   2.496   0.443   1.560
 1919SOL    HW1 6656   2.467   0.361   1.609
 1919SOL    HW2 6657   2.428   0.515   1.572
 1920SOL     OW 6658   1.879   4.709   2.429
 1920SOL    HW1 6659   1.807   4.773   2.400
 1920SOL    HW2 6660   1.961   4.760   2.453
 1921SOL     OW 6661   1.333   4.954   0.493
 1921SOL    HW1 6662   1.297   4.923   0.404
 1921SOL    HW2 6663   1.355   5.051   0.488
 1922SOL     OW 6664   2.862   4.351   0.621
 1922SOL    HW1 6665   2.860   4.413   0.543
 1922SOL    HW2 6666   2.833   4.260   0.593
 1923SOL     OW 6667   3.077   0.648   5.760
 1923SOL    HW1 6668   3.032   0.590   5.828
 1923SOL    HW2 6669   3.169   0.671   5.791
 1924SOL     OW 6670   4.668   5.312   1.716
 1924SOL    HW1 6671   4.688   5.275   1.625
 1924SOL    HW2 6672   4.746   5.297   1.776
 1925SOL     OW 6673   1.576   4.075   0.287
 1925SOL    HW1 6674   1.657   4.017   0.290
 1925SOL    HW2 6675   1.497   4.024   0.322
 1926SOL     OW 6676   2.040   6.073   2.843
 1926SOL    HW1 6677   2.075   6.114   2.928
 1926SOL    HW2 6678   1.956   6.022   2.862
 1927SOL     OW 6679   3.149   4.109   6.299
 1927SOL    HW1 6680   3.057   4.074   6.317
 1927SOL    HW2 6681   3.144   4.186   6.236
 1928SOL     OW 6682   6.469   4.495   6.024
 1928SOL    HW1 6683   6.518   4.475   5.939
 1928SOL    HW2 6684   6.454   4.593   6.032
 1929SOL     OW 6685   0.990   5.167   1.375
 1929SOL    HW1 6686   0.993   5.266   1.362
 1929SOL    HW2 6687   1.033   5.122   1.296
 1930SOL     OW 6688   3.664   3.826   6.863
 1930SOL    HW1 6689   3.572   3.808   6.829
 1930SOL    HW2 6690   3.706   3.740   6.893
 1931SOL     OW 6691   0.633   3.217   2.546
 1931SOL    HW1 6692   0.545   3.218   2.594
 1931SOL    HW2 6693   0.698   3.161   2.598
 1932SOL     OW 6694   4.872   3.615   3.623
 1932SOL    HW1 6695   4.894   3.613   3.721
 1932SOL    HW2 6696   4.891   3.526   3.583
 1933SOL     OW 6697   2.238   4.301   0.776
 1933SOL    HW1 6698   2.263   4.288   0.680
 1933SOL    HW2 6699   2.321   4.311   0.831
 1934SOL     OW 6700   0.690   0.224   5.509
 1934SOL    HW1 6701   0.786   0.247   5.498
 1934SOL    HW2 6702   0.673   0.132   5.473
 1935SOL     OW 6703   4.043   6.500   3.792
 1935SOL    HW1 6704   3.998   6.433   3.852
 1935SOL    HW2 6705   4.024   6.592   3.825
 1936SOL     OW 6706   6.110   3.914   3.731
 1936SOL    HW1 6707   6.106   3.991   3.667
 1936SOL    HW2 6708   6.143   3.832   3.684
 1937SOL     OW 6709   3.977   0.089   1.054
 1937SOL    HW1 6710   4.035   0.014   1.087
 1937SOL    HW2 6711   3.881   0.063   1.064
 1938SOL     OW 6712   2.055   1.597   1.409
 1938SOL    HW1 6713   2.091   1.652   1.334
 1938SOL    HW2 6714   2.086   1.636   1.496
 1939SOL     OW 6715   6.824   0.649   4.619
 1939SOL    HW1 6716   6.874   0.613   4.698
 1939SOL    HW2 6717   6.855   0.602   4.536
 1940SOL     OW 6718   4.908   4.905   0.619
 1940SOL    HW1 6719   4.982   4.857   0.573
 1940SOL    HW2 6720   4.939   4.997   0.644
 1941SOL     OW 6721   0.318   4.368   3.445
 1941SOL    HW1 6722   0.394   4.430   3.425
 1941SOL    HW2 6723   0.255   4.412   3.509
 1942SOL     OW 6724   5.453   0.791   0.942
 1942SOL    HW1 6725   5.530   0.852   0.929
 1942SOL    HW2 6726   5.443   0.771   1.040
 1943SOL     OW 6727   2.849   6.288   2.744
 1943SOL    HW1 6728   2.932   6.285   2.689
 1943SOL    HW2 6729   2.872   6.313   2.838
 1944SOL     OW 6730   6.276   2.401   0.242
 1944SOL    HW1 6731   6.332   2.324   0.211
 1944SOL    HW2 6732   6.333   2.483   0.247
 1945SOL     OW 6733   3.287   6.067   1.233
 1945SOL    HW1 6734   3.254   5.974   1.253
 1945SOL    HW2 6735   3.342   6.099   1.310
 1946SOL     OW 6736   6.446   0.043   1.557
 1946SOL    HW1 6737   6.510   0.069   1.629
 1946SOL    HW2 6738   6.481   0.073   1.469
 1947SOL     OW 6739   5.232   6.701   4.916
 1947SOL    HW1 6740   5.283   6.718   4.832
 1947SOL    HW2 6741   5.171   6.778   4.934
 1948SOL     OW 6742   5.262   5.385   4.229
 1948SOL    HW1 6743   5.237   5.340   4.143
 1948SOL    HW2 6744   5.325   5.327   4.281
 1949SOL     OW 6745   3.133   4.553   6.338
 1949SOL    HW1 6746   3.142   4.650   6.320
 1949SOL    HW2 6747   3.129   4.537   6.437
 1950SOL     OW 6748   3.697   4.318   6.877
 1950SOL    HW1 6749   3.666   4.264   6.955
 1950SOL    HW2 6750   3.630   4.390   6.858
 1951SOL     OW 6751   6.287   3.179   6.949
 1951SOL    HW1 6752   6.284   3.080   6.963
 1951SOL    HW2 6753   6.204   3.208   6.901
 1952SOL     OW 6754   4.955   2.863   0.470
 1952SOL    HW1 6755   4.945   2.788   0.404
 1952SOL    HW2 6756   4.995   2.827   0.554
 1953SOL     OW 6757   6.614   1.462   6.003
 1953SOL    HW1 6758   6.545   1.458   5.930
 1953SOL    HW2 6759   6.634   1.557   6.025
 1954SOL     OW 6760   5.491   0.442   3.405
 1954SOL    HW1 6761   5.588   0.468   3.409
 1954SOL    HW2 6762   5.436   0.512   3.452
 1955SOL     OW 6763   0.712   1.741   3.080
 1955SOL    HW1 6764   0.806   1.717   3.107
 1955SOL    HW2 6765   0.668   1.789   3.155
 1956SOL     OW 6766   5.199   6.617   3.047
 1956SOL    HW1 6767   5.146   6.627   2.963
 1956SOL    HW2 6768   5.272   6.685   3.049
 1957SOL     OW 6769   6.094   4.687   4.213
 1957SOL    HW1 6770   6.001   4.665   4.182
 1957SOL    HW2 6771   6.128   4.767   4.162
 1958SOL     OW 6772   4.907   2.443   2.315
 1958SOL    HW1 6773   4.981   2.486   2.366
 1958SOL    HW2 6774   4.924   2.344   2.309
 1959SOL     OW 6775   0.822   0.760   5.204
 1959SOL    HW1 6776   0.784   0.742   5.113
 1959SOL    HW2 6777   0.818   0.858   5.223
 1960SOL     OW 6778   6.787   4.633   2.082
 1960SOL    HW1 6779   6.823   4.544   2.055
 1960SOL    HW2 6780   6.862   4.693   2.110
 1961SOL     OW 6781   5.970   4.255   4.089
 1961SOL    HW1 6782   5.990   4.347   4.057
 1961SOL    HW2 6783   5.926   4.203   4.016
 1962SOL     OW 6784   1.301   6.527   4.042
 1962SOL    HW1 6785   1.206   6.502   4.059
 1962SOL    HW2 6786   1.311   6.626   4.040
 1963SOL     OW 6787   0.624   2.046   1.371
 1963SOL    HW1 6788   0.665   2.078   1.456
 1963SOL    HW2 6789   0.672   1.964   1.340
 1964SOL     OW 6790   4.286   4.639   0.810
 1964SOL    HW1 6791   4.370   4.670   0.854
 1964SOL    HW2 6792   4.236   4.577   0.871
 1965SOL     OW 6793   1.468   3.028   4.918
 1965SOL    HW1 6794   1.558   2.992   4.943
 1965SOL    HW2 6795   1.444   3.103   4.980
 1966SOL     OW 6796   6.730   6.446   0.802
 1966SOL    HW1 6797   6.713   6.463   0.705
 1966SOL    HW2 6798   6.748   6.348   0.816
 1967SOL     OW 6799   5.274   2.487   5.902
 1967SOL    HW1 6800   5.204   2.559   5.897
 1967SOL    HW2 6801   5.285   2.445   5.812
 1968SOL     OW 6802   1.815   6.870   6.060
 1968SOL    HW1 6803   1.742   6.908   6.003
 1968SOL    HW2 6804   1.791   6.881   6.156
 1969SOL     OW 6805   0.629   1.484   1.812
 1969SOL    HW1 6806   0.594   1.497   1.719
 1969SOL    HW2 6807   0.555   1.492   1.878
 1970SOL     OW 6808   2.696   6.448   6.003
 1970SOL    HW1 6809   2.758   6.492   5.937
 1970SOL    HW2 6810   2.723   6.352   6.015
 1971SOL     OW 6811   0.234   0.426   5.366
 1971SOL    HW1 6812   0.320   0.375   5.367
 1971SOL    HW2 6813   0.158   0.362   5.363
 1972SOL     OW 6814   5.434   2.240   2.042
 1972SOL    HW1 6815   5.451   2.245   1.943
 1972SOL    HW2 6816   5.437   2.332   2.081
 1973SOL     OW 6817   3.448   2.781   6.974
 1973SOL    HW1 6818   3.434   2.689   6.938
 1973SOL    HW2 6819   3.362   2.832   6.970
 1974SOL     OW 6820   6.282   6.581   5.253
 1974SOL    HW1 6821   6.289   6.677   5.279
 1974SOL    HW2 6822   6.322   6.524   5.325
 1975SOL     OW 6823   2.189   1.464   3.774
 1975SOL    HW1 6824   2.198   1.396   3.846
 1975SOL    HW2 6825   2.270   1.523   3.773
 1976SOL     OW 6826   0.198   6.855   0.274
 1976SOL    HW1 6827   0.137   6.933   0.289
 1976SOL    HW2 6828   0.191   6.792   0.351
 1977SOL     OW 6829   1.017   2.823   4.979
 1977SOL    HW1 6830   1.022   2.918   5.010
 1977SOL    HW2 6831   0.995   2.764   5.056
 1978SOL     OW 6832   2.121   6.730   2.838
 1978SOL    HW1 6833   2.184   6.664   2.799
 1978SOL    HW2 6834   2.152   6.757   2.929
 1979SOL     OW 6835   5.989   4.070   6.117
 1979SOL    HW1 6836   6.046   4.150   6.136
 1979SOL    HW2 6837   6.018   3.995   6.175
 1980SOL     OW 6838   3.193   6.945   4.775
 1980SOL    HW1 6839   3.131   7.012   4.817
 1980SOL    HW2 6840   3.272   6.992   4.736
 1981SOL     OW 6841   6.899   2.208   2.306
 1981SOL    HW1 6842   6.987   2.175   2.342
 1981SOL    HW2 6843   6.825   2.171   2.362
 1982SOL     OW 6844   0.144   4.011   4.916
 1982SOL    HW1 6845   0.158   3.943   4.844
 1982SOL    HW2 6846   0.221   4.075   4.916
 1983SOL     OW 6847   1.272   1.175   2.726
 1983SOL    HW1 6848   1.342   1.120   2.680
 1983SOL    HW2 6849   1.307   1.267   2.743
 1984SOL     OW 6850   5.258   1.559   5.088
 1984SOL    HW1 6851   5.229   1.585   5.180
 1984SOL    HW2 6852   5.230   1.629   5.023
 1985SOL     OW 6853   1.201   6.293   2.018
 1985SOL    HW1 6854   1.293   6.295   1.979
 1985SOL    HW2 6855   1.143   6.232   1.965
 1986SOL     OW 6856   2.120   1.666   6.806
 1986SOL    HW1 6857   2.123   1.707   6.897
 1986SOL    HW2 6858   2.044   1.601   6.801
 1987SOL     OW 6859   1.836   2.550   2.353
 1987SOL    HW1 6860   1.857   2.499   2.437
 1987SOL    HW2 6861   1.908   2.535   2.286
 1988SOL     OW 6862   6.038   4.228   0.825
 1988SOL    HW1 6863   6.034   4.287   0.905
 1988SOL    HW2 6864   6.006   4.136   0.849
 1989SOL     OW 6865   2.063   5.385   5.200
 1989SOL    HW1 6866   2.027   5.419   5.286
 1989SOL    HW2 6867   2.091   5.462   5.143
 1990SOL     OW 6868   3.510   6.224   0.323
 1990SOL    HW1 6869   3.551   6.296   0.266
 1990SOL    HW2 6870   3.411   6.239   0.329
 1991SOL     OW 6871   3.439   5.403   6.996
 1991SOL    HW1 6872   3.529   5.405   6.952
 1991SOL    HW2 6873   3.428   5.316   0.026
 1992SOL     OW 6874   0.707   0.643   0.229
 1992SOL    HW1 6875   0.688   0.706   0.304
 1992SOL    HW2 6876   0.803   0.653   0.201
 1993SOL     OW 6877   3.729   2.672   5.474
 1993SOL    HW1 6878   3.779   2.586   5.463
 1993SOL    HW2 6879   3.679   2.670   5.561
 1994SOL     OW 6880   0.806   1.539   0.530
 1994SOL    HW1 6881   0.755   1.454   0.546
 1994SOL    HW2 6882   0.870   1.554   0.606
 1995SOL     OW 6883   5.294   2.192   3.528
 1995SOL    HW1 6884   5.210   2.167   3.575
 1995SOL    HW2 6885   5.273   2.231   3.439
 1996SOL     OW 6886   1.923   3.723   0.770
 1996SOL    HW1 6887   2.005   3.754   0.720
 1996SOL    HW2 6888   1.850   3.790   0.756
 1997SOL     OW 6889   3.593   1.170   4.518
 1997SOL    HW1 6890   3.659   1.244   4.533
 1997SOL    HW2 6891   3.526   1.170   4.592
 1998SOL     OW 6892   2.361   4.377   6.853
 1998SOL    HW1 6893   2.293   4.449   6.854
 1998SOL    HW2 6894   2.326   4.298   6.802
 1999SOL     OW 6895   2.345   6.478   6.711
 1999SOL    HW1 6896   2.253   6.518   6.714
 1999SOL    HW2 6897   2.337   6.379   6.702
 2000SOL     OW 6898   4.358   2.343   5.251
 2000SOL    HW1 6899   4.426   2.408   5.285
 2000SOL    HW2 6900   4.280   2.394   5.214
 2001SOL     OW 6901   3.529   0.579   1.621
 2001SOL    HW1 6902   3.444   0.565   1.569
 2001SOL    HW2 6903   3.598   0.620   1.562
 2002SOL     OW 6904   6.967   4.859   6.854
 2002SOL    HW1 6905   7.006   4.785   6.798
 2002SOL    HW2 6906   0.019   4.897   6.913
 2003SOL     OW 6907   6.195   5.584   2.416
 2003SOL    HW1 6908   6.206   5.628   2.505
 2003SOL    HW2 6909   6.124   5.632   2.364
 2004SOL     OW 6910   4.902   1.516   5.201
 2004SOL    HW1 6911   4.973   1.580   5.231
 2004SOL    HW2 6912   4.843   1.495   5.278
 2005SOL     OW 6913   0.442   5.061   0.233
 2005SOL    HW1 6914   0.485   5.124   0.168
 2005SOL    HW2 6915   0.346   5.086   0.246
 2006SOL     OW 6916   5.705   6.824   3.908
 2006SOL    HW1 6917   5.614   6.829   3.866
 2006SOL    HW2 6918   5.737   6.916   3.930
 2007SOL     OW 6919   4.805   4.792   0.994
 2007SOL    HW1 6920   4.847   4.825   1.078
 2007SOL    HW2 6921   4.785   4.694   1.003
 2008SOL     OW 6922   2.469   4.881   3.902
 2008SOL    HW1 6923   2.432   4.864   3.993
 2008SOL    HW2 6924   2.564   4.910   3.909
 2009SOL     OW 6925   5.579   0.887   2.347
 2009SOL    HW1 6926   5.549   0.893   2.252
 2009SOL    HW2 6927   5.678   0.867   2.350
 2010SOL     OW 6928   1.876   2.042   1.446
 2010SOL    HW1 6929   1.919   1.952   1.438
 2010SOL    HW2 6930   1.806   2.052   1.376
 2011SOL     OW 6931   6.501   6.176   4.682
 2011SOL    HW1 6932   6.410   6.197   4.716
 2011SOL    HW2 6933   6.496   6.159   4.583
 2012SOL     OW 6934   1.571   4.067   2.465
 2012SOL    HW1 6935   1.656   4.038   2.421
 2012SOL    HW2 6936   1.592   4.108   2.554
 2013SOL     OW 6937   6.303   2.466   3.253
 2013SOL    HW1 6938   6.296   2.464   3.353
 2013SOL    HW2 6939   6.212   2.471   3.213
 2014SOL     OW 6940   2.520   5.541   3.681
 2014SOL    HW1 6941   2.604   5.593   3.667
 2014SOL    HW2 6942   2.531   5.481   3.761
 2015SOL     OW 6943   2.011   0.704   0.210
 2015SOL    HW1 6944   2.078   0.727   0.281
 2015SOL    HW2 6945   1.935   0.769   0.214
 2016SOL     OW 6946   1.609   6.128   5.724
 2016SOL    HW1 6947   1.570   6.183   5.650
 2016SOL    HW2 6948   1.600   6.031   5.701
 2017SOL     OW 6949   3.561   6.705   4.340
 2017SOL    HW1 6950   3.540   6.608   4.352
 2017SOL    HW2 6951   3.647   6.726   4.388
 2018SOL     OW 6952   5.258   0.913   5.799
 2018SOL    HW1 6953   5.284   0.847   5.729
 2018SOL    HW2 6954   5.218   0.993   5.755
 2019SOL     OW 6955   5.230   2.893   6.449
 2019SOL    HW1 6956   5.216   2.892   6.548
 2019SOL    HW2 6957   5.290   2.817   6.423
 2020SOL     OW 6958   1.433   6.434   5.328
 2020SOL    HW1 6959   1.527   6.445   5.360
 2020SOL    HW2 6960   1.433   6.389   5.239
 2021SOL     OW 6961   0.364   6.028   4.373
 2021SOL    HW1 6962   0.447   6.030   4.429
 2021SOL    HW2 6963   0.375   6.091   4.296
 2022SOL     OW 6964   1.547   3.548   3.610
 2022SOL    HW1 6965   1.554   3.497   3.696
 2022SOL    HW2 6966   1.635   3.590   3.589
 2023SOL     OW 6967   6.547   1.026   6.654
 2023SOL    HW1 6968   6.559   0.926   6.654
 2023SOL    HW2 6969   6.482   1.052   6.725
 2024SOL     OW 6970   0.394   6.688   3.706
 2024SOL    HW1 6971   0.425   6.783   3.706
 2024SOL    HW2 6972   0.466   6.629   3.669
 2025SOL     OW 6973   2.876   1.547   3.201
 2025SOL    HW1 6974   2.874   1.645   3.180
 2025SOL    HW2 6975   2.965   1.523   3.238
 2026SOL     OW 6976   7.004   2.897   5.500
 2026SOL    HW1 6977   0.054   2.825   5.491
 2026SOL    HW2 6978   0.022   2.983   5.465
 2027SOL     OW 6979   1.093   6.921   0.111
 2027SOL    HW1 6980   1.023   6.933   0.041
 2027SOL    HW2 6981   1.059   6.955   0.198
 2028SOL     OW 6982   3.087   6.593   4.924
 2028SOL    HW1 6983   3.035   6.637   4.997
 2028SOL    HW2 6984   3.090   6.494   4.938
 2029SOL     OW 6985   6.755   1.065   0.737
 2029SOL    HW1 6986   6.746   1.095   0.832
 2029SOL    HW2 6987   6.837   1.106   0.697
 2030SOL     OW 6988   2.722   0.884   3.217
 2030SOL    HW1 6989   2.749   0.944   3.293
 2030SOL    HW2 6990   2.623   0.887   3.206
 2031SOL     OW 6991   6.518   5.989   1.214
 2031SOL    HW1 6992   6.515   5.917   1.283
 2031SOL    HW2 6993   6.577   6.063   1.246
 2032SOL     OW 6994   4.803   0.285   2.126
 2032SOL    HW1 6995   4.875   0.325   2.183
 2032SOL    HW2 6996   4.724   0.262   2.183
 2033SOL     OW 6997   3.222   3.917   5.764
 2033SOL    HW1 6998   3.166   3.880   5.838
 2033SOL    HW2 6999   3.306   3.956   5.802
 2034SOL     OW 7000   2.647   5.717   5.469
 2034SOL    HW1 7001   2.610   5.787   5.408
 2034SOL    HW2 7002   2.590   5.635   5.464
 2035SOL     OW 7003   6.840   6.493   3.785
 2035SOL    HW1 7004   6.841   6.409   3.841
 2035SOL    HW2 7005   6.889   6.476   3.700
 2036SOL     OW 7006   1.246   4.248   2.631
 2036SOL    HW1 7007   1.293   4.217   2.713
 2036SOL    HW2 7008   1.206   4.338   2.648
 2037SOL     OW 7009   6.836   3.128   5.455
 2037SOL    HW1 7010   6.885   3.040   5.452
 2037SOL    HW2 7011   6.832   3.161   5.549
 2038SOL     OW 7012   1.869   2.882   0.269
 2038SOL    HW1 7013   1.835   2.925   0.352
 2038SOL    HW2 7014   1.792   2.851   0.213
 2039SOL     OW 7015   0.204   5.347   4.024
 2039SOL    HW1 7016   0.242   5.380   4.110
 2039SOL    HW2 7017   0.105   5.362   4.023
 2040SOL     OW 7018   3.274   3.389   5.515
 2040SOL    HW1 7019   3.183   3.417   5.485
 2040SOL    HW2 7020   3.328   3.361   5.436
 2041SOL     OW 7021   0.712   6.265   5.864
 2041SOL    HW1 7022   0.805   6.293   5.841
 2041SOL    HW2 7023   0.649   6.341   5.847
 2042SOL     OW 7024   4.733   6.428   0.051
 2042SOL    HW1 7025   4.692   6.406   0.140
 2042SOL    HW2 7026   4.816   6.374   0.039
 2043SOL     OW 7027   6.291   3.750   3.431
 2043SOL    HW1 7028   6.218   3.739   3.364
 2043SOL    HW2 7029   6.351   3.826   3.403
 2044SOL     OW 7030   6.601   6.946   1.937
 2044SOL    HW1 7031   6.523   6.887   1.956
 2044SOL    HW2 7032   6.613   7.011   2.012
 2045SOL     OW 7033   1.504   5.081   3.973
 2045SOL    HW1 7034   1.419   5.031   3.988
 2045SOL    HW2 7035   1.580   5.030   4.013
 2046SOL     OW 7036   6.843   2.145   3.698
 2046SOL    HW1 7037   6.773   2.141   3.627
 2046SOL    HW2 7038   6.818   2.213   3.767
 2047SOL     OW 7039   6.966   2.782   6.804
 2047SOL    HW1 7040   6.884   2.738   6.768
 2047SOL    HW2 7041   6.947   2.879   6.822
 2048SOL     OW 7042   1.431   6.686   6.187
 2048SOL    HW1 7043   1.496   6.618   6.153
 2048SOL    HW2 7044   1.369   6.712   6.113
 2049SOL     OW 7045   6.473   1.642   4.941
 2049SOL    HW1 7046   6.503   1.664   5.033
 2049SOL    HW2 7047   6.468   1.725   4.886
 2050SOL     OW 7048   6.524   2.340   3.747
 2050SOL    HW1 7049   6.445   2.322   3.805
 2050SOL    HW2 7050   6.605   2.297   3.786
 2051SOL     OW 7051   1.152   5.849   0.084
 2051SOL    HW1 7052   1.130   5.851   0.181
 2051SOL    HW2 7053   1.118   5.932   0.040
 2052SOL     OW 7054   1.319   3.525   1.082
 2052SOL    HW1 7055   1.343   3.520   1.179
 2052SOL    HW2 7056   1.354   3.443   1.036
 2053SOL     OW 7057   6.323   6.334   3.849
 2053SOL    HW1 7058   6.240   6.307   3.801
 2053SOL    HW2 7059   6.298   6.384   3.932
 2054SOL     OW 7060   3.294   4.075   3.182
 2054SOL    HW1 7061   3.334   3.984   3.168
 2054SOL    HW2 7062   3.356   4.144   3.143
 2055SOL     OW 7063   5.891   4.048   3.898
 2055SOL    HW1 7064   5.810   4.017   3.848
 2055SOL    HW2 7065   5.973   4.014   3.853
 2056SOL     OW 7066   4.159   5.591   2.426
 2056SOL    HW1 7067   4.119   5.642   2.502
 2056SOL    HW2 7068   4.233   5.645   2.385
 2057SOL     OW 7069   5.263   4.708   5.914
 2057SOL    HW1 7070   5.192   4.657   5.964
 2057SOL    HW2 7071   5.298   4.652   5.839
 2058SOL     OW 7072   0.597   0.991   3.120
 2058SOL    HW1 7073   0.639   1.060   3.061
 2058SOL    HW2 7074   0.660   0.915   3.132
 2059SOL     OW 7075   1.718   6.004   6.646
 2059SOL    HW1 7076   1.761   6.074   6.589
 2059SOL    HW2 7077   1.654   6.048   6.710
 2060SOL     OW 7078   0.561   4.268   1.681
 2060SOL    HW1 7079   0.584   4.347   1.738
 2060SOL    HW2 7080   0.520   4.197   1.738
 2061SOL     OW 7081   1.299   1.913   2.689
 2061SOL    HW1 7082   1.308   1.841   2.621
 2061SOL    HW2 7083   1.213   1.962   2.674
 2062SOL     OW 7084   6.045   5.486   4.774
 2062SOL    HW1 7085   5.956   5.477   4.730
 2062SOL    HW2 7086   6.081   5.395   4.794
 2063SOL     OW 7087   1.636   6.532   6.080
 2063SOL    HW1 7088   1.699   6.475   6.028
 2063SOL    HW2 7089   1.659   6.629   6.066
 2064SOL     OW 7090   0.585   2.579   5.706
 2064SOL    HW1 7091   0.546   2.662   5.666
 2064SOL    HW2 7092   0.539   2.499   5.668
 2065SOL     OW 7093   6.197   2.383   5.535
 2065SOL    HW1 7094   6.125   2.443   5.570
 2065SOL    HW2 7095   6.164   2.288   5.535
 2066SOL     OW 7096   0.757   4.567   4.166
 2066SOL    HW1 7097   0.726   4.641   4.107
 2066SOL    HW2 7098   0.749   4.594   4.262
 2067SOL     OW 7099   6.438   5.563   1.180
 2067SOL    HW1 7100   6.497   5.515   1.245
 2067SOL    HW2 7101   6.440   5.517   1.092
 2068SOL     OW 7102   2.242   0.152   4.303
 2068SOL    HW1 7103   2.183   0.192   4.373
 2068SOL    HW2 7104   2.224   0.054   4.296
 2069SOL     OW 7105   6.553   2.023   3.680
 2069SOL    HW1 7106   6.509   2.072   3.756
 2069SOL    HW2 7107   6.576   2.088   3.607
 2070SOL     OW 7108   0.742   0.789   1.491
 2070SOL    HW1 7109   0.661   0.843   1.516
 2070SOL    HW2 7110   0.823   0.831   1.530
 2071SOL     OW 7111   6.285   0.314   5.814
 2071SOL    HW1 7112   6.366   0.294   5.759
 2071SOL    HW2 7113   6.305   0.293   5.910
 2072SOL     OW 7114   4.458   5.658   4.294
 2072SOL    HW1 7115   4.552   5.630   4.313
 2072SOL    HW2 7116   4.437   5.642   4.198
 2073SOL     OW 7117   4.590   6.867   5.118
 2073SOL    HW1 7118   4.526   6.907   5.183
 2073SOL    HW2 7119   4.544   6.854   5.030
 2074SOL     OW 7120   2.023   2.570   6.503
 2074SOL    HW1 7121   1.968   2.562   6.587
 2074SOL    HW2 7122   2.052   2.665   6.492
 2075SOL     OW 7123   7.004   2.532   3.358
 2075SOL    HW1 7124   6.947   2.590   3.300
 2075SOL    HW2 7125   6.979   2.545   3.454
 2076SOL     OW 7126   5.893   0.267   6.022
 2076SOL    HW1 7127   5.896   0.211   6.105
 2076SOL    HW2 7128   5.815   0.238   5.966
 2077SOL     OW 7129   5.812   1.862   3.174
 2077SOL    HW1 7130   5.845   1.934   3.234
 2077SOL    HW2 7131   5.799   1.778   3.226
 2078SOL     OW 7132   1.383   5.884   5.876
 2078SOL    HW1 7133   1.381   5.801   5.932
 2078SOL    HW2 7134   1.461   5.880   5.814
 2079SOL     OW 7135   5.764   1.873   2.896
 2079SOL    HW1 7136   5.792   1.853   2.990
 2079SOL    HW2 7137   5.667   1.898   2.895
 2080SOL     OW 7138   1.882   0.155   4.967
 2080SOL    HW1 7139   1.972   0.117   4.989
 2080SOL    HW2 7140   1.875   0.168   4.868
 2081SOL     OW 7141   1.077   5.790   4.647
 2081SOL    HW1 7142   1.100   5.887   4.653
 2081SOL    HW2 7143   0.999   5.778   4.586
 2082SOL     OW 7144   0.699   6.469   3.374
 2082SOL    HW1 7145   0.631   6.449   3.303
 2082SOL    HW2 7146   0.780   6.510   3.333
 2083SOL     OW 7147   0.619   4.931   5.922
 2083SOL    HW1 7148   0.547   4.874   5.962
 2083SOL    HW2 7149   0.639   4.900   5.829
 2084SOL     OW 7150   0.760   4.678   3.293
 2084SOL    HW1 7151   0.792   4.672   3.388
 2084SOL    HW2 7152   0.839   4.674   3.231
 2085SOL     OW 7153   4.693   1.067   0.261
 2085SOL    HW1 7154   4.621   1.014   0.304
 2085SOL    HW2 7155   4.663   1.161   0.249
 2086SOL     OW 7156   3.490   6.856   6.465
 2086SOL    HW1 7157   3.416   6.906   6.419
 2086SOL    HW2 7158   3.558   6.829   6.397
 2087SOL     OW 7159   4.766   0.824   1.402
 2087SOL    HW1 7160   4.856   0.806   1.443
 2087SOL    HW2 7161   4.762   0.919   1.372
 2088SOL     OW 7162   1.275   5.645   6.905
 2088SOL    HW1 7163   1.300   5.714   6.837
 2088SOL    HW2 7164   1.239   5.690   6.987
 2089SOL     OW 7165   5.080   3.037   5.818
 2089SOL    HW1 7166   5.119   3.000   5.902
 2089SOL    HW2 7167   5.092   2.970   5.744
 2090SOL     OW 7168   4.470   3.578   5.834
 2090SOL    HW1 7169   4.510   3.531   5.755
 2090SOL    HW2 7170   4.403   3.644   5.803
 2091SOL     OW 7171   0.145   5.146   0.679
 2091SOL    HW1 7172   0.092   5.227   0.654
 2091SOL    HW2 7173   0.212   5.170   0.750
 2092SOL     OW 7174   5.539   3.766   0.323
 2092SOL    HW1 7175   5.448   3.745   0.357
 2092SOL    HW2 7176   5.546   3.741   0.226
 2093SOL     OW 7177   2.584   2.171   1.067
 2093SOL    HW1 7178   2.628   2.202   1.150
 2093SOL    HW2 7179   2.614   2.078   1.045
 2094SOL     OW 7180   5.602   1.532   2.769
 2094SOL    HW1 7181   5.502   1.541   2.769
 2094SOL    HW2 7182   5.640   1.587   2.695
 2095SOL     OW 7183   6.663   0.031   5.189
 2095SOL    HW1 7184   6.735   0.093   5.160
 2095SOL    HW2 7185   6.584   0.040   5.127
 2096SOL     OW 7186   4.834   3.975   3.104
 2096SOL    HW1 7187   4.862   3.953   3.197
 2096SOL    HW2 7188   4.826   3.891   3.050
 2097SOL     OW 7189   2.764   3.616   6.217
 2097SOL    HW1 7190   2.738   3.573   6.303
 2097SOL    HW2 7191   2.861   3.639   6.219
 2098SOL     OW 7192   4.255   6.230   2.045
 2098SOL    HW1 7193   4.273   6.280   1.960
 2098SOL    HW2 7194   4.204   6.289   2.108
 2099SOL     OW 7195   3.532   1.989   6.376
 2099SOL    HW1 7196   3.582   2.014   6.458
 2099SOL    HW2 7197   3.515   2.070   6.321
 2100SOL     OW 7198   4.743   1.983   0.277
 2100SOL    HW1 7199   4.709   2.008   0.186
 2100SOL    HW2 7200   4.719   1.889   0.297
 2101SOL     OW 7201   0.449   6.540   1.058
 2101SOL    HW1 7202   0.515   6.574   0.991
 2101SOL    HW2 7203   0.359   6.534   1.014
 2102SOL     OW 7204   5.046   4.239   2.464
 2102SOL    HW1 7205   5.022   4.266   2.370
 2102SOL    HW2 7206   5.013   4.308   2.528
 2103SOL     OW 7207   3.448   4.070   6.792
 2103SOL    HW1 7208   3.534   4.031   6.757
 2103SOL    HW2 7209   3.450   4.169   6.783
 2104SOL     OW 7210   1.588   4.277   2.134
 2104SOL    HW1 7211   1.562   4.267   2.038
 2104SOL    HW2 7212   1.538   4.211   2.189
 2105SOL     OW 7213   5.157   4.562   6.320
 2105SOL    HW1 7214   5.102   4.481   6.342
 2105SOL    HW2 7215   5.111   4.615   6.248
 2106SOL     OW 7216   5.539   3.280   0.865
 2106SOL    HW1 7217   5.613   3.342   0.841
 2106SOL    HW2 7218   5.553   3.246   0.958
 2107SOL     OW 7219   6.226   2.225   5.087
 2107SOL    HW1 7220   6.203   2.160   5.014
 2107SOL    HW2 7221   6.293   2.184   5.148
 2108SOL     OW 7222   5.981   5.361   5.144
 2108SOL    HW1 7223   6.026   5.342   5.057
 2108SOL    HW2 7224   5.935   5.450   5.138
 2109SOL     OW 7225   4.398   5.830   2.460
 2109SOL    HW1 7226   4.326   5.896   2.437
 2109SOL    HW2 7227   4.410   5.827   2.559
 2110SOL     OW 7228   2.668   0.764   0.480
 2110SOL    HW1 7229   2.588   0.711   0.505
 2110SOL    HW2 7230   2.651   0.815   0.396
 2111SOL     OW 7231   1.949   3.431   0.443
 2111SOL    HW1 7232   1.954   3.409   0.540
 2111SOL    HW2 7233   1.999   3.515   0.425
 2112SOL     OW 7234   5.179   2.362   0.848
 2112SOL    HW1 7235   5.198   2.460   0.841
 2112SOL    HW2 7236   5.264   2.314   0.872
 2113SOL     OW 7237   2.742   1.072   4.287
 2113SOL    HW1 7238   2.791   1.079   4.200
 2113SOL    HW2 7239   2.797   1.113   4.359
 2114SOL     OW 7240   2.261   2.059   6.684
 2114SOL    HW1 7241   2.177   2.008   6.665
 2114SOL    HW2 7242   2.337   2.016   6.635
 2115SOL     OW 7243   0.597   4.501   2.712
 2115SOL    HW1 7244   0.557   4.424   2.664
 2115SOL    HW2 7245   0.688   4.476   2.745
 2116SOL     OW 7246   0.588   4.031   2.710
 2116SOL    HW1 7247   0.670   3.992   2.668
 2116SOL    HW2 7248   0.611   4.068   2.800
 2117SOL     OW 7249   6.674   4.566   1.705
 2117SOL    HW1 7250   6.741   4.565   1.631
 2117SOL    HW2 7251   6.668   4.657   1.744
 2118SOL     OW 7252   6.329   3.013   3.181
 2118SOL    HW1 7253   6.270   2.933   3.197
 2118SOL    HW2 7254   6.422   2.983   3.163
 2119SOL     OW 7255   1.411   0.669   1.350
 2119SOL    HW1 7256   1.385   0.575   1.370
 2119SOL    HW2 7257   1.340   0.713   1.296
 2120SOL     OW 7258   0.362   4.193   3.242
 2120SOL    HW1 7259   0.372   4.265   3.174
 2120SOL    HW2 7260   0.347   4.234   3.332
 2121SOL     OW 7261   1.315   3.129   5.665
 2121SOL    HW1 7262   1.384   3.062   5.693
 2121SOL    HW2 7263   1.361   3.209   5.627
 2122SOL     OW 7264   5.607   5.295   6.518
 2122SOL    HW1 7265   5.510   5.307   6.540
 2122SOL    HW2 7266   5.625   5.198   6.500
 2123SOL     OW 7267   6.647   5.422   1.943
 2123SOL    HW1 7268   6.562   5.373   1.926
 2123SOL    HW2 7269   6.630   5.498   2.006
 2124SOL     OW 7270   2.955   1.810   1.229
 2124SOL    HW1 7271   2.959   1.891   1.287
 2124SOL    HW2 7272   3.042   1.762   1.232
 2125SOL     OW 7273   1.898   6.542   2.199
 2125SOL    HW1 7274   1.862   6.563   2.289
 2125SOL    HW2 7275   1.857   6.604   2.131
 2126SOL     OW 7276   3.383   2.372   6.425
 2126SOL    HW1 7277   3.293   2.382   6.382
 2126SOL    HW2 7278   3.372   2.364   6.525
 2127SOL     OW 7279   1.337   1.794   5.902
 2127SOL    HW1 7280   1.256   1.848   5.925
 2127SOL    HW2 7281   1.324   1.700   5.932
 2128SOL     OW 7282   6.152   2.763   3.227
 2128SOL    HW1 7283   6.059   2.797   3.246
 2128SOL    HW2 7284   6.173   2.688   3.291
 2129SOL     OW 7285   5.039   3.543   5.209
 2129SOL    HW1 7286   5.074   3.591   5.289
 2129SOL    HW2 7287   4.956   3.588   5.176
 2130SOL     OW 7288   3.429   7.008   2.786
 2130SOL    HW1 7289   3.406   0.014   2.692
 2130SOL    HW2 7290   3.358   0.024   2.847
 2131SOL     OW 7291   4.805   1.600   0.974
 2131SOL    HW1 7292   4.716   1.555   0.979
 2131SOL    HW2 7293   4.798   1.686   0.924
 2132SOL     OW 7294   3.412   1.218   0.577
 2132SOL    HW1 7295   3.497   1.210   0.525
 2132SOL    HW2 7296   3.404   1.141   0.640
 2133SOL     OW 7297   3.388   2.790   1.213
 2133SOL    HW1 7298   3.483   2.770   1.189
 2133SOL    HW2 7299   3.386   2.853   1.291
 2134SOL     OW 7300   1.178   0.942   4.609
 2134SOL    HW1 7301   1.106   0.969   4.544
 2134SOL    HW2 7302   1.265   0.935   4.560
 2135SOL     OW 7303   1.377   2.299   4.588
 2135SOL    HW1 7304   1.344   2.353   4.511
 2135SOL    HW2 7305   1.396   2.359   4.666
 2136SOL     OW 7306   0.963   4.014   4.358
 2136SOL    HW1 7307   1.056   4.007   4.393
 2136SOL    HW2 7308   0.901   4.041   4.432
 2137SOL     OW 7309   0.146   5.908   4.108
 2137SOL    HW1 7310   0.118   5.938   4.017
 2137SOL    HW2 7311   0.196   5.981   4.155
 2138SOL     OW 7312   0.202   1.147   1.597
 2138SOL    HW1 7313   0.236   1.222   1.542
 2138SOL    HW2 7314   0.214   1.168   1.694
 2139SOL     OW 7315   3.216   0.876   2.989
 2139SOL    HW1 7316   3.222   0.826   3.075
 2139SOL    HW2 7317   3.270   0.830   2.920
 2140SOL     OW 7318   3.146   5.701   3.483
 2140SOL    HW1 7319   3.170   5.797   3.473
 2140SOL    HW2 7320   3.103   5.686   3.573
 2141SOL     OW 7321   6.471   4.629   1.453
 2141SOL    HW1 7322   6.424   4.675   1.378
 2141SOL    HW2 7323   6.543   4.570   1.416
 2142SOL     OW 7324   1.215   1.941   3.184
 2142SOL    HW1 7325   1.227   2.021   3.125
 2142SOL    HW2 7326   1.305   1.903   3.207
 2143SOL     OW 7327   2.976   4.461   1.450
 2143SOL    HW1 7328   2.965   4.560   1.461
 2143SOL    HW2 7329   2.886   4.417   1.454
 2144SOL     OW 7330   1.357   5.470   3.291
 2144SOL    HW1 7331   1.357   5.386   3.345
 2144SOL    HW2 7332   1.282   5.468   3.226
 2145SOL     OW 7333   3.897   6.036   4.371
 2145SOL    HW1 7334   3.937   6.005   4.457
 2145SOL    HW2 7335   3.797   6.042   4.382
 2146SOL     OW 7336   2.424   3.692   1.398
 2146SOL    HW1 7337   2.352   3.627   1.419
 2146SOL    HW2 7338   2.499   3.681   1.464
 2147SOL     OW 7339   0.348   1.278   6.651
 2147SOL    HW1 7340   0.312   1.306   6.740
 2147SOL    HW2 7341   0.394   1.190   6.659
 2148SOL     OW 7342   5.361   2.607   4.538
 2148SOL    HW1 7343   5.321   2.582   4.626
 2148SOL    HW2 7344   5.324   2.547   4.466
 2149SOL     OW 7345   3.736   1.628   1.262
 2149SOL    HW1 7346   3.836   1.626   1.267
 2149SOL    HW2 7347   3.707   1.678   1.180
 2150SOL     OW 7348   2.497   2.143   2.267
 2150SOL    HW1 7349   2.585   2.134   2.220
 2150SOL    HW2 7350   2.512   2.157   2.365
 2151SOL     OW 7351   1.749   1.067   4.137
 2151SOL    HW1 7352   1.810   1.147   4.142
 2151SOL    HW2 7353   1.681   1.072   4.210
 2152SOL     OW 7354   3.832   6.771   1.113
 2152SOL    HW1 7355   3.822   6.752   1.016
 2152SOL    HW2 7356   3.929   6.766   1.138
 2153SOL     OW 7357   3.775   0.840   3.166
 2153SOL    HW1 7358   3.758   0.937   3.147
 2153SOL    HW2 7359   3.833   0.832   3.247
 2154SOL     OW 7360   5.166   0.410   4.654
 2154SOL    HW1 7361   5.150   0.353   4.735
 2154SOL    HW2 7362   5.112   0.493   4.661
 2155SOL     OW 7363   1.979   6.046   0.280
 2155SOL    HW1 7364   1.889   6.004   0.290
 2155SOL    HW2 7365   2.021   6.015   0.195
 2156SOL     OW 7366   2.242   0.768   3.264
 2156SOL    HW1 7367   2.190   0.853   3.251
 2156SOL    HW2 7368   2.197   0.694   3.214
 2157SOL     OW 7369   5.579   0.778   3.335
 2157SOL    HW1 7370   5.613   0.762   3.428
 2157SOL    HW2 7371   5.622   0.712   3.273
 2158SOL     OW 7372   3.842   6.210   1.082
 2158SOL    HW1 7373   3.907   6.284   1.062
 2158SOL    HW2 7374   3.748   6.244   1.069
 2159SOL     OW 7375   2.279   6.414   5.358
 2159SOL    HW1 7376   2.324   6.473   5.425
 2159SOL    HW2 7377   2.348   6.366   5.304
 2160SOL     OW 7378   4.690   3.366   0.942
 2160SOL    HW1 7379   4.768   3.412   0.901
 2160SOL    HW2 7380   4.722   3.301   1.011
 2161SOL     OW 7381   5.179   3.992   3.293
 2161SOL    HW1 7382   5.185   4.045   3.208
 2161SOL    HW2 7383   5.260   3.935   3.302
 2162SOL     OW 7384   2.912   0.929   0.537
 2162SOL    HW1 7385   2.863   0.994   0.595
 2162SOL    HW2 7386   2.850   0.855   0.510
 2163SOL     OW 7387   7.000   4.391   6.353
 2163SOL    HW1 7388   6.931   4.462   6.341
 2163SOL    HW2 7389   6.989   4.349   6.443
 2164SOL     OW 7390   1.785   3.206   0.374
 2164SOL    HW1 7391   1.739   3.214   0.286
 2164SOL    HW2 7392   1.845   3.286   0.387
 2165SOL     OW 7393   1.035   1.752   2.858
 2165SOL    HW1 7394   1.067   1.824   2.796
 2165SOL    HW2 7395   0.984   1.684   2.807
 2166SOL     OW 7396   1.784   2.580   5.393
 2166SOL    HW1 7397   1.717   2.645   5.428
 2166SOL    HW2 7398   1.813   2.519   5.467
 2167SOL     OW 7399   1.355   0.864   3.536
 2167SOL    HW1 7400   1.291   0.855   3.612
 2167SOL    HW2 7401   1.337   0.949   3.487
 2168SOL     OW 7402   0.737   1.750   3.549
 2168SOL    HW1 7403   0.828   1.738   3.509
 2168SOL    HW2 7404   0.717   1.847   3.557
 2169SOL     OW 7405   5.484   2.170   5.508
 2169SOL    HW1 7406   5.509   2.114   5.587
 2169SOL    HW2 7407   5.461   2.111   5.431
 2170SOL     OW 7408   6.418   4.662   5.667
 2170SOL    HW1 7409   6.374   4.648   5.578
 2170SOL    HW2 7410   6.350   4.651   5.740
 2171SOL     OW 7411   6.492   3.579   1.830
 2171SOL    HW1 7412   6.567   3.600   1.892
 2171SOL    HW2 7413   6.529   3.547   1.743
 2172SOL     OW 7414   2.391   2.361   0.420
 2172SOL    HW1 7415   2.423   2.273   0.456
 2172SOL    HW2 7416   2.413   2.367   0.322
 2173SOL     OW 7417   4.387   0.400   5.173
 2173SOL    HW1 7418   4.330   0.352   5.107
 2173SOL    HW2 7419   4.454   0.337   5.212
 2174SOL     OW 7420   5.526   5.206   5.763
 2174SOL    HW1 7421   5.602   5.249   5.811
 2174SOL    HW2 7422   5.455   5.181   5.828
 2175SOL     OW 7423   2.956   1.990   4.088
 2175SOL    HW1 7424   2.953   2.067   4.151
 2175SOL    HW2 7425   2.993   2.020   4.000
 2176SOL     OW 7426   0.532   3.358   6.933
 2176SOL    HW1 7427   0.490   3.351   0.005
 2176SOL    HW2 7428   0.541   3.267   6.893
 2177SOL     OW 7429   6.810   1.269   3.517
 2177SOL    HW1 7430   6.818   1.274   3.616
 2177SOL    HW2 7431   6.899   1.248   3.477
 2178SOL     OW 7432   0.857   3.796   6.941
 2178SOL    HW1 7433   0.886   3.807   0.018
 2178SOL    HW2 7434   0.908   3.720   6.900
 2179SOL     OW 7435   1.344   5.466   4.980
 2179SOL    HW1 7436   1.330   5.551   4.929
 2179SOL    HW2 7437   1.353   5.389   4.917
 2180SOL     OW 7438   2.590   3.499   1.690
 2180SOL    HW1 7439   2.624   3.408   1.665
 2180SOL    HW2 7440   2.513   3.490   1.752
 2181SOL     OW 7441   5.231   4.587   5.435
 2181SOL    HW1 7442   5.256   4.493   5.459
 2181SOL    HW2 7443   5.211   4.592   5.337
 2182SOL     OW 7444   6.887   2.891   4.989
 2182SOL    HW1 7445   6.880   2.872   5.087
 2182SOL    HW2 7446   6.867   2.808   4.937
 2183SOL     OW 7447   3.644   3.489   6.059
 2183SOL    HW1 7448   3.564   3.545   6.038
 2183SOL    HW2 7449   3.688   3.460   5.973
 2184SOL     OW 7450   4.247   1.536   5.417
 2184SOL    HW1 7451   4.179   1.497   5.480
 2184SOL    HW2 7452   4.205   1.549   5.327
 2185SOL     OW 7453   1.427   1.870   0.991
 2185SOL    HW1 7454   1.371   1.904   1.067
 2185SOL    HW2 7455   1.522   1.895   1.006
 2186SOL     OW 7456   6.560   5.155   1.814
 2186SOL    HW1 7457   6.621   5.158   1.735
 2186SOL    HW2 7458   6.573   5.069   1.862
 2187SOL     OW 7459   0.166   1.688   2.163
 2187SOL    HW1 7460   0.228   1.735   2.101
 2187SOL    HW2 7461   0.162   1.736   2.251
 2188SOL     OW 7462   5.403   5.938   4.132
 2188SOL    HW1 7463   5.460   5.997   4.075
 2188SOL    HW2 7464   5.390   5.980   4.222
 2189SOL     OW 7465   1.781   6.521   6.797
 2189SOL    HW1 7466   1.728   6.539   6.880
 2189SOL    HW2 7467   1.837   6.439   6.811
 2190SOL     OW 7468   0.534   2.596   2.548
 2190SOL    HW1 7469   0.507   2.678   2.598
 2190SOL    HW2 7470   0.573   2.623   2.460
 2191SOL     OW 7471   2.821   1.759   6.290
 2191SOL    HW1 7472   2.863   1.842   6.329
 2191SOL    HW2 7473   2.857   1.679   6.337
 2192SOL     OW 7474   3.756   6.926   3.514
 2192SOL    HW1 7475   3.816   6.995   3.556
 2192SOL    HW2 7476   3.797   6.835   3.525
 2193SOL     OW 7477   6.888   5.799   6.129
 2193SOL    HW1 7478   6.836   5.737   6.188
 2193SOL    HW2 7479   6.964   5.749   6.088
 2194SOL     OW 7480   2.096   5.088   6.487
 2194SOL    HW1 7481   2.011   5.138   6.505
 2194SOL    HW2 7482   2.103   5.010   6.550
 2195SOL     OW 7483   6.928   6.731   3.544
 2195SOL    HW1 7484   6.953   6.634   3.547
 2195SOL    HW2 7485   6.838   6.744   3.587
 2196SOL     OW 7486   3.700   7.016   5.190
 2196SOL    HW1 7487   3.748   6.975   5.113
 2196SOL    HW2 7488   3.747   0.082   5.216
 2197SOL     OW 7489   3.661   3.290   1.416
 2197SOL    HW1 7490   3.662   3.200   1.461
 2197SOL    HW2 7491   3.641   3.361   1.484
 2198SOL     OW 7492   6.694   1.540   6.816
 2198SOL    HW1 7493   6.641   1.593   6.882
 2198SOL    HW2 7494   6.787   1.526   6.850
 2199SOL     OW 7495   4.686   0.930   2.697
 2199SOL    HW1 7496   4.706   0.834   2.713
 2199SOL    HW2 7497   4.761   0.986   2.734
 2200SOL     OW 7498   3.724   0.320   4.454
 2200SOL    HW1 7499   3.650   0.337   4.519
 2200SOL    HW2 7500   3.794   0.391   4.464
 2201SOL     OW 7501   6.318   2.691   2.795
 2201SOL    HW1 7502   6.408   2.712   2.757
 2201SOL    HW2 7503   6.260   2.772   2.788
 2202SOL     OW 7504   3.216   4.896   2.869
 2202SOL    HW1 7505   3.131   4.844   2.881
 2202SOL    HW2 7506   3.233   4.910   2.771
 2203SOL     OW 7507   2.235   2.988   1.360
 2203SOL    HW1 7508   2.306   2.926   1.327
 2203SOL    HW2 7509   2.181   3.021   1.282
 2204SOL     OW 7510   3.618   0.796   6.660
 2204SOL    HW1 7511   3.650   0.849   6.738
 2204SOL    HW2 7512   3.672   0.821   6.579
 2205SOL     OW 7513   1.659   0.013   5.883
 2205SOL    HW1 7514   1.744   0.065   5.889
 2205SOL    HW2 7515   1.667   6.964   5.810
 2206SOL     OW 7516   2.517   4.240   5.550
 2206SOL    HW1 7517   2.571   4.164   5.514
 2206SOL    HW2 7518   2.463   4.281   5.476
 2207SOL     OW 7519   2.179   3.659   6.835
 2207SOL    HW1 7520   2.159   3.596   6.760
 2207SOL    HW2 7521   2.141   3.749   6.814
 2208SOL     OW 7522   1.816   5.455   2.296
 2208SOL    HW1 7523   1.778   5.536   2.341
 2208SOL    HW2 7524   1.746   5.385   2.289
 2209SOL     OW 7525   1.082   5.700   5.786
 2209SOL    HW1 7526   0.990   5.704   5.745
 2209SOL    HW2 7527   1.141   5.645   5.727
 2210SOL     OW 7528   6.977   4.692   3.627
 2210SOL    HW1 7529   6.931   4.623   3.683
 2210SOL    HW2 7530   6.989   4.775   3.681
 2211SOL     OW 7531   5.273   1.106   0.246
 2211SOL    HW1 7532   5.302   1.181   0.306
 2211SOL    HW2 7533   5.195   1.135   0.191
 2212SOL     OW 7534   1.930   6.343   0.007
 2212SOL    HW1 7535   2.027   6.338   6.999
 2212SOL    HW2 7536   1.914   6.428   0.056
 2213SOL     OW 7537   4.047   2.787   5.383
 2213SOL    HW1 7538   4.135   2.743   5.400
 2213SOL    HW2 7539   3.978   2.718   5.365
 2214SOL     OW 7540   4.461   2.700   5.618
 2214SOL    HW1 7541   4.468   2.758   5.700
 2214SOL    HW2 7542   4.517   2.740   5.545
 2215SOL     OW 7543   6.467   1.800   6.898
 2215SOL    HW1 7544   6.401   1.788   6.823
 2215SOL    HW2 7545   6.426   1.769   6.983
 2216SOL     OW 7546   2.028   0.533   5.965
 2216SOL    HW1 7547   1.938   0.557   5.928
 2216SOL    HW2 7548   2.078   0.480   5.896
 2217SOL     OW 7549   3.744   0.382   1.179
 2217SOL    HW1 7550   3.802   0.405   1.257
 2217SOL    HW2 7551   3.651   0.364   1.210
 2218SOL     OW 7552   0.585   6.632   0.768
 2218SOL    HW1 7553   0.594   6.729   0.789
 2218SOL    HW2 7554   0.555   6.621   0.673
 2219SOL     OW 7555   0.226   2.813   2.269
 2219SOL    HW1 7556   0.257   2.889   2.326
 2219SOL    HW2 7557   0.267   2.820   2.178
 2220SOL     OW 7558   0.825   0.898   4.885
 2220SOL    HW1 7559   0.740   0.948   4.902
 2220SOL    HW2 7560   0.817   0.805   4.922
 2221SOL     OW 7561   6.628   0.732   5.585
 2221SOL    HW1 7562   6.607   0.653   5.528
 2221SOL    HW2 7563   6.569   0.730   5.666
 2222SOL     OW 7564   4.015   0.542   0.814
 2222SOL    HW1 7565   4.060   0.486   0.744
 2222SOL    HW2 7566   3.918   0.518   0.817
 2223SOL     OW 7567   6.230   0.050   4.066
 2223SOL    HW1 7568   6.240   0.143   4.033
 2223SOL    HW2 7569   6.319   0.014   4.094
 2224SOL     OW 7570   1.671   4.519   1.867
 2224SOL    HW1 7571   1.703   4.438   1.916
 2224SOL    HW2 7572   1.582   4.500   1.826
 2225SOL     OW 7573   6.258   5.672   3.049
 2225SOL    HW1 7574   6.275   5.575   3.030
 2225SOL    HW2 7575   6.209   5.713   2.972
 2226SOL     OW 7576   4.014   4.574   0.392
 2226SOL    HW1 7577   3.955   4.635   0.444
 2226SOL    HW2 7578   4.103   4.567   0.437
 2227SOL     OW 7579   5.145   3.527   0.178
 2227SOL    HW1 7580   5.168   3.433   0.152
 2227SOL    HW2 7581   5.159   3.588   0.100
 2228SOL     OW 7582   3.031   5.504   1.392
 2228SOL    HW1 7583   3.082   5.478   1.310
 2228SOL    HW2 7584   3.093   5.507   1.470
 2229SOL     OW 7585   4.603   1.506   4.467
 2229SOL    HW1 7586   4.696   1.488   4.499
 2229SOL    HW2 7587   4.582   1.445   4.390
 2230SOL     OW 7588   6.449   5.426   5.628
 2230SOL    HW1 7589   6.431   5.480   5.546
 2230SOL    HW2 7590   6.546   5.432   5.651
 2231SOL     OW 7591   0.959   0.883   1.198
 2231SOL    HW1 7592   0.875   0.859   1.246
 2231SOL    HW2 7593   0.946   0.968   1.147
 2232SOL     OW 7594   1.720   2.286   3.935
 2232SOL    HW1 7595   1.626   2.319   3.933
 2232SOL    HW2 7596   1.721   2.191   3.969
 2233SOL     OW 7597   2.228   4.499   1.354
 2233SOL    HW1 7598   2.323   4.522   1.337
 2233SOL    HW2 7599   2.173   4.519   1.273
 2234SOL     OW 7600   4.758   2.257   1.883
 2234SOL    HW1 7601   4.678   2.216   1.928
 2234SOL    HW2 7602   4.799   2.325   1.944
 2235SOL     OW 7603   1.850   0.290   1.284
 2235SOL    HW1 7604   1.898   0.262   1.366
 2235SOL    HW2 7605   1.915   0.326   1.217
 2236SOL     OW 7606   0.811   4.082   6.613
 2236SOL    HW1 7607   0.824   4.172   6.570
 2236SOL    HW2 7608   0.716   4.072   6.642
 2237SOL     OW 7609   5.531   4.254   4.587
 2237SOL    HW1 7610   5.597   4.271   4.660
 2237SOL    HW2 7611   5.579   4.233   4.502
 2238SOL     OW 7612   5.493   5.499   1.697
 2238SOL    HW1 7613   5.570   5.487   1.634
 2238SOL    HW2 7614   5.513   5.576   1.759
 2239SOL     OW 7615   3.557   5.349   3.547
 2239SOL    HW1 7616   3.508   5.322   3.464
 2239SOL    HW2 7617   3.506   5.422   3.593
 2240SOL     OW 7618   5.570   5.910   3.745
 2240SOL    HW1 7619   5.621   5.845   3.689
 2240SOL    HW2 7620   5.534   5.863   3.827
 2241SOL     OW 7621   0.362   6.895   2.219
 2241SOL    HW1 7622   0.458   6.921   2.211
 2241SOL    HW2 7623   0.310   6.971   2.257
 2242SOL     OW 7624   5.134   2.360   2.756
 2242SOL    HW1 7625   5.140   2.263   2.777
 2242SOL    HW2 7626   5.189   2.412   2.822
 2243SOL     OW 7627   2.838   6.458   5.198
 2243SOL    HW1 7628   2.924   6.499   5.227
 2243SOL    HW2 7629   2.783   6.436   5.279
 2244SOL     OW 7630   2.904   0.366   2.812
 2244SOL    HW1 7631   2.886   0.292   2.747
 2244SOL    HW2 7632   2.818   0.405   2.844
 2245SOL     OW 7633   0.568   1.814   2.167
 2245SOL    HW1 7634   0.598   1.732   2.215
 2245SOL    HW2 7635   0.573   1.893   2.228
 2246SOL     OW 7636   1.451   0.944   5.559
 2246SOL    HW1 7637   1.357   0.918   5.581
 2246SOL    HW2 7638   1.452   0.993   5.472
 2247SOL     OW 7639   2.750   2.979   5.752
 2247SOL    HW1 7640   2.687   2.934   5.815
 2247SOL    HW2 7641   2.816   3.034   5.805
 2248SOL     OW 7642   3.722   4.240   6.366
 2248SOL    HW1 7643   3.815   4.219   6.334
 2248SOL    HW2 7644   3.725   4.257   6.465
 2249SOL     OW 7645   6.404   6.052   2.613
 2249SOL    HW1 7646   6.424   5.973   2.554
 2249SOL    HW2 7647   6.458   6.130   2.582
 2250SOL     OW 7648   4.713   3.799   0.865
 2250SOL    HW1 7649   4.635   3.737   0.874
 2250SOL    HW2 7650   4.764   3.776   0.782
 2251SOL     OW 7651   5.219   1.473   0.212
 2251SOL    HW1 7652   5.292   1.477   0.144
 2251SOL    HW2 7653   5.150   1.542   0.191
 2252SOL     OW 7654   6.379   1.901   3.001
 2252SOL    HW1 7655   6.459   1.954   2.972
 2252SOL    HW2 7656   6.312   1.898   2.927
 2253SOL     OW 7657   0.651   3.555   6.794
 2253SOL    HW1 7658   0.751   3.553   6.788
 2253SOL    HW2 7659   0.619   3.478   6.850
 2254SOL     OW 7660   2.261   3.385   5.866
 2254SOL    HW1 7661   2.224   3.477   5.867
 2254SOL    HW2 7662   2.284   3.359   5.772
 2255SOL     OW 7663   4.659   2.545   0.049
 2255SOL    HW1 7664   4.654   2.453   0.087
 2255SOL    HW2 7665   4.754   2.574   0.044
 2256SOL     OW 7666   4.150   6.535   1.265
 2256SOL    HW1 7667   4.173   6.548   1.362
 2256SOL    HW2 7668   4.070   6.591   1.243
 2257SOL     OW 7669   0.086   2.496   3.776
 2257SOL    HW1 7670   0.059   2.432   3.848
 2257SOL    HW2 7671   0.006   2.551   3.750
 2258SOL     OW 7672   1.030   5.170   5.611
 2258SOL    HW1 7673   1.079   5.089   5.579
 2258SOL    HW2 7674   1.066   5.198   5.700
 2259SOL     OW 7675   4.870   4.403   6.506
 2259SOL    HW1 7676   4.815   4.452   6.574
 2259SOL    HW2 7677   4.863   4.304   6.523
 2260SOL     OW 7678   5.955   4.515   3.134
 2260SOL    HW1 7679   5.855   4.517   3.136
 2260SOL    HW2 7680   5.986   4.492   3.042
 2261SOL     OW 7681   6.576   6.873   1.188
 2261SOL    HW1 7682   6.674   6.864   1.208
 2261SOL    HW2 7683   6.531   6.785   1.199
 2262SOL     OW 7684   5.209   2.460   2.517
 2262SOL    HW1 7685   5.161   2.393   2.574
 2262SOL    HW2 7686   5.152   2.542   2.507
 2263SOL     OW 7687   2.787   6.203   5.993
 2263SOL    HW1 7688   2.795   6.171   5.899
 2263SOL    HW2 7689   2.833   6.139   6.054
 2264SOL     OW 7690   3.414   3.098   1.347
 2264SOL    HW1 7691   3.474   3.057   1.416
 2264SOL    HW2 7692   3.438   3.064   1.256
 2265SOL     OW 7693   0.586   0.443   3.769
 2265SOL    HW1 7694   0.581   0.466   3.867
 2265SOL    HW2 7695   0.647   0.508   3.723
 2266SOL     OW 7696   5.941   1.947   1.294
 2266SOL    HW1 7697   5.938   1.965   1.393
 2266SOL    HW2 7698   5.900   1.858   1.276
 2267SOL     OW 7699   4.909   2.299   5.105
 2267SOL    HW1 7700   4.885   2.342   5.192
 2267SOL    HW2 7701   4.891   2.201   5.110
 2268SOL     OW 7702   6.008   3.832   6.276
 2268SOL    HW1 7703   6.028   3.757   6.212
 2268SOL    HW2 7704   6.082   3.840   6.343
 2269SOL     OW 7705   5.667   5.767   4.964
 2269SOL    HW1 7706   5.630   5.845   5.013
 2269SOL    HW2 7707   5.666   5.786   4.866
 2270SOL     OW 7708   2.922   2.812   6.557
 2270SOL    HW1 7709   2.887   2.866   6.634
 2270SOL    HW2 7710   3.012   2.776   6.580
 2271SOL     OW 7711   6.416   4.017   0.250
 2271SOL    HW1 7712   6.396   4.082   0.323
 2271SOL    HW2 7713   6.363   4.041   0.168
 2272SOL     OW 7714   5.558   1.546   5.101
 2272SOL    HW1 7715   5.534   1.458   5.060
 2272SOL    HW2 7716   5.477   1.606   5.100
 2273SOL     OW 7717   1.241   1.002   2.099
 2273SOL    HW1 7718   1.265   0.929   2.163
 2273SOL    HW2 7719   1.299   0.997   2.018
 2274SOL     OW 7720   1.911   2.517   6.060
 2274SOL    HW1 7721   1.928   2.569   6.143
 2274SOL    HW2 7722   1.913   2.419   6.081
 2275SOL     OW 7723   5.945   0.443   4.561
 2275SOL    HW1 7724   6.037   0.412   4.536
 2275SOL    HW2 7725   5.891   0.366   4.594
 2276SOL     OW 7726   3.083   4.935   1.048
 2276SOL    HW1 7727   3.143   5.001   1.002
 2276SOL    HW2 7728   3.042   4.875   0.979
 2277SOL     OW 7729   3.527   3.839   4.582
 2277SOL    HW1 7730   3.523   3.938   4.568
 2277SOL    HW2 7731   3.455   3.812   4.647
 2278SOL     OW 7732   6.054   6.037   4.172
 2278SOL    HW1 7733   6.027   6.058   4.266
 2278SOL    HW2 7734   6.145   6.073   4.155
 2279SOL     OW 7735   4.673   5.532   4.430
 2279SOL    HW1 7736   4.673   5.604   4.499
 2279SOL    HW2 7737   4.703   5.446   4.472
 2280SOL     OW 7738   0.034   6.551   5.103
 2280SOL    HW1 7739   7.017   6.549   5.010
 2280SOL    HW2 7740   0.019   6.642   5.143
 2281SOL     OW 7741   3.273   0.901   1.670
 2281SOL    HW1 7742   3.299   0.936   1.760
 2281SOL    HW2 7743   3.355   0.894   1.613
 2282SOL     OW 7744   5.780   0.127   5.186
 2282SOL    HW1 7745   5.833   0.157   5.107
 2282SOL    HW2 7746   5.807   0.180   5.267
 2283SOL     OW 7747   6.372   4.461   1.659
 2283SOL    HW1 7748   6.415   4.526   1.597
 2283SOL    HW2 7749   6.393   4.367   1.629
 2284SOL     OW 7750   2.473   1.494   0.462
 2284SOL    HW1 7751   2.535   1.539   0.398
 2284SOL    HW2 7752   2.410   1.561   0.501
 2285SOL     OW 7753   1.477   2.796   0.522
 2285SOL    HW1 7754   1.401   2.847   0.563
 2285SOL    HW2 7755   1.543   2.861   0.482
 2286SOL     OW 7756   0.307   0.104   4.504
 2286SOL    HW1 7757   0.386   0.144   4.457
 2286SOL    HW2 7758   0.228   0.106   4.443
 2287SOL     OW 7759   2.296   2.820   1.980
 2287SOL    HW1 7760   2.382   2.770   1.991
 2287SOL    HW2 7761   2.236   2.769   1.918
 2288SOL     OW 7762   6.821   4.645   4.572
 2288SOL    HW1 7763   6.815   4.580   4.648
 2288SOL    HW2 7764   6.912   4.640   4.531
 2289SOL     OW 7765   6.247   4.590   2.942
 2289SOL    HW1 7766   6.196   4.668   2.979
 2289SOL    HW2 7767   6.187   4.511   2.936
 2290SOL     OW 7768   1.874   3.770   2.085
 2290SOL    HW1 7769   1.940   3.704   2.120
 2290SOL    HW2 7770   1.922   3.849   2.049
 2291SOL     OW 7771   2.083   1.877   0.515
 2291SOL    HW1 7772   2.052   1.805   0.578
 2291SOL    HW2 7773   2.067   1.847   0.421
 2292SOL     OW 7774   5.855   2.101   3.315
 2292SOL    HW1 7775   5.778   2.095   3.379
 2292SOL    HW2 7776   5.882   2.197   3.305
 2293SOL     OW 7777   6.566   0.104   1.316
 2293SOL    HW1 7778   6.574   0.021   1.261
 2293SOL    HW2 7779   6.636   0.170   1.288
 2294SOL     OW 7780   3.027   1.490   6.234
 2294SOL    HW1 7781   2.992   1.453   6.148
 2294SOL    HW2 7782   2.964   1.466   6.309
 2295SOL     OW 7783   0.528   1.679   2.875
 2295SOL    HW1 7784   0.576   1.712   2.956
 2295SOL    HW2 7785   0.525   1.579   2.877
 2296SOL     OW 7786   3.544   5.394   2.379
 2296SOL    HW1 7787   3.627   5.339   2.368
 2296SOL    HW2 7788   3.486   5.354   2.451
 2297SOL     OW 7789   4.848   4.671   5.790
 2297SOL    HW1 7790   4.890   4.584   5.765
 2297SOL    HW2 7791   4.913   4.745   5.773
 2298SOL     OW 7792   3.875   3.516   2.451
 2298SOL    HW1 7793   3.882   3.420   2.425
 2298SOL    HW2 7794   3.900   3.574   2.373
 2299SOL     OW 7795   4.763   4.639   5.263
 2299SOL    HW1 7796   4.670   4.662   5.234
 2299SOL    HW2 7797   4.772   4.658   5.361
 2300SOL     OW 7798   2.643   5.949   3.380
 2300SOL    HW1 7799   2.562   5.894   3.360
 2300SOL    HW2 7800   2.696   5.963   3.296
 2301SOL     OW 7801   3.652   2.926   3.524
 2301SOL    HW1 7802   3.562   2.885   3.536
 2301SOL    HW2 7803   3.696   2.937   3.613
 2302SOL     OW 7804   4.067   0.389   1.149
 2302SOL    HW1 7805   3.996   0.354   1.089
 2302SOL    HW2 7806   4.064   0.489   1.151
 2303SOL     OW 7807   2.851   3.239   0.812
 2303SOL    HW1 7808   2.926   3.187   0.771
 2303SOL    HW2 7809   2.771   3.181   0.822
 2304SOL     OW 7810   5.512   6.508   4.608
 2304SOL    HW1 7811   5.427   6.477   4.651
 2304SOL    HW2 7812   5.490   6.575   4.537
 2305SOL     OW 7813   2.383   0.207   3.124
 2305SOL    HW1 7814   2.398   0.149   3.204
 2305SOL    HW2 7815   2.398   0.154   3.041
 2306SOL     OW 7816   2.443   5.199   1.465
 2306SOL    HW1 7817   2.387   5.128   1.422
 2306SOL    HW2 7818   2.464   5.270   1.397
 2307SOL     OW 7819   0.445   2.979   4.767
 2307SOL    HW1 7820   0.380   2.920   4.814
 2307SOL    HW2 7821   0.461   2.944   4.674
 2308SOL     OW 7822   2.826   4.692   1.045
 2308SOL    HW1 7823   2.757   4.675   0.975
 2308SOL    HW2 7824   2.915   4.663   1.011
 2309SOL     OW 7825   1.920   0.889   5.509
 2309SOL    HW1 7826   1.833   0.934   5.491
 2309SOL    HW2 7827   1.961   0.927   5.592
 2310SOL     OW 7828   5.588   5.322   1.393
 2310SOL    HW1 7829   5.673   5.303   1.345
 2310SOL    HW2 7830   5.576   5.256   1.467
 2311SOL     OW 7831   1.998   6.795   1.098
 2311SOL    HW1 7832   2.084   6.829   1.061
 2311SOL    HW2 7833   1.990   6.697   1.080
 2312SOL     OW 7834   4.834   5.670   3.189
 2312SOL    HW1 7835   4.874   5.588   3.149
 2312SOL    HW2 7836   4.787   5.646   3.274
 2313SOL     OW 7837   4.806   5.841   2.329
 2313SOL    HW1 7838   4.858   5.845   2.243
 2313SOL    HW2 7839   4.715   5.880   2.314
 2314SOL     OW 7840   5.077   6.086   3.077
 2314SOL    HW1 7841   5.091   6.184   3.070
 2314SOL    HW2 7842   4.983   6.067   3.105
 2315SOL     OW 7843   5.333   3.131   6.353
 2315SOL    HW1 7844   5.268   3.197   6.390
 2315SOL    HW2 7845   5.310   3.040   6.387
 2316SOL     OW 7846   3.925   1.718   3.918
 2316SOL    HW1 7847   4.000   1.695   3.856
 2316SOL    HW2 7848   3.847   1.658   3.899
 2317SOL     OW 7849   0.603   5.949   2.951
 2317SOL    HW1 7850   0.583   6.024   3.015
 2317SOL    HW2 7851   0.518   5.905   2.924
 2318SOL     OW 7852   0.531   2.754   3.424
 2318SOL    HW1 7853   0.474   2.673   3.435
 2318SOL    HW2 7854   0.532   2.806   3.510
 2319SOL     OW 7855   1.736   5.124   3.834
 2319SOL    HW1 7856   1.651   5.124   3.887
 2319SOL    HW2 7857   1.751   5.215   3.795
 2320SOL     OW 7858   0.796   2.363   3.740
 2320SOL    HW1 7859   0.824   2.272   3.710
 2320SOL    HW2 7860   0.747   2.409   3.665
 2321SOL     OW 7861   3.697   0.479   5.408
 2321SOL    HW1 7862   3.712   0.573   5.375
 2321SOL    HW2 7863   3.785   0.435   5.423
 2322SOL     OW 7864   2.468   1.471   5.146
 2322SOL    HW1 7865   2.568   1.469   5.151
 2322SOL    HW2 7866   2.431   1.514   5.228
 2323SOL     OW 7867   3.113   4.862   2.009
 2323SOL    HW1 7868   3.180   4.867   1.935
 2323SOL    HW2 7869   3.087   4.767   2.024
 2324SOL     OW 7870   0.332   6.314   2.620
 2324SOL    HW1 7871   0.376   6.253   2.685
 2324SOL    HW2 7872   0.318   6.403   2.662
 2325SOL     OW 7873   0.268   4.430   1.183
 2325SOL    HW1 7874   0.365   4.450   1.194
 2325SOL    HW2 7875   0.244   4.349   1.236
 2326SOL     OW 7876   3.315   4.681   5.661
 2326SOL    HW1 7877   3.225   4.646   5.685
 2326SOL    HW2 7878   3.329   4.672   5.562
 2327SOL     OW 7879   5.885   3.258   4.469
 2327SOL    HW1 7880   5.838   3.266   4.557
 2327SOL    HW2 7881   5.832   3.197   4.409
 2328SOL     OW 7882   3.943   1.873   3.329
 2328SOL    HW1 7883   3.947   1.792   3.387
 2328SOL    HW2 7884   4.016   1.868   3.260
 2329SOL     OW 7885   1.642   5.058   4.998
 2329SOL    HW1 7886   1.679   5.106   4.919
 2329SOL    HW2 7887   1.646   5.117   5.078
 2330SOL     OW 7888   6.938   4.200   2.254
 2330SOL    HW1 7889   6.915   4.126   2.317
 2330SOL    HW2 7890   0.000   4.247   2.288
 2331SOL     OW 7891   6.506   4.304   0.065
 2331SOL    HW1 7892   6.542   4.233   0.004
 2331SOL    HW2 7893   6.551   4.391   0.046
 2332SOL     OW 7894   3.914   1.924   5.122
 2332SOL    HW1 7895   3.956   1.919   5.213
 2332SOL    HW2 7896   3.869   2.012   5.111
 2333SOL     OW 7897   6.983   4.766   2.841
 2333SOL    HW1 7898   6.990   4.860   2.809
 2333SOL    HW2 7899   0.050   4.718   2.822
 2334SOL     OW 7900   2.732   0.390   0.485
 2334SOL    HW1 7901   2.794   0.445   0.541
 2334SOL    HW2 7902   2.637   0.415   0.506
 2335SOL     OW 7903   5.638   1.146   3.305
 2335SOL    HW1 7904   5.598   1.061   3.340
 2335SOL    HW2 7905   5.653   1.209   3.381
 2336SOL     OW 7906   4.378   2.014   5.531
 2336SOL    HW1 7907   4.284   2.037   5.557
 2336SOL    HW2 7908   4.409   2.076   5.459
 2337SOL     OW 7909   4.531   1.203   3.683
 2337SOL    HW1 7910   4.628   1.176   3.678
 2337SOL    HW2 7911   4.476   1.136   3.633
 2338SOL     OW 7912   0.899   0.425   0.010
 2338SOL    HW1 7913   0.944   0.341   0.041
 2338SOL    HW2 7914   0.969   0.492   7.002
 2339SOL     OW 7915   3.719   3.311   4.688
 2339SOL    HW1 7916   3.692   3.395   4.736
 2339SOL    HW2 7917   3.644   3.246   4.690
 2340SOL     OW 7918   5.217   6.014   6.053
 2340SOL    HW1 7919   5.251   6.028   6.146
 2340SOL    HW2 7920   5.153   6.087   6.030
 2341SOL     OW 7921   4.952   3.409   0.863
 2341SOL    HW1 7922   5.018   3.413   0.788
 2341SOL    HW2 7923   4.972   3.482   0.928
 2342SOL     OW 7924   0.783   5.956   5.720
 2342SOL    HW1 7925   0.724   5.876   5.726
 2342SOL    HW2 7926   0.732   6.037   5.749
 2343SOL     OW 7927   1.922   6.484   1.401
 2343SOL    HW1 7928   1.914   6.543   1.481
 2343SOL    HW2 7929   2.013   6.443   1.399
 2344SOL     OW 7930   1.345   1.380   1.228
 2344SOL    HW1 7931   1.441   1.361   1.206
 2344SOL    HW2 7932   1.331   1.479   1.231
 2345SOL     OW 7933   2.079   5.801   5.363
 2345SOL    HW1 7934   2.145   5.729   5.388
 2345SOL    HW2 7935   2.107   5.841   5.276
 2346SOL     OW 7936   5.026   3.333   4.722
 2346SOL    HW1 7937   4.994   3.343   4.816
 2346SOL    HW2 7938   4.953   3.292   4.666
 2347SOL     OW 7939   1.991   4.197   1.491
 2347SOL    HW1 7940   2.074   4.175   1.439
 2347SOL    HW2 7941   1.933   4.257   1.436
 2348SOL     OW 7942   3.340   5.738   2.995
 2348SOL    HW1 7943   3.259   5.680   2.984
 2348SOL    HW2 7944   3.314   5.834   2.985
 2349SOL     OW 7945   0.691   5.949   6.899
 2349SOL    HW1 7946   0.599   5.911   6.906
 2349SOL    HW2 7947   0.693   6.017   6.826
 2350SOL     OW 7948   4.528   0.104   6.140
 2350SOL    HW1 7949   4.557   0.077   6.048
 2350SOL    HW2 7950   4.513   0.023   6.196
 2351SOL     OW 7951   3.508   5.132   2.954
 2351SOL    HW1 7952   3.430   5.195   2.954
 2351SOL    HW2 7953   3.483   5.047   3.001
 2352SOL     OW 7954   0.262   4.719   2.267
 2352SOL    HW1 7955   0.250   4.782   2.190
 2352SOL    HW2 7956   0.305   4.766   2.343
 2353SOL     OW 7957   2.760   4.804   4.410
 2353SOL    HW1 7958   2.771   4.841   4.502
 2353SOL    HW2 7959   2.686   4.737   4.409
 2354SOL     OW 7960   3.182   2.383   6.145
 2354SOL    HW1 7961   3.243   2.450   6.186
 2354SOL    HW2 7962   3.166   2.309   6.210
 2355SOL     OW 7963   0.633   5.278   0.425
 2355SOL    HW1 7964   0.622   5.377   0.438
 2355SOL    HW2 7965   0.544   5.237   0.404
 2356SOL     OW 7966   2.512   3.958   0.971
 2356SOL    HW1 7967   2.520   4.057   0.988
 2356SOL    HW2 7968   2.469   3.915   1.050
 2357SOL     OW 7969   3.481   5.239   3.940
 2357SOL    HW1 7970   3.530   5.192   3.867
 2357SOL    HW2 7971   3.538   5.312   3.977
 2358SOL     OW 7972   2.757   5.480   4.706
 2358SOL    HW1 7973   2.816   5.400   4.716
 2358SOL    HW2 7974   2.761   5.513   4.612
 2359SOL     OW 7975   1.477   1.301   5.712
 2359SOL    HW1 7976   1.498   1.364   5.638
 2359SOL    HW2 7977   1.497   1.345   5.800
 2360SOL     OW 7978   4.743   6.063   5.357
 2360SOL    HW1 7979   4.753   6.081   5.455
 2360SOL    HW2 7980   4.831   6.072   5.312
 2361SOL     OW 7981   2.500   0.152   4.339
 2361SOL    HW1 7982   2.401   0.164   4.347
 2361SOL    HW2 7983   2.527   0.161   4.243
 2362SOL     OW 7984   4.271   6.877   5.343
 2362SOL    HW1 7985   4.185   6.844   5.381
 2362SOL    HW2 7986   4.258   6.967   5.302
 2363SOL     OW 7987   5.028   2.264   5.499
 2363SOL    HW1 7988   5.088   2.248   5.420
 2363SOL    HW2 7989   5.084   2.287   5.579
 2364SOL     OW 7990   6.087   1.781   2.457
 2364SOL    HW1 7991   6.037   1.698   2.482
 2364SOL    HW2 7992   6.155   1.760   2.387
 2365SOL     OW 7993   5.777   3.997   5.075
 2365SOL    HW1 7994   5.745   3.921   5.132
 2365SOL    HW2 7995   5.797   4.076   5.132
 2366SOL     OW 7996   1.170   4.013   5.802
 2366SOL    HW1 7997   1.243   3.976   5.744
 2366SOL    HW2 7998   1.134   3.940   5.860
 2367SOL     OW 7999   1.835   4.009   6.599
 2367SOL    HW1 8000   1.815   4.106   6.585
 2367SOL    HW2 8001   1.794   3.955   6.524
 2368SOL     OW 8002   5.138   1.361   4.703
 2368SOL    HW1 8003   5.049   1.322   4.678
 2368SOL    HW2 8004   5.124   1.444   4.756
 2369SOL     OW 8005   2.507   2.591   3.926
 2369SOL    HW1 8006   2.568   2.567   3.850
 2369SOL    HW2 8007   2.426   2.637   3.890
 2370SOL     OW 8008   4.240   4.337   0.003
 2370SOL    HW1 8009   4.260   4.399   6.946
 2370SOL    HW2 8010   4.151   4.360   0.042
 2371SOL     OW 8011   1.835   5.737   1.997
 2371SOL    HW1 8012   1.768   5.664   1.984
 2371SOL    HW2 8013   1.795   5.809   2.054
 2372SOL     OW 8014   0.495   2.021   0.216
 2372SOL    HW1 8015   0.584   2.057   0.245
 2372SOL    HW2 8016   0.508   1.959   0.139
 2373SOL     OW 8017   6.186   1.340   6.702
 2373SOL    HW1 8018   6.183   1.271   6.629
 2373SOL    HW2 8019   6.271   1.392   6.695
 2374SOL     OW 8020   6.306   5.672   3.661
 2374SOL    HW1 8021   6.245   5.752   3.654
 2374SOL    HW2 8022   6.364   5.682   3.741
 2375SOL     OW 8023   0.701   6.577   4.744
 2375SOL    HW1 8024   0.699   6.676   4.730
 2375SOL    HW2 8025   0.788   6.551   4.787
 2376SOL     OW 8026   5.823   2.750   3.263
 2376SOL    HW1 8027   5.891   2.704   3.320
 2376SOL    HW2 8028   5.754   2.684   3.235
 2377SOL     OW 8029   3.190   3.384   4.292
 2377SOL    HW1 8030   3.282   3.392   4.330
 2377SOL    HW2 8031   3.190   3.417   4.198
 2378SOL     OW 8032   5.049   2.099   6.903
 2378SOL    HW1 8033   5.107   2.103   6.821
 2378SOL    HW2 8034   5.106   2.105   6.985
 2379SOL     OW 8035   6.857   2.701   0.062
 2379SOL    HW1 8036   6.770   2.738   0.095
 2379SOL    HW2 8037   6.866   2.719   6.983
 2380SOL     OW 8038   6.916   0.713   5.586
 2380SOL    HW1 8039   6.893   0.735   5.491
 2380SOL    HW2 8040   6.836   0.729   5.644
 2381SOL     OW 8041   1.797   4.302   4.556
 2381SOL    HW1 8042   1.708   4.262   4.532
 2381SOL    HW2 8043   1.858   4.230   4.588
 2382SOL     OW 8044   2.122   5.369   2.632
 2382SOL    HW1 8045   2.148   5.450   2.686
 2382SOL    HW2 8046   2.110   5.395   2.537
 2383SOL     OW 8047   5.718   6.321   6.501
 2383SOL    HW1 8048   5.765   6.256   6.441
 2383SOL    HW2 8049   5.655   6.272   6.561
 2384SOL     OW 8050   1.303   1.539   1.930
 2384SOL    HW1 8051   1.275   1.495   1.845
 2384SOL    HW2 8052   1.402   1.535   1.939
 2385SOL     OW 8053   6.829   0.193   1.295
 2385SOL    HW1 8054   6.916   0.179   1.247
 2385SOL    HW2 8055   6.845   0.248   1.376
 2386SOL     OW 8056   3.686   5.120   4.683
 2386SOL    HW1 8057   3.692   5.108   4.782
 2386SOL    HW2 8058   3.722   5.210   4.658
 2387SOL     OW 8059   6.399   2.725   4.752
 2387SOL    HW1 8060   6.312   2.772   4.744
 2387SOL    HW2 8061   6.472   2.782   4.715
 2388SOL     OW 8062   1.641   1.880   5.917
 2388SOL    HW1 8063   1.696   1.839   5.990
 2388SOL    HW2 8064   1.548   1.842   5.920
 2389SOL     OW 8065   4.810   4.482   4.063
 2389SOL    HW1 8066   4.753   4.512   4.140
 2389SOL    HW2 8067   4.885   4.547   4.050
 2390SOL     OW 8068   3.814   4.119   4.562
 2390SOL    HW1 8069   3.876   4.172   4.618
 2390SOL    HW2 8070   3.865   4.074   4.488
 2391SOL     OW 8071   3.172   4.590   6.020
 2391SOL    HW1 8072   3.180   4.551   6.111
 2391SOL    HW2 8073   3.203   4.523   5.952
 2392SOL     OW 8074   2.821   5.003   6.126
 2392SOL    HW1 8075   2.904   5.003   6.071
 2392SOL    HW2 8076   2.823   5.080   6.189
 2393SOL     OW 8077   3.907   5.290   1.325
 2393SOL    HW1 8078   3.980   5.343   1.368
 2393SOL    HW2 8079   3.912   5.302   1.225
 2394SOL     OW 8080   1.496   3.779   4.158
 2394SOL    HW1 8081   1.488   3.710   4.086
 2394SOL    HW2 8082   1.578   3.761   4.213
 2395SOL     OW 8083   0.042   2.675   6.572
 2395SOL    HW1 8084   0.012   2.711   6.660
 2395SOL    HW2 8085   0.095   2.592   6.585
 2396SOL     OW 8086   5.778   6.266   0.644
 2396SOL    HW1 8087   5.875   6.263   0.669
 2396SOL    HW2 8088   5.723   6.269   0.727
 2397SOL     OW 8089   6.325   5.100   0.321
 2397SOL    HW1 8090   6.360   5.068   0.409
 2397SOL    HW2 8091   6.394   5.158   0.277
 2398SOL     OW 8092   2.376   5.149   4.795
 2398SOL    HW1 8093   2.340   5.076   4.737
 2398SOL    HW2 8094   2.388   5.115   4.888
 2399SOL     OW 8095   4.137   1.974   2.855
 2399SOL    HW1 8096   4.108   1.888   2.812
 2399SOL    HW2 8097   4.234   1.969   2.878
 2400SOL     OW 8098   3.388   3.815   0.365
 2400SOL    HW1 8099   3.361   3.725   0.330
 2400SOL    HW2 8100   3.370   3.819   0.463
 2401SOL     OW 8101   3.463   0.359   5.300
 2401SOL    HW1 8102   3.408   0.324   5.376
 2401SOL    HW2 8103   3.548   0.400   5.336
 2402SOL     OW 8104   0.173   2.603   4.462
 2402SOL    HW1 8105   0.155   2.680   4.400
 2402SOL    HW2 8106   0.260   2.560   4.436
 2403SOL     OW 8107   3.283   3.211   0.713
 2403SOL    HW1 8108   3.208   3.274   0.734
 2403SOL    HW2 8109   3.250   3.117   0.715
 2404SOL     OW 8110   5.475   1.524   2.273
 2404SOL    HW1 8111   5.464   1.476   2.360
 2404SOL    HW2 8112   5.435   1.470   2.199
 2405SOL     OW 8113   3.707   3.763   4.965
 2405SOL    HW1 8114   3.621   3.711   4.968
 2405SOL    HW2 8115   3.718   3.801   4.873
 2406SOL     OW 8116   2.053   0.962   3.183
 2406SOL    HW1 8117   2.002   0.937   3.101
 2406SOL    HW2 8118   2.069   1.061   3.183
 2407SOL     OW 8119   4.684   2.089   2.932
 2407SOL    HW1 8120   4.718   2.093   3.027
 2407SOL    HW2 8121   4.677   1.994   2.903
 2408SOL     OW 8122   3.601   5.123   2.672
 2408SOL    HW1 8123   3.660   5.068   2.731
 2408SOL    HW2 8124   3.540   5.179   2.729
 2409SOL     OW 8125   1.847   2.337   1.760
 2409SOL    HW1 8126   1.930   2.391   1.750
 2409SOL    HW2 8127   1.773   2.380   1.707
 2410SOL     OW 8128   6.450   3.118   5.416
 2410SOL    HW1 8129   6.471   3.087   5.509
 2410SOL    HW2 8130   6.535   3.136   5.367
 2411SOL     OW 8131   3.407   4.636   5.384
 2411SOL    HW1 8132   3.329   4.627   5.322
 2411SOL    HW2 8133   3.443   4.546   5.407
 2412SOL     OW 8134   2.750   3.678   0.329
 2412SOL    HW1 8135   2.712   3.668   0.421
 2412SOL    HW2 8136   2.721   3.601   0.272
 2413SOL     OW 8137   6.531   3.280   6.458
 2413SOL    HW1 8138   6.596   3.295   6.533
 2413SOL    HW2 8139   6.449   3.335   6.474
 2414SOL     OW 8140   5.588   3.499   2.778
 2414SOL    HW1 8141   5.605   3.441   2.857
 2414SOL    HW2 8142   5.531   3.450   2.712
 2415SOL     OW 8143   1.909   0.005   1.447
 2415SOL    HW1 8144   1.931   0.043   1.537
 2415SOL    HW2 8145   1.948   6.932   1.439
 2416SOL     OW 8146   2.140   1.314   4.765
 2416SOL    HW1 8147   2.086   1.370   4.701
 2416SOL    HW2 8148   2.150   1.363   4.852
 2417SOL     OW 8149   5.229   2.132   0.094
 2417SOL    HW1 8150   5.223   2.052   0.154
 2417SOL    HW2 8151   5.314   2.182   0.114
 2418SOL     OW 8152   3.337   3.591   4.697
 2418SOL    HW1 8153   3.294   3.625   4.613
 2418SOL    HW2 8154   3.340   3.665   4.765
 2419SOL     OW 8155   0.616   6.855   5.062
 2419SOL    HW1 8156   0.618   6.917   4.984
 2419SOL    HW2 8157   0.708   6.821   5.080
 2420SOL     OW 8158   3.958   6.979   2.395
 2420SOL    HW1 8159   3.959   6.893   2.446
 2420SOL    HW2 8160   3.867   0.001   2.399
 2421SOL     OW 8161   3.087   0.992   4.626
 2421SOL    HW1 8162   3.023   0.941   4.684
 2421SOL    HW2 8163   3.142   0.928   4.573
 2422SOL     OW 8164   5.008   0.686   0.955
 2422SOL    HW1 8165   5.090   0.741   0.939
 2422SOL    HW2 8166   4.936   0.714   0.892
 2423SOL     OW 8167   1.651   6.064   2.397
 2423SOL    HW1 8168   1.666   6.152   2.442
 2423SOL    HW2 8169   1.637   5.993   2.466
 2424SOL     OW 8170   5.276   6.118   6.500
 2424SOL    HW1 8171   5.187   6.102   6.457
 2424SOL    HW2 8172   5.283   6.065   6.584
 2425SOL     OW 8173   6.619   6.768   4.658
 2425SOL    HW1 8174   6.654   6.792   4.748
 2425SOL    HW2 8175   6.646   6.675   4.635
 2426SOL     OW 8176   1.105   5.266   4.482
 2426SOL    HW1 8177   1.038   5.201   4.519
 2426SOL    HW2 8178   1.063   5.356   4.474
 2427SOL     OW 8179   5.916   5.782   6.706
 2427SOL    HW1 8180   5.886   5.743   6.619
 2427SOL    HW2 8181   5.848   5.763   6.777
 2428SOL     OW 8182   0.930   0.343   4.223
 2428SOL    HW1 8183   0.874   0.426   4.236
 2428SOL    HW2 8184   0.871   0.263   4.223
 2429SOL     OW 8185   5.956   5.083   3.147
 2429SOL    HW1 8186   5.865   5.076   3.188
 2429SOL    HW2 8187   6.018   5.020   3.193
 2430SOL     OW 8188   5.613   2.827   0.803
 2430SOL    HW1 8189   5.681   2.889   0.763
 2430SOL    HW2 8190   5.609   2.743   0.748
 2431SOL     OW 8191   4.122   0.490   1.614
 2431SOL    HW1 8192   4.205   0.540   1.590
 2431SOL    HW2 8193   4.138   0.437   1.698
 2432SOL     OW 8194   4.310   6.353   2.711
 2432SOL    HW1 8195   4.324   6.331   2.614
 2432SOL    HW2 8196   4.307   6.452   2.722
 2433SOL     OW 8197   2.290   0.406   0.190
 2433SOL    HW1 8198   2.193   0.429   0.198
 2433SOL    HW2 8199   2.315   0.342   0.262
 2434SOL     OW 8200   4.527   1.322   3.247
 2434SOL    HW1 8201   4.607   1.376   3.274
 2434SOL    HW2 8202   4.545   1.225   3.266
 2435SOL     OW 8203   4.789   4.900   0.332
 2435SOL    HW1 8204   4.836   4.959   0.397
 2435SOL    HW2 8205   4.707   4.862   0.374
 2436SOL     OW 8206   1.743   6.829   1.125
 2436SOL    HW1 8207   1.840   6.814   1.106
 2436SOL    HW2 8208   1.725   6.926   1.135
 2437SOL     OW 8209   5.041   5.595   1.181
 2437SOL    HW1 8210   5.095   5.654   1.121
 2437SOL    HW2 8211   4.974   5.651   1.231
 2438SOL     OW 8212   4.072   0.854   4.927
 2438SOL    HW1 8213   4.122   0.920   4.983
 2438SOL    HW2 8214   4.058   0.892   4.836
 2439SOL     OW 8215   0.873   4.085   0.144
 2439SOL    HW1 8216   0.849   4.138   0.062
 2439SOL    HW2 8217   0.801   4.095   0.212
 2440SOL     OW 8218   3.582   6.568   5.280
 2440SOL    HW1 8219   3.571   6.483   5.228
 2440SOL    HW2 8220   3.671   6.609   5.257
 2441SOL     OW 8221   5.795   0.961   0.330
 2441SOL    HW1 8222   5.726   0.903   0.373
 2441SOL    HW2 8223   5.879   0.908   0.317
 2442SOL     OW 8224   6.006   5.608   3.196
 2442SOL    HW1 8225   5.977   5.514   3.176
 2442SOL    HW2 8226   6.085   5.631   3.140
 2443SOL     OW 8227   2.791   0.536   6.800
 2443SOL    HW1 8228   2.721   0.472   6.830
 2443SOL    HW2 8229   2.864   0.486   6.753
 2444SOL     OW 8230   3.609   4.155   0.053
 2444SOL    HW1 8231   3.671   4.105   0.113
 2444SOL    HW2 8232   3.517   4.118   0.060
 2445SOL     OW 8233   6.722   1.225   2.110
 2445SOL    HW1 8234   6.672   1.248   2.026
 2445SOL    HW2 8235   6.702   1.130   2.135
 2446SOL     OW 8236   0.435   2.722   4.229
 2446SOL    HW1 8237   0.522   2.726   4.278
 2446SOL    HW2 8238   0.443   2.774   4.143
 2447SOL     OW 8239   2.537   1.159   0.750
 2447SOL    HW1 8240   2.623   1.135   0.704
 2447SOL    HW2 8241   2.552   1.161   0.849
 2448SOL     OW 8242   6.664   1.267   4.173
 2448SOL    HW1 8243   6.576   1.226   4.195
 2448SOL    HW2 8244   6.692   1.240   4.081
 2449SOL     OW 8245   0.152   3.836   2.836
 2449SOL    HW1 8246   0.194   3.907   2.780
 2449SOL    HW2 8247   0.221   3.794   2.895
 2450SOL     OW 8248   3.126   5.608   5.897
 2450SOL    HW1 8249   3.062   5.544   5.855
 2450SOL    HW2 8250   3.167   5.665   5.825
 2451SOL     OW 8251   1.404   0.203   3.492
 2451SOL    HW1 8252   1.498   0.235   3.494
 2451SOL    HW2 8253   1.378   0.171   3.583
 2452SOL     OW 8254   2.883   2.075   3.377
 2452SOL    HW1 8255   2.850   1.982   3.389
 2452SOL    HW2 8256   2.982   2.074   3.359
 2453SOL     OW 8257   6.773   3.426   0.704
 2453SOL    HW1 8258   6.828   3.363   0.759
 2453SOL    HW2 8259   6.759   3.386   0.613
 2454SOL     OW 8260   3.866   0.439   6.573
 2454SOL    HW1 8261   3.782   0.434   6.626
 2454SOL    HW2 8262   3.851   0.400   6.482
 2455SOL     OW 8263   4.220   0.711   0.875
 2455SOL    HW1 8264   4.141   0.649   0.873
 2455SOL    HW2 8265   4.255   0.723   0.782
 2456SOL     OW 8266   5.909   2.279   0.223
 2456SOL    HW1 8267   5.965   2.361   0.213
 2456SOL    HW2 8268   5.905   2.252   0.319
 2457SOL     OW 8269   6.432   0.248   6.566
 2457SOL    HW1 8270   6.374   0.275   6.489
 2457SOL    HW2 8271   6.453   0.151   6.560
 2458SOL     OW 8272   1.985   5.841   3.863
 2458SOL    HW1 8273   2.021   5.772   3.801
 2458SOL    HW2 8274   1.974   5.928   3.815
 2459SOL     OW 8275   2.517   6.193   5.937
 2459SOL    HW1 8276   2.502   6.096   5.956
 2459SOL    HW2 8277   2.613   6.216   5.951
 2460SOL     OW 8278   1.657   1.379   1.370
 2460SOL    HW1 8279   1.586   1.335   1.425
 2460SOL    HW2 8280   1.643   1.358   1.273
 2461SOL     OW 8281   4.585   1.038   3.248
 2461SOL    HW1 8282   4.579   0.961   3.312
 2461SOL    HW2 8283   4.512   1.031   3.181
 2462SOL     OW 8284   1.762   5.562   6.892
 2462SOL    HW1 8285   1.798   5.472   6.916
 2462SOL    HW2 8286   1.823   5.606   6.826
 2463SOL     OW 8287   6.316   1.659   6.040
 2463SOL    HW1 8288   6.347   1.586   5.979
 2463SOL    HW2 8289   6.373   1.660   6.122
 2464SOL     OW 8290   2.255   4.149   2.513
 2464SOL    HW1 8291   2.311   4.113   2.438
 2464SOL    HW2 8292   2.311   4.208   2.571
 2465SOL     OW 8293   0.834   0.072   0.727
 2465SOL    HW1 8294   0.816   0.090   0.631
 2465SOL    HW2 8295   0.930   0.089   0.748
 2466SOL     OW 8296   2.362   1.588   3.041
 2466SOL    HW1 8297   2.431   1.641   3.090
 2466SOL    HW2 8298   2.378   1.596   2.942
 2467SOL     OW 8299   4.962   1.079   5.386
 2467SOL    HW1 8300   4.974   0.998   5.443
 2467SOL    HW2 8301   4.877   1.125   5.412
 2468SOL     OW 8302   4.638   6.489   1.832
 2468SOL    HW1 8303   4.675   6.581   1.842
 2468SOL    HW2 8304   4.613   6.453   1.922
 2469SOL     OW 8305   3.956   3.886   5.630
 2469SOL    HW1 8306   4.007   3.811   5.587
 2469SOL    HW2 8307   4.003   3.913   5.714
 2470SOL     OW 8308   4.064   4.158   6.304
 2470SOL    HW1 8309   4.082   4.203   6.217
 2470SOL    HW2 8310   4.103   4.213   6.378
 2471SOL     OW 8311   2.646   6.269   0.679
 2471SOL    HW1 8312   2.652   6.256   0.778
 2471SOL    HW2 8313   2.568   6.219   0.643
 2472SOL     OW 8314   4.747   2.228   4.186
 2472SOL    HW1 8315   4.747   2.278   4.272
 2472SOL    HW2 8316   4.677   2.265   4.125
 2473SOL     OW 8317   1.994   3.858   5.056
 2473SOL    HW1 8318   1.952   3.904   4.978
 2473SOL    HW2 8319   2.093   3.860   5.046
 2474SOL     OW 8320   0.232   5.921   1.042
 2474SOL    HW1 8321   0.309   5.873   1.083
 2474SOL    HW2 8322   0.210   5.879   0.954
 2475SOL     OW 8323   4.617   0.968   2.419
 2475SOL    HW1 8324   4.704   1.000   2.382
 2475SOL    HW2 8325   4.624   0.963   2.519
 2476SOL     OW 8326   6.888   1.596   2.797
 2476SOL    HW1 8327   6.845   1.686   2.809
 2476SOL    HW2 8328   6.987   1.607   2.787
 2477SOL     OW 8329   4.652   1.395   2.234
 2477SOL    HW1 8330   4.711   1.324   2.197
 2477SOL    HW2 8331   4.559   1.360   2.243
 2478SOL     OW 8332   6.423   1.324   2.127
 2478SOL    HW1 8333   6.465   1.288   2.044
 2478SOL    HW2 8334   6.343   1.380   2.102
 2479SOL     OW 8335   1.497   4.205   1.339
 2479SOL    HW1 8336   1.534   4.289   1.298
 2479SOL    HW2 8337   1.493   4.133   1.270
 2480SOL     OW 8338   4.704   4.499   0.709
 2480SOL    HW1 8339   4.679   4.595   0.715
 2480SOL    HW2 8340   4.771   4.486   0.635
 2481SOL     OW 8341   2.233   0.741   0.382
 2481SOL    HW1 8342   2.286   0.762   0.300
 2481SOL    HW2 8343   2.199   0.827   0.422
 2482SOL     OW 8344   5.081   3.706   5.648
 2482SOL    HW1 8345   5.175   3.672   5.645
 2482SOL    HW2 8346   5.029   3.655   5.717
 2483SOL     OW 8347   1.962   1.789   0.046
 2483SOL    HW1 8348   1.923   1.837   6.986
 2483SOL    HW2 8349   1.989   1.856   0.115
 2484SOL     OW 8350   3.408   0.649   0.058
 2484SOL    HW1 8351   3.368   0.602   6.998
 2484SOL    HW2 8352   3.385   0.747   0.054
 2485SOL     OW 8353   5.746   4.166   0.976
 2485SOL    HW1 8354   5.762   4.264   0.988
 2485SOL    HW2 8355   5.743   4.122   1.066
 2486SOL     OW 8356   2.122   4.699   4.282
 2486SOL    HW1 8357   2.121   4.599   4.285
 2486SOL    HW2 8358   2.083   4.729   4.194
 2487SOL     OW 8359   4.137   5.894   0.217
 2487SOL    HW1 8360   4.074   5.970   0.232
 2487SOL    HW2 8361   4.096   5.828   0.154
 2488SOL     OW 8362   2.095   4.404   2.471
 2488SOL    HW1 8363   2.157   4.480   2.490
 2488SOL    HW2 8364   2.095   4.341   2.549
 2489SOL     OW 8365   1.345   5.582   2.475
 2489SOL    HW1 8366   1.246   5.592   2.466
 2489SOL    HW2 8367   1.379   5.519   2.406
 2490SOL     OW 8368   6.581   4.839   1.645
 2490SOL    HW1 8369   6.660   4.869   1.592
 2490SOL    HW2 8370   6.540   4.759   1.601
 2491SOL     OW 8371   3.036   5.619   1.013
 2491SOL    HW1 8372   3.045   5.684   1.088
 2491SOL    HW2 8373   2.978   5.658   0.942
 2492SOL     OW 8374   3.998   2.146   0.847
 2492SOL    HW1 8375   4.077   2.088   0.864
 2492SOL    HW2 8376   3.960   2.177   0.935
 2493SOL     OW 8377   6.029   0.886   2.253
 2493SOL    HW1 8378   6.117   0.932   2.259
 2493SOL    HW2 8379   6.018   0.846   2.162
 2494SOL     OW 8380   5.553   3.529   2.003
 2494SOL    HW1 8381   5.563   3.455   1.937
 2494SOL    HW2 8382   5.635   3.535   2.059
 2495SOL     OW 8383   5.366   0.044   4.254
 2495SOL    HW1 8384   5.355   0.100   4.336
 2495SOL    HW2 8385   5.276   0.011   4.225
 2496SOL     OW 8386   0.309   3.796   5.593
 2496SOL    HW1 8387   0.318   3.793   5.494
 2496SOL    HW2 8388   0.388   3.843   5.633
 2497SOL     OW 8389   0.401   0.522   1.324
 2497SOL    HW1 8390   0.468   0.448   1.317
 2497SOL    HW2 8391   0.399   0.573   1.238
 2498SOL     OW 8392   3.073   1.235   4.774
 2498SOL    HW1 8393   3.102   1.293   4.698
 2498SOL    HW2 8394   3.075   1.139   4.745
 2499SOL     OW 8395   5.885   2.179   4.469
 2499SOL    HW1 8396   5.862   2.087   4.439
 2499SOL    HW2 8397   5.815   2.212   4.533
 2500SOL     OW 8398   4.376   3.039   6.997
 2500SOL    HW1 8399   4.427   2.972   6.945
 2500SOL    HW2 8400   4.288   3.000   0.006
 2501SOL     OW 8401   5.742   5.226   0.218
 2501SOL    HW1 8402   5.658   5.183   0.248
 2501SOL    HW2 8403   5.792   5.164   0.157
 2502SOL     OW 8404   1.766   5.518   3.000
 2502SOL    HW1 8405   1.822   5.437   2.980
 2502SOL    HW2 8406   1.823   5.588   3.043
 2503SOL     OW 8407   3.374   5.352   4.551
 2503SOL    HW1 8408   3.394   5.296   4.631
 2503SOL    HW2 8409   3.358   5.447   4.580
 2504SOL     OW 8410   3.134   5.100   4.622
 2504SOL    HW1 8411   3.099   5.122   4.713
 2504SOL    HW2 8412   3.231   5.078   4.628
 2505SOL     OW 8413   1.085   5.752   3.815
 2505SOL    HW1 8414   1.013   5.772   3.749
 2505SOL    HW2 8415   1.120   5.838   3.853
 2506SOL     OW 8416   6.489   3.555   5.703
 2506SOL    HW1 8417   6.524   3.606   5.625
 2506SOL    HW2 8418   6.456   3.466   5.673
 2507SOL     OW 8419   0.852   4.568   1.127
 2507SOL    HW1 8420   0.935   4.516   1.108
 2507SOL    HW2 8421   0.791   4.565   1.047
 2508SOL     OW 8422   2.608   1.427   2.176
 2508SOL    HW1 8423   2.601   1.518   2.218
 2508SOL    HW2 8424   2.584   1.434   2.079
 2509SOL     OW 8425   6.616   2.394   2.508
 2509SOL    HW1 8426   6.518   2.403   2.527
 2509SOL    HW2 8427   6.639   2.297   2.498
 2510SOL     OW 8428   3.257   4.255   1.416
 2510SOL    HW1 8429   3.345   4.217   1.389
 2510SOL    HW2 8430   3.194   4.180   1.438
 2511SOL     OW 8431   2.650   1.252   3.943
 2511SOL    HW1 8432   2.640   1.154   3.928
 2511SOL    HW2 8433   2.676   1.297   3.857
 2512SOL     OW 8434   4.917   4.607   5.023
 2512SOL    HW1 8435   4.957   4.515   5.033
 2512SOL    HW2 8436   4.863   4.628   5.104
 2513SOL     OW 8437   1.318   3.690   4.361
 2513SOL    HW1 8438   1.378   3.739   4.298
 2513SOL    HW2 8439   1.372   3.652   4.436
 2514SOL     OW 8440   6.509   3.265   3.946
 2514SOL    HW1 8441   6.511   3.362   3.970
 2514SOL    HW2 8442   6.475   3.213   4.024
 2515SOL     OW 8443   1.530   6.163   0.516
 2515SOL    HW1 8444   1.528   6.143   0.614
 2515SOL    HW2 8445   1.465   6.237   0.497
 2516SOL     OW 8446   6.155   0.450   3.105
 2516SOL    HW1 8447   6.235   0.460   3.046
 2516SOL    HW2 8448   6.175   0.384   3.177
 2517SOL     OW 8449   0.413   5.282   5.882
 2517SOL    HW1 8450   0.336   5.220   5.896
 2517SOL    HW2 8451   0.452   5.267   5.792
 2518SOL     OW 8452   1.104   4.107   0.015
 2518SOL    HW1 8453   1.158   4.187   0.039
 2518SOL    HW2 8454   1.028   4.096   0.079
 2519SOL     OW 8455   5.553   6.454   4.129
 2519SOL    HW1 8456   5.578   6.372   4.180
 2519SOL    HW2 8457   5.628   6.481   4.070
 2520SOL     OW 8458   1.890   2.567   6.980
 2520SOL    HW1 8459   1.931   2.648   0.004
 2520SOL    HW2 8460   1.853   2.507   0.032
 2521SOL     OW 8461   0.903   6.990   5.472
 2521SOL    HW1 8462   0.943   6.917   5.417
 2521SOL    HW2 8463   0.804   6.977   5.477
 2522SOL     OW 8464   0.344   3.428   5.578
 2522SOL    HW1 8465   0.291   3.442   5.494
 2522SOL    HW2 8466   0.439   3.455   5.562
 2523SOL     OW 8467   0.225   3.158   2.040
 2523SOL    HW1 8468   0.165   3.078   2.043
 2523SOL    HW2 8469   0.320   3.129   2.032
 2524SOL     OW 8470   0.603   5.684   5.521
 2524SOL    HW1 8471   0.585   5.586   5.519
 2524SOL    HW2 8472   0.581   5.721   5.611
 2525SOL     OW 8473   1.195   2.521   4.425
 2525SOL    HW1 8474   1.143   2.443   4.390
 2525SOL    HW2 8475   1.159   2.606   4.386
 2526SOL     OW 8476   1.400   4.668   5.332
 2526SOL    HW1 8477   1.445   4.681   5.420
 2526SOL    HW2 8478   1.368   4.757   5.298
 2527SOL     OW 8479   5.265   5.893   5.008
 2527SOL    HW1 8480   5.307   5.827   4.947
 2527SOL    HW2 8481   5.186   5.851   5.053
 2528SOL     OW 8482   5.687   4.714   1.405
 2528SOL    HW1 8483   5.643   4.625   1.418
 2528SOL    HW2 8484   5.618   4.785   1.398
 2529SOL     OW 8485   6.895   6.590   6.701
 2529SOL    HW1 8486   6.896   6.624   6.606
 2529SOL    HW2 8487   6.800   6.576   6.729
 2530SOL     OW 8488   2.064   0.066   4.528
 2530SOL    HW1 8489   2.013   0.008   4.465
 2530SOL    HW2 8490   2.005   0.140   4.560
 2531SOL     OW 8491   4.653   6.057   4.376
 2531SOL    HW1 8492   4.712   6.119   4.324
 2531SOL    HW2 8493   4.557   6.078   4.356
 2532SOL     OW 8494   0.656   6.199   0.498
 2532SOL    HW1 8495   0.698   6.286   0.524
 2532SOL    HW2 8496   0.560   6.214   0.474
 2533SOL     OW 8497   2.860   0.064   3.051
 2533SOL    HW1 8498   2.908   0.016   2.978
 2533SOL    HW2 8499   2.778   0.107   3.013
 2534SOL     OW 8500   3.308   1.168   2.947
 2534SOL    HW1 8501   3.275   1.074   2.959
 2534SOL    HW2 8502   3.242   1.231   2.988
 2535SOL     OW 8503   3.330   2.614   6.230
 2535SOL    HW1 8504   3.362   2.594   6.137
 2535SOL    HW2 8505   3.409   2.622   6.291
 2536SOL     OW 8506   6.581   2.029   4.324
 2536SOL    HW1 8507   6.600   2.123   4.295
 2536SOL    HW2 8508   6.636   1.966   4.270
 2537SOL     OW 8509   4.566   6.511   6.568
 2537SOL    HW1 8510   4.657   6.542   6.544
 2537SOL    HW2 8511   4.568   6.469   6.659
 2538SOL     OW 8512   1.226   4.508   4.307
 2538SOL    HW1 8513   1.246   4.604   4.287
 2538SOL    HW2 8514   1.294   4.473   4.371
 2539SOL     OW 8515   5.336   0.950   6.285
 2539SOL    HW1 8516   5.265   0.972   6.352
 2539SOL    HW2 8517   5.314   0.994   6.198
 2540SOL     OW 8518   3.924   1.172   2.281
 2540SOL    HW1 8519   3.955   1.241   2.215
 2540SOL    HW2 8520   3.990   1.167   2.357
 2541SOL     OW 8521   2.020   6.568   5.306
 2541SOL    HW1 8522   2.022   6.476   5.266
 2541SOL    HW2 8523   2.039   6.562   5.404
 2542SOL     OW 8524   4.347   1.392   6.141
 2542SOL    HW1 8525   4.327   1.470   6.082
 2542SOL    HW2 8526   4.446   1.378   6.148
 2543SOL     OW 8527   2.071   2.219   3.003
 2543SOL    HW1 8528   1.979   2.246   2.975
 2543SOL    HW2 8529   2.130   2.299   3.009
 2544SOL     OW 8530   0.115   5.449   1.307
 2544SOL    HW1 8531   0.090   5.369   1.362
 2544SOL    HW2 8532   0.212   5.444   1.283
 2545SOL     OW 8533   2.126   0.717   1.420
 2545SOL    HW1 8534   2.167   0.743   1.332
 2545SOL    HW2 8535   2.058   0.784   1.447
 2546SOL     OW 8536   0.188   2.084   1.688
 2546SOL    HW1 8537   0.197   2.178   1.720
 2546SOL    HW2 8538   0.246   2.070   1.608
 2547SOL     OW 8539   5.824   3.710   0.075
 2547SOL    HW1 8540   5.725   3.706   0.070
 2547SOL    HW2 8541   5.857   3.652   0.149
 2548SOL     OW 8542   2.822   6.622   5.822
 2548SOL    HW1 8543   2.913   6.613   5.863
 2548SOL    HW2 8544   2.786   6.713   5.840
 2549SOL     OW 8545   1.616   0.690   1.544
 2549SOL    HW1 8546   1.680   0.747   1.493
 2549SOL    HW2 8547   1.535   0.671   1.488
 2550SOL     OW 8548   6.521   0.596   6.324
 2550SOL    HW1 8549   6.459   0.524   6.354
 2550SOL    HW2 8550   6.611   0.558   6.304
 2551SOL     OW 8551   3.481   5.593   0.424
 2551SOL    HW1 8552   3.506   5.607   0.328
 2551SOL    HW2 8553   3.462   5.496   0.440
 2552SOL     OW 8554   1.534   5.603   6.203
 2552SOL    HW1 8555   1.622   5.592   6.157
 2552SOL    HW2 8556   1.536   5.555   6.291
 2553SOL     OW 8557   3.894   3.343   6.910
 2553SOL    HW1 8558   3.942   3.255   6.901
 2553SOL    HW2 8559   3.948   3.415   6.868
 2554SOL     OW 8560   1.781   6.219   6.491
 2554SOL    HW1 8561   1.741   6.288   6.430
 2554SOL    HW2 8562   1.868   6.253   6.527
 2555SOL     OW 8563   6.325   6.281   6.611
 2555SOL    HW1 8564   6.421   6.262   6.590
 2555SOL    HW2 8565   6.273   6.290   6.526
 2556SOL     OW 8566   4.559   5.139   0.155
 2556SOL    HW1 8567   4.561   5.141   0.255
 2556SOL    HW2 8568   4.596   5.051   0.123
 2557SOL     OW 8569   2.864   2.628   6.371
 2557SOL    HW1 8570   2.865   2.699   6.441
 2557SOL    HW2 8571   2.842   2.669   6.282
 2558SOL     OW 8572   4.289   3.310   5.585
 2558SOL    HW1 8573   4.241   3.366   5.653
 2558SOL    HW2 8574   4.291   3.359   5.498
 2559SOL     OW 8575   6.417   3.217   4.467
 2559SOL    HW1 8576   6.353   3.140   4.454
 2559SOL    HW2 8577   6.488   3.190   4.532
 2560SOL     OW 8578   5.846   3.218   4.008
 2560SOL    HW1 8579   5.770   3.250   4.066
 2560SOL    HW2 8580   5.820   3.227   3.912
 2561SOL     OW 8581   3.244   0.158   3.979
 2561SOL    HW1 8582   3.227   0.085   3.913
 2561SOL    HW2 8583   3.260   0.244   3.931
 2562SOL     OW 8584   1.658   5.675   2.379
 2562SOL    HW1 8585   1.573   5.682   2.328
 2562SOL    HW2 8586   1.664   5.750   2.445
 2563SOL     OW 8587   4.199   1.861   6.881
 2563SOL    HW1 8588   4.175   1.958   6.872
 2563SOL    HW2 8589   4.254   1.849   6.963
 2564SOL     OW 8590   1.257   0.021   6.233
 2564SOL    HW1 8591   1.323   0.027   6.158
 2564SOL    HW2 8592   1.165   0.009   6.195
 2565SOL     OW 8593   6.743   0.846   0.488
 2565SOL    HW1 8594   6.784   0.757   0.503
 2565SOL    HW2 8595   6.765   0.907   0.564
 2566SOL     OW 8596   1.721   0.063   1.161
 2566SOL    HW1 8597   1.796   0.107   1.211
 2566SOL    HW2 8598   1.637   0.070   1.214
 2567SOL     OW 8599   1.321   1.276   1.806
 2567SOL    HW1 8600   1.379   1.197   1.784
 2567SOL    HW2 8601   1.326   1.343   1.731
 2568SOL     OW 8602   3.717   6.699   7.014
 2568SOL    HW1 8603   3.733   6.720   0.091
 2568SOL    HW2 8604   3.624   6.664   7.003
 2569SOL     OW 8605   2.959   1.027   1.858
 2569SOL    HW1 8606   2.876   1.081   1.871
 2569SOL    HW2 8607   2.949   0.968   1.778
 2570SOL     OW 8608   6.152   0.554   6.503
 2570SOL    HW1 8609   6.146   0.572   6.405
 2570SOL    HW2 8610   6.060   0.544   6.542
 2571SOL     OW 8611   2.224   4.046   5.418
 2571SOL    HW1 8612   2.241   4.006   5.508
 2571SOL    HW2 8613   2.280   3.999   5.350
 2572SOL     OW 8614   2.315   5.924   0.801
 2572SOL    HW1 8615   2.241   5.922   0.733
 2572SOL    HW2 8616   2.313   6.012   0.849
 2573SOL     OW 8617   6.369   1.798   1.707
 2573SOL    HW1 8618   6.297   1.791   1.776
 2573SOL    HW2 8619   6.340   1.862   1.635
 2574SOL     OW 8620   6.280   3.250   0.300
 2574SOL    HW1 8621   6.311   3.276   0.391
 2574SOL    HW2 8622   6.334   3.299   0.231
 2575SOL     OW 8623   4.349   5.184   7.018
 2575SOL    HW1 8624   4.437   5.178   0.045
 2575SOL    HW2 8625   4.316   5.092   6.996
 2576SOL     OW 8626   4.189   6.909   4.455
 2576SOL    HW1 8627   4.226   6.816   4.464
 2576SOL    HW2 8628   4.104   6.906   4.404
 2577SOL     OW 8629   3.609   6.625   1.842
 2577SOL    HW1 8630   3.684   6.691   1.830
 2577SOL    HW2 8631   3.601   6.569   1.760
 2578SOL     OW 8632   4.469   1.908   4.043
 2578SOL    HW1 8633   4.537   1.866   4.103
 2578SOL    HW2 8634   4.511   1.930   3.954
 2579SOL     OW 8635   1.401   6.591   2.930
 2579SOL    HW1 8636   1.345   6.509   2.919
 2579SOL    HW2 8637   1.397   6.646   2.847
 2580SOL     OW 8638   2.802   2.979   6.752
 2580SOL    HW1 8639   2.703   2.993   6.749
 2580SOL    HW2 8640   2.848   3.063   6.723
 2581SOL     OW 8641   6.821   4.389   1.004
 2581SOL    HW1 8642   6.913   4.409   0.970
 2581SOL    HW2 8643   6.785   4.309   0.957
 2582SOL     OW 8644   0.713   4.081   1.938
 2582SOL    HW1 8645   0.756   4.148   1.877
 2582SOL    HW2 8646   0.728   3.989   1.903
 2583SOL     OW 8647   0.537   1.433   1.248
 2583SOL    HW1 8648   0.621   1.435   1.301
 2583SOL    HW2 8649   0.498   1.526   1.243
 2584SOL     OW 8650   4.204   5.354   0.367
 2584SOL    HW1 8651   4.236   5.440   0.406
 2584SOL    HW2 8652   4.213   5.281   0.435
 2585SOL     OW 8653   4.704   2.592   0.786
 2585SOL    HW1 8654   4.678   2.654   0.711
 2585SOL    HW2 8655   4.753   2.514   0.748
 2586SOL     OW 8656   3.244   1.830   3.629
 2586SOL    HW1 8657   3.226   1.732   3.641
 2586SOL    HW2 8658   3.267   1.870   3.717
 2587SOL     OW 8659   0.527   0.532   3.326
 2587SOL    HW1 8660   0.622   0.536   3.358
 2587SOL    HW2 8661   0.500   0.437   3.313
 2588SOL     OW 8662   4.883   0.558   6.623
 2588SOL    HW1 8663   4.839   0.569   6.534
 2588SOL    HW2 8664   4.814   0.542   6.693
 2589SOL     OW 8665   0.202   6.132   6.647
 2589SOL    HW1 8666   0.109   6.113   6.678
 2589SOL    HW2 8667   0.202   6.212   6.586
 2590SOL     OW 8668   3.326   6.429   1.534
 2590SOL    HW1 8669   3.397   6.499   1.529
 2590SOL    HW2 8670   3.367   6.342   1.561
 2591SOL     OW 8671   0.085   5.830   2.236
 2591SOL    HW1 8672   0.078   5.738   2.275
 2591SOL    HW2 8673   0.157   5.832   2.167
 2592SOL     OW 8674   3.638   6.535   0.961
 2592SOL    HW1 8675   3.601   6.456   0.912
 2592SOL    HW2 8676   3.737   6.528   0.966
 2593SOL     OW 8677   2.726   5.865   0.643
 2593SOL    HW1 8678   2.705   5.861   0.546
 2593SOL    HW2 8679   2.643   5.848   0.696
 2594SOL     OW 8680   0.279   5.639   6.267
 2594SOL    HW1 8681   0.379   5.640   6.264
 2594SOL    HW2 8682   0.248   5.552   6.307
 2595SOL     OW 8683   6.422   1.815   4.011
 2595SOL    HW1 8684   6.446   1.740   4.073
 2595SOL    HW2 8685   6.505   1.860   3.980
 2596SOL     OW 8686   4.116   2.107   1.801
 2596SOL    HW1 8687   4.141   2.201   1.778
 2596SOL    HW2 8688   4.016   2.097   1.796
 2597SOL     OW 8689   1.596   4.142   5.726
 2597SOL    HW1 8690   1.633   4.102   5.642
 2597SOL    HW2 8691   1.571   4.237   5.710
 2598SOL     OW 8692   6.040   1.314   4.096
 2598SOL    HW1 8693   6.065   1.318   4.192
 2598SOL    HW2 8694   5.945   1.344   4.084
 2599SOL     OW 8695   2.238   6.925   0.979
 2599SOL    HW1 8696   2.185   6.951   0.898
 2599SOL    HW2 8697   2.223   6.992   1.052
 2600SOL     OW 8698   4.865   3.153   3.982
 2600SOL    HW1 8699   4.871   3.176   4.079
 2600SOL    HW2 8700   4.783   3.098   3.966
 2601SOL     OW 8701   1.896   1.944   0.760
 2601SOL    HW1 8702   1.906   2.004   0.680
 2601SOL    HW2 8703   1.856   1.857   0.731
 2602SOL     OW 8704   0.128   3.974   4.327
 2602SOL    HW1 8705   0.088   3.947   4.239
 2602SOL    HW2 8706   0.060   4.028   4.379
 2603SOL     OW 8707   2.617   1.443   1.865
 2603SOL    HW1 8708   2.555   1.473   1.792
 2603SOL    HW2 8709   2.689   1.512   1.877
 2604SOL     OW 8710   4.848   1.101   3.156
 2604SOL    HW1 8711   4.756   1.079   3.191
 2604SOL    HW2 8712   4.841   1.171   3.085
 2605SOL     OW 8713   1.875   4.359   2.766
 2605SOL    HW1 8714   1.922   4.385   2.850
 2605SOL    HW2 8715   1.843   4.441   2.719
 2606SOL     OW 8716   6.205   4.246   1.446
 2606SOL    HW1 8717   6.209   4.147   1.453
 2606SOL    HW2 8718   6.290   4.281   1.406
 2607SOL     OW 8719   0.711   0.770   0.499
 2607SOL    HW1 8720   0.622   0.811   0.517
 2607SOL    HW2 8721   0.782   0.841   0.502
 2608SOL     OW 8722   4.755   4.839   1.495
 2608SOL    HW1 8723   4.712   4.914   1.544
 2608SOL    HW2 8724   4.708   4.753   1.517
 2609SOL     OW 8725   6.685   1.950   1.381
 2609SOL    HW1 8726   6.747   1.879   1.348
 2609SOL    HW2 8727   6.650   1.923   1.471
 2610SOL     OW 8728   0.461   4.843   4.262
 2610SOL    HW1 8729   0.470   4.863   4.164
 2610SOL    HW2 8730   0.485   4.925   4.315
 2611SOL     OW 8731   4.250   6.184   1.139
 2611SOL    HW1 8732   4.176   6.216   1.199
 2611SOL    HW2 8733   4.334   6.233   1.163
 2612SOL     OW 8734   6.851   6.832   6.192
 2612SOL    HW1 8735   6.936   6.821   6.243
 2612SOL    HW2 8736   6.866   6.805   6.097
 2613SOL     OW 8737   2.853   6.507   6.646
 2613SOL    HW1 8738   2.826   6.474   6.736
 2613SOL    HW2 8739   2.794   6.465   6.576
 2614SOL     OW 8740   0.027   1.004   5.892
 2614SOL    HW1 8741   0.083   1.067   5.945
 2614SOL    HW2 8742   0.053   0.910   5.914
 2615SOL     OW 8743   0.118   2.297   3.369
 2615SOL    HW1 8744   0.116   2.258   3.276
 2615SOL    HW2 8745   0.069   2.383   3.370
 2616SOL     OW 8746   3.693   3.342   5.268
 2616SOL    HW1 8747   3.773   3.350   5.327
 2616SOL    HW2 8748   3.704   3.265   5.206
 2617SOL     OW 8749   3.606   6.428   0.538
 2617SOL    HW1 8750   3.655   6.408   0.623
 2617SOL    HW2 8751   3.556   6.346   0.508
 2618SOL     OW 8752   0.020   0.622   4.278
 2618SOL    HW1 8753   0.019   0.718   4.305
 2618SOL    HW2 8754   6.990   0.611   4.191
 2619SOL     OW 8755   4.402   1.762   3.338
 2619SOL    HW1 8756   4.413   1.672   3.380
 2619SOL    HW2 8757   4.379   1.830   3.408
 2620SOL     OW 8758   0.002   0.334   3.173
 2620SOL    HW1 8759   0.092   0.298   3.149
 2620SOL    HW2 8760   7.006   0.421   3.125
 2621SOL     OW 8761   1.328   5.892   3.121
 2621SOL    HW1 8762   1.397   5.825   3.146
 2621SOL    HW2 8763   1.253   5.846   3.073
 2622SOL     OW 8764   1.927   3.136   5.410
 2622SOL    HW1 8765   1.895   3.089   5.328
 2622SOL    HW2 8766   1.981   3.216   5.385
 2623SOL     OW 8767   1.791   1.282   5.588
 2623SOL    HW1 8768   1.795   1.321   5.680
 2623SOL    HW2 8769   1.841   1.341   5.524
 2624SOL     OW 8770   6.779   1.666   5.810
 2624SOL    HW1 8771   6.715   1.644   5.737
 2624SOL    HW2 8772   6.728   1.706   5.887
 2625SOL     OW 8773   2.116   2.791   5.278
 2625SOL    HW1 8774   2.089   2.842   5.197
 2625SOL    HW2 8775   2.215   2.789   5.286
 2626SOL     OW 8776   0.548   0.383   5.693
 2626SOL    HW1 8777   0.571   0.311   5.627
 2626SOL    HW2 8778   0.510   0.462   5.645
 2627SOL     OW 8779   1.576   0.760   5.711
 2627SOL    HW1 8780   1.542   0.819   5.638
 2627SOL    HW2 8781   1.502   0.738   5.774
 2628SOL     OW 8782   1.794   4.757   5.468
 2628SOL    HW1 8783   1.838   4.839   5.431
 2628SOL    HW2 8784   1.863   4.699   5.512
 2629SOL     OW 8785   3.033   3.093   1.388
 2629SOL    HW1 8786   3.012   3.127   1.480
 2629SOL    HW2 8787   3.128   3.063   1.384
 2630SOL     OW 8788   3.199   2.099   2.317
 2630SOL    HW1 8789   3.266   2.132   2.383
 2630SOL    HW2 8790   3.108   2.134   2.341
 2631SOL     OW 8791   5.370   1.224   5.583
 2631SOL    HW1 8792   5.451   1.174   5.612
 2631SOL    HW2 8793   5.289   1.190   5.631
 2632SOL     OW 8794   4.399   2.968   6.343
 2632SOL    HW1 8795   4.312   2.933   6.378
 2632SOL    HW2 8796   4.470   2.953   6.412
 2633SOL     OW 8797   0.460   1.253   4.404
 2633SOL    HW1 8798   0.436   1.350   4.409
 2633SOL    HW2 8799   0.503   1.225   4.490
 2634SOL     OW 8800   0.696   4.949   3.446
 2634SOL    HW1 8801   0.748   4.952   3.531
 2634SOL    HW2 8802   0.665   4.855   3.429
 2635SOL     OW 8803   6.947   5.573   5.088
 2635SOL    HW1 8804   6.995   5.498   5.041
 2635SOL    HW2 8805   6.854   5.578   5.053
 2636SOL     OW 8806   4.632   0.764   5.193
 2636SOL    HW1 8807   4.600   0.751   5.099
 2636SOL    HW2 8808   4.567   0.721   5.256
 2637SOL     OW 8809   5.190   1.948   3.760
 2637SOL    HW1 8810   5.138   1.879   3.709
 2637SOL    HW2 8811   5.287   1.940   3.737
 2638SOL     OW 8812   6.944   0.021   3.751
 2638SOL    HW1 8813   6.962   6.959   3.696
 2638SOL    HW2 8814   6.859   0.064   3.721
 2639SOL     OW 8815   0.122   5.779   0.821
 2639SOL    HW1 8816   0.101   5.691   0.863
 2639SOL    HW2 8817   0.076   5.787   0.733
 2640SOL     OW 8818   0.646   5.954   5.141
 2640SOL    HW1 8819   0.705   5.886   5.098
 2640SOL    HW2 8820   0.643   5.939   5.240
 2641SOL     OW 8821   5.275   3.077   2.904
 2641SOL    HW1 8822   5.185   3.042   2.878
 2641SOL    HW2 8823   5.304   3.147   2.838
 2642SOL     OW 8824   4.562   6.654   4.051
 2642SOL    HW1 8825   4.593   6.596   3.976
 2642SOL    HW2 8826   4.466   6.678   4.037
 2643SOL     OW 8827   0.341   3.923   3.563
 2643SOL    HW1 8828   0.305   3.955   3.651
 2643SOL    HW2 8829   0.266   3.897   3.503
 2644SOL     OW 8830   5.561   6.461   5.507
 2644SOL    HW1 8831   5.598   6.377   5.469
 2644SOL    HW2 8832   5.591   6.472   5.601
 2645SOL     OW 8833   4.340   5.840   4.451
 2645SOL    HW1 8834   4.408   5.795   4.392
 2645SOL    HW2 8835   4.315   5.928   4.411
 2646SOL     OW 8836   6.186   0.794   6.818
 2646SOL    HW1 8837   6.239   0.718   6.855
 2646SOL    HW2 8838   6.091   0.787   6.848
 2647SOL     OW 8839   6.363   7.016   2.229
 2647SOL    HW1 8840   6.382   0.075   2.288
 2647SOL    HW2 8841   6.293   6.959   2.271
 2648SOL     OW 8842   0.262   0.336   4.163
 2648SOL    HW1 8843   0.335   0.317   4.229
 2648SOL    HW2 8844   0.184   0.377   4.212
 2649SOL     OW 8845   5.584   2.733   6.824
 2649SOL    HW1 8846   5.611   2.656   6.767
 2649SOL    HW2 8847   5.644   2.811   6.804
 2650SOL     OW 8848   1.193   4.172   4.169
 2650SOL    HW1 8849   1.241   4.242   4.116
 2650SOL    HW2 8850   1.211   4.082   4.132
 2651SOL     OW 8851   0.762   1.026   0.689
 2651SOL    HW1 8852   0.756   1.073   0.777
 2651SOL    HW2 8853   0.848   0.975   0.684
 2652SOL     OW 8854   4.118   3.324   4.388
 2652SOL    HW1 8855   4.166   3.315   4.301
 2652SOL    HW2 8856   4.038   3.383   4.376
 2653SOL     OW 8857   5.065   6.940   4.949
 2653SOL    HW1 8858   4.972   6.973   4.931
 2653SOL    HW2 8859   5.121   7.016   4.982
 2654SOL     OW 8860   4.225   6.048   2.359
 2654SOL    HW1 8861   4.137   6.081   2.394
 2654SOL    HW2 8862   4.223   6.049   2.259
 2655SOL     OW 8863   4.383   6.022   4.256
 2655SOL    HW1 8864   4.335   6.086   4.316
 2655SOL    HW2 8865   4.323   5.996   4.180
 2656SOL     OW 8866   3.663   5.100   5.015
 2656SOL    HW1 8867   3.677   5.002   5.023
 2656SOL    HW2 8868   3.571   5.124   5.045
 2657SOL     OW 8869   0.807   3.888   6.176
 2657SOL    HW1 8870   0.801   3.966   6.114
 2657SOL    HW2 8871   0.903   3.866   6.192
 2658SOL     OW 8872   4.948   4.413   0.852
 2658SOL    HW1 8873   4.851   4.421   0.874
 2658SOL    HW2 8874   4.979   4.497   0.808
 2659SOL     OW 8875   5.286   3.272   4.383
 2659SOL    HW1 8876   5.359   3.205   4.371
 2659SOL    HW2 8877   5.199   3.233   4.354
 2660SOL     OW 8878   1.993   0.092   1.701
 2660SOL    HW1 8879   1.919   0.064   1.761
 2660SOL    HW2 8880   2.002   0.192   1.704
 2661SOL     OW 8881   2.563   0.063   1.161
 2661SOL    HW1 8882   2.473   0.105   1.157
 2661SOL    HW2 8883   2.593   0.041   1.068
 2662SOL     OW 8884   5.149   6.336   4.617
 2662SOL    HW1 8885   5.124   6.292   4.531
 2662SOL    HW2 8886   5.101   6.423   4.625
 2663SOL     OW 8887   2.712   3.991   6.771
 2663SOL    HW1 8888   2.793   4.048   6.784
 2663SOL    HW2 8889   2.678   3.960   6.860
 2664SOL     OW 8890   4.550   3.854   5.500
 2664SOL    HW1 8891   4.510   3.910   5.573
 2664SOL    HW2 8892   4.646   3.835   5.523
 2665SOL     OW 8893   2.393   2.777   5.234
 2665SOL    HW1 8894   2.468   2.734   5.283
 2665SOL    HW2 8895   2.422   2.868   5.202
 2666SOL     OW 8896   5.687   5.026   1.258
 2666SOL    HW1 8897   5.619   5.011   1.329
 2666SOL    HW2 8898   5.697   4.943   1.203
 2667SOL     OW 8899   0.489   6.144   3.933
 2667SOL    HW1 8900   0.472   6.121   3.837
 2667SOL    HW2 8901   0.512   6.061   3.984
 2668SOL     OW 8902   0.242   3.202   4.921
 2668SOL    HW1 8903   0.287   3.185   4.833
 2668SOL    HW2 8904   0.153   3.156   4.923
 2669SOL     OW 8905   2.710   4.695   5.323
 2669SOL    HW1 8906   2.784   4.673   5.259
 2669SOL    HW2 8907   2.731   4.656   5.412
 2670SOL     OW 8908   5.972   3.315   6.370
 2670SOL    HW1 8909   5.883   3.348   6.339
 2670SOL    HW2 8910   5.995   3.356   6.458
 2671SOL     OW 8911   4.378   5.395   6.040
 2671SOL    HW1 8912   4.434   5.474   6.065
 2671SOL    HW2 8913   4.436   5.313   6.038
 2672SOL     OW 8914   1.890   5.007   0.523
 2672SOL    HW1 8915   1.976   5.004   0.573
 2672SOL    HW2 8916   1.814   5.007   0.587
 2673SOL     OW 8917   5.809   1.098   2.763
 2673SOL    HW1 8918   5.885   1.149   2.803
 2673SOL    HW2 8919   5.765   1.154   2.693
 2674SOL     OW 8920   1.128   4.187   3.656
 2674SOL    HW1 8921   1.167   4.102   3.692
 2674SOL    HW2 8922   1.129   4.184   3.556
 2675SOL     OW 8923   6.305   5.089   3.916
 2675SOL    HW1 8924   6.387   5.139   3.889
 2675SOL    HW2 8925   6.322   5.040   4.001
 2676SOL     OW 8926   3.619   2.672   1.083
 2676SOL    HW1 8927   3.703   2.687   1.135
 2676SOL    HW2 8928   3.615   2.577   1.053
 2677SOL     OW 8929   3.113   3.794   0.549
 2677SOL    HW1 8930   3.202   3.810   0.591
 2677SOL    HW2 8931   3.090   3.697   0.555
 2678SOL     OW 8932   0.324   2.753   1.446
 2678SOL    HW1 8933   0.340   2.731   1.350
 2678SOL    HW2 8934   0.248   2.699   1.481
 2679SOL     OW 8935   2.833   4.256   1.064
 2679SOL    HW1 8936   2.882   4.307   0.994
 2679SOL    HW2 8937   2.896   4.231   1.137
 2680SOL     OW 8938   1.317   1.842   0.347
 2680SOL    HW1 8939   1.332   1.873   0.253
 2680SOL    HW2 8940   1.219   1.832   0.365
 2681SOL     OW 8941   1.283   3.069   4.171
 2681SOL    HW1 8942   1.326   2.989   4.214
 2681SOL    HW2 8943   1.305   3.151   4.224
 2682SOL     OW 8944   4.752   4.142   2.533
 2682SOL    HW1 8945   4.767   4.044   2.544
 2682SOL    HW2 8946   4.751   4.165   2.435
 2683SOL     OW 8947   2.629   4.951   1.492
 2683SOL    HW1 8948   2.644   4.883   1.420
 2683SOL    HW2 8949   2.565   4.915   1.559
 2684SOL     OW 8950   4.287   5.345   2.158
 2684SOL    HW1 8951   4.292   5.276   2.231
 2684SOL    HW2 8952   4.367   5.405   2.164
 2685SOL     OW 8953   5.876   6.554   6.530
 2685SOL    HW1 8954   5.932   6.552   6.612
 2685SOL    HW2 8955   5.814   6.476   6.529
 2686SOL     OW 8956   1.723   2.360   5.844
 2686SOL    HW1 8957   1.781   2.391   5.920
 2686SOL    HW2 8958   1.685   2.440   5.796
 2687SOL     OW 8959   5.022   4.730   1.570
 2687SOL    HW1 8960   5.068   4.792   1.634
 2687SOL    HW2 8961   4.942   4.777   1.531
 2688SOL     OW 8962   3.591   3.708   0.143
 2688SOL    HW1 8963   3.654   3.694   0.066
 2688SOL    HW2 8964   3.521   3.774   0.116
 2689SOL     OW 8965   1.296   3.890   3.529
 2689SOL    HW1 8966   1.207   3.871   3.571
 2689SOL    HW2 8967   1.325   3.811   3.476
 2690SOL     OW 8968   3.932   3.127   4.405
 2690SOL    HW1 8969   3.903   3.092   4.494
 2690SOL    HW2 8970   4.009   3.191   4.418
 2691SOL     OW 8971   1.752   5.596   2.722
 2691SOL    HW1 8972   1.773   5.542   2.803
 2691SOL    HW2 8973   1.837   5.633   2.684
 2692SOL     OW 8974   3.298   5.336   2.956
 2692SOL    HW1 8975   3.292   5.363   3.052
 2692SOL    HW2 8976   3.214   5.289   2.929
 2693SOL     OW 8977   1.927   5.189   3.405
 2693SOL    HW1 8978   1.901   5.148   3.318
 2693SOL    HW2 8979   1.939   5.288   3.392
 2694SOL     OW 8980   3.727   5.660   2.844
 2694SOL    HW1 8981   3.649   5.681   2.785
 2694SOL    HW2 8982   3.794   5.733   2.838
 2695SOL     OW 8983   5.898   0.210   2.361
 2695SOL    HW1 8984   5.950   0.156   2.427
 2695SOL    HW2 8985   5.849   0.149   2.299
 2696SOL     OW 8986   4.076   3.075   5.320
 2696SOL    HW1 8987   4.154   3.107   5.267
 2696SOL    HW2 8988   4.074   2.975   5.320
 2697SOL     OW 8989   3.123   1.402   2.653
 2697SOL    HW1 8990   3.200   1.341   2.636
 2697SOL    HW2 8991   3.150   1.472   2.720
 2698SOL     OW 8992   2.008   6.332   0.324
 2698SOL    HW1 8993   1.985   6.348   0.420
 2698SOL    HW2 8994   1.969   6.245   0.294
 2699SOL     OW 8995   2.394   6.697   0.530
 2699SOL    HW1 8996   2.419   6.790   0.557
 2699SOL    HW2 8997   2.306   6.698   0.483
 2700SOL     OW 8998   2.545   3.436   7.002
 2700SOL    HW1 8999   2.538   3.336   7.000
 2700SOL    HW2 9000   2.626   3.463   0.035
 2701SOL     OW 9001   5.476   1.652   5.626
 2701SOL    HW1 9002   5.569   1.679   5.651
 2701SOL    HW2 9003   5.411   1.716   5.666
 2702SOL     OW 9004   0.413   2.489   3.435
 2702SOL    HW1 9005   0.325   2.511   3.393
 2702SOL    HW2 9006   0.423   2.389   3.440
 2703SOL     OW 9007   0.938   6.941   1.432
 2703SOL    HW1 9008   1.021   6.890   1.450
 2703SOL    HW2 9009   0.893   6.905   1.350
 2704SOL     OW 9010   6.914   5.621   1.346
 2704SOL    HW1 9011   6.831   5.617   1.401
 2704SOL    HW2 9012   6.957   5.531   1.342
 2705SOL     OW 9013   0.053   5.607   4.497
 2705SOL    HW1 9014   7.015   5.550   4.556
 2705SOL    HW2 9015   0.088   5.685   4.550
 2706SOL     OW 9016   6.870   5.577   1.831
 2706SOL    HW1 9017   6.939   5.549   1.898
 2706SOL    HW2 9018   6.787   5.524   1.844
 2707SOL     OW 9019   3.723   0.088   4.324
 2707SOL    HW1 9020   3.735   0.158   4.394
 2707SOL    HW2 9021   3.749   0.125   4.235
 2708SOL     OW 9022   0.336   2.596   0.125
 2708SOL    HW1 9023   0.367   2.533   0.053
 2708SOL    HW2 9024   0.382   2.574   0.211
 2709SOL     OW 9025   5.320   0.443   0.008
 2709SOL    HW1 9026   5.242   0.503   7.006
 2709SOL    HW2 9027   5.295   0.380   0.081
 2710SOL     OW 9028   0.500   4.155   3.669
 2710SOL    HW1 9029   0.461   4.083   3.612
 2710SOL    HW2 9030   0.441   4.172   3.747
 2711SOL     OW 9031   2.675   0.389   3.547
 2711SOL    HW1 9032   2.585   0.356   3.575
 2711SOL    HW2 9033   2.707   0.337   3.468
 2712SOL     OW 9034   3.107   4.456   1.188
 2712SOL    HW1 9035   3.196   4.501   1.176
 2712SOL    HW2 9036   3.084   4.454   1.285
 2713SOL     OW 9037   2.426   2.602   4.717
 2713SOL    HW1 9038   2.393   2.665   4.787
 2713SOL    HW2 9039   2.453   2.515   4.760
 2714SOL     OW 9040   3.868   2.560   0.223
 2714SOL    HW1 9041   3.892   2.596   0.313
 2714SOL    HW2 9042   3.950   2.523   0.179
 2715SOL     OW 9043   5.185   1.448   1.028
 2715SOL    HW1 9044   5.121   1.438   0.952
 2715SOL    HW2 9045   5.138   1.432   1.115
 2716SOL     OW 9046   5.192   3.945   2.165
 2716SOL    HW1 9047   5.167   3.938   2.262
 2716SOL    HW2 9048   5.283   3.905   2.152
 2717SOL     OW 9049   0.887   6.559   2.305
 2717SOL    HW1 9050   0.964   6.501   2.279
 2717SOL    HW2 9051   0.851   6.529   2.393
 2718SOL     OW 9052   1.573   1.882   4.865
 2718SOL    HW1 9053   1.657   1.830   4.851
 2718SOL    HW2 9054   1.590   1.978   4.843
 2719SOL     OW 9055   0.403   5.141   1.474
 2719SOL    HW1 9056   0.354   5.161   1.389
 2719SOL    HW2 9057   0.398   5.220   1.535
 2720SOL     OW 9058   2.284   5.584   1.853
 2720SOL    HW1 9059   2.338   5.663   1.826
 2720SOL    HW2 9060   2.316   5.550   1.941
 2721SOL     OW 9061   2.864   0.023   3.311
 2721SOL    HW1 9062   2.923   6.980   3.363
 2721SOL    HW2 9063   2.892   0.021   3.215
 2722SOL     OW 9064   6.557   5.438   0.673
 2722SOL    HW1 9065   6.578   5.488   0.589
 2722SOL    HW2 9066   6.564   5.500   0.751
 2723SOL     OW 9067   0.531   0.302   6.623
 2723SOL    HW1 9068   0.619   0.272   6.659
 2723SOL    HW2 9069   0.459   0.279   6.687
 2724SOL     OW 9070   1.693   6.757   6.599
 2724SOL    HW1 9071   1.691   6.663   6.632
 2724SOL    HW2 9072   1.705   6.820   6.677
 2725SOL     OW 9073   5.395   4.995   4.482
 2725SOL    HW1 9074   5.333   4.917   4.495
 2725SOL    HW2 9075   5.440   4.988   4.393
 2726SOL     OW 9076   0.264   2.545   0.849
 2726SOL    HW1 9077   0.212   2.503   0.775
 2726SOL    HW2 9078   0.346   2.491   0.868
 2727SOL     OW 9079   0.363   5.161   2.916
 2727SOL    HW1 9080   0.412   5.245   2.893
 2727SOL    HW2 9081   0.324   5.170   3.008
 2728SOL     OW 9082   4.869   6.900   5.198
 2728SOL    HW1 9083   4.956   6.856   5.220
 2728SOL    HW2 9084   4.794   6.835   5.210
 2729SOL     OW 9085   6.837   5.896   0.760
 2729SOL    HW1 9086   6.784   5.977   0.782
 2729SOL    HW2 9087   6.886   5.865   0.841
 2730SOL     OW 9088   1.974   5.825   1.615
 2730SOL    HW1 9089   1.918   5.872   1.682
 2730SOL    HW2 9090   1.984   5.729   1.641
 2731SOL     OW 9091   3.464   4.174   2.963
 2731SOL    HW1 9092   3.412   4.259   2.958
 2731SOL    HW2 9093   3.487   4.144   2.870
 2732SOL     OW 9094   5.673   2.209   1.669
 2732SOL    HW1 9095   5.684   2.117   1.707
 2732SOL    HW2 9096   5.576   2.233   1.669
 2733SOL     OW 9097   6.759   1.408   4.676
 2733SOL    HW1 9098   6.695   1.485   4.676
 2733SOL    HW2 9099   6.852   1.443   4.688
 2734SOL     OW 9100   3.083   6.274   1.147
 2734SOL    HW1 9101   3.104   6.177   1.162
 2734SOL    HW2 9102   3.082   6.322   1.234
 2735SOL     OW 9103   1.228   3.357   2.054
 2735SOL    HW1 9104   1.157   3.296   2.018
 2735SOL    HW2 9105   1.225   3.358   2.154
 2736SOL     OW 9106   5.904   6.975   4.929
 2736SOL    HW1 9107   5.948   0.046   4.928
 2736SOL    HW2 9108   5.952   6.914   4.993
 2737SOL     OW 9109   3.426   3.639   5.964
 2737SOL    HW1 9110   3.355   3.704   5.991
 2737SOL    HW2 9111   3.385   3.568   5.906
 2738SOL     OW 9112   4.931   6.304   1.801
 2738SOL    HW1 9113   4.875   6.250   1.864
 2738SOL    HW2 9114   4.952   6.392   1.842
 2739SOL     OW 9115   0.742   4.613   1.565
 2739SOL    HW1 9116   0.758   4.564   1.650
 2739SOL    HW2 9117   0.658   4.667   1.573
 2740SOL     OW 9118   0.332   3.867   2.453
 2740SOL    HW1 9119   0.416   3.826   2.416
 2740SOL    HW2 9120   0.278   3.905   2.378
 2741SOL     OW 9121   6.217   0.651   4.980
 2741SOL    HW1 9122   6.199   0.695   4.893
 2741SOL    HW2 9123   6.199   0.715   5.055
 2742SOL     OW 9124   2.067   5.648   6.934
 2742SOL    HW1 9125   2.113   5.588   6.870
 2742SOL    HW2 9126   2.043   5.597   7.017
 2743SOL     OW 9127   6.147   4.731   2.185
 2743SOL    HW1 9128   6.224   4.781   2.144
 2743SOL    HW2 9129   6.061   4.767   2.150
 2744SOL     OW 9130   5.016   2.276   6.471
 2744SOL    HW1 9131   4.918   2.294   6.460
 2744SOL    HW2 9132   5.037   2.184   6.439
 2745SOL     OW 9133   6.619   0.203   5.994
 2745SOL    HW1 9134   6.582   0.296   5.992
 2745SOL    HW2 9135   6.631   0.174   6.088
 2746SOL     OW 9136   2.813   1.489   4.322
 2746SOL    HW1 9137   2.744   1.429   4.283
 2746SOL    HW2 9138   2.904   1.455   4.297
 2747SOL     OW 9139   6.309   3.420   6.495
 2747SOL    HW1 9140   6.293   3.481   6.417
 2747SOL    HW2 9141   6.258   3.452   6.574
 2748SOL     OW 9142   4.799   1.547   1.582
 2748SOL    HW1 9143   4.706   1.514   1.600
 2748SOL    HW2 9144   4.796   1.646   1.569
 2749SOL     OW 9145   6.992   4.828   2.194
 2749SOL    HW1 9146   6.974   4.835   2.292
 2749SOL    HW2 9147   0.060   4.872   2.173
 2750SOL     OW 9148   0.677   5.102   0.921
 2750SOL    HW1 9149   0.661   5.160   0.841
 2750SOL    HW2 9150   0.754   5.137   0.973
 2751SOL     OW 9151   1.080   5.036   1.150
 2751SOL    HW1 9152   1.174   5.001   1.158
 2751SOL    HW2 9153   1.027   4.976   1.090
 2752SOL     OW 9154   4.204   5.736   5.915
 2752SOL    HW1 9155   4.139   5.689   5.975
 2752SOL    HW2 9156   4.160   5.816   5.875
 2753SOL     OW 9157   0.478   6.360   5.408
 2753SOL    HW1 9158   0.514   6.276   5.448
 2753SOL    HW2 9159   0.436   6.340   5.319
 2754SOL     OW 9160   0.407   0.338   2.090
 2754SOL    HW1 9161   0.460   0.343   2.175
 2754SOL    HW2 9162   0.466   0.363   2.013
 2755SOL     OW 9163   2.127   6.991   2.697
 2755SOL    HW1 9164   2.072   6.943   2.629
 2755SOL    HW2 9165   2.162   6.926   2.764
 2756SOL     OW 9166   5.855   4.716   6.907
 2756SOL    HW1 9167   5.838   4.643   6.974
 2756SOL    HW2 9168   5.776   4.724   6.846
 2757SOL     OW 9169   2.683   0.117   7.014
 2757SOL    HW1 9170   2.625   0.136   0.074
 2757SOL    HW2 9171   2.776   0.096   0.025
 2758SOL     OW 9172   3.848   6.264   3.945
 2758SOL    HW1 9173   3.779   6.199   3.978
 2758SOL    HW2 9174   3.825   6.292   3.852
 2759SOL     OW 9175   5.828   6.306   5.371
 2759SOL    HW1 9176   5.793   6.243   5.302
 2759SOL    HW2 9177   5.922   6.333   5.347
 2760SOL     OW 9178   1.088   5.768   2.034
 2760SOL    HW1 9179   1.094   5.866   2.014
 2760SOL    HW2 9180   1.125   5.717   1.957
 2761SOL     OW 9181   2.212   5.145   5.287
 2761SOL    HW1 9182   2.151   5.075   5.325
 2761SOL    HW2 9183   2.158   5.214   5.239
 2762SOL     OW 9184   1.969   0.775   5.247
 2762SOL    HW1 9185   1.919   0.823   5.319
 2762SOL    HW2 9186   2.043   0.834   5.213
 2763SOL     OW 9187   4.521   1.967   3.771
 2763SOL    HW1 9188   4.431   1.926   3.758
 2763SOL    HW2 9189   4.591   1.908   3.730
 2764SOL     OW 9190   6.531   0.895   1.505
 2764SOL    HW1 9191   6.600   0.945   1.558
 2764SOL    HW2 9192   6.522   0.936   1.414
 2765SOL     OW 9193   6.561   6.917   0.419
 2765SOL    HW1 9194   6.593   6.825   0.394
 2765SOL    HW2 9195   6.471   6.909   0.463
 2766SOL     OW 9196   5.069   2.736   0.667
 2766SOL    HW1 9197   5.054   2.759   0.763
 2766SOL    HW2 9198   5.163   2.758   0.642
 2767SOL     OW 9199   6.741   5.119   6.930
 2767SOL    HW1 9200   6.643   5.138   6.928
 2767SOL    HW2 9201   6.770   5.098   0.004
 2768SOL     OW 9202   4.423   0.516   1.257
 2768SOL    HW1 9203   4.472   0.492   1.173
 2768SOL    HW2 9204   4.396   0.432   1.303
 2769SOL     OW 9205   1.785   4.890   5.174
 2769SOL    HW1 9206   1.775   4.790   5.164
 2769SOL    HW2 9207   1.758   4.934   5.088
 2770SOL     OW 9208   4.003   5.650   6.119
 2770SOL    HW1 9209   3.994   5.683   6.212
 2770SOL    HW2 9210   3.927   5.685   6.064
 2771SOL     OW 9211   6.243   0.837   3.571
 2771SOL    HW1 9212   6.256   0.906   3.500
 2771SOL    HW2 9213   6.304   0.855   3.648
 2772SOL     OW 9214   3.664   2.231   0.569
 2772SOL    HW1 9215   3.628   2.319   0.539
 2772SOL    HW2 9216   3.672   2.231   0.669
 2773SOL     OW 9217   6.334   2.012   4.465
 2773SOL    HW1 9218   6.299   2.033   4.373
 2773SOL    HW2 9219   6.429   1.983   4.458
 2774SOL     OW 9220   5.529   2.606   2.880
 2774SOL    HW1 9221   5.592   2.681   2.902
 2774SOL    HW2 9222   5.574   2.542   2.818
 2775SOL     OW 9223   6.612   4.882   5.730
 2775SOL    HW1 9224   6.562   4.796   5.724
 2775SOL    HW2 9225   6.703   4.865   5.767
 2776SOL     OW 9226   4.588   4.722   5.840
 2776SOL    HW1 9227   4.683   4.707   5.813
 2776SOL    HW2 9228   4.529   4.656   5.793
 2777SOL     OW 9229   2.940   1.683   1.490
 2777SOL    HW1 9230   3.021   1.643   1.447
 2777SOL    HW2 9231   2.946   1.783   1.484
 2778SOL     OW 9232   1.775   6.994   5.363
 2778SOL    HW1 9233   1.861   6.957   5.328
 2778SOL    HW2 9234   1.785   0.073   5.381
 2779SOL     OW 9235   5.071   6.527   1.880
 2779SOL    HW1 9236   5.077   6.540   1.979
 2779SOL    HW2 9237   5.075   6.616   1.835
 2780SOL     OW 9238   0.297   6.726   0.023
 2780SOL    HW1 9239   0.278   6.788   0.100
 2780SOL    HW2 9240   0.282   6.774   6.956
 2781SOL     OW 9241   5.308   6.985   1.837
 2781SOL    HW1 9242   5.274   7.008   1.929
 2781SOL    HW2 9243   5.316   0.049   1.782
 2782SOL     OW 9244   4.980   1.965   5.877
 2782SOL    HW1 9245   4.988   2.023   5.958
 2782SOL    HW2 9246   4.923   2.010   5.808
 2783SOL     OW 9247   5.278   3.996   2.856
 2783SOL    HW1 9248   5.229   3.956   2.779
 2783SOL    HW2 9249   5.216   4.055   2.908
 2784SOL     OW 9250   3.268   1.482   2.374
 2784SOL    HW1 9251   3.257   1.416   2.300
 2784SOL    HW2 9252   3.193   1.471   2.440
 2785SOL     OW 9253   5.253   2.625   0.854
 2785SOL    HW1 9254   5.195   2.705   0.867
 2785SOL    HW2 9255   5.301   2.632   0.766
 2786SOL     OW 9256   5.017   0.041   2.591
 2786SOL    HW1 9257   5.100   0.093   2.572
 2786SOL    HW2 9258   5.037   6.962   2.592
 2787SOL     OW 9259   5.290   0.665   6.257
 2787SOL    HW1 9260   5.322   0.706   6.342
 2787SOL    HW2 9261   5.319   0.721   6.180
 2788SOL     OW 9262   1.885   5.542   5.822
 2788SOL    HW1 9263   1.886   5.641   5.808
 2788SOL    HW2 9264   1.815   5.501   5.763
 2789SOL     OW 9265   1.755   2.380   3.608
 2789SOL    HW1 9266   1.838   2.331   3.581
 2789SOL    HW2 9267   1.685   2.315   3.637
 2790SOL     OW 9268   3.900   5.823   2.252
 2790SOL    HW1 9269   3.803   5.845   2.252
 2790SOL    HW2 9270   3.943   5.860   2.334
 2791SOL     OW 9271   0.494   2.674   2.989
 2791SOL    HW1 9272   0.567   2.629   3.042
 2791SOL    HW2 9273   0.426   2.712   3.052
 2792SOL     OW 9274   1.420   6.777   3.983
 2792SOL    HW1 9275   1.416   6.771   3.883
 2792SOL    HW2 9276   1.512   6.754   4.015
 2793SOL     OW 9277   5.773   4.040   1.560
 2793SOL    HW1 9278   5.838   3.964   1.561
 2793SOL    HW2 9279   5.824   4.126   1.562
 2794SOL     OW 9280   0.214   2.383   6.545
 2794SOL    HW1 9281   0.308   2.364   6.515
 2794SOL    HW2 9282   0.151   2.367   6.468
 2795SOL     OW 9283   0.842   2.898   0.887
 2795SOL    HW1 9284   0.812   2.921   0.980
 2795SOL    HW2 9285   0.764   2.897   0.826
 2796SOL     OW 9286   0.262   6.410   3.563
 2796SOL    HW1 9287   0.233   6.360   3.645
 2796SOL    HW2 9288   0.345   6.461   3.582
 2797SOL     OW 9289   4.748   5.453   4.984
 2797SOL    HW1 9290   4.719   5.357   4.984
 2797SOL    HW2 9291   4.675   5.510   4.946
 2798SOL     OW 9292   0.562   5.407   2.055
 2798SOL    HW1 9293   0.632   5.338   2.073
 2798SOL    HW2 9294   0.490   5.367   1.997
 2799SOL     OW 9295   5.884   5.527   6.156
 2799SOL    HW1 9296   5.879   5.585   6.074
 2799SOL    HW2 9297   5.962   5.554   6.212
 2800SOL     OW 9298   4.533   6.447   6.866
 2800SOL    HW1 9299   4.613   6.469   6.921
 2800SOL    HW2 9300   4.526   6.348   6.855
 2801SOL     OW 9301   6.855   6.059   6.077
 2801SOL    HW1 9302   6.941   6.105   6.058
 2801SOL    HW2 9303   6.872   5.964   6.104
 2802SOL     OW 9304   5.683   6.624   5.315
 2802SOL    HW1 9305   5.782   6.620   5.329
 2802SOL    HW2 9306   5.638   6.562   5.379
 2803SOL     OW 9307   4.190   5.792   6.373
 2803SOL    HW1 9308   4.253   5.810   6.297
 2803SOL    HW2 9309   4.222   5.839   6.455
 2804SOL     OW 9310   0.241   4.651   5.474
 2804SOL    HW1 9311   0.277   4.700   5.394
 2804SOL    HW2 9312   0.282   4.560   5.478
 2805SOL     OW 9313   6.148   3.718   2.355
 2805SOL    HW1 9314   6.107   3.696   2.266
 2805SOL    HW2 9315   6.239   3.757   2.341
 2806SOL     OW 9316   0.194   3.989   5.791
 2806SOL    HW1 9317   0.252   3.919   5.750
 2806SOL    HW2 9318   0.250   4.067   5.820
 2807SOL     OW 9319   3.540   6.695   3.959
 2807SOL    HW1 9320   3.617   6.700   3.896
 2807SOL    HW2 9321   3.455   6.698   3.907
 2808SOL     OW 9322   6.366   4.892   2.111
 2808SOL    HW1 9323   6.433   4.909   2.039
 2808SOL    HW2 9324   6.412   4.874   2.197
 2809SOL     OW 9325   5.639   2.843   1.090
 2809SOL    HW1 9326   5.631   2.813   0.995
 2809SOL    HW2 9327   5.567   2.801   1.145
 2810SOL     OW 9328   2.961   5.411   3.222
 2810SOL    HW1 9329   2.942   5.504   3.251
 2810SOL    HW2 9330   2.889   5.350   3.254
 2811SOL     OW 9331   1.566   2.001   3.787
 2811SOL    HW1 9332   1.513   1.922   3.819
 2811SOL    HW2 9333   1.651   2.006   3.838
 2812SOL     OW 9334   5.354   2.831   6.925
 2812SOL    HW1 9335   5.443   2.799   6.892
 2812SOL    HW2 9336   5.359   2.847   0.004
 2813SOL     OW 9337   0.823   0.452   6.775
 2813SOL    HW1 9338   0.810   0.360   6.737
 2813SOL    HW2 9339   0.841   0.445   6.873
 2814SOL     OW 9340   4.104   3.686   5.493
 2814SOL    HW1 9341   4.162   3.723   5.422
 2814SOL    HW2 9342   4.010   3.678   5.459
 2815SOL     OW 9343   6.586   6.246   6.540
 2815SOL    HW1 9344   6.626   6.291   6.460
 2815SOL    HW2 9345   6.655   6.234   6.610
 2816SOL     OW 9346   6.172   5.297   3.400
 2816SOL    HW1 9347   6.114   5.225   3.438
 2816SOL    HW2 9348   6.224   5.340   3.474
 2817SOL     OW 9349   3.018   6.870   1.707
 2817SOL    HW1 9350   2.933   6.888   1.756
 2817SOL    HW2 9351   2.998   6.814   1.626
 2818SOL     OW 9352   0.479   0.081   1.903
 2818SOL    HW1 9353   0.577   0.102   1.904
 2818SOL    HW2 9354   0.433   0.134   1.975
 2819SOL     OW 9355   2.038   0.668   2.172
 2819SOL    HW1 9356   2.085   0.700   2.254
 2819SOL    HW2 9357   1.982   0.742   2.135
 2820SOL     OW 9358   0.810   2.561   3.327
 2820SOL    HW1 9359   0.860   2.489   3.280
 2820SOL    HW2 9360   0.797   2.639   3.266
 2821SOL     OW 9361   3.651   4.045   6.195
 2821SOL    HW1 9362   3.718   3.972   6.179
 2821SOL    HW2 9363   3.678   4.098   6.275
 2822SOL     OW 9364   4.173   2.613   0.625
 2822SOL    HW1 9365   4.165   2.712   0.615
 2822SOL    HW2 9366   4.106   2.567   0.566
 2823SOL     OW 9367   4.806   0.803   0.750
 2823SOL    HW1 9368   4.709   0.826   0.748
 2823SOL    HW2 9369   4.858   0.873   0.701
 2824SOL     OW 9370   1.883   1.546   3.795
 2824SOL    HW1 9371   1.805   1.502   3.751
 2824SOL    HW2 9372   1.946   1.477   3.830
 2825SOL     OW 9373   4.840   6.617   6.559
 2825SOL    HW1 9374   4.839   6.625   6.658
 2825SOL    HW2 9375   4.913   6.554   6.531
 2826SOL     OW 9376   4.776   1.059   6.691
 2826SOL    HW1 9377   4.689   1.062   6.740
 2826SOL    HW2 9378   4.847   1.022   6.751
 2827SOL     OW 9379   1.246   1.524   6.524
 2827SOL    HW1 9380   1.166   1.491   6.475
 2827SOL    HW2 9381   1.269   1.459   6.598
 2828SOL     OW 9382   2.790   1.480   0.319
 2828SOL    HW1 9383   2.866   1.432   0.275
 2828SOL    HW2 9384   2.733   1.524   0.249
 2829SOL     OW 9385   2.964   3.463   4.463
 2829SOL    HW1 9386   3.052   3.417   4.457
 2829SOL    HW2 9387   2.959   3.516   4.548
 2830SOL     OW 9388   2.617   3.620   5.833
 2830SOL    HW1 9389   2.583   3.671   5.754
 2830SOL    HW2 9390   2.638   3.684   5.907
 2831SOL     OW 9391   1.215   4.337   3.382
 2831SOL    HW1 9392   1.215   4.252   3.330
 2831SOL    HW2 9393   1.308   4.372   3.389
 2832SOL     OW 9394   0.976   3.216   1.971
 2832SOL    HW1 9395   0.968   3.244   1.875
 2832SOL    HW2 9396   0.955   3.118   1.978
 2833SOL     OW 9397   2.861   1.872   2.346
 2833SOL    HW1 9398   2.916   1.954   2.360
 2833SOL    HW2 9399   2.922   1.792   2.343
 2834SOL     OW 9400   4.591   6.220   5.951
 2834SOL    HW1 9401   4.599   6.124   5.925
 2834SOL    HW2 9402   4.665   6.272   5.910
 2835SOL     OW 9403   0.564   6.080   1.219
 2835SOL    HW1 9404   0.468   6.061   1.241
 2835SOL    HW2 9405   0.590   6.169   1.255
 2836SOL     OW 9406   0.287   6.226   2.357
 2836SOL    HW1 9407   0.307   6.270   2.445
 2836SOL    HW2 9408   0.305   6.291   2.283
 2837SOL     OW 9409   4.678   4.646   2.310
 2837SOL    HW1 9410   4.613   4.588   2.262
 2837SOL    HW2 9411   4.733   4.697   2.242
 2838SOL     OW 9412   3.662   3.809   0.626
 2838SOL    HW1 9413   3.701   3.899   0.607
 2838SOL    HW2 9414   3.685   3.781   0.719
 2839SOL     OW 9415   6.448   2.060   2.670
 2839SOL    HW1 9416   6.482   2.139   2.721
 2839SOL    HW2 9417   6.350   2.048   2.689
 2840SOL     OW 9418   1.620   0.020   2.327
 2840SOL    HW1 9419   1.533   6.990   2.320
 2840SOL    HW2 9420   1.641   0.064   2.239
 2841SOL     OW 9421   0.261   1.577   6.347
 2841SOL    HW1 9422   0.174   1.546   6.311
 2841SOL    HW2 9423   0.254   1.673   6.374
 2842SOL     OW 9424   0.157   4.497   3.674
 2842SOL    HW1 9425   0.095   4.571   3.649
 2842SOL    HW2 9426   0.115   4.442   3.746
 2843SOL     OW 9427   2.137   2.020   3.204
 2843SOL    HW1 9428   2.221   2.049   3.249
 2843SOL    HW2 9429   2.127   2.069   3.117
 2844SOL     OW 9430   6.132   5.148   6.869
 2844SOL    HW1 9431   6.115   5.237   6.828
 2844SOL    HW2 9432   6.139   5.079   6.797
 2845SOL     OW 9433   5.474   3.258   2.076
 2845SOL    HW1 9434   5.422   3.343   2.078
 2845SOL    HW2 9435   5.491   3.226   2.169
 2846SOL     OW 9436   4.185   0.958   0.387
 2846SOL    HW1 9437   4.187   0.956   0.287
 2846SOL    HW2 9438   4.133   1.038   0.418
 2847SOL     OW 9439   5.455   3.967   3.230
 2847SOL    HW1 9440   5.419   4.054   3.263
 2847SOL    HW2 9441   5.465   3.971   3.130
 2848SOL     OW 9442   2.013   2.702   5.510
 2848SOL    HW1 9443   1.917   2.678   5.505
 2848SOL    HW2 9444   2.043   2.741   5.422
 2849SOL     OW 9445   4.793   0.233   1.024
 2849SOL    HW1 9446   4.876   0.203   1.071
 2849SOL    HW2 9447   4.755   0.155   0.973
 2850SOL     OW 9448   1.982   6.834   2.541
 2850SOL    HW1 9449   1.902   6.837   2.601
 2850SOL    HW2 9450   1.956   6.793   2.453
 2851SOL     OW 9451   5.906   1.872   5.731
 2851SOL    HW1 9452   5.817   1.837   5.700
 2851SOL    HW2 9453   5.949   1.804   5.792
 2852SOL     OW 9454   6.477   4.199   6.577
 2852SOL    HW1 9455   6.547   4.129   6.561
 2852SOL    HW2 9456   6.414   4.201   6.500
 2853SOL     OW 9457   2.124   1.789   6.426
 2853SOL    HW1 9458   2.036   1.758   6.390
 2853SOL    HW2 9459   2.111   1.828   6.517
 2854SOL     OW 9460   4.908   0.734   5.267
 2854SOL    HW1 9461   4.809   0.729   5.277
 2854SOL    HW2 9462   4.932   0.817   5.217
 2855SOL     OW 9463   2.272   2.370   6.034
 2855SOL    HW1 9464   2.243   2.393   6.127
 2855SOL    HW2 9465   2.358   2.320   6.038
 2856SOL     OW 9466   0.313   3.716   5.322
 2856SOL    HW1 9467   0.262   3.631   5.328
 2856SOL    HW2 9468   0.407   3.696   5.292
 2857SOL     OW 9469   2.153   3.064   1.941
 2857SOL    HW1 9470   2.227   2.996   1.947
 2857SOL    HW2 9471   2.137   3.105   2.030
 2858SOL     OW 9472   4.791   4.390   1.889
 2858SOL    HW1 9473   4.723   4.376   1.961
 2858SOL    HW2 9474   4.745   4.413   1.803
 2859SOL     OW 9475   5.050   0.728   6.755
 2859SOL    HW1 9476   5.136   0.713   6.707
 2859SOL    HW2 9477   4.983   0.661   6.725
 2860SOL     OW 9478   2.264   2.271   1.710
 2860SOL    HW1 9479   2.289   2.231   1.621
 2860SOL    HW2 9480   2.269   2.200   1.780
 2861SOL     OW 9481   3.499   5.147   5.931
 2861SOL    HW1 9482   3.574   5.181   5.988
 2861SOL    HW2 9483   3.528   5.064   5.885
 2862SOL     OW 9484   4.692   2.102   2.485
 2862SOL    HW1 9485   4.770   2.055   2.445
 2862SOL    HW2 9486   4.616   2.101   2.420
 2863SOL     OW 9487   4.630   1.725   6.662
 2863SOL    HW1 9488   4.727   1.704   6.656
 2863SOL    HW2 9489   4.577   1.639   6.658
 2864SOL     OW 9490   4.344   1.689   2.152
 2864SOL    HW1 9491   4.261   1.702   2.097
 2864SOL    HW2 9492   4.325   1.622   2.225
 2865SOL     OW 9493   4.117   6.479   5.639
 2865SOL    HW1 9494   4.170   6.404   5.598
 2865SOL    HW2 9495   4.020   6.461   5.625
 2866SOL     OW 9496   6.064   5.662   6.347
 2866SOL    HW1 9497   5.986   5.723   6.353
 2866SOL    HW2 9498   6.137   5.695   6.408
 2867SOL     OW 9499   6.590   6.335   3.202
 2867SOL    HW1 9500   6.554   6.250   3.166
 2867SOL    HW2 9501   6.589   6.332   3.302
 2868SOL     OW 9502   1.987   1.296   5.242
 2868SOL    HW1 9503   1.997   1.391   5.271
 2868SOL    HW2 9504   1.913   1.289   5.176
 2869SOL     OW 9505   0.004   0.939   3.414
 2869SOL    HW1 9506   6.961   0.966   3.487
 2869SOL    HW2 9507   0.030   1.019   3.361
 2870SOL     OW 9508   0.615   1.758   5.568
 2870SOL    HW1 9509   0.561   1.742   5.486
 2870SOL    HW2 9510   0.672   1.677   5.587
 2871SOL     OW 9511   0.060   1.265   6.930
 2871SOL    HW1 9512   0.059   1.259   0.011
 2871SOL    HW2 9513   7.004   1.211   6.893
 2872SOL     OW 9514   2.719   2.127   2.142
 2872SOL    HW1 9515   2.761   2.037   2.155
 2872SOL    HW2 9516   2.791   2.196   2.135
 2873SOL     OW 9517   6.977   5.748   3.065
 2873SOL    HW1 9518   0.048   5.787   3.086
 2873SOL    HW2 9519   6.907   5.795   3.120
 2874SOL     OW 9520   5.165   0.082   3.454
 2874SOL    HW1 9521   5.075   0.046   3.428
 2874SOL    HW2 9522   5.197   0.145   3.384
 2875SOL     OW 9523   5.256   0.210   1.736
 2875SOL    HW1 9524   5.266   0.215   1.835
 2875SOL    HW2 9525   5.308   0.284   1.693
 2876SOL     OW 9526   1.929   6.884   2.090
 2876SOL    HW1 9527   1.901   6.829   2.168
 2876SOL    HW2 9528   2.006   6.942   2.116
 2877SOL     OW 9529   2.238   1.819   5.733
 2877SOL    HW1 9530   2.310   1.834   5.666
 2877SOL    HW2 9531   2.199   1.906   5.761
 2878SOL     OW 9532   3.984   4.061   5.256
 2878SOL    HW1 9533   3.972   3.982   5.196
 2878SOL    HW2 9534   4.081   4.083   5.263
 2879SOL     OW 9535   5.091   4.770   0.067
 2879SOL    HW1 9536   5.055   4.763   6.993
 2879SOL    HW2 9537   5.155   4.694   0.083
 2880SOL     OW 9538   0.487   1.409   2.890
 2880SOL    HW1 9539   0.507   1.326   2.837
 2880SOL    HW2 9540   0.400   1.398   2.937
 2881SOL     OW 9541   4.322   5.988   6.538
 2881SOL    HW1 9542   4.413   5.990   6.499
 2881SOL    HW2 9543   4.307   6.070   6.593
 2882SOL     OW 9544   0.226   5.333   2.171
 2882SOL    HW1 9545   0.268   5.246   2.198
 2882SOL    HW2 9546   0.291   5.407   2.186
 2883SOL     OW 9547   6.045   0.607   3.583
 2883SOL    HW1 9548   6.132   0.656   3.593
 2883SOL    HW2 9549   6.055   0.536   3.514
 2884SOL     OW 9550   0.929   6.896   3.138
 2884SOL    HW1 9551   0.906   6.849   3.053
 2884SOL    HW2 9552   0.968   6.986   3.118
 2885SOL     OW 9553   1.793   3.896   3.824
 2885SOL    HW1 9554   1.775   3.963   3.752
 2885SOL    HW2 9555   1.867   3.929   3.883
 2886SOL     OW 9556   0.852   3.563   6.182
 2886SOL    HW1 9557   0.844   3.469   6.149
 2886SOL    HW2 9558   0.803   3.625   6.120
 2887SOL     OW 9559   0.771   1.065   5.750
 2887SOL    HW1 9560   0.762   1.077   5.849
 2887SOL    HW2 9561   0.689   1.020   5.714
 2888SOL     OW 9562   6.826   4.510   6.555
 2888SOL    HW1 9563   6.849   4.415   6.573
 2888SOL    HW2 9564   6.726   4.522   6.559
 2889SOL     OW 9565   2.712   6.194   2.307
 2889SOL    HW1 9566   2.661   6.252   2.370
 2889SOL    HW2 9567   2.790   6.153   2.355
 2890SOL     OW 9568   1.331   6.096   0.211
 2890SOL    HW1 9569   1.353   6.016   0.154
 2890SOL    HW2 9570   1.231   6.101   0.223
 2891SOL     OW 9571   1.049   4.517   3.114
 2891SOL    HW1 9572   1.062   4.424   3.080
 2891SOL    HW2 9573   1.122   4.540   3.178
 2892SOL     OW 9574   6.453   3.311   0.527
 2892SOL    HW1 9575   6.422   3.406   0.530
 2892SOL    HW2 9576   6.449   3.271   0.618
 2893SOL     OW 9577   6.916   5.395   3.989
 2893SOL    HW1 9578   6.860   5.477   3.981
 2893SOL    HW2 9579   6.859   5.314   3.977
 2894SOL     OW 9580   0.582   3.408   2.166
 2894SOL    HW1 9581   0.577   3.508   2.171
 2894SOL    HW2 9582   0.640   3.381   2.089
 2895SOL     OW 9583   5.188   2.029   5.633
 2895SOL    HW1 9584   5.226   2.091   5.565
 2895SOL    HW2 9585   5.162   2.081   5.715
 2896SOL     OW 9586   4.667   6.310   5.248
 2896SOL    HW1 9587   4.700   6.231   5.300
 2896SOL    HW2 9588   4.620   6.278   5.165
 2897SOL     OW 9589   3.909   4.934   3.203
 2897SOL    HW1 9590   3.813   4.907   3.194
 2897SOL    HW2 9591   3.951   4.884   3.278
 2898SOL     OW 9592   4.632   4.531   4.259
 2898SOL    HW1 9593   4.613   4.575   4.347
 2898SOL    HW2 9594   4.624   4.431   4.270
 2899SOL     OW 9595   0.712   2.166   0.309
 2899SOL    HW1 9596   0.782   2.106   0.347
 2899SOL    HW2 9597   0.696   2.243   0.371
 2900SOL     OW 9598   2.327   3.877   5.795
 2900SOL    HW1 9599   2.322   3.951   5.862
 2900SOL    HW2 9600   2.419   3.875   5.755
 2901SOL     OW 9601   2.632   4.560   3.230
 2901SOL    HW1 9602   2.731   4.567   3.222
 2901SOL    HW2 9603   2.607   4.542   3.325
 2902SOL     OW 9604   5.685   5.351   3.385
 2902SOL    HW1 9605   5.767   5.408   3.394
 2902SOL    HW2 9606   5.606   5.409   3.367
 2903SOL     OW 9607   3.384   0.209   0.468
 2903SOL    HW1 9608   3.437   0.160   0.537
 2903SOL    HW2 9609   3.337   0.286   0.510
 2904SOL     OW 9610   2.320   4.678   4.519
 2904SOL    HW1 9611   2.409   4.658   4.478
 2904SOL    HW2 9612   2.252   4.614   4.484
 2905SOL     OW 9613   1.464   2.706   4.924
 2905SOL    HW1 9614   1.560   2.688   4.944
 2905SOL    HW2 9615   1.451   2.712   4.825
 2906SOL     OW 9616   4.802   4.906   2.199
 2906SOL    HW1 9617   4.734   4.967   2.156
 2906SOL    HW2 9618   4.796   4.916   2.299
 2907SOL     OW 9619   0.891   0.894   3.285
 2907SOL    HW1 9620   0.900   0.986   3.323
 2907SOL    HW2 9621   0.940   0.829   3.343
 2908SOL     OW 9622   5.212   6.628   3.630
 2908SOL    HW1 9623   5.270   6.556   3.592
 2908SOL    HW2 9624   5.268   6.688   3.688
 2909SOL     OW 9625   1.717   5.619   4.041
 2909SOL    HW1 9626   1.653   5.610   4.117
 2909SOL    HW2 9627   1.674   5.584   3.957
 2910SOL     OW 9628   4.745   0.922   4.587
 2910SOL    HW1 9629   4.806   0.844   4.572
 2910SOL    HW2 9630   4.758   0.957   4.680
 2911SOL     OW 9631   1.018   5.510   3.746
 2911SOL    HW1 9632   1.039   5.490   3.650
 2911SOL    HW2 9633   1.057   5.598   3.771
 2912SOL     OW 9634   5.175   0.229   6.847
 2912SOL    HW1 9635   5.251   0.294   6.840
 2912SOL    HW2 9636   5.211   0.136   6.843
 2913SOL     OW 9637   3.399   5.163   1.589
 2913SOL    HW1 9638   3.302   5.175   1.610
 2913SOL    HW2 9639   3.440   5.102   1.656
 2914SOL     OW 9640   6.471   6.477   6.037
 2914SOL    HW1 9641   6.396   6.539   6.012
 2914SOL    HW2 9642   6.511   6.438   5.955
 2915SOL     OW 9643   3.630   2.095   3.891
 2915SOL    HW1 9644   3.597   2.115   3.983
 2915SOL    HW2 9645   3.718   2.047   3.897
 2916SOL     OW 9646   0.763   5.796   0.579
 2916SOL    HW1 9647   0.811   5.854   0.646
 2916SOL    HW2 9648   0.725   5.853   0.507
 2917SOL     OW 9649   2.471   0.994   3.473
 2917SOL    HW1 9650   2.555   1.044   3.492
 2917SOL    HW2 9651   2.472   0.964   3.377
 2918SOL     OW 9652   5.932   4.763   4.971
 2918SOL    HW1 9653   5.918   4.765   5.070
 2918SOL    HW2 9654   5.977   4.677   4.946
 2919SOL     OW 9655   5.298   0.788   2.657
 2919SOL    HW1 9656   5.347   0.730   2.592
 2919SOL    HW2 9657   5.348   0.789   2.744
 2920SOL     OW 9658   2.933   1.361   1.767
 2920SOL    HW1 9659   2.899   1.300   1.695
 2920SOL    HW2 9660   2.881   1.346   1.851
 2921SOL     OW 9661   0.664   0.169   4.716
 2921SOL    HW1 9662   0.635   0.103   4.647
 2921SOL    HW2 9663   0.709   0.121   4.791
 2922SOL     OW 9664   4.726   0.480   1.395
 2922SOL    HW1 9665   4.797   0.507   1.330
 2922SOL    HW2 9666   4.638   0.517   1.366
 2923SOL     OW 9667   6.106   4.900   2.433
 2923SOL    HW1 9668   6.067   4.836   2.499
 2923SOL    HW2 9669   6.172   4.852   2.376
 2924SOL     OW 9670   6.216   2.099   5.743
 2924SOL    HW1 9671   6.256   2.153   5.817
 2924SOL    HW2 9672   6.203   2.005   5.773
 2925SOL     OW 9673   4.765   1.291   2.598
 2925SOL    HW1 9674   4.669   1.296   2.568
 2925SOL    HW2 9675   4.770   1.242   2.685
 2926SOL     OW 9676   6.603   1.633   4.551
 2926SOL    HW1 9677   6.541   1.650   4.474
 2926SOL    HW2 9678   6.662   1.713   4.565
 2927SOL     OW 9679   1.582   4.311   1.563
 2927SOL    HW1 9680   1.522   4.271   1.494
 2927SOL    HW2 9681   1.668   4.340   1.521
 2928SOL     OW 9682   0.198   0.586   6.671
 2928SOL    HW1 9683   0.225   0.599   6.766
 2928SOL    HW2 9684   0.236   0.500   6.637
 2929SOL     OW 9685   1.212   2.132   0.088
 2929SOL    HW1 9686   1.134   2.145   0.149
 2929SOL    HW2 9687   1.199   2.186   0.005
 2930SOL     OW 9688   5.495   0.500   5.453
 2930SOL    HW1 9689   5.592   0.487   5.435
 2930SOL    HW2 9690   5.443   0.423   5.414
 2931SOL     OW 9691   5.778   4.430   6.794
 2931SOL    HW1 9692   5.777   4.529   6.779
 2931SOL    HW2 9693   5.829   4.409   6.877
 2932SOL     OW 9694   1.165   5.422   1.806
 2932SOL    HW1 9695   1.186   5.520   1.798
 2932SOL    HW2 9696   1.066   5.408   1.799
 2933SOL     OW 9697   0.479   5.399   2.859
 2933SOL    HW1 9698   0.565   5.396   2.807
 2933SOL    HW2 9699   0.438   5.490   2.851
 2934SOL     OW 9700   4.742   1.732   0.545
 2934SOL    HW1 9701   4.726   1.633   0.552
 2934SOL    HW2 9702   4.659   1.781   0.574
 2935SOL     OW 9703   6.895   3.018   6.890
 2935SOL    HW1 9704   6.837   3.008   6.971
 2935SOL    HW2 9705   6.943   3.105   6.895
 2936SOL     OW 9706   4.377   6.528   0.225
 2936SOL    HW1 9707   4.438   6.510   0.148
 2936SOL    HW2 9708   4.282   6.518   0.195
 2937SOL     OW 9709   5.078   4.656   1.048
 2937SOL    HW1 9710   5.049   4.663   0.952
 2937SOL    HW2 9711   5.004   4.615   1.101
 2938SOL     OW 9712   4.501   4.903   6.676
 2938SOL    HW1 9713   4.551   4.964   6.737
 2938SOL    HW2 9714   4.538   4.810   6.685
 2939SOL     OW 9715   2.070   0.447   2.828
 2939SOL    HW1 9716   2.102   0.394   2.907
 2939SOL    HW2 9717   1.973   0.427   2.813
 2940SOL     OW 9718   5.788   4.833   5.667
 2940SOL    HW1 9719   5.693   4.861   5.669
 2940SOL    HW2 9720   5.838   4.878   5.741
 2941SOL     OW 9721   2.028   2.018   4.017
 2941SOL    HW1 9722   2.118   2.031   3.975
 2941SOL    HW2 9723   2.037   2.023   4.117
 2942SOL     OW 9724   2.927   2.301   0.424
 2942SOL    HW1 9725   2.865   2.291   0.346
 2942SOL    HW2 9726   2.875   2.334   0.503
 2943SOL     OW 9727   4.943   4.489   3.276
 2943SOL    HW1 9728   4.887   4.561   3.234
 2943SOL    HW2 9729   4.894   4.402   3.273
 2944SOL     OW 9730   2.978   6.093   4.197
 2944SOL    HW1 9731   3.074   6.065   4.201
 2944SOL    HW2 9732   2.942   6.102   4.290
 2945SOL     OW 9733   3.024   3.887   3.425
 2945SOL    HW1 9734   3.016   3.983   3.451
 2945SOL    HW2 9735   3.075   3.838   3.495
 2946SOL     OW 9736   1.235   4.726   5.745
 2946SOL    HW1 9737   1.148   4.688   5.715
 2946SOL    HW2 9738   1.250   4.703   5.842
 2947SOL     OW 9739   0.496   3.521   1.006
 2947SOL    HW1 9740   0.494   3.458   0.928
 2947SOL    HW2 9741   0.538   3.608   0.978
 2948SOL     OW 9742   0.910   3.674   5.046
 2948SOL    HW1 9743   0.974   3.736   4.999
 2948SOL    HW2 9744   0.821   3.678   5.001
 2949SOL     OW 9745   2.662   5.762   0.380
 2949SOL    HW1 9746   2.619   5.734   0.294
 2949SOL    HW2 9747   2.756   5.789   0.362
 2950SOL     OW 9748   5.418   4.773   4.205
 2950SOL    HW1 9749   5.324   4.796   4.178
 2950SOL    HW2 9750   5.420   4.754   4.303
 2951SOL     OW 9751   5.439   1.084   1.461
 2951SOL    HW1 9752   5.350   1.044   1.479
 2951SOL    HW2 9753   5.438   1.181   1.487
 2952SOL     OW 9754   0.115   4.378   4.897
 2952SOL    HW1 9755   0.082   4.316   4.826
 2952SOL    HW2 9756   0.210   4.402   4.878
 2953SOL     OW 9757   4.983   3.270   2.626
 2953SOL    HW1 9758   4.941   3.310   2.708
 2953SOL    HW2 9759   4.964   3.328   2.547
 2954SOL     OW 9760   0.903   5.443   1.736
 2954SOL    HW1 9761   0.871   5.351   1.762
 2954SOL    HW2 9762   0.861   5.511   1.797
 2955SOL     OW 9763   0.836   3.664   2.080
 2955SOL    HW1 9764   0.869   3.572   2.100
 2955SOL    HW2 9765   0.736   3.662   2.073
 2956SOL     OW 9766   5.537   5.837   2.677
 2956SOL    HW1 9767   5.582   5.912   2.726
 2956SOL    HW2 9768   5.438   5.850   2.682
 2957SOL     OW 9769   6.006   4.030   2.266
 2957SOL    HW1 9770   6.064   3.952   2.242
 2957SOL    HW2 9771   5.977   4.078   2.183
 2958SOL     OW 9772   2.631   4.582   3.505
 2958SOL    HW1 9773   2.584   4.659   3.462
 2958SOL    HW2 9774   2.637   4.599   3.604
 2959SOL     OW 9775   5.204   3.927   0.430
 2959SOL    HW1 9776   5.226   3.831   0.412
 2959SOL    HW2 9777   5.285   3.983   0.412
 2960SOL     OW 9778   3.256   1.180   0.332
 2960SOL    HW1 9779   3.303   1.203   0.417
 2960SOL    HW2 9780   3.215   1.089   0.340
 2961SOL     OW 9781   5.173   3.493   2.919
 2961SOL    HW1 9782   5.222   3.477   3.005
 2961SOL    HW2 9783   5.210   3.574   2.873
 2962SOL     OW 9784   4.675   6.659   2.924
 2962SOL    HW1 9785   4.750   6.717   2.954
 2962SOL    HW2 9786   4.615   6.640   3.002
 2963SOL     OW 9787   1.928   1.051   6.120
 2963SOL    HW1 9788   1.898   1.142   6.151
 2963SOL    HW2 9789   1.996   1.062   6.048
 2964SOL     OW 9790   0.775   0.614   3.684
 2964SOL    HW1 9791   0.768   0.714   3.687
 2964SOL    HW2 9792   0.830   0.582   3.761
 2965SOL     OW 9793   0.148   0.992   4.140
 2965SOL    HW1 9794   0.063   0.980   4.089
 2965SOL    HW2 9795   0.158   1.087   4.167
 2966SOL     OW 9796   4.798   5.649   3.507
 2966SOL    HW1 9797   4.781   5.730   3.563
 2966SOL    HW2 9798   4.730   5.579   3.528
 2967SOL     OW 9799   0.114   0.971   4.874
 2967SOL    HW1 9800   0.162   1.046   4.920
 2967SOL    HW2 9801   0.087   0.999   4.783
 2968SOL     OW 9802   1.038   2.676   6.892
 2968SOL    HW1 9803   1.010   2.707   6.801
 2968SOL    HW2 9804   1.137   2.681   6.901
 2969SOL     OW 9805   5.117   1.863   4.008
 2969SOL    HW1 9806   5.142   1.898   3.918
 2969SOL    HW2 9807   5.049   1.924   4.049
 2970SOL     OW 9808   1.943   4.192   5.494
 2970SOL    HW1 9809   2.019   4.136   5.461
 2970SOL    HW2 9810   1.859   4.165   5.449
 2971SOL     OW 9811   4.839   4.230   0.263
 2971SOL    HW1 9812   4.911   4.263   0.323
 2971SOL    HW2 9813   4.871   4.149   0.213
 2972SOL     OW 9814   6.218   4.676   6.402
 2972SOL    HW1 9815   6.314   4.704   6.395
 2972SOL    HW2 9816   6.197   4.652   6.497
 2973SOL     OW 9817   5.410   6.389   2.335
 2973SOL    HW1 9818   5.449   6.360   2.248
 2973SOL    HW2 9819   5.482   6.388   2.405
 2974SOL     OW 9820   1.109   4.602   3.387
 2974SOL    HW1 9821   1.154   4.513   3.378
 2974SOL    HW2 9822   1.130   4.641   3.476
 2975SOL     OW 9823   5.639   3.348   4.103
 2975SOL    HW1 9824   5.590   3.364   4.189
 2975SOL    HW2 9825   5.586   3.288   4.044
 2976SOL     OW 9826   4.336   1.690   2.892
 2976SOL    HW1 9827   4.370   1.777   2.928
 2976SOL    HW2 9828   4.398   1.616   2.920
 2977SOL     OW 9829   2.226   6.323   2.474
 2977SOL    HW1 9830   2.156   6.370   2.420
 2977SOL    HW2 9831   2.298   6.290   2.414
 2978SOL     OW 9832   4.670   4.464   0.293
 2978SOL    HW1 9833   4.704   4.373   0.269
 2978SOL    HW2 9834   4.746   4.529   0.294
 2979SOL     OW 9835   3.288   0.618   4.319
 2979SOL    HW1 9836   3.350   0.541   4.314
 2979SOL    HW2 9837   3.338   0.700   4.348
 2980SOL     OW 9838   1.238   5.683   4.826
 2980SOL    HW1 9839   1.195   5.720   4.909
 2980SOL    HW2 9840   1.189   5.718   4.746
 2981SOL     OW 9841   2.829   1.090   5.592
 2981SOL    HW1 9842   2.914   1.136   5.566
 2981SOL    HW2 9843   2.777   1.150   5.653
 2982SOL     OW 9844   3.365   4.998   2.640
 2982SOL    HW1 9845   3.343   4.957   2.551
 2982SOL    HW2 9846   3.461   5.027   2.640
 2983SOL     OW 9847   0.715   1.075   2.510
 2983SOL    HW1 9848   0.656   1.148   2.543
 2983SOL    HW2 9849   0.758   1.029   2.588
 2984SOL     OW 9850   5.115   4.799   0.474
 2984SOL    HW1 9851   5.176   4.765   0.545
 2984SOL    HW2 9852   5.167   4.819   0.391
 2985SOL     OW 9853   1.603   3.000   5.263
 2985SOL    HW1 9854   1.676   3.019   5.197
 2985SOL    HW2 9855   1.630   2.922   5.320
 2986SOL     OW 9856   3.577   4.045   3.370
 2986SOL    HW1 9857   3.638   3.989   3.426
 2986SOL    HW2 9858   3.514   4.094   3.430
 2987SOL     OW 9859   0.331   1.485   4.022
 2987SOL    HW1 9860   0.247   1.496   4.076
 2987SOL    HW2 9861   0.405   1.454   4.082
 2988SOL     OW 9862   1.487   5.627   2.712
 2988SOL    HW1 9863   1.587   5.620   2.705
 2988SOL    HW2 9864   1.446   5.599   2.625
 2989SOL     OW 9865   5.710   5.958   5.838
 2989SOL    HW1 9866   5.667   5.869   5.822
 2989SOL    HW2 9867   5.667   6.002   5.916
 2990SOL     OW 9868   3.477   2.009   4.988
 2990SOL    HW1 9869   3.394   2.048   4.948
 2990SOL    HW2 9870   3.466   2.004   5.087
 2991SOL     OW 9871   6.590   4.091   5.170
 2991SOL    HW1 9872   6.674   4.036   5.167
 2991SOL    HW2 9873   6.572   4.119   5.265
 2992SOL     OW 9874   2.704   6.378   4.463
 2992SOL    HW1 9875   2.756   6.434   4.528
 2992SOL    HW2 9876   2.621   6.427   4.436
 2993SOL     OW 9877   0.086   4.969   1.219
 2993SOL    HW1 9878   0.165   4.933   1.269
 2993SOL    HW2 9879   0.072   4.916   1.136
 2994SOL     OW 9880   4.198   6.390   6.791
 2994SOL    HW1 9881   4.227   6.341   6.873
 2994SOL    HW2 9882   4.139   6.331   6.736
 2995SOL     OW 9883   2.863   1.775   5.879
 2995SOL    HW1 9884   2.770   1.807   5.859
 2995SOL    HW2 9885   2.904   1.834   5.949
 2996SOL     OW 9886   1.603   1.530   4.140
 2996SOL    HW1 9887   1.541   1.470   4.090
 2996SOL    HW2 9888   1.633   1.485   4.224
 2997SOL     OW 9889   5.848   0.078   3.148
 2997SOL    HW1 9890   5.937   0.086   3.104
 2997SOL    HW2 9891   5.802   0.167   3.146
 2998SOL     OW 9892   4.772   7.011   3.847
 2998SOL    HW1 9893   4.819   0.021   3.764
 2998SOL    HW2 9894   4.702   6.943   3.824
 2999SOL     OW 9895   2.124   5.602   5.048
 2999SOL    HW1 9896   2.074   5.603   4.961
 2999SOL    HW2 9897   2.203   5.663   5.041
 3000SOL     OW 9898   2.999   3.759   6.261
 3000SOL    HW1 9899   2.937   3.838   6.265
 3000SOL    HW2 9900   3.007   3.719   6.352
 3001SOL     OW 9901   6.461   0.456   6.018
 3001SOL    HW1 9902   6.437   0.425   6.110
 3001SOL    HW2 9903   6.520   0.536   6.025
 3002SOL     OW 9904   3.369   1.418   7.010
 3002SOL    HW1 9905   3.375   1.464   6.921
 3002SOL    HW2 9906   3.358   1.487   0.063
 3003SOL     OW 9907   1.786   6.758   0.620
 3003SOL    HW1 9908   1.885   6.766   0.630
 3003SOL    HW2 9909   1.765   6.702   0.539
 3004SOL     OW 9910   0.933   4.287   3.351
 3004SOL    HW1 9911   0.901   4.307   3.258
 3004SOL    HW2 9912   1.024   4.327   3.364
 3005SOL     OW 9913   2.098   1.964   0.954
 3005SOL    HW1 9914   2.024   1.933   0.895
 3005SOL    HW2 9915   2.064   2.032   1.019
 3006SOL     OW 9916   5.797   1.649   5.066
 3006SOL    HW1 9917   5.726   1.580   5.083
 3006SOL    HW2 9918   5.772   1.703   4.986
 3007SOL     OW 9919   5.275   4.259   0.887
 3007SOL    HW1 9920   5.333   4.252   0.968
 3007SOL    HW2 9921   5.282   4.175   0.833
 3008SOL     OW 9922   3.937   2.185   6.153
 3008SOL    HW1 9923   3.944   2.284   6.164
 3008SOL    HW2 9924   3.914   2.163   6.058
 3009SOL     OW 9925   6.761   1.847   3.046
 3009SOL    HW1 9926   6.699   1.909   2.997
 3009SOL    HW2 9927   6.714   1.760   3.061
 3010SOL     OW 9928   3.729   5.903   3.320
 3010SOL    HW1 9929   3.811   5.911   3.263
 3010SOL    HW2 9930   3.656   5.859   3.267
 3011SOL     OW 9931   5.772   1.111   2.377
 3011SOL    HW1 9932   5.775   1.104   2.277
 3011SOL    HW2 9933   5.804   1.025   2.417
 3012SOL     OW 9934   1.724   3.295   5.859
 3012SOL    HW1 9935   1.783   3.295   5.778
 3012SOL    HW2 9936   1.654   3.365   5.850
 3013SOL     OW 9937   5.204   5.299   3.958
 3013SOL    HW1 9938   5.301   5.319   3.944
 3013SOL    HW2 9939   5.157   5.297   3.870
 3014SOL     OW 9940   4.339   2.182   4.565
 3014SOL    HW1 9941   4.400   2.222   4.634
 3014SOL    HW2 9942   4.389   2.113   4.512
 3015SOL     OW 9943   3.333   2.134   0.376
 3015SOL    HW1 9944   3.351   2.205   0.445
 3015SOL    HW2 9945   3.416   2.119   0.322
 3016SOL     OW 9946   1.969   6.378   3.920
 3016SOL    HW1 9947   1.977   6.399   3.823
 3016SOL    HW2 9948   1.952   6.462   3.971
 3017SOL     OW 9949   6.279   4.580   2.426
 3017SOL    HW1 9950   6.359   4.521   2.418
 3017SOL    HW2 9951   6.236   4.590   2.336
 3018SOL     OW 9952   3.078   6.618   5.925
 3018SOL    HW1 9953   3.099   6.534   5.975
 3018SOL    HW2 9954   3.049   6.689   5.989
 3019SOL     OW 9955   1.021   6.725   0.452
 3019SOL    HW1 9956   1.003   6.814   0.411
 3019SOL    HW2 9957   0.968   6.655   0.404
 3020SOL     OW 9958   3.845   2.822   1.504
 3020SOL    HW1 9959   3.782   2.745   1.492
 3020SOL    HW2 9960   3.867   2.832   1.601
 3021SOL     OW 9961   2.785   0.260   5.999
 3021SOL    HW1 9962   2.690   0.245   5.970
 3021SOL    HW2 9963   2.793   0.245   6.097
 3022SOL     OW 9964   3.836   5.342   4.720
 3022SOL    HW1 9965   3.917   5.312   4.771
 3022SOL    HW2 9966   3.857   5.424   4.668
 3023SOL     OW 9967   3.945   6.577   2.817
 3023SOL    HW1 9968   3.916   6.662   2.860
 3023SOL    HW2 9969   3.864   6.528   2.783
 3024SOL     OW 9970   4.827   0.447   4.563
 3024SOL    HW1 9971   4.792   0.465   4.655
 3024SOL    HW2 9972   4.858   0.352   4.557
 3025SOL     OW 9973   3.002   0.134   0.537
 3025SOL    HW1 9974   3.049   0.152   0.450
 3025SOL    HW2 9975   3.029   0.202   0.604
 3026SOL     OW 9976   1.276   0.746   6.816
 3026SOL    HW1 9977   1.316   0.837   6.824
 3026SOL    HW2 9978   1.269   0.720   6.720
 3027SOL     OW 9979   4.040   1.001   2.900
 3027SOL    HW1 9980   4.073   1.095   2.911
 3027SOL    HW2 9981   3.956   0.990   2.952
 3028SOL     OW 9982   1.317   3.397   5.869
 3028SOL    HW1 9983   1.245   3.330   5.851
 3028SOL    HW2 9984   1.334   3.450   5.785
 3029SOL     OW 9985   0.137   2.825   5.174
 3029SOL    HW1 9986   0.180   2.761   5.238
 3029SOL    HW2 9987   0.205   2.891   5.143
 3030SOL     OW 9988   6.932   3.374   0.353
 3030SOL    HW1 9989   6.843   3.359   0.308
 3030SOL    HW2 9990   6.990   3.428   0.293
 3031SOL     OW 9991   0.336   4.007   1.050
 3031SOL    HW1 9992   0.327   3.908   1.057
 3031SOL    HW2 9993   0.428   4.030   1.017
 3032SOL     OW 9994   2.831   6.450   1.029
 3032SOL    HW1 9995   2.835   6.356   0.996
 3032SOL    HW2 9996   2.920   6.494   1.018
 3033SOL     OW 9997   6.309   2.102   1.063
 3033SOL    HW1 9998   6.251   2.121   0.983
 3033SOL    HW2 9999   6.349   2.187   1.096
 3034SOL     OW10000   1.650   5.849   2.603
 3034SOL    HW110001   1.712   5.776   2.634
 3034SOL    HW210002   1.580   5.865   2.673
 3035SOL     OW10003   0.460   2.970   6.581
 3035SOL    HW110004   0.388   2.901   6.570
 3035SOL    HW210005   0.420   3.056   6.610
 3036SOL     OW10006   1.982   2.208   6.580
 3036SOL    HW110007   2.048   2.284   6.584
 3036SOL    HW210008   1.973   2.178   6.485
 3037SOL     OW10009   6.154   5.822   5.680
 3037SOL    HW110010   6.226   5.869   5.630
 3037SOL    HW210011   6.195   5.758   5.745
 3038SOL     OW10012   5.306   5.926   5.809
 3038SOL    HW110013   5.279   5.938   5.905
 3038SOL    HW210014   5.227   5.939   5.750
 3039SOL     OW10015   6.698   3.058   0.235
 3039SOL    HW110016   6.743   2.972   0.260
 3039SOL    HW210017   6.623   3.076   0.299
 3040SOL     OW10018   3.755   3.616   5.829
 3040SOL    HW110019   3.759   3.715   5.816
 3040SOL    HW210020   3.668   3.592   5.871
 3041SOL     OW10021   2.217   3.071   4.506
 3041SOL    HW110022   2.190   3.076   4.410
 3041SOL    HW210023   2.136   3.054   4.563
 3042SOL     OW10024   5.063   5.450   2.029
 3042SOL    HW110025   5.108   5.529   1.989
 3042SOL    HW210026   4.965   5.468   2.036
 3043SOL     OW10027   2.303   4.011   1.950
 3043SOL    HW110028   2.311   4.098   1.900
 3043SOL    HW210029   2.337   3.937   1.892
 3044SOL     OW10030   3.952   4.517   5.568
 3044SOL    HW110031   3.978   4.427   5.533
 3044SOL    HW210032   3.890   4.506   5.645
 3045SOL     OW10033   4.593   0.262   3.146
 3045SOL    HW110034   4.601   0.348   3.196
 3045SOL    HW210035   4.664   0.258   3.076
 3046SOL     OW10036   2.123   0.781   6.038
 3046SOL    HW110037   2.074   0.823   6.115
 3046SOL    HW210038   2.089   0.688   6.025
 3047SOL     OW10039   5.679   0.241   1.839
 3047SOL    HW110040   5.756   0.261   1.780
 3047SOL    HW210041   5.610   0.188   1.789
 3048SOL     OW10042   3.902   2.470   1.686
 3048SOL    HW110043   3.825   2.437   1.741
 3048SOL    HW210044   3.875   2.475   1.590
 3049SOL     OW10045   1.552   7.002   2.777
 3049SOL    HW110046   1.566   0.067   2.724
 3049SOL    HW210047   1.480   7.017   2.845
 3050SOL     OW10048   3.354   1.113   1.868
 3050SOL    HW110049   3.350   1.190   1.804
 3050SOL    HW210050   3.449   1.090   1.887
 3051SOL     OW10051   1.539   5.077   6.162
 3051SOL    HW110052   1.491   4.990   6.175
 3051SOL    HW210053   1.636   5.065   6.183
 3052SOL     OW10054   4.907   5.852   1.870
 3052SOL    HW110055   4.974   5.779   1.878
 3052SOL    HW210056   4.927   5.908   1.790
 3053SOL     OW10057   6.900   2.287   0.429
 3053SOL    HW110058   6.987   2.284   0.476
 3053SOL    HW210059   6.915   2.295   0.330
 3054SOL     OW10060   6.716   2.509   0.936
 3054SOL    HW110061   6.669   2.570   0.999
 3054SOL    HW210062   6.756   2.562   0.862
 3055SOL     OW10063   5.150   0.574   5.157
 3055SOL    HW110064   5.129   0.554   5.253
 3055SOL    HW210065   5.234   0.526   5.131
 3056SOL     OW10066   6.706   0.008   5.477
 3056SOL    HW110067   6.703   0.097   5.523
 3056SOL    HW210068   6.678   0.020   5.382
 3057SOL     OW10069   4.217   6.047   2.762
 3057SOL    HW110070   4.236   5.985   2.838
 3057SOL    HW210071   4.303   6.084   2.727
 3058SOL     OW10072   6.816   4.926   1.463
 3058SOL    HW110073   6.911   4.955   1.449
 3058SOL    HW210074   6.793   4.857   1.394
 3059SOL     OW10075   2.644   2.306   4.211
 3059SOL    HW110076   2.683   2.282   4.300
 3059SOL    HW210077   2.608   2.400   4.215
 3060SOL     OW10078   1.452   5.297   0.123
 3060SOL    HW110079   1.550   5.292   0.143
 3060SOL    HW210080   1.401   5.304   0.209
 3061SOL     OW10081   0.187   6.838   5.305
 3061SOL    HW110082   0.137   6.786   5.374
 3061SOL    HW210083   0.209   6.779   5.228
 3062SOL     OW10084   2.133   0.393   0.730
 3062SOL    HW110085   2.061   0.340   0.774
 3062SOL    HW210086   2.222   0.359   0.758
 3063SOL     OW10087   2.592   4.624   1.573
 3063SOL    HW110088   2.660   4.676   1.625
 3063SOL    HW210089   2.500   4.645   1.609
 3064SOL     OW10090   4.824   3.928   1.909
 3064SOL    HW110091   4.772   4.009   1.883
 3064SOL    HW210092   4.804   3.854   1.845
 3065SOL     OW10093   1.807   1.342   0.306
 3065SOL    HW110094   1.884   1.336   0.370
 3065SOL    HW210095   1.842   1.353   0.213
 3066SOL     OW10096   4.424   5.343   0.890
 3066SOL    HW110097   4.338   5.368   0.845
 3066SOL    HW210098   4.470   5.425   0.923
 3067SOL     OW10099   3.513   1.432   5.511
 3067SOL    HW110100   3.428   1.448   5.561
 3067SOL    HW210101   3.499   1.359   5.444
 3068SOL     OW10102   6.206   0.352   0.576
 3068SOL    HW110103   6.133   0.390   0.633
 3068SOL    HW210104   6.261   0.427   0.539
 3069SOL     OW10105   6.936   5.850   1.877
 3069SOL    HW110106   6.915   5.753   1.865
 3069SOL    HW210107   6.853   5.899   1.905
 3070SOL     OW10108   2.789   1.372   6.766
 3070SOL    HW110109   2.718   1.352   6.699
 3070SOL    HW210110   2.879   1.364   6.723
 3071SOL     OW10111   6.178   6.108   3.371
 3071SOL    HW110112   6.081   6.086   3.360
 3071SOL    HW210113   6.194   6.143   3.463
 3072SOL     OW10114   2.658   6.119   6.685
 3072SOL    HW110115   2.643   6.025   6.717
 3072SOL    HW210116   2.755   6.143   6.696
 3073SOL     OW10117   5.826   2.716   4.705
 3073SOL    HW110118   5.855   2.797   4.756
 3073SOL    HW210119   5.825   2.736   4.607
 3074SOL     OW10120   6.102   3.900   0.549
 3074SOL    HW110121   6.062   3.852   0.471
 3074SOL    HW210122   6.190   3.858   0.573
 3075SOL     OW10123   2.666   5.583   1.588
 3075SOL    HW110124   2.746   5.524   1.578
 3075SOL    HW210125   2.598   5.539   1.646
 3076SOL     OW10126   6.664   0.346   4.136
 3076SOL    HW110127   6.732   0.339   4.063
 3076SOL    HW210128   6.709   0.372   4.221
 3077SOL     OW10129   5.405   5.059   1.080
 3077SOL    HW110130   5.383   4.965   1.107
 3077SOL    HW210131   5.388   5.121   1.156
 3078SOL     OW10132   0.201   2.572   2.860
 3078SOL    HW110133   0.181   2.521   2.777
 3078SOL    HW210134   0.256   2.516   2.922
 3079SOL     OW10135   2.600   2.502   2.829
 3079SOL    HW110136   2.596   2.467   2.735
 3079SOL    HW210137   2.522   2.564   2.844
 3080SOL     OW10138   4.810   4.919   2.458
 3080SOL    HW110139   4.813   5.019   2.464
 3080SOL    HW210140   4.737   4.884   2.517
 3081SOL     OW10141   0.664   2.852   5.345
 3081SOL    HW110142   0.707   2.778   5.293
 3081SOL    HW210143   0.688   2.842   5.442
 3082SOL     OW10144   2.641   6.005   3.893
 3082SOL    HW110145   2.632   6.002   3.793
 3082SOL    HW210146   2.646   5.912   3.929
 3083SOL     OW10147   2.943   6.294   4.018
 3083SOL    HW110148   2.966   6.366   4.084
 3083SOL    HW210149   2.964   6.205   4.058
 3084SOL     OW10150   6.470   3.738   4.184
 3084SOL    HW110151   6.466   3.826   4.138
 3084SOL    HW210152   6.495   3.752   4.280
 3085SOL     OW10153   6.038   4.428   0.517
 3085SOL    HW110154   6.112   4.415   0.582
 3085SOL    HW210155   5.986   4.343   0.508
 3086SOL     OW10156   4.662   1.654   1.258
 3086SOL    HW110157   4.744   1.626   1.307
 3086SOL    HW210158   4.683   1.732   1.199
 3087SOL     OW10159   1.577   5.480   3.863
 3087SOL    HW110160   1.511   5.439   3.926
 3087SOL    HW210161   1.529   5.541   3.800
 3088SOL     OW10162   2.135   4.674   4.724
 3088SOL    HW110163   2.057   4.623   4.759
 3088SOL    HW210164   2.160   4.639   4.633
 3089SOL     OW10165   1.790   3.159   5.633
 3089SOL    HW110166   1.841   3.155   5.547
 3089SOL    HW210167   1.810   3.078   5.687
 3090SOL     OW10168   2.416   2.490   1.749
 3090SOL    HW110169   2.363   2.406   1.735
 3090SOL    HW210170   2.513   2.472   1.734
 3091SOL     OW10171   1.571   6.855   1.503
 3091SOL    HW110172   1.604   6.774   1.455
 3091SOL    HW210173   1.506   6.829   1.574
 3092SOL     OW10174   4.977   1.430   0.859
 3092SOL    HW110175   4.965   1.332   0.877
 3092SOL    HW210176   4.906   1.482   0.907
 3093SOL     OW10177   5.179   6.533   6.380
 3093SOL    HW110178   5.168   6.620   6.427
 3093SOL    HW210179   5.273   6.500   6.391
 3094SOL     OW10180   2.158   6.900   4.259
 3094SOL    HW110181   2.152   6.832   4.331
 3094SOL    HW210182   2.212   6.863   4.183
 3095SOL     OW10183   2.450   5.086   5.113
 3095SOL    HW110184   2.385   5.085   5.189
 3095SOL    HW210185   2.451   4.997   5.068
 3096SOL     OW10186   1.096   5.625   5.378
 3096SOL    HW110187   1.052   5.714   5.373
 3096SOL    HW210188   1.099   5.594   5.473
 3097SOL     OW10189   5.522   2.499   0.401
 3097SOL    HW110190   5.429   2.467   0.382
 3097SOL    HW210191   5.588   2.433   0.367
 3098SOL     OW10192   2.164   2.718   1.641
 3098SOL    HW110193   2.158   2.721   1.541
 3098SOL    HW210194   2.162   2.811   1.677
 3099SOL     OW10195   1.044   0.102   3.596
 3099SOL    HW110196   1.059   0.083   3.693
 3099SOL    HW210197   1.118   0.062   3.542
 3100SOL     OW10198   7.015   5.738   3.392
 3100SOL    HW110199   0.095   5.744   3.405
 3100SOL    HW210200   6.984   5.645   3.413
 3101SOL     OW10201   5.755   6.275   6.918
 3101SOL    HW110202   5.739   6.362   6.871
 3101SOL    HW210203   5.760   6.291   7.016
 3102SOL     OW10204   6.559   5.302   2.594
 3102SOL    HW110205   6.471   5.296   2.546
 3102SOL    HW210206   6.549   5.264   2.686
 3103SOL     OW10207   4.384   0.561   2.179
 3103SOL    HW110208   4.323   0.634   2.211
 3103SOL    HW210209   4.465   0.602   2.136
 3104SOL     OW10210   5.105   1.244   5.207
 3104SOL    HW110211   5.065   1.234   5.298
 3104SOL    HW210212   5.082   1.334   5.170
 3105SOL     OW10213   5.538   4.420   0.952
 3105SOL    HW110214   5.562   4.358   0.878
 3105SOL    HW210215   5.533   4.368   1.038
 3106SOL     OW10216   5.175   0.922   3.845
 3106SOL    HW110217   5.205   0.907   3.751
 3106SOL    HW210218   5.255   0.935   3.904
 3107SOL     OW10219   4.674   1.714   4.940
 3107SOL    HW110220   4.677   1.614   4.938
 3107SOL    HW210221   4.584   1.745   4.909
 3108SOL     OW10222   1.511   6.075   4.230
 3108SOL    HW110223   1.517   6.012   4.152
 3108SOL    HW210224   1.603   6.101   4.259
 3109SOL     OW10225   5.475   6.341   3.816
 3109SOL    HW110226   5.534   6.401   3.870
 3109SOL    HW210227   5.462   6.381   3.725
 3110SOL     OW10228   1.186   2.755   2.710
 3110SOL    HW110229   1.090   2.782   2.711
 3110SOL    HW210230   1.242   2.831   2.744
 3111SOL     OW10231   0.242   5.185   3.193
 3111SOL    HW110232   0.149   5.221   3.193
 3111SOL    HW210233   0.249   5.111   3.261
 3112SOL     OW10234   3.952   3.118   6.586
 3112SOL    HW110235   4.048   3.122   6.613
 3112SOL    HW210236   3.916   3.211   6.575
 3113SOL     OW10237   2.778   5.255   3.677
 3113SOL    HW110238   2.714   5.322   3.640
 3113SOL    HW210239   2.872   5.286   3.660
 3114SOL     OW10240   4.464   2.078   0.877
 3114SOL    HW110241   4.489   2.166   0.838
 3114SOL    HW210242   4.365   2.070   0.881
 3115SOL     OW10243   3.498   4.375   6.273
 3115SOL    HW110244   3.423   4.315   6.302
 3115SOL    HW210245   3.585   4.336   6.305
 3116SOL     OW10246   0.003   3.200   0.086
 3116SOL    HW110247   0.023   3.146   0.168
 3116SOL    HW210248   0.015   3.298   0.107
 3117SOL     OW10249   4.485   3.669   5.302
 3117SOL    HW110250   4.552   3.615   5.251
 3117SOL    HW210251   4.532   3.722   5.373
 3118SOL     OW10252   1.026   5.432   2.296
 3118SOL    HW110253   0.975   5.501   2.244
 3118SOL    HW210254   1.034   5.349   2.241
 3119SOL     OW10255   2.669   3.515   6.464
 3119SOL    HW110256   2.673   3.551   6.556
 3119SOL    HW210257   2.573   3.509   6.434
 3120SOL     OW10258   3.753   0.437   4.998
 3120SOL    HW110259   3.773   0.531   5.023
 3120SOL    HW210260   3.673   0.434   4.937
 3121SOL     OW10261   0.686   0.871   3.661
 3121SOL    HW110262   0.650   0.904   3.574
 3121SOL    HW210263   0.656   0.932   3.735
 3122SOL     OW10264   4.572   5.931   6.441
 3122SOL    HW110265   4.621   5.946   6.355
 3122SOL    HW210266   4.578   5.835   6.467
 3123SOL     OW10267   2.148   1.479   3.193
 3123SOL    HW110268   2.229   1.522   3.153
 3123SOL    HW210269   2.073   1.480   3.128
 3124SOL     OW10270   5.294   0.217   4.476
 3124SOL    HW110271   5.351   0.157   4.532
 3124SOL    HW210272   5.250   0.285   4.533
 3125SOL     OW10273   0.745   2.625   4.770
 3125SOL    HW110274   0.788   2.539   4.800
 3125SOL    HW210275   0.647   2.622   4.790
 3126SOL     OW10276   5.528   4.295   5.178
 3126SOL    HW110277   5.527   4.228   5.103
 3126SOL    HW210278   5.607   4.278   5.237
 3127SOL     OW10279   0.982   3.358   5.385
 3127SOL    HW110280   1.082   3.350   5.378
 3127SOL    HW210281   0.953   3.448   5.351
 3128SOL     OW10282   2.738   0.561   6.158
 3128SOL    HW110283   2.719   0.515   6.245
 3128SOL    HW210284   2.652   0.596   6.120
 3129SOL     OW10285   6.609   3.812   6.895
 3129SOL    HW110286   6.513   3.787   6.880
 3129SOL    HW210287   6.665   3.779   6.819
 3130SOL     OW10288   1.830   4.376   1.343
 3130SOL    HW110289   1.764   4.426   1.287
 3130SOL    HW210290   1.882   4.313   1.285
 3131SOL     OW10291   0.440   3.048   1.796
 3131SOL    HW110292   0.355   2.998   1.777
 3131SOL    HW210293   0.429   3.143   1.766
 3132SOL     OW10294   3.583   5.820   6.246
 3132SOL    HW110295   3.539   5.731   6.245
 3132SOL    HW210296   3.523   5.888   6.203
 3133SOL     OW10297   3.178   1.550   3.727
 3133SOL    HW110298   3.193   1.458   3.691
 3133SOL    HW210299   3.165   1.545   3.826
 3134SOL     OW10300   4.691   4.074   1.707
 3134SOL    HW110301   4.630   4.144   1.744
 3134SOL    HW210302   4.760   4.117   1.649
 3135SOL     OW10303   4.861   1.460   4.550
 3135SOL    HW110304   4.921   1.382   4.531
 3135SOL    HW210305   4.916   1.540   4.572
 3136SOL     OW10306   5.528   0.564   1.890
 3136SOL    HW110307   5.518   0.480   1.838
 3136SOL    HW210308   5.445   0.582   1.943
 3137SOL     OW10309   6.556   0.836   2.359
 3137SOL    HW110310   6.575   0.926   2.399
 3137SOL    HW210311   6.592   0.765   2.420
 3138SOL     OW10312   6.251   4.727   3.628
 3138SOL    HW110313   6.228   4.816   3.588
 3138SOL    HW210314   6.173   4.665   3.617
 3139SOL     OW10315   4.557   6.288   0.852
 3139SOL    HW110316   4.593   6.223   0.785
 3139SOL    HW210317   4.621   6.298   0.927
 3140SOL     OW10318   6.438   6.889   0.060
 3140SOL    HW110319   6.493   6.971   0.079
 3140SOL    HW210320   6.496   6.808   0.067
 3141SOL     OW10321   0.363   6.975   6.639
 3141SOL    HW110322   0.339   6.946   6.547
 3141SOL    HW210323   0.462   6.986   6.647
 3142SOL     OW10324   3.839   0.036   2.021
 3142SOL    HW110325   3.904   0.080   2.083
 3142SOL    HW210326   3.746   0.056   2.052
 3143SOL     OW10327   6.685   2.149   6.791
 3143SOL    HW110328   6.748   2.213   6.746
 3143SOL    HW210329   6.698   2.057   6.754
 3144SOL     OW10330   3.752   3.903   1.545
 3144SOL    HW110331   3.834   3.959   1.535
 3144SOL    HW210332   3.734   3.854   1.460
 3145SOL     OW10333   2.068   6.054   1.342
 3145SOL    HW110334   2.120   6.006   1.271
 3145SOL    HW210335   2.007   6.121   1.300
 3146SOL     OW10336   1.736   0.530   3.625
 3146SOL    HW110337   1.686   0.467   3.567
 3146SOL    HW210338   1.677   0.607   3.650
 3147SOL     OW10339   3.418   6.216   1.727
 3147SOL    HW110340   3.488   6.179   1.787
 3147SOL    HW210341   3.447   6.207   1.632
 3148SOL     OW10342   5.606   5.904   4.325
 3148SOL    HW110343   5.629   5.976   4.390
 3148SOL    HW210344   5.597   5.944   4.234
 3149SOL     OW10345   2.663   1.061   5.364
 3149SOL    HW110346   2.695   1.108   5.282
 3149SOL    HW210347   2.741   1.044   5.424
 3150SOL     OW10348   5.876   5.250   4.031
 3150SOL    HW110349   5.839   5.343   4.036
 3150SOL    HW210350   5.960   5.245   4.085
 3151SOL     OW10351   6.414   1.295   5.415
 3151SOL    HW110352   6.490   1.240   5.451
 3151SOL    HW210353   6.327   1.248   5.435
 3152SOL     OW10354   1.107   5.665   0.714
 3152SOL    HW110355   1.087   5.585   0.770
 3152SOL    HW210356   1.200   5.659   0.678
 3153SOL     OW10357   6.252   4.747   0.984
 3153SOL    HW110358   6.233   4.844   0.999
 3153SOL    HW210359   6.167   4.698   0.965
 3154SOL     OW10360   6.926   1.530   6.494
 3154SOL    HW110361   6.838   1.515   6.539
 3154SOL    HW210362   6.985   1.450   6.507
 3155SOL     OW10363   6.555   4.528   0.418
 3155SOL    HW110364   6.590   4.439   0.387
 3155SOL    HW210365   6.590   4.547   0.510
 3156SOL     OW10366   3.373   2.907   3.515
 3156SOL    HW110367   3.409   2.915   3.608
 3156SOL    HW210368   3.295   2.845   3.514
 3157SOL     OW10369   2.567   1.966   5.089
 3157SOL    HW110370   2.497   1.940   5.022
 3157SOL    HW210371   2.652   1.919   5.069
 3158SOL     OW10372   3.802   1.188   3.530
 3158SOL    HW110373   3.901   1.179   3.522
 3158SOL    HW210374   3.759   1.150   3.448
 3159SOL     OW10375   6.305   2.111   6.979
 3159SOL    HW110376   6.336   2.195   0.004
 3159SOL    HW210377   6.376   2.078   6.916
 3160SOL     OW10378   0.426   6.058   5.452
 3160SOL    HW110379   0.401   6.022   5.542
 3160SOL    HW210380   0.344   6.090   5.405
 3161SOL     OW10381   1.825   2.816   3.571
 3161SOL    HW110382   1.828   2.749   3.645
 3161SOL    HW210383   1.765   2.782   3.498
 3162SOL     OW10384   1.406   6.549   2.250
 3162SOL    HW110385   1.467   6.471   2.238
 3162SOL    HW210386   1.420   6.614   2.174
 3163SOL     OW10387   4.942   2.801   6.087
 3163SOL    HW110388   4.856   2.773   6.129
 3163SOL    HW210389   4.962   2.743   6.008
 3164SOL     OW10390   3.943   4.928   1.121
 3164SOL    HW110391   3.872   4.863   1.096
 3164SOL    HW210392   3.963   4.987   1.043
 3165SOL     OW10393   0.254   6.329   1.224
 3165SOL    HW110394   0.326   6.316   1.156
 3165SOL    HW210395   0.167   6.296   1.188
 3166SOL     OW10396   4.340   1.602   4.119
 3166SOL    HW110397   4.264   1.652   4.078
 3166SOL    HW210398   4.303   1.531   4.180
 3167SOL     OW10399   6.643   4.605   0.692
 3167SOL    HW110400   6.726   4.551   0.680
 3167SOL    HW210401   6.620   4.610   0.789
 3168SOL     OW10402   4.380   2.472   6.483
 3168SOL    HW110403   4.456   2.520   6.439
 3168SOL    HW210404   4.381   2.376   6.454
 3169SOL     OW10405   2.194   3.366   4.187
 3169SOL    HW110406   2.151   3.423   4.257
 3169SOL    HW210407   2.292   3.358   4.205
 3170SOL     OW10408   4.438   6.743   1.630
 3170SOL    HW110409   4.527   6.788   1.635
 3170SOL    HW210410   4.381   6.790   1.562
 3171SOL     OW10411   0.253   0.873   1.628
 3171SOL    HW110412   0.254   0.971   1.608
 3171SOL    HW210413   0.159   0.838   1.622
 3172SOL     OW10414   6.747   5.396   0.272
 3172SOL    HW110415   6.708   5.462   0.335
 3172SOL    HW210416   6.828   5.354   0.313
 3173SOL     OW10417   3.029   2.099   0.610
 3173SOL    HW110418   3.016   2.162   0.533
 3173SOL    HW210419   2.983   2.013   0.590
 3174SOL     OW10420   2.733   2.302   0.240
 3174SOL    HW110421   2.801   2.354   0.188
 3174SOL    HW210422   2.643   2.345   0.232
 3175SOL     OW10423   6.739   0.668   1.222
 3175SOL    HW110424   6.707   0.687   1.315
 3175SOL    HW210425   6.678   0.602   1.178
 3176SOL     OW10426   1.569   4.006   4.949
 3176SOL    HW110427   1.537   4.099   4.932
 3176SOL    HW210428   1.595   3.998   5.045
 3177SOL     OW10429   4.962   3.863   4.289
 3177SOL    HW110430   4.961   3.938   4.355
 3177SOL    HW210431   4.968   3.776   4.338
 3178SOL     OW10432   6.426   2.154   0.755
 3178SOL    HW110433   6.462   2.063   0.771
 3178SOL    HW210434   6.326   2.153   0.767
 3179SOL     OW10435   1.082   3.098   2.272
 3179SOL    HW110436   1.029   3.182   2.284
 3179SOL    HW210437   1.022   3.024   2.245
 3180SOL     OW10438   4.181   1.182   0.029
 3180SOL    HW110439   4.276   1.160   0.004
 3180SOL    HW210440   4.146   1.254   6.987
 3181SOL     OW10441   6.934   1.536   3.166
 3181SOL    HW110442   6.879   1.586   3.098
 3181SOL    HW210443   6.882   1.531   3.252
 3182SOL     OW10444   3.363   0.315   5.610
 3182SOL    HW110445   3.413   0.389   5.655
 3182SOL    HW210446   3.287   0.353   5.557
 3183SOL     OW10447   4.124   4.151   1.637
 3183SOL    HW110448   4.063   4.124   1.711
 3183SOL    HW210449   4.215   4.111   1.653
 3184SOL     OW10450   1.052   2.704   2.986
 3184SOL    HW110451   1.058   2.707   3.086
 3184SOL    HW210452   1.128   2.650   2.949
 3185SOL     OW10453   5.885   5.870   0.274
 3185SOL    HW110454   5.925   5.783   0.248
 3185SOL    HW210455   5.865   5.924   0.193
 3186SOL     OW10456   3.789   1.335   1.968
 3186SOL    HW110457   3.850   1.375   2.036
 3186SOL    HW210458   3.726   1.405   1.935
 3187SOL     OW10459   4.533   4.275   6.958
 3187SOL    HW110460   4.557   4.363   6.999
 3187SOL    HW210461   4.490   4.216   0.007
 3188SOL     OW10462   2.063   0.417   4.522
 3188SOL    HW110463   2.003   0.416   4.602
 3188SOL    HW210464   2.155   0.445   4.549
 3189SOL     OW10465   1.484   1.241   1.542
 3189SOL    HW110466   1.495   1.159   1.486
 3189SOL    HW210467   1.528   1.229   1.630
 3190SOL     OW10468   6.762   6.533   0.523
 3190SOL    HW110469   6.820   6.593   0.578
 3190SOL    HW210470   6.719   6.587   0.450
 3191SOL     OW10471   5.364   6.822   1.096
 3191SOL    HW110472   5.357   6.875   1.011
 3191SOL    HW210473   5.383   6.727   1.075
 3192SOL     OW10474   0.113   2.496   2.000
 3192SOL    HW110475   0.032   2.448   1.966
 3192SOL    HW210476   0.141   2.565   1.933
 3193SOL     OW10477   3.632   1.419   6.787
 3193SOL    HW110478   3.699   1.348   6.810
 3193SOL    HW210479   3.678   1.495   6.741
 3194SOL     OW10480   1.162   2.734   6.438
 3194SOL    HW110481   1.255   2.746   6.402
 3194SOL    HW210482   1.097   2.769   6.371
 3195SOL     OW10483   2.637   2.489   3.469
 3195SOL    HW110484   2.647   2.532   3.379
 3195SOL    HW210485   2.643   2.390   3.460
 3196SOL     OW10486   0.774   1.595   6.240
 3196SOL    HW110487   0.859   1.569   6.285
 3196SOL    HW210488   0.755   1.533   6.164
 3197SOL     OW10489   2.201   6.375   3.205
 3197SOL    HW110490   2.128   6.440   3.183
 3197SOL    HW210491   2.204   6.361   3.304
 3198SOL     OW10492   5.702   2.549   5.207
 3198SOL    HW110493   5.745   2.611   5.273
 3198SOL    HW210494   5.643   2.484   5.255
 3199SOL     OW10495   4.843   2.995   2.544
 3199SOL    HW110496   4.849   2.950   2.455
 3199SOL    HW210497   4.878   3.089   2.535
 3200SOL     OW10498   6.383   2.885   2.101
 3200SOL    HW110499   6.310   2.833   2.145
 3200SOL    HW210500   6.466   2.829   2.099
 3201SOL     OW10501   5.548   4.663   4.711
 3201SOL    HW110502   5.603   4.603   4.654
 3201SOL    HW210503   5.608   4.729   4.757
 3202SOL     OW10504   0.101   4.941   1.557
 3202SOL    HW110505   0.136   4.862   1.507
 3202SOL    HW210506   0.055   4.910   1.640
 3203SOL     OW10507   6.280   2.368   6.765
 3203SOL    HW110508   6.301   2.435   6.693
 3203SOL    HW210509   6.356   2.363   6.830
 3204SOL     OW10510   4.815   6.189   2.016
 3204SOL    HW110511   4.853   6.123   2.081
 3204SOL    HW210512   4.727   6.222   2.050
 3205SOL     OW10513   6.868   3.460   5.927
 3205SOL    HW110514   6.863   3.556   5.955
 3205SOL    HW210515   6.948   3.417   5.970
 3206SOL     OW10516   0.793   6.813   5.799
 3206SOL    HW110517   0.890   6.831   5.782
 3206SOL    HW210518   0.776   6.714   5.792
 3207SOL     OW10519   0.878   0.589   5.509
 3207SOL    HW110520   0.920   0.559   5.423
 3207SOL    HW210521   0.921   0.540   5.585
 3208SOL     OW10522   5.416   6.888   5.614
 3208SOL    HW110523   5.486   6.892   5.685
 3208SOL    HW210524   5.458   6.862   5.527
 3209SOL     OW10525   4.220   5.794   2.886
 3209SOL    HW110526   4.214   5.815   2.984
 3209SOL    HW210527   4.166   5.712   2.866
 3210SOL     OW10528   0.960   4.285   1.372
 3210SOL    HW110529   0.866   4.315   1.354
 3210SOL    HW210530   1.011   4.361   1.414
 3211SOL     OW10531   1.476   3.983   1.170
 3211SOL    HW110532   1.398   4.013   1.116
 3211SOL    HW210533   1.561   4.001   1.119
 3212SOL     OW10534   3.002   0.686   1.046
 3212SOL    HW110535   3.044   0.723   0.963
 3212SOL    HW210536   3.073   0.675   1.116
 3213SOL     OW10537   0.425   6.154   1.875
 3213SOL    HW110538   0.370   6.096   1.935
 3213SOL    HW210539   0.402   6.133   1.780
 3214SOL     OW10540   4.894   5.605   0.739
 3214SOL    HW110541   4.870   5.695   0.776
 3214SOL    HW210542   4.872   5.601   0.642
 3215SOL     OW10543   6.930   2.798   0.888
 3215SOL    HW110544   6.860   2.798   0.959
 3215SOL    HW210545   6.903   2.737   0.813
 3216SOL     OW10546   5.751   5.271   0.871
 3216SOL    HW110547   5.841   5.231   0.855
 3216SOL    HW210548   5.758   5.345   0.937
 3217SOL     OW10549   0.056   6.196   2.641
 3217SOL    HW110550   0.146   6.241   2.638
 3217SOL    HW210551   0.053   6.123   2.573
 3218SOL     OW10552   4.160   0.695   3.503
 3218SOL    HW110553   4.133   0.694   3.599
 3218SOL    HW210554   4.242   0.639   3.490
 3219SOL     OW10555   0.387   1.544   3.223
 3219SOL    HW110556   0.307   1.509   3.173
 3219SOL    HW210557   0.365   1.633   3.262
 3220SOL     OW10558   6.512   6.178   5.793
 3220SOL    HW110559   6.586   6.245   5.786
 3220SOL    HW210560   6.546   6.097   5.841
 3221SOL     OW10561   3.498   0.293   1.202
 3221SOL    HW110562   3.436   0.281   1.125
 3221SOL    HW210563   3.457   0.254   1.284
 3222SOL     OW10564   4.409   1.804   2.418
 3222SOL    HW110565   4.485   1.743   2.440
 3222SOL    HW210566   4.439   1.871   2.351
 3223SOL     OW10567   1.859   5.218   6.597
 3223SOL    HW110568   1.779   5.200   6.654
 3223SOL    HW210569   1.856   5.313   6.564
 3224SOL     OW10570   4.406   3.739   0.045
 3224SOL    HW110571   4.383   3.650   0.004
 3224SOL    HW210572   4.502   3.760   0.028
 3225SOL     OW10573   4.697   3.669   6.360
 3225SOL    HW110574   4.713   3.570   6.358
 3225SOL    HW210575   4.655   3.697   6.274
 3226SOL     OW10576   2.274   1.486   4.410
 3226SOL    HW110577   2.299   1.533   4.325
 3226SOL    HW210578   2.217   1.547   4.466
 3227SOL     OW10579   4.111   2.470   0.376
 3227SOL    HW110580   4.146   2.410   0.447
 3227SOL    HW210581   4.137   2.434   0.286
 3228SOL     OW10582   6.339   4.224   2.728
 3228SOL    HW110583   6.357   4.318   2.701
 3228SOL    HW210584   6.318   4.169   2.647
 3229SOL     OW10585   4.180   0.733   5.554
 3229SOL    HW110586   4.195   0.776   5.464
 3229SOL    HW210587   4.201   0.636   5.549
 3230SOL     OW10588   1.957   3.233   4.370
 3230SOL    HW110589   1.903   3.262   4.449
 3230SOL    HW210590   1.912   3.263   4.286
 3231SOL     OW10591   2.569   1.043   1.648
 3231SOL    HW110592   2.597   1.026   1.742
 3231SOL    HW210593   2.584   0.961   1.593
 3232SOL     OW10594   4.594   5.442   5.445
 3232SOL    HW110595   4.545   5.400   5.368
 3232SOL    HW210596   4.650   5.517   5.412
 3233SOL     OW10597   1.016   2.688   2.018
 3233SOL    HW110598   1.093   2.656   1.963
 3233SOL    HW210599   1.036   2.673   2.115
 3234SOL     OW10600   0.230   1.783   6.988
 3234SOL    HW110601   0.139   1.786   6.947
 3234SOL    HW210602   0.297   1.819   6.924
 3235SOL     OW10603   5.403   0.682   1.200
 3235SOL    HW110604   5.464   0.614   1.241
 3235SOL    HW210605   5.316   0.683   1.250
 3236SOL     OW10606   0.908   3.579   1.004
 3236SOL    HW110607   0.995   3.620   1.035
 3236SOL    HW210608   0.924   3.484   0.978
 3237SOL     OW10609   5.115   1.453   4.200
 3237SOL    HW110610   5.070   1.365   4.188
 3237SOL    HW210611   5.211   1.439   4.222
 3238SOL     OW10612   0.035   4.960   0.837
 3238SOL    HW110613   0.090   5.000   0.763
 3238SOL    HW210614   0.003   5.033   0.898
 3239SOL     OW10615   6.351   1.447   1.713
 3239SOL    HW110616   6.382   1.387   1.639
 3239SOL    HW210617   6.279   1.508   1.678
 3240SOL     OW10618   1.191   0.305   6.232
 3240SOL    HW110619   1.141   0.234   6.182
 3240SOL    HW210620   1.254   0.262   6.297
 3241SOL     OW10621   4.383   1.784   5.385
 3241SOL    HW110622   4.354   1.848   5.456
 3241SOL    HW210623   4.357   1.691   5.411
 3242SOL     OW10624   3.466   4.513   0.168
 3242SOL    HW110625   3.392   4.461   0.125
 3242SOL    HW210626   3.551   4.499   0.117
 3243SOL     OW10627   4.902   4.654   0.288
 3243SOL    HW110628   4.878   4.751   0.281
 3243SOL    HW210629   4.999   4.642   0.268
 3244SOL     OW10630   5.002   5.789   6.769
 3244SOL    HW110631   4.913   5.781   6.723
 3244SOL    HW210632   4.989   5.829   6.860
 3245SOL     OW10633   4.862   3.121   5.114
 3245SOL    HW110634   4.810   3.060   5.054
 3245SOL    HW210635   4.805   3.152   5.189
 3246SOL     OW10636   4.968   0.589   2.629
 3246SOL    HW110637   5.052   0.538   2.649
 3246SOL    HW210638   4.991   0.682   2.603
 3247SOL     OW10639   5.627   4.748   2.534
 3247SOL    HW110640   5.654   4.842   2.554
 3247SOL    HW210641   5.682   4.685   2.589
 3248SOL     OW10642   6.571   3.610   1.266
 3248SOL    HW110643   6.613   3.525   1.232
 3248SOL    HW210644   6.506   3.588   1.339
 3249SOL     OW10645   3.669   2.966   4.489
 3249SOL    HW110646   3.740   2.958   4.559
 3249SOL    HW210647   3.595   3.023   4.524
 3250SOL     OW10648   6.256   6.544   2.242
 3250SOL    HW110649   6.176   6.600   2.264
 3250SOL    HW210650   6.262   6.467   2.304
 3251SOL     OW10651   3.149   0.828   2.469
 3251SOL    HW110652   3.162   0.737   2.508
 3251SOL    HW210653   3.067   0.869   2.508
 3252SOL     OW10654   2.405   2.135   2.586
 3252SOL    HW110655   2.321   2.119   2.638
 3252SOL    HW210656   2.483   2.103   2.640
 3253SOL     OW10657   5.649   3.057   1.943
 3253SOL    HW110658   5.578   3.075   2.011
 3253SOL    HW210659   5.720   3.128   1.952
 3254SOL     OW10660   4.982   5.154   5.211
 3254SOL    HW110661   4.961   5.252   5.203
 3254SOL    HW210662   4.908   5.108   5.260
 3255SOL     OW10663   5.421   5.360   0.699
 3255SOL    HW110664   5.408   5.261   0.697
 3255SOL    HW210665   5.519   5.381   0.696
 3256SOL     OW10666   4.285   0.449   0.061
 3256SOL    HW110667   4.194   0.490   0.060
 3256SOL    HW210668   4.282   0.363   0.113
 3257SOL     OW10669   1.388   1.648   1.179
 3257SOL    HW110670   1.380   1.691   1.090
 3257SOL    HW210671   1.430   1.711   1.244
 3258SOL     OW10672   4.204   4.744   1.903
 3258SOL    HW110673   4.262   4.712   1.977
 3258SOL    HW210674   4.171   4.667   1.849
 3259SOL     OW10675   4.211   5.109   3.790
 3259SOL    HW110676   4.210   5.093   3.691
 3259SOL    HW210677   4.297   5.076   3.828
 3260SOL     OW10678   1.688   1.933   0.975
 3260SOL    HW110679   1.742   1.850   0.959
 3260SOL    HW210680   1.717   2.004   0.911
 3261SOL     OW10681   4.945   6.777   0.714
 3261SOL    HW110682   4.942   6.765   0.615
 3261SOL    HW210683   4.855   6.757   0.753
 3262SOL     OW10684   3.325   2.132   2.561
 3262SOL    HW110685   3.378   2.175   2.634
 3262SOL    HW210686   3.363   2.041   2.542
 3263SOL     OW10687   2.957   1.119   3.635
 3263SOL    HW110688   3.053   1.141   3.617
 3263SOL    HW210689   2.951   1.063   3.718
 3264SOL     OW10690   1.435   4.293   0.952
 3264SOL    HW110691   1.386   4.210   0.979
 3264SOL    HW210692   1.379   4.346   0.888
 3265SOL     OW10693   4.896   1.190   6.363
 3265SOL    HW110694   4.904   1.135   6.279
 3265SOL    HW210695   4.812   1.165   6.411
 3266SOL     OW10696   0.491   3.322   0.462
 3266SOL    HW110697   0.585   3.303   0.435
 3266SOL    HW210698   0.450   3.240   0.501
 3267SOL     OW10699   3.361   1.120   0.083
 3267SOL    HW110700   3.317   1.157   0.164
 3267SOL    HW210701   3.401   1.194   0.029
 3268SOL     OW10702   1.183   4.285   0.232
 3268SOL    HW110703   1.277   4.271   0.201
 3268SOL    HW210704   1.165   4.228   0.312
 3269SOL     OW10705   4.348   4.610   2.404
 3269SOL    HW110706   4.283   4.580   2.473
 3269SOL    HW210707   4.439   4.621   2.445
 3270SOL     OW10708   0.711   4.376   4.609
 3270SOL    HW110709   0.630   4.349   4.556
 3270SOL    HW210710   0.782   4.307   4.599
 3271SOL     OW10711   5.515   3.496   2.324
 3271SOL    HW110712   5.573   3.575   2.344
 3271SOL    HW210713   5.488   3.498   2.228
 3272SOL     OW10714   3.139   4.349   6.625
 3272SOL    HW110715   3.194   4.280   6.578
 3272SOL    HW210716   3.043   4.339   6.599
 3273SOL     OW10717   0.775   6.177   1.679
 3273SOL    HW110718   0.801   6.230   1.598
 3273SOL    HW210719   0.733   6.238   1.746
 3274SOL     OW10720   4.608   1.330   1.887
 3274SOL    HW110721   4.695   1.282   1.902
 3274SOL    HW210722   4.609   1.372   1.796
 3275SOL     OW10723   0.240   1.105   6.459
 3275SOL    HW110724   0.188   1.044   6.519
 3275SOL    HW210725   0.261   1.189   6.508
 3276SOL     OW10726   3.173   6.036   0.131
 3276SOL    HW110727   3.222   5.975   0.194
 3276SOL    HW210728   3.099   6.083   0.179
 3277SOL     OW10729   4.651   6.880   0.619
 3277SOL    HW110730   4.635   6.782   0.616
 3277SOL    HW210731   4.595   6.926   0.550
 3278SOL     OW10732   0.143   1.222   6.026
 3278SOL    HW110733   0.092   1.291   6.076
 3278SOL    HW210734   0.189   1.161   6.090
 3279SOL     OW10735   5.836   1.391   0.661
 3279SOL    HW110736   5.831   1.362   0.756
 3279SOL    HW210737   5.839   1.311   0.601
 3280SOL     OW10738   3.772   5.330   5.018
 3280SOL    HW110739   3.746   5.234   5.025
 3280SOL    HW210740   3.792   5.353   4.923
 3281SOL     OW10741   2.146   5.051   1.626
 3281SOL    HW110742   2.139   5.150   1.622
 3281SOL    HW210743   2.241   5.025   1.643
 3282SOL     OW10744   0.805   4.972   5.352
 3282SOL    HW110745   0.869   5.048   5.364
 3282SOL    HW210746   0.713   5.001   5.377
 3283SOL     OW10747   4.195   1.252   0.958
 3283SOL    HW110748   4.207   1.181   0.889
 3283SOL    HW210749   4.097   1.268   0.972
 3284SOL     OW10750   6.132   5.417   6.821
 3284SOL    HW110751   6.101   5.502   6.779
 3284SOL    HW210752   6.230   5.406   6.806
 3285SOL     OW10753   4.735   2.876   3.853
 3285SOL    HW110754   4.827   2.894   3.820
 3285SOL    HW210755   4.734   2.876   3.953
 3286SOL     OW10756   4.158   3.430   2.302
 3286SOL    HW110757   4.126   3.335   2.303
 3286SOL    HW210758   4.200   3.452   2.390
 3287SOL     OW10759   1.343   6.736   6.684
 3287SOL    HW110760   1.293   6.797   6.622
 3287SOL    HW210761   1.423   6.783   6.720
 3288SOL     OW10762   0.540   5.702   6.319
 3288SOL    HW110763   0.563   5.771   6.250
 3288SOL    HW210764   0.553   5.740   6.410
 3289SOL     OW10765   2.967   6.596   5.604
 3289SOL    HW110766   2.986   6.693   5.589
 3289SOL    HW210767   2.904   6.586   5.681
 3290SOL     OW10768   0.398   6.871   1.793
 3290SOL    HW110769   0.429   6.960   1.826
 3290SOL    HW210770   0.367   6.816   1.871
 3291SOL     OW10771   1.085   5.880   1.070
 3291SOL    HW110772   1.030   5.875   1.153
 3291SOL    HW210773   1.148   5.957   1.076
 3292SOL     OW10774   0.450   0.700   1.083
 3292SOL    HW110775   0.533   0.728   1.131
 3292SOL    HW210776   0.383   0.774   1.086
 3293SOL     OW10777   0.468   3.645   3.244
 3293SOL    HW110778   0.508   3.716   3.186
 3293SOL    HW210779   0.480   3.670   3.340
 3294SOL     OW10780   6.975   1.494   5.876
 3294SOL    HW110781   6.950   1.454   5.964
 3294SOL    HW210782   6.895   1.537   5.835
 3295SOL     OW10783   1.479   3.480   1.997
 3295SOL    HW110784   1.389   3.440   2.014
 3295SOL    HW210785   1.468   3.573   1.964
 3296SOL     OW10786   1.534   6.303   2.215
 3296SOL    HW110787   1.623   6.271   2.246
 3296SOL    HW210788   1.468   6.228   2.217
 3297SOL     OW10789   3.175   0.682   4.652
 3297SOL    HW110790   3.103   0.620   4.621
 3297SOL    HW210791   3.171   0.690   4.751
 3298SOL     OW10792   5.769   1.703   4.532
 3298SOL    HW110793   5.857   1.725   4.489
 3298SOL    HW210794   5.786   1.652   4.617
 3299SOL     OW10795   2.612   5.740   3.987
 3299SOL    HW110796   2.628   5.714   4.082
 3299SOL    HW210797   2.514   5.732   3.966
 3300SOL     OW10798   0.546   0.908   5.687
 3300SOL    HW110799   0.569   0.813   5.664
 3300SOL    HW210800   0.495   0.911   5.772
 3301SOL     OW10801   2.181   3.104   3.445
 3301SOL    HW110802   2.152   3.044   3.370
 3301SOL    HW210803   2.206   3.193   3.408
 3302SOL     OW10804   0.715   5.379   5.787
 3302SOL    HW110805   0.763   5.386   5.700
 3302SOL    HW210806   0.727   5.464   5.838
 3303SOL     OW10807   3.273   3.198   2.014
 3303SOL    HW110808   3.280   3.098   2.007
 3303SOL    HW210809   3.348   3.241   1.965
 3304SOL     OW10810   1.516   5.503   4.200
 3304SOL    HW110811   1.474   5.437   4.139
 3304SOL    HW210812   1.469   5.502   4.288
 3305SOL     OW10813   2.039   1.246   3.301
 3305SOL    HW110814   2.057   1.345   3.299
 3305SOL    HW210815   2.043   1.214   3.396
 3306SOL     OW10816   1.997   5.669   4.816
 3306SOL    HW110817   1.913   5.616   4.803
 3306SOL    HW210818   2.014   5.725   4.736
 3307SOL     OW10819   6.849   5.674   6.991
 3307SOL    HW110820   6.852   5.728   6.907
 3307SOL    HW210821   6.814   5.731   0.047
 3308SOL     OW10822   4.250   5.991   6.950
 3308SOL    HW110823   4.259   6.033   0.022
 3308SOL    HW210824   4.323   5.925   6.936
 3309SOL     OW10825   0.027   5.593   2.334
 3309SOL    HW110826   6.983   5.555   2.401
 3309SOL    HW210827   0.119   5.557   2.351
 3310SOL     OW10828   0.304   4.089   5.177
 3310SOL    HW110829   0.212   4.099   5.214
 3310SOL    HW210830   0.308   4.127   5.085
 3311SOL     OW10831   2.136   3.939   1.589
 3311SOL    HW110832   2.158   3.959   1.494
 3311SOL    HW210833   2.050   3.983   1.614
 3312SOL     OW10834   4.006   4.242   5.802
 3312SOL    HW110835   4.087   4.222   5.746
 3312SOL    HW210836   3.979   4.338   5.788
 3313SOL     OW10837   0.536   5.067   3.204
 3313SOL    HW110838   0.446   5.107   3.220
 3313SOL    HW210839   0.554   4.998   3.274
 3314SOL     OW10840   2.602   1.696   4.038
 3314SOL    HW110841   2.682   1.700   3.978
 3314SOL    HW210842   2.598   1.606   4.082
 3315SOL     OW10843   5.778   3.014   4.372
 3315SOL    HW110844   5.760   2.968   4.285
 3315SOL    HW210845   5.816   2.948   4.438
 3316SOL     OW10846   4.439   1.950   6.204
 3316SOL    HW110847   4.490   1.917   6.283
 3316SOL    HW210848   4.472   1.904   6.121
 3317SOL     OW10849   4.751   3.523   1.771
 3317SOL    HW110850   4.798   3.483   1.692
 3317SOL    HW210851   4.817   3.541   1.844
 3318SOL     OW10852   3.262   0.517   0.270
 3318SOL    HW110853   3.318   0.575   0.211
 3318SOL    HW210854   3.250   0.427   0.227
 3319SOL     OW10855   6.399   0.367   4.000
 3319SOL    HW110856   6.481   0.329   4.042
 3319SOL    HW210857   6.350   0.424   4.067
 3320SOL     OW10858   5.736   1.213   5.486
 3320SOL    HW110859   5.689   1.295   5.520
 3320SOL    HW210860   5.807   1.186   5.551
 3321SOL     OW10861   3.721   2.203   0.829
 3321SOL    HW110862   3.802   2.145   0.822
 3321SOL    HW210863   3.656   2.161   0.892
 3322SOL     OW10864   5.431   3.600   1.163
 3322SOL    HW110865   5.368   3.582   1.087
 3322SOL    HW210866   5.392   3.564   1.248
 3323SOL     OW10867   3.037   3.454   6.534
 3323SOL    HW110868   2.939   3.438   6.545
 3323SOL    HW210869   3.053   3.552   6.525
 3324SOL     OW10870   1.514   3.894   6.348
 3324SOL    HW110871   1.495   3.881   6.251
 3324SOL    HW210872   1.583   3.965   6.360
 3325SOL     OW10873   2.022   3.224   6.538
 3325SOL    HW110874   2.067   3.180   6.461
 3325SOL    HW210875   2.076   3.303   6.568
 3326SOL     OW10876   5.432   2.102   2.276
 3326SOL    HW110877   5.451   2.006   2.295
 3326SOL    HW210878   5.451   2.121   2.179
 3327SOL     OW10879   3.231   5.924   1.840
 3327SOL    HW110880   3.157   5.977   1.799
 3327SOL    HW210881   3.195   5.841   1.882
 3328SOL     OW10882   4.220   1.755   1.396
 3328SOL    HW110883   4.285   1.682   1.373
 3328SOL    HW210884   4.131   1.715   1.417
 3329SOL     OW10885   5.400   0.473   5.097
 3329SOL    HW110886   5.443   0.560   5.119
 3329SOL    HW210887   5.440   0.436   5.013
 3330SOL     OW10888   6.376   6.009   1.586
 3330SOL    HW110889   6.431   6.093   1.581
 3330SOL    HW210890   6.279   6.033   1.594
 3331SOL     OW10891   1.118   3.831   1.296
 3331SOL    HW110892   1.115   3.808   1.393
 3331SOL    HW210893   1.155   3.923   1.284
 3332SOL     OW10894   6.834   4.733   0.436
 3332SOL    HW110895   6.761   4.706   0.373
 3332SOL    HW210896   6.796   4.789   0.509
 3333SOL     OW10897   2.809   4.387   6.597
 3333SOL    HW110898   2.768   4.427   6.515
 3333SOL    HW210899   2.743   4.326   6.641
 3334SOL     OW10900   2.274   4.230   1.386
 3334SOL    HW110901   2.269   4.329   1.380
 3334SOL    HW210902   2.335   4.204   1.461
 3335SOL     OW10903   4.670   0.112   5.752
 3335SOL    HW110904   4.624   0.030   5.787
 3335SOL    HW210905   4.613   0.155   5.683
 3336SOL     OW10906   1.924   6.305   4.535
 3336SOL    HW110907   1.872   6.353   4.464
 3336SOL    HW210908   1.978   6.232   4.493
 3337SOL     OW10909   3.178   3.949   1.478
 3337SOL    HW110910   3.222   3.889   1.545
 3337SOL    HW210911   3.196   3.916   1.386
 3338SOL     OW10912   6.622   2.748   2.029
 3338SOL    HW110913   6.691   2.737   2.101
 3338SOL    HW210914   6.646   2.691   1.951
 3339SOL     OW10915   0.811   0.043   6.463
 3339SOL    HW110916   0.889   6.998   6.463
 3339SOL    HW210917   0.802   0.085   6.373
 3340SOL     OW10918   3.493   2.138   3.278
 3340SOL    HW110919   3.589   2.113   3.286
 3340SOL    HW210920   3.450   2.134   3.368
 3341SOL     OW10921   1.295   3.953   4.063
 3341SOL    HW110922   1.341   3.992   3.983
 3341SOL    HW210923   1.354   3.883   4.104
 3342SOL     OW10924   1.104   6.542   3.755
 3342SOL    HW110925   1.037   6.558   3.682
 3342SOL    HW210926   1.194   6.530   3.715
 3343SOL     OW10927   5.218   3.726   0.016
 3343SOL    HW110928   5.270   3.802   0.056
 3343SOL    HW210929   5.197   3.746   6.940
 3344SOL     OW10930   5.429   3.693   3.341
 3344SOL    HW110931   5.464   3.661   3.429
 3344SOL    HW210932   5.492   3.760   3.302
 3345SOL     OW10933   1.205   3.278   6.118
 3345SOL    HW110934   1.202   3.233   6.028
 3345SOL    HW210935   1.162   3.368   6.112
 3346SOL     OW10936   0.795   0.954   0.229
 3346SOL    HW110937   0.852   1.024   0.271
 3346SOL    HW210938   0.852   0.886   0.184
 3347SOL     OW10939   1.329   2.774   5.141
 3347SOL    HW110940   1.392   2.748   5.067
 3347SOL    HW210941   1.321   2.874   5.144
 3348SOL     OW10942   4.128   3.287   4.117
 3348SOL    HW110943   4.030   3.270   4.122
 3348SOL    HW210944   4.163   3.257   4.028
 3349SOL     OW10945   2.204   4.953   2.916
 3349SOL    HW110946   2.146   4.935   2.836
 3349SOL    HW210947   2.245   5.044   2.908
 3350SOL     OW10948   6.861   2.071   5.919
 3350SOL    HW110949   6.788   2.070   5.988
 3350SOL    HW210950   6.822   2.050   5.829
 3351SOL     OW10951   4.916   0.843   3.082
 3351SOL    HW110952   4.977   0.845   3.003
 3351SOL    HW210953   4.890   0.937   3.107
 3352SOL     OW10954   6.686   3.380   1.146
 3352SOL    HW110955   6.645   3.356   1.058
 3352SOL    HW210956   6.783   3.357   1.144
 3353SOL     OW10957   2.972   5.807   1.440
 3353SOL    HW110958   3.009   5.771   1.526
 3353SOL    HW210959   2.888   5.858   1.458
 3354SOL     OW10960   4.319   2.447   5.639
 3354SOL    HW110961   4.389   2.515   5.661
 3354SOL    HW210962   4.229   2.483   5.664
 3355SOL     OW10963   1.855   1.718   6.334
 3355SOL    HW110964   1.820   1.776   6.407
 3355SOL    HW210965   1.778   1.684   6.280
 3356SOL     OW10966   0.701   5.602   6.086
 3356SOL    HW110967   0.782   5.588   6.029
 3356SOL    HW210968   0.729   5.642   6.174
 3357SOL     OW10969   2.191   3.530   1.652
 3357SOL    HW110970   2.115   3.480   1.692
 3357SOL    HW210971   2.270   3.526   1.713
 3358SOL     OW10972   4.540   1.456   1.653
 3358SOL    HW110973   4.547   1.386   1.582
 3358SOL    HW210974   4.446   1.489   1.659
 3359SOL     OW10975   0.842   6.363   2.958
 3359SOL    HW110976   0.754   6.378   2.913
 3359SOL    HW210977   0.901   6.442   2.944
 3360SOL     OW10978   1.569   0.751   0.225
 3360SOL    HW110979   1.595   0.775   0.131
 3360SOL    HW210980   1.576   0.652   0.237
 3361SOL     OW10981   6.766   5.095   4.596
 3361SOL    HW110982   6.783   5.040   4.514
 3361SOL    HW210983   6.829   5.173   4.597
 3362SOL     OW10984   3.280   1.544   2.905
 3362SOL    HW110985   3.331   1.629   2.892
 3362SOL    HW210986   3.294   1.510   2.998
 3363SOL     OW10987   0.044   1.413   2.222
 3363SOL    HW110988   0.094   1.485   2.174
 3363SOL    HW210989   0.098   1.329   2.222
 3364SOL     OW10990   1.698   4.886   3.701
 3364SOL    HW110991   1.707   4.953   3.775
 3364SOL    HW210992   1.755   4.915   3.624
 3365SOL     OW10993   0.459   2.290   4.843
 3365SOL    HW110994   0.497   2.380   4.820
 3365SOL    HW210995   0.391   2.265   4.774
 3366SOL     OW10996   5.497   5.082   4.172
 3366SOL    HW110997   5.436   5.065   4.094
 3366SOL    HW210998   5.499   5.180   4.192
 3367SOL     OW10999   3.800   2.974   2.633
 3367SOL    HW111000   3.703   2.957   2.649
 3367SOL    HW211001   3.848   2.975   2.721
 3368SOL     OW11002   0.481   5.797   6.905
 3368SOL    HW111003   0.391   5.825   6.872
 3368SOL    HW211004   0.506   5.709   6.866
 3369SOL     OW11005   3.735   1.663   0.541
 3369SOL    HW111006   3.731   1.568   0.571
 3369SOL    HW211007   3.643   1.694   0.516
 3370SOL     OW11008   0.032   6.196   1.130
 3370SOL    HW111009   0.010   6.236   1.041
 3370SOL    HW211010   6.975   6.212   1.193
 3371SOL     OW11011   1.995   3.213   1.555
 3371SOL    HW111012   2.077   3.221   1.612
 3371SOL    HW211013   1.942   3.133   1.584
 3372SOL     OW11014   6.652   2.075   0.039
 3372SOL    HW111015   6.658   2.084   6.958
 3372SOL    HW211016   6.647   1.978   0.063
 3373SOL     OW11017   0.900   1.557   3.797
 3373SOL    HW111018   0.857   1.625   3.736
 3373SOL    HW211019   0.898   1.591   3.891
 3374SOL     OW11020   1.295   6.712   4.542
 3374SOL    HW111021   1.211   6.691   4.592
 3374SOL    HW211022   1.359   6.636   4.550
 3375SOL     OW11023   0.291   4.704   0.354
 3375SOL    HW111024   0.334   4.715   0.264
 3375SOL    HW211025   0.246   4.789   0.380
 3376SOL     OW11026   3.864   2.985   4.659
 3376SOL    HW111027   3.955   2.958   4.688
 3376SOL    HW211028   3.810   3.013   4.738
 3377SOL     OW11029   6.434   5.779   6.034
 3377SOL    HW111030   6.351   5.834   6.046
 3377SOL    HW211031   6.462   5.742   6.123
 3378SOL     OW11032   1.113   0.105   0.721
 3378SOL    HW111033   1.154   0.050   0.793
 3378SOL    HW211034   1.170   0.185   0.704
 3379SOL     OW11035   1.341   1.711   5.314
 3379SOL    HW111036   1.316   1.707   5.411
 3379SOL    HW211037   1.293   1.638   5.265
 3380SOL     OW11038   6.017   6.072   4.445
 3380SOL    HW111039   6.112   6.092   4.467
 3380SOL    HW211040   5.988   5.989   4.493
 3381SOL     OW11041   0.908   2.991   1.707
 3381SOL    HW111042   0.972   3.030   1.641
 3381SOL    HW211043   0.834   2.944   1.658
 3382SOL     OW11044   0.558   2.905   6.910
 3382SOL    HW111045   0.562   2.918   7.009
 3382SOL    HW211046   0.466   2.876   6.883
 3383SOL     OW11047   3.847   5.767   1.568
 3383SOL    HW111048   3.903   5.820   1.503
 3383SOL    HW211049   3.859   5.804   1.660
 3384SOL     OW11050   2.435   3.366   0.531
 3384SOL    HW111051   2.453   3.413   0.617
 3384SOL    HW211052   2.374   3.288   0.547
 3385SOL     OW11053   6.704   3.070   4.869
 3385SOL    HW111054   6.764   3.007   4.919
 3385SOL    HW211055   6.673   3.143   4.931
 3386SOL     OW11056   5.386   4.089   0.346
 3386SOL    HW111057   5.435   4.005   0.321
 3386SOL    HW211058   5.443   4.145   0.406
 3387SOL     OW11059   3.506   0.866   3.111
 3387SOL    HW111060   3.499   0.890   3.014
 3387SOL    HW211061   3.602   0.849   3.134
 3388SOL     OW11062   5.260   3.207   2.601
 3388SOL    HW111063   5.169   3.248   2.608
 3388SOL    HW211064   5.252   3.113   2.569
 3389SOL     OW11065   5.933   5.942   6.043
 3389SOL    HW111066   5.893   5.874   5.982
 3389SOL    HW211067   5.893   6.032   6.024
 3390SOL     OW11068   5.826   6.812   6.427
 3390SOL    HW111069   5.748   6.811   6.364
 3390SOL    HW211070   5.851   6.718   6.450
 3391SOL     OW11071   4.712   1.871   4.423
 3391SOL    HW111072   4.644   1.839   4.357
 3391SOL    HW211073   4.773   1.937   4.380
 3392SOL     OW11074   2.935   6.939   3.784
 3392SOL    HW111075   2.915   6.964   3.879
 3392SOL    HW211076   2.857   6.965   3.726
 3393SOL     OW11077   6.451   5.894   0.949
 3393SOL    HW111078   6.498   5.807   0.933
 3393SOL    HW211079   6.466   5.923   1.043
 3394SOL     OW11080   5.237   3.544   0.990
 3394SOL    HW111081   5.172   3.606   0.946
 3394SOL    HW211082   5.187   3.471   1.036
 3395SOL     OW11083   5.451   2.920   3.886
 3395SOL    HW111084   5.449   2.824   3.858
 3395SOL    HW211085   5.520   2.969   3.832
 3396SOL     OW11086   5.114   1.237   3.872
 3396SOL    HW111087   5.073   1.150   3.898
 3396SOL    HW211088   5.050   1.311   3.890
 3397SOL     OW11089   3.388   6.117   6.384
 3397SOL    HW111090   3.478   6.131   6.342
 3397SOL    HW211091   3.388   6.031   6.434
 3398SOL     OW11092   0.668   0.425   4.863
 3398SOL    HW111093   0.740   0.394   4.925
 3398SOL    HW211094   0.642   0.350   4.802
 3399SOL     OW11095   5.562   4.995   3.649
 3399SOL    HW111096   5.543   4.923   3.716
 3399SOL    HW211097   5.497   5.070   3.660
 3400SOL     OW11098   5.108   3.235   6.731
 3400SOL    HW111099   5.027   3.276   6.771
 3400SOL    HW211100   5.178   3.305   6.717
 3401SOL     OW11101   6.924   3.491   6.537
 3401SOL    HW111102   6.960   3.488   6.444
 3401SOL    HW211103   6.985   3.439   6.597
 3402SOL     OW11104   4.347   5.277   6.577
 3402SOL    HW111105   4.430   5.298   6.628
 3402SOL    HW211106   4.296   5.361   6.558
 3403SOL     OW11107   3.711   5.585   6.480
 3403SOL    HW111108   3.717   5.618   6.386
 3403SOL    HW211109   3.619   5.600   6.515
 3404SOL     OW11110   5.447   2.305   0.830
 3404SOL    HW111111   5.447   2.282   0.927
 3404SOL    HW211112   5.531   2.353   0.806
 3405SOL     OW11113   6.704   4.164   6.036
 3405SOL    HW111114   6.738   4.082   6.082
 3405SOL    HW211115   6.760   4.243   6.061
 3406SOL     OW11116   0.896   3.411   2.175
 3406SOL    HW111117   0.847   3.375   2.255
 3406SOL    HW211118   0.931   3.335   2.121
 3407SOL     OW11119   1.257   4.185   6.559
 3407SOL    HW111120   1.233   4.166   6.464
 3407SOL    HW211121   1.203   4.127   6.620
 3408SOL     OW11122   5.263   3.174   4.880
 3408SOL    HW111123   5.169   3.206   4.874
 3408SOL    HW211124   5.324   3.243   4.843
 3409SOL     OW11125   3.720   6.114   0.141
 3409SOL    HW111126   3.643   6.094   0.202
 3409SOL    HW211127   3.721   6.047   0.067
 3410SOL     OW11128   6.844   6.835   1.801
 3410SOL    HW111129   6.916   6.901   1.821
 3410SOL    HW211130   6.756   6.870   1.832
 3411SOL     OW11131   0.389   2.681   1.168
 3411SOL    HW111132   0.465   2.694   1.105
 3411SOL    HW211133   0.303   2.704   1.122
 3412SOL     OW11134   4.849   3.227   1.148
 3412SOL    HW111135   4.815   3.278   1.227
 3412SOL    HW211136   4.859   3.130   1.172
 3413SOL     OW11137   6.161   1.613   0.773
 3413SOL    HW111138   6.143   1.558   0.692
 3413SOL    HW211139   6.167   1.554   0.854
 3414SOL     OW11140   3.352   1.918   5.925
 3414SOL    HW111141   3.318   1.830   5.957
 3414SOL    HW211142   3.299   1.947   5.845
 3415SOL     OW11143   2.149   3.050   4.214
 3415SOL    HW111144   2.212   3.070   4.139
 3415SOL    HW211145   2.074   3.117   4.214
 3416SOL     OW11146   5.777   6.602   0.762
 3416SOL    HW111147   5.869   6.578   0.792
 3416SOL    HW211148   5.781   6.669   0.689
 3417SOL     OW11149   0.252   5.725   3.494
 3417SOL    HW111150   0.337   5.778   3.492
 3417SOL    HW211151   0.274   5.628   3.509
 3418SOL     OW11152   2.879   5.848   3.540
 3418SOL    HW111153   2.905   5.916   3.610
 3418SOL    HW211154   2.825   5.893   3.469
 3419SOL     OW11155   2.940   5.854   5.953
 3419SOL    HW111156   3.008   5.781   5.958
 3419SOL    HW211157   2.848   5.814   5.952
 3420SOL     OW11158   5.917   2.920   3.020
 3420SOL    HW111159   5.893   2.947   3.113
 3420SOL    HW211160   5.864   2.839   2.994
 3421SOL     OW11161   4.918   2.003   4.317
 3421SOL    HW111162   4.887   1.991   4.223
 3421SOL    HW211163   5.018   2.000   4.320
 3422SOL     OW11164   2.898   0.336   0.265
 3422SOL    HW111165   2.964   0.273   0.306
 3422SOL    HW211166   2.814   0.336   0.319
 3423SOL     OW11167   0.027   4.646   6.660
 3423SOL    HW111168   6.998   4.570   6.616
 3423SOL    HW211169   0.126   4.630   6.656
 3424SOL     OW11170   1.987   6.542   1.042
 3424SOL    HW111171   1.940   6.505   1.122
 3424SOL    HW211172   2.064   6.484   1.018
 3425SOL     OW11173   5.047   4.854   2.084
 3425SOL    HW111174   4.955   4.891   2.100
 3425SOL    HW211175   5.040   4.774   2.024
 3426SOL     OW11176   4.204   2.539   0.874
 3426SOL    HW111177   4.194   2.557   0.776
 3426SOL    HW211178   4.281   2.476   0.887
 3427SOL     OW11179   0.829   1.710   0.963
 3427SOL    HW111180   0.871   1.627   1.000
 3427SOL    HW211181   0.875   1.737   0.878
 3428SOL     OW11182   2.458   5.161   0.156
 3428SOL    HW111183   2.480   5.156   0.254
 3428SOL    HW211184   2.402   5.082   0.131
 3429SOL     OW11185   0.143   1.909   1.143
 3429SOL    HW111186   0.099   1.998   1.156
 3429SOL    HW211187   0.166   1.870   1.232
 3430SOL     OW11188   1.589   6.442   5.606
 3430SOL    HW111189   1.572   6.353   5.562
 3430SOL    HW211190   1.630   6.504   5.539
 3431SOL     OW11191   1.216   6.567   1.666
 3431SOL    HW111192   1.313   6.544   1.677
 3431SOL    HW211193   1.194   6.646   1.723
 3432SOL     OW11194   1.711   3.495   5.227
 3432SOL    HW111195   1.716   3.513   5.129
 3432SOL    HW211196   1.743   3.402   5.245
 3433SOL     OW11197   1.525   0.104   5.009
 3433SOL    HW111198   1.576   0.189   5.019
 3433SOL    HW211199   1.570   0.032   5.063
 3434SOL     OW11200   4.297   1.018   2.111
 3434SOL    HW111201   4.234   1.077   2.061
 3434SOL    HW211202   4.335   0.949   2.048
 3435SOL     OW11203   1.570   1.027   1.157
 3435SOL    HW111204   1.666   1.045   1.137
 3435SOL    HW211205   1.539   0.948   1.103
 3436SOL     OW11206   3.955   6.100   0.267
 3436SOL    HW111207   3.879   6.112   0.203
 3436SOL    HW211208   3.920   6.091   0.360
 3437SOL     OW11209   2.943   0.092   5.684
 3437SOL    HW111210   2.964   0.160   5.613
 3437SOL    HW211211   2.845   0.090   5.700
 3438SOL     OW11212   1.088   2.955   0.987
 3438SOL    HW111213   1.005   2.918   0.945
 3438SOL    HW211214   1.114   3.039   0.941
 3439SOL     OW11215   2.581   6.142   4.526
 3439SOL    HW111216   2.625   6.228   4.499
 3439SOL    HW211217   2.619   6.067   4.472
 3440SOL     OW11218   2.833   3.181   1.876
 3440SOL    HW111219   2.824   3.278   1.898
 3440SOL    HW211220   2.929   3.155   1.880
 3441SOL     OW11221   6.511   5.700   6.395
 3441SOL    HW111222   6.518   5.800   6.395
 3441SOL    HW211223   6.595   5.661   6.433
 3442SOL     OW11224   2.080   4.353   1.703
 3442SOL    HW111225   2.015   4.429   1.710
 3442SOL    HW211226   2.049   4.289   1.633
 3443SOL     OW11227   3.479   6.191   2.223
 3443SOL    HW111228   3.399   6.242   2.192
 3443SOL    HW211229   3.461   6.152   2.314
 3444SOL     OW11230   4.824   5.246   6.932
 3444SOL    HW111231   4.811   5.326   6.873
 3444SOL    HW211232   4.811   5.272   0.008
 3445SOL     OW11233   5.988   5.167   2.885
 3445SOL    HW111234   5.977   5.126   2.976
 3445SOL    HW211235   6.085   5.183   2.867
 3446SOL     OW11236   6.066   0.939   1.544
 3446SOL    HW111237   5.987   0.878   1.537
 3446SOL    HW211238   6.042   1.017   1.603
 3447SOL     OW11239   4.855   5.805   1.023
 3447SOL    HW111240   4.804   5.796   1.108
 3447SOL    HW211241   4.926   5.735   1.019
 3448SOL     OW11242   4.109   0.232   6.531
 3448SOL    HW111243   4.046   0.200   6.460
 3448SOL    HW211244   4.120   0.331   6.525
 3449SOL     OW11245   6.254   5.218   4.709
 3449SOL    HW111246   6.187   5.218   4.635
 3449SOL    HW211247   6.335   5.269   4.680
 3450SOL     OW11248   0.621   2.109   6.905
 3450SOL    HW111249   0.681   2.159   6.967
 3450SOL    HW211250   0.633   2.011   6.919
 3451SOL     OW11251   2.471   6.346   6.990
 3451SOL    HW111252   2.514   6.383   6.908
 3451SOL    HW211253   2.496   6.250   7.000
 3452SOL     OW11254   5.441   0.901   6.781
 3452SOL    HW111255   5.371   0.948   6.834
 3452SOL    HW211256   5.475   0.962   6.709
 3453SOL     OW11257   6.034   6.064   6.440
 3453SOL    HW111258   6.011   6.117   6.522
 3453SOL    HW211259   6.057   5.970   6.466
 3454SOL     OW11260   1.039   3.059   5.094
 3454SOL    HW111261   1.033   3.139   5.034
 3454SOL    HW211262   0.979   3.071   5.172
 3455SOL     OW11263   2.517   2.076   4.472
 3455SOL    HW111264   2.488   2.172   4.467
 3455SOL    HW211265   2.454   2.019   4.420
 3456SOL     OW11266   5.582   5.148   1.598
 3456SOL    HW111267   5.678   5.130   1.622
 3456SOL    HW211268   5.531   5.173   1.680
 3457SOL     OW11269   2.951   5.711   3.275
 3457SOL    HW111270   2.962   5.801   3.234
 3457SOL    HW211271   3.019   5.699   3.348
 3458SOL     OW11272   4.652   0.908   1.955
 3458SOL    HW111273   4.576   0.964   1.924
 3458SOL    HW211274   4.707   0.878   1.877
 3459SOL     OW11275   5.237   2.743   2.943
 3459SOL    HW111276   5.195   2.723   2.854
 3459SOL    HW211277   5.167   2.774   3.007
 3460SOL     OW11278   2.353   2.100   6.946
 3460SOL    HW111279   2.294   2.059   6.876
 3460SOL    HW211280   2.436   2.136   6.902
 3461SOL     OW11281   4.659   4.070   6.323
 3461SOL    HW111282   4.723   4.044   6.395
 3461SOL    HW211283   4.707   4.070   6.235
 3462SOL     OW11284   0.648   3.479   4.905
 3462SOL    HW111285   0.716   3.419   4.863
 3462SOL    HW211286   0.594   3.427   4.971
 3463SOL     OW11287   1.046   4.387   1.952
 3463SOL    HW111288   1.101   4.460   1.912
 3463SOL    HW211289   1.037   4.312   1.887
 3464SOL     OW11290   0.085   4.919   5.646
 3464SOL    HW111291   0.126   5.005   5.676
 3464SOL    HW211292   0.153   4.866   5.596
 3465SOL     OW11293   1.644   2.006   2.441
 3465SOL    HW111294   1.718   2.008   2.373
 3465SOL    HW211295   1.655   1.926   2.500
 3466SOL     OW11296   6.216   5.294   6.567
 3466SOL    HW111297   6.292   5.359   6.561
 3466SOL    HW211298   6.251   5.201   6.571
 3467SOL     OW11299   1.891   3.005   6.832
 3467SOL    HW111300   1.983   2.978   6.861
 3467SOL    HW211301   1.864   3.087   6.883
 3468SOL     OW11302   4.313   6.834   3.052
 3468SOL    HW111303   4.377   6.886   2.996
 3468SOL    HW211304   4.333   6.737   3.045
 3469SOL     OW11305   5.278   0.299   3.311
 3469SOL    HW111306   5.212   0.367   3.279
 3469SOL    HW211307   5.350   0.344   3.363
 3470SOL     OW11308   6.017   3.917   0.855
 3470SOL    HW111309   6.041   3.918   0.758
 3470SOL    HW211310   6.085   3.864   0.906
 3471SOL     OW11311   3.589   4.991   4.043
 3471SOL    HW111312   3.582   4.926   3.968
 3471SOL    HW211313   3.530   5.070   4.024
 3472SOL     OW11314   2.467   0.693   2.276
 3472SOL    HW111315   2.535   0.620   2.274
 3472SOL    HW211316   2.404   0.682   2.200
 3473SOL     OW11317   0.468   2.416   0.651
 3473SOL    HW111318   0.544   2.391   0.591
 3473SOL    HW211319   0.494   2.401   0.746
 3474SOL     OW11320   2.391   4.879   1.669
 3474SOL    HW111321   2.410   4.888   1.767
 3474SOL    HW211322   2.360   4.786   1.649
 3475SOL     OW11323   1.166   5.435   5.179
 3475SOL    HW111324   1.241   5.449   5.114
 3475SOL    HW211325   1.155   5.517   5.235
 3476SOL     OW11326   3.354   2.041   3.065
 3476SOL    HW111327   3.288   2.105   3.026
 3476SOL    HW211328   3.413   2.088   3.130
 3477SOL     OW11329   3.409   5.115   0.574
 3477SOL    HW111330   3.429   5.129   0.671
 3477SOL    HW211331   3.363   5.027   0.562
 3478SOL     OW11332   2.308   6.150   4.582
 3478SOL    HW111333   2.292   6.058   4.619
 3478SOL    HW211334   2.405   6.161   4.559
 3479SOL     OW11335   1.616   0.747   2.547
 3479SOL    HW111336   1.640   0.804   2.625
 3479SOL    HW211337   1.533   0.696   2.567
 3480SOL     OW11338   0.096   0.086   5.342
 3480SOL    HW111339   0.102   0.069   5.440
 3480SOL    HW211340   0.150   0.018   5.292
 3481SOL     OW11341   5.215   0.283   0.253
 3481SOL    HW111342   5.290   0.301   0.317
 3481SOL    HW211343   5.213   0.186   0.231
 3482SOL     OW11344   5.833   1.706   1.263
 3482SOL    HW111345   5.831   1.657   1.350
 3482SOL    HW211346   5.838   1.641   1.188
 3483SOL     OW11347   4.702   1.096   1.678
 3483SOL    HW111348   4.605   1.090   1.702
 3483SOL    HW211349   4.711   1.140   1.589
 3484SOL     OW11350   2.989   3.568   1.423
 3484SOL    HW111351   2.995   3.484   1.476
 3484SOL    HW211352   3.013   3.550   1.328
 3485SOL     OW11353   1.299   0.261   4.175
 3485SOL    HW111354   1.276   0.276   4.272
 3485SOL    HW211355   1.336   0.169   4.164
 3486SOL     OW11356   2.962   1.525   2.468
 3486SOL    HW111357   3.024   1.491   2.539
 3486SOL    HW211358   2.916   1.608   2.499
 3487SOL     OW11359   5.830   2.726   5.451
 3487SOL    HW111360   5.912   2.736   5.396
 3487SOL    HW211361   5.854   2.688   5.541
 3488SOL     OW11362   6.131   2.339   4.238
 3488SOL    HW111363   6.069   2.416   4.253
 3488SOL    HW211364   6.121   2.305   4.144
 3489SOL     OW11365   2.956   6.740   0.612
 3489SOL    HW111366   2.905   6.774   0.533
 3489SOL    HW211367   2.893   6.692   0.674
 3490SOL     OW11368   4.283   4.942   6.889
 3490SOL    HW111369   4.203   4.881   6.893
 3490SOL    HW211370   4.317   4.947   6.796
 3491SOL     OW11371   6.006   2.317   5.215
 3491SOL    HW111372   5.955   2.259   5.279
 3491SOL    HW211373   6.072   2.260   5.166
 3492SOL     OW11374   0.929   5.712   1.287
 3492SOL    HW111375   0.854   5.775   1.306
 3492SOL    HW211376   1.007   5.734   1.346
 3493SOL     OW11377   6.274   4.929   6.709
 3493SOL    HW111378   6.370   4.903   6.719
 3493SOL    HW211379   6.215   4.853   6.736
 3494SOL     OW11380   3.770   0.911   1.783
 3494SOL    HW111381   3.844   0.866   1.734
 3494SOL    HW211382   3.716   0.843   1.832
 3495SOL     OW11383   4.575   5.059   2.068
 3495SOL    HW111384   4.512   5.116   2.015
 3495SOL    HW211385   4.528   5.021   2.148
 3496SOL     OW11386   0.013   3.964   0.719
 3496SOL    HW111387   6.954   3.973   0.657
 3496SOL    HW211388   0.048   3.871   0.715
 3497SOL     OW11389   3.891   6.943   3.963
 3497SOL    HW111390   3.797   6.971   3.987
 3497SOL    HW211391   3.910   6.970   3.869
 3498SOL     OW11392   1.952   2.816   0.541
 3498SOL    HW111393   1.944   2.739   0.477
 3498SOL    HW211394   2.035   2.868   0.520
 3499SOL     OW11395   4.785   2.710   4.640
 3499SOL    HW111396   4.788   2.733   4.737
 3499SOL    HW211397   4.839   2.627   4.624
 3500SOL     OW11398   1.231   4.103   4.842
 3500SOL    HW111399   1.280   4.078   4.926
 3500SOL    HW211400   1.219   4.022   4.784
 3501SOL     OW11401   1.388   5.324   3.973
 3501SOL    HW111402   1.301   5.280   3.950
 3501SOL    HW211403   1.461   5.255   3.972
 3502SOL     OW11404   6.650   2.369   2.135
 3502SOL    HW111405   6.571   2.308   2.139
 3502SOL    HW211406   6.732   2.321   2.165
 3503SOL     OW11407   6.381   5.778   5.081
 3503SOL    HW111408   6.348   5.715   5.151
 3503SOL    HW211409   6.321   5.771   5.001
 3504SOL     OW11410   2.095   1.791   1.208
 3504SOL    HW111411   2.117   1.888   1.196
 3504SOL    HW211412   2.145   1.737   1.141
 3505SOL     OW11413   5.562   4.926   5.009
 3505SOL    HW111414   5.515   4.869   5.077
 3505SOL    HW211415   5.497   4.952   4.937
 3506SOL     OW11416   5.046   6.705   5.285
 3506SOL    HW111417   5.077   6.657   5.367
 3506SOL    HW211418   4.967   6.656   5.246
 3507SOL     OW11419   2.505   0.719   0.219
 3507SOL    HW111420   2.488   0.799   0.162
 3507SOL    HW211421   2.499   0.636   0.163
 3508SOL     OW11422   2.872   2.638   6.055
 3508SOL    HW111423   2.846   2.647   5.959
 3508SOL    HW211424   2.892   2.542   6.075
 3509SOL     OW11425   5.273   0.185   6.552
 3509SOL    HW111426   5.183   0.220   6.578
 3509SOL    HW211427   5.262   0.107   6.490
 3510SOL     OW11428   1.951   2.393   1.435
 3510SOL    HW111429   2.045   2.376   1.403
 3510SOL    HW211430   1.945   2.371   1.532
 3511SOL     OW11431   2.167   4.688   0.263
 3511SOL    HW111432   2.082   4.727   0.298
 3511SOL    HW211433   2.243   4.715   0.323
 3512SOL     OW11434   6.629   4.191   0.969
 3512SOL    HW111435   6.599   4.205   0.875
 3512SOL    HW211436   6.641   4.094   0.987
 3513SOL     OW11437   6.242   4.073   0.022
 3513SOL    HW111438   6.175   4.014   6.996
 3513SOL    HW211439   6.206   4.166   0.026
 3514SOL     OW11440   6.967   1.156   1.994
 3514SOL    HW111441   6.876   1.185   2.022
 3514SOL    HW211442   6.974   1.057   1.999
 3515SOL     OW11443   4.751   6.284   3.108
 3515SOL    HW111444   4.739   6.320   3.201
 3515SOL    HW211445   4.754   6.184   3.110
 3516SOL     OW11446   4.352   6.905   1.056
 3516SOL    HW111447   4.329   6.918   0.960
 3516SOL    HW211448   4.447   6.877   1.064
 3517SOL     OW11449   1.228   2.251   0.592
 3517SOL    HW111450   1.261   2.191   0.664
 3517SOL    HW211451   1.299   2.263   0.522
 3518SOL     OW11452   5.665   3.955   4.679
 3518SOL    HW111453   5.644   3.988   4.771
 3518SOL    HW211454   5.739   4.010   4.641
 3519SOL     OW11455   1.748   0.554   6.659
 3519SOL    HW111456   1.677   0.550   6.729
 3519SOL    HW211457   1.715   0.606   6.580
 3520SOL     OW11458   3.074   4.559   6.775
 3520SOL    HW111459   2.999   4.509   6.818
 3520SOL    HW211460   3.124   4.499   6.713
 3521SOL     OW11461   5.481   3.089   1.084
 3521SOL    HW111462   5.557   3.030   1.111
 3521SOL    HW211463   5.394   3.043   1.103
 3522SOL     OW11464   4.888   5.248   1.856
 3522SOL    HW111465   4.986   5.269   1.852
 3522SOL    HW211466   4.859   5.236   1.951
 3523SOL     OW11467   2.505   4.759   5.783
 3523SOL    HW111468   2.494   4.814   5.866
 3523SOL    HW211469   2.507   4.662   5.806
 3524SOL     OW11470   2.590   1.197   1.006
 3524SOL    HW111471   2.521   1.185   1.078
 3524SOL    HW211472   2.652   1.271   1.031
 3525SOL     OW11473   0.467   4.132   2.331
 3525SOL    HW111474   0.410   4.063   2.288
 3525SOL    HW211475   0.558   4.132   2.289
 3526SOL     OW11476   2.298   5.697   3.542
 3526SOL    HW111477   2.331   5.791   3.554
 3526SOL    HW211478   2.364   5.634   3.582
 3527SOL     OW11479   6.182   3.759   6.060
 3527SOL    HW111480   6.135   3.744   5.973
 3527SOL    HW211481   6.221   3.851   6.062
 3528SOL     OW11482   1.300   5.243   3.460
 3528SOL    HW111483   1.337   5.203   3.544
 3528SOL    HW211484   1.292   5.171   3.391
 3529SOL     OW11485   5.088   0.352   5.327
 3529SOL    HW111486   5.188   0.353   5.328
 3529SOL    HW211487   5.057   0.264   5.290
 3530SOL     OW11488   2.401   4.447   3.164
 3530SOL    HW111489   2.392   4.373   3.231
 3530SOL    HW211490   2.488   4.494   3.178
 3531SOL     OW11491   4.853   4.549   1.157
 3531SOL    HW111492   4.782   4.481   1.144
 3531SOL    HW211493   4.882   4.549   1.253
 3532SOL     OW11494   2.309   0.164   0.336
 3532SOL    HW111495   2.281   0.176   0.431
 3532SOL    HW211496   2.261   0.086   0.297
 3533SOL     OW11497   1.239   2.299   2.565
 3533SOL    HW111498   1.219   2.269   2.658
 3533SOL    HW211499   1.214   2.227   2.501
 3534SOL     OW11500   6.726   0.932   5.060
 3534SOL    HW111501   6.719   1.029   5.038
 3534SOL    HW211502   6.687   0.915   5.150
 3535SOL     OW11503   6.536   5.779   0.347
 3535SOL    HW111504   6.495   5.778   0.256
 3535SOL    HW211505   6.468   5.810   0.413
 3536SOL     OW11506   2.363   2.644   3.466
 3536SOL    HW111507   2.344   2.731   3.511
 3536SOL    HW211508   2.459   2.619   3.478
 3537SOL     OW11509   2.599   5.032   0.380
 3537SOL    HW111510   2.691   4.995   0.364
 3537SOL    HW211511   2.600   5.087   0.463
 3538SOL     OW11512   2.959   0.286   4.549
 3538SOL    HW111513   2.998   0.365   4.502
 3538SOL    HW211514   2.870   0.263   4.510
 3539SOL     OW11515   6.010   3.425   6.604
 3539SOL    HW111516   6.041   3.504   6.656
 3539SOL    HW211517   6.043   3.341   6.647
 3540SOL     OW11518   1.917   1.560   5.317
 3540SOL    HW111519   1.917   1.582   5.220
 3540SOL    HW211520   1.904   1.643   5.370
 3541SOL     OW11521   3.188   2.931   6.689
 3541SOL    HW111522   3.161   2.858   6.752
 3541SOL    HW211523   3.211   3.013   6.741
 3542SOL     OW11524   0.286   3.200   1.334
 3542SOL    HW111525   0.315   3.172   1.243
 3542SOL    HW211526   0.311   3.296   1.349
 3543SOL     OW11527   1.387   3.538   5.194
 3543SOL    HW111528   1.369   3.636   5.189
 3543SOL    HW211529   1.485   3.522   5.193
 3544SOL     OW11530   1.958   4.609   6.358
 3544SOL    HW111531   2.029   4.632   6.292
 3544SOL    HW211532   1.871   4.646   6.328
 3545SOL     OW11533   3.495   5.228   6.498
 3545SOL    HW111534   3.424   5.173   6.543
 3545SOL    HW211535   3.472   5.239   6.402
 3546SOL     OW11536   6.643   4.869   3.283
 3546SOL    HW111537   6.657   4.822   3.370
 3546SOL    HW211538   6.715   4.842   3.218
 3547SOL     OW11539   6.679   4.126   4.470
 3547SOL    HW111540   6.642   4.151   4.559
 3547SOL    HW211541   6.683   4.207   4.411
 3548SOL     OW11542   5.300   0.180   6.156
 3548SOL    HW111543   5.367   0.255   6.159
 3548SOL    HW211544   5.323   0.118   6.081
 3549SOL     OW11545   1.512   4.546   6.261
 3549SOL    HW111546   1.453   4.474   6.225
 3549SOL    HW211547   1.488   4.565   6.356
 3550SOL     OW11548   6.292   2.443   4.968
 3550SOL    HW111549   6.268   2.358   5.014
 3550SOL    HW211550   6.377   2.430   4.916
 3551SOL     OW11551   3.950   1.247   3.944
 3551SOL    HW111552   4.044   1.277   3.964
 3551SOL    HW211553   3.892   1.269   4.022
 3552SOL     OW11554   6.385   6.810   1.986
 3552SOL    HW111555   6.330   6.881   2.029
 3552SOL    HW211556   6.359   6.721   2.024
 3553SOL     OW11557   3.819   5.830   0.320
 3553SOL    HW111558   3.747   5.899   0.319
 3553SOL    HW211559   3.837   5.798   0.227
 3554SOL     OW11560   4.157   2.960   0.677
 3554SOL    HW111561   4.183   3.050   0.711
 3554SOL    HW211562   4.211   2.938   0.595
 3555SOL     OW11563   0.488   3.317   3.948
 3555SOL    HW111564   0.574   3.309   3.897
 3555SOL    HW211565   0.476   3.411   3.980
 3556SOL     OW11566   3.893   0.864   4.097
 3556SOL    HW111567   3.801   0.868   4.058
 3556SOL    HW211568   3.898   0.792   4.165
 3557SOL     OW11569   1.586   6.999   4.267
 3557SOL    HW111570   1.682   6.972   4.278
 3557SOL    HW211571   1.536   6.978   4.351
 3558SOL     OW11572   1.654   4.960   1.674
 3558SOL    HW111573   1.669   5.057   1.692
 3558SOL    HW211574   1.618   4.916   1.756
 3559SOL     OW11575   1.140   6.157   5.010
 3559SOL    HW111576   1.069   6.153   4.940
 3559SOL    HW211577   1.100   6.182   5.098
 3560SOL     OW11578   2.147   4.815   2.497
 3560SOL    HW111579   2.158   4.909   2.464
 3560SOL    HW211580   2.182   4.751   2.429
 3561SOL     OW11581   5.048   4.263   5.497
 3561SOL    HW111582   5.088   4.174   5.475
 3561SOL    HW211583   4.961   4.272   5.449
 3562SOL     OW11584   2.866   1.396   3.469
 3562SOL    HW111585   2.925   1.333   3.418
 3562SOL    HW211586   2.835   1.469   3.408
 3563SOL     OW11587   6.690   1.882   6.758
 3563SOL    HW111588   6.765   1.816   6.749
 3563SOL    HW211589   6.623   1.848   6.824
 3564SOL     OW11590   0.622   4.776   2.650
 3564SOL    HW111591   0.617   4.677   2.633
 3564SOL    HW211592   0.599   4.795   2.745
 3565SOL     OW11593   3.284   5.940   4.150
 3565SOL    HW111594   3.359   5.915   4.089
 3565SOL    HW211595   3.283   6.040   4.162
 3566SOL     OW11596   6.427   2.390   6.446
 3566SOL    HW111597   6.467   2.475   6.414
 3566SOL    HW211598   6.330   2.387   6.420
 3567SOL     OW11599   0.669   2.558   0.329
 3567SOL    HW111600   0.727   2.637   0.345
 3567SOL    HW211601   0.688   2.521   0.238
 3568SOL     OW11602   5.115   4.566   4.642
 3568SOL    HW111603   5.194   4.522   4.684
 3568SOL    HW211604   5.117   4.553   4.543
 3569SOL     OW11605   2.670   3.030   6.384
 3569SOL    HW111606   2.705   2.943   6.351
 3569SOL    HW211607   2.744   3.080   6.430
 3570SOL     OW11608   5.384   0.407   6.692
 3570SOL    HW111609   5.366   0.327   6.635
 3570SOL    HW211610   5.460   0.387   6.754
 3571SOL     OW11611   0.696   5.450   6.355
 3571SOL    HW111612   0.771   5.442   6.288
 3571SOL    HW211613   0.635   5.525   6.328
 3572SOL     OW11614   5.589   4.222   3.059
 3572SOL    HW111615   5.493   4.244   3.075
 3572SOL    HW211616   5.601   4.193   2.964
 3573SOL     OW11617   0.522   4.641   3.791
 3573SOL    HW111618   0.600   4.672   3.847
 3573SOL    HW211619   0.547   4.556   3.744
 3574SOL     OW11620   0.440   4.372   0.810
 3574SOL    HW111621   0.368   4.343   0.873
 3574SOL    HW211622   0.403   4.438   0.745
 3575SOL     OW11623   5.112   4.561   2.890
 3575SOL    HW111624   5.170   4.590   2.814
 3575SOL    HW211625   5.082   4.642   2.941
 3576SOL     OW11626   1.293   1.675   5.588
 3576SOL    HW111627   1.340   1.726   5.660
 3576SOL    HW211628   1.200   1.710   5.577
 3577SOL     OW11629   1.300   2.990   6.141
 3577SOL    HW111630   1.254   3.074   6.170
 3577SOL    HW211631   1.372   3.012   6.076
 3578SOL     OW11632   2.957   2.531   0.786
 3578SOL    HW111633   2.961   2.479   0.871
 3578SOL    HW211634   2.894   2.486   0.722
 3579SOL     OW11635   5.820   3.573   5.334
 3579SOL    HW111636   5.786   3.515   5.260
 3579SOL    HW211637   5.886   3.522   5.389
 3580SOL     OW11638   5.958   2.947   1.582
 3580SOL    HW111639   5.860   2.967   1.579
 3580SOL    HW211640   5.979   2.872   1.519
 3581SOL     OW11641   0.705   6.024   3.551
 3581SOL    HW111642   0.730   6.004   3.457
 3581SOL    HW211643   0.740   6.114   3.577
 3582SOL     OW11644   0.866   2.206   5.629
 3582SOL    HW111645   0.864   2.280   5.696
 3582SOL    HW211646   0.942   2.219   5.566
 3583SOL     OW11647   1.445   3.282   6.273
 3583SOL    HW111648   1.473   3.378   6.272
 3583SOL    HW211649   1.362   3.271   6.219
 3584SOL     OW11650   5.681   5.417   6.812
 3584SOL    HW111651   5.716   5.420   6.718
 3584SOL    HW211652   5.758   5.414   6.876
 3585SOL     OW11653   4.426   6.639   5.225
 3585SOL    HW111654   4.370   6.704   5.276
 3585SOL    HW211655   4.512   6.683   5.199
 3586SOL     OW11656   0.596   2.306   5.588
 3586SOL    HW111657   0.562   2.349   5.504
 3586SOL    HW211658   0.694   2.291   5.580
 3587SOL     OW11659   3.067   5.209   6.882
 3587SOL    HW111660   3.042   5.222   6.978
 3587SOL    HW211661   2.985   5.185   6.829
 3588SOL     OW11662   0.848   2.614   5.315
 3588SOL    HW111663   0.934   2.660   5.295
 3588SOL    HW211664   0.826   2.625   5.412
 3589SOL     OW11665   3.730   2.070   4.889
 3589SOL    HW111666   3.647   2.031   4.929
 3589SOL    HW211667   3.717   2.083   4.790
 3590SOL     OW11668   1.485   2.860   6.865
 3590SOL    HW111669   1.545   2.872   6.944
 3590SOL    HW211670   1.517   2.918   6.789
 3591SOL     OW11671   4.977   3.625   6.639
 3591SOL    HW111672   5.022   3.702   6.685
 3591SOL    HW211673   5.006   3.621   6.543
 3592SOL     OW11674   6.632   4.081   1.873
 3592SOL    HW111675   6.612   4.027   1.791
 3592SOL    HW211676   6.632   4.178   1.849
 3593SOL     OW11677   1.742   5.964   4.783
 3593SOL    HW111678   1.807   5.991   4.854
 3593SOL    HW211679   1.656   5.937   4.825
 3594SOL     OW11680   4.679   0.519   3.220
 3594SOL    HW111681   4.715   0.561   3.137
 3594SOL    HW211682   4.587   0.554   3.238
 3595SOL     OW11683   2.319   5.814   0.075
 3595SOL    HW111684   2.280   5.898   0.113
 3595SOL    HW211685   2.252   5.772   0.013
 3596SOL     OW11686   6.930   1.862   3.269
 3596SOL    HW111687   6.865   1.828   3.336
 3596SOL    HW211688   6.883   1.876   3.182
 3597SOL     OW11689   2.122   1.289   4.264
 3597SOL    HW111690   2.172   1.369   4.297
 3597SOL    HW211691   2.132   1.213   4.329
 3598SOL     OW11692   1.257   6.009   6.292
 3598SOL    HW111693   1.339   5.957   6.315
 3598SOL    HW211694   1.254   6.026   6.193
 3599SOL     OW11695   0.711   2.148   5.886
 3599SOL    HW111696   0.755   2.236   5.869
 3599SOL    HW211697   0.709   2.095   5.801
 3600SOL     OW11698   0.607   3.889   0.301
 3600SOL    HW111699   0.662   3.843   0.371
 3600SOL    HW211700   0.604   3.987   0.320
 3601SOL     OW11701   5.448   4.618   6.256
 3601SOL    HW111702   5.349   4.615   6.242
 3601SOL    HW211703   5.494   4.622   6.167
 3602SOL     OW11704   1.652   2.947   1.072
 3602SOL    HW111705   1.668   2.973   0.976
 3602SOL    HW211706   1.723   2.987   1.129
 3603SOL     OW11707   3.532   6.960   3.805
 3603SOL    HW111708   3.468   7.010   3.747
 3603SOL    HW211709   3.537   6.865   3.775
 3604SOL     OW11710   6.888   4.413   2.880
 3604SOL    HW111711   6.962   4.477   2.861
 3604SOL    HW211712   6.919   4.319   2.867
 3605SOL     OW11713   5.783   4.204   5.296
 3605SOL    HW111714   5.867   4.245   5.262
 3605SOL    HW211715   5.793   4.184   5.393
 3606SOL     OW11716   6.989   6.651   5.723
 3606SOL    HW111717   6.974   6.668   5.626
 3606SOL    HW211718   6.964   6.556   5.744
 3607SOL     OW11719   5.620   6.058   1.194
 3607SOL    HW111720   5.615   5.958   1.197
 3607SOL    HW211721   5.541   6.094   1.144
 3608SOL     OW11722   5.764   1.310   3.534
 3608SOL    HW111723   5.687   1.308   3.598
 3608SOL    HW211724   5.786   1.405   3.512
 3609SOL     OW11725   0.765   0.135   4.219
 3609SOL    HW111726   0.786   0.059   4.281
 3609SOL    HW211727   0.768   0.102   4.124
 3610SOL     OW11728   1.626   6.804   5.745
 3610SOL    HW111729   1.562   6.731   5.770
 3610SOL    HW211730   1.674   6.779   5.660
 3611SOL     OW11731   4.985   5.757   5.960
 3611SOL    HW111732   4.987   5.814   5.878
 3611SOL    HW211733   5.058   5.689   5.955
 3612SOL     OW11734   6.324   0.301   0.052
 3612SOL    HW111735   6.310   0.239   0.129
 3612SOL    HW211736   6.407   0.276   0.003
 3613SOL     OW11737   4.493   5.488   1.832
 3613SOL    HW111738   4.501   5.489   1.931
 3613SOL    HW211739   4.559   5.424   1.793
 3614SOL     OW11740   4.043   3.445   1.762
 3614SOL    HW111741   4.067   3.470   1.856
 3614SOL    HW211742   4.032   3.528   1.707
 3615SOL     OW11743   4.781   5.366   0.158
 3615SOL    HW111744   4.822   5.430   0.223
 3615SOL    HW211745   4.697   5.327   0.197
 3616SOL     OW11746   1.002   2.787   6.662
 3616SOL    HW111747   1.021   2.885   6.668
 3616SOL    HW211748   1.060   2.746   6.591
 3617SOL     OW11749   3.785   1.747   6.433
 3617SOL    HW111750   3.770   1.841   6.463
 3617SOL    HW211751   3.720   1.724   6.361
 3618SOL     OW11752   2.233   2.113   5.694
 3618SOL    HW111753   2.159   2.163   5.739
 3618SOL    HW211754   2.204   2.087   5.602
 3619SOL     OW11755   5.585   2.497   4.423
 3619SOL    HW111756   5.491   2.531   4.428
 3619SOL    HW211757   5.585   2.406   4.382
 3620SOL     OW11758   6.260   6.143   5.878
 3620SOL    HW111759   6.256   6.050   5.912
 3620SOL    HW211760   6.355   6.170   5.863
 3621SOL     OW11761   3.602   3.104   5.583
 3621SOL    HW111762   3.520   3.160   5.597
 3621SOL    HW211763   3.665   3.118   5.659
 3622SOL     OW11764   1.816   1.303   4.912
 3622SOL    HW111765   1.896   1.362   4.909
 3622SOL    HW211766   1.819   1.238   4.835
 3623SOL     OW11767   5.953   5.645   4.179
 3623SOL    HW111768   5.927   5.720   4.117
 3623SOL    HW211769   5.879   5.578   4.181
 3624SOL     OW11770   1.831   6.423   1.813
 3624SOL    HW111771   1.794   6.338   1.776
 3624SOL    HW211772   1.916   6.403   1.862
 3625SOL     OW11773   6.051   3.272   6.834
 3625SOL    HW111774   5.990   3.208   6.881
 3625SOL    HW211775   6.012   3.364   6.839
 3626SOL     OW11776   0.825   3.253   6.279
 3626SOL    HW111777   0.873   3.166   6.282
 3626SOL    HW211778   0.857   3.311   6.355
 3627SOL     OW11779   3.438   3.107   3.327
 3627SOL    HW111780   3.432   3.051   3.410
 3627SOL    HW211781   3.534   3.128   3.309
 3628SOL     OW11782   1.343   1.476   1.630
 3628SOL    HW111783   1.328   1.571   1.603
 3628SOL    HW211784   1.430   1.445   1.594
 3629SOL     OW11785   6.743   2.104   5.239
 3629SOL    HW111786   6.730   2.134   5.144
 3629SOL    HW211787   6.829   2.141   5.275
 3630SOL     OW11788   5.254   2.970   4.073
 3630SOL    HW111789   5.324   2.980   4.003
 3630SOL    HW211790   5.203   2.885   4.057
 3631SOL     OW11791   1.895   6.887   3.844
 3631SOL    HW111792   1.957   6.900   3.767
 3631SOL    HW211793   1.876   6.975   3.887
 3632SOL     OW11794   5.000   5.976   1.379
 3632SOL    HW111795   5.006   5.952   1.282
 3632SOL    HW211796   4.971   6.072   1.388
 3633SOL     OW11797   3.958   1.744   5.375
 3633SOL    HW111798   3.939   1.665   5.316
 3633SOL    HW211799   3.912   1.732   5.463
 3634SOL     OW11800   0.936   5.084   4.573
 3634SOL    HW111801   0.905   5.043   4.658
 3634SOL    HW211802   0.869   5.150   4.540
 3635SOL     OW11803   3.227   6.875   6.084
 3635SOL    HW111804   3.239   6.959   6.030
 3635SOL    HW211805   3.133   6.842   6.075
 3636SOL     OW11806   0.314   5.376   0.503
 3636SOL    HW111807   0.391   5.430   0.469
 3636SOL    HW211808   0.262   5.429   0.570
 3637SOL     OW11809   6.609   1.483   1.830
 3637SOL    HW111810   6.518   1.523   1.818
 3637SOL    HW211811   6.678   1.556   1.834
 3638SOL     OW11812   0.302   4.020   3.856
 3638SOL    HW111813   0.330   3.963   3.934
 3638SOL    HW211814   0.323   4.116   3.877
 3639SOL     OW11815   3.394   4.085   0.296
 3639SOL    HW111816   3.387   3.986   0.305
 3639SOL    HW211817   3.376   4.111   0.200
 3640SOL     OW11818   3.824   0.978   0.565
 3640SOL    HW111819   3.893   1.037   0.522
 3640SOL    HW211820   3.849   0.882   0.551
 3641SOL     OW11821   5.124   3.279   3.209
 3641SOL    HW111822   5.188   3.203   3.197
 3641SOL    HW211823   5.174   3.361   3.237
 3642SOL     OW11824   5.086   1.234   6.855
 3642SOL    HW111825   5.154   1.219   6.783
 3642SOL    HW211826   5.076   1.332   6.872
 3643SOL     OW11827   2.687   6.089   5.194
 3643SOL    HW111828   2.739   6.107   5.278
 3643SOL    HW211829   2.745   6.043   5.128
 3644SOL     OW11830   6.700   1.076   1.652
 3644SOL    HW111831   6.791   1.051   1.620
 3644SOL    HW211832   6.691   1.176   1.649
 3645SOL     OW11833   0.203   2.607   3.208
 3645SOL    HW111834   0.133   2.560   3.261
 3645SOL    HW211835   0.159   2.662   3.136
 3646SOL     OW11836   0.529   4.065   6.733
 3646SOL    HW111837   0.516   3.970   6.707
 3646SOL    HW211838   0.588   4.071   6.814
 3647SOL     OW11839   2.655   4.834   6.328
 3647SOL    HW111840   2.663   4.905   6.397
 3647SOL    HW211841   2.691   4.867   6.241
 3648SOL     OW11842   3.910   4.908   1.872
 3648SOL    HW111843   3.885   4.911   1.968
 3648SOL    HW211844   3.875   4.824   1.830
 3649SOL     OW11845   4.591   2.647   1.613
 3649SOL    HW111846   4.628   2.652   1.521
 3649SOL    HW211847   4.614   2.730   1.664
 3650SOL     OW11848   7.015   5.550   1.026
 3650SOL    HW111849   0.033   5.527   1.116
 3650SOL    HW211850   6.948   5.624   1.035
 3651SOL     OW11851   0.344   6.465   4.783
 3651SOL    HW111852   0.262   6.426   4.824
 3651SOL    HW211853   0.392   6.521   4.850
 3652SOL     OW11854   5.801   6.393   3.636
 3652SOL    HW111855   5.870   6.358   3.572
 3652SOL    HW211856   5.735   6.321   3.657
 3653SOL     OW11857   0.537   0.921   4.234
 3653SOL    HW111858   0.489   0.833   4.245
 3653SOL    HW211859   0.485   0.993   4.279
 3654SOL     OW11860   2.570   4.216   0.690
 3654SOL    HW111861   2.523   4.277   0.626
 3654SOL    HW211862   2.647   4.171   0.643
 3655SOL     OW11863   1.351   6.304   4.263
 3655SOL    HW111864   1.307   6.315   4.174
 3655SOL    HW211865   1.388   6.212   4.272
 3656SOL     OW11866   0.870   4.202   1.714
 3656SOL    HW111867   0.879   4.182   1.616
 3656SOL    HW211868   0.819   4.287   1.726
 3657SOL     OW11869   5.133   5.262   5.558
 3657SOL    HW111870   5.056   5.200   5.571
 3657SOL    HW211871   5.168   5.253   5.464
 3658SOL     OW11872   1.567   5.026   5.314
 3658SOL    HW111873   1.609   5.114   5.292
 3658SOL    HW211874   1.631   4.952   5.292
 3659SOL     OW11875   1.558   3.607   4.904
 3659SOL    HW111876   1.632   3.662   4.943
 3659SOL    HW211877   1.474   3.623   4.957
 3660SOL     OW11878   6.020   6.308   3.883
 3660SOL    HW111879   6.009   6.399   3.841
 3660SOL    HW211880   5.984   6.310   3.976
 3661SOL     OW11881   5.553   1.410   5.556
 3661SOL    HW111882   5.487   1.336   5.569
 3661SOL    HW211883   5.508   1.498   5.575
 3662SOL     OW11884   3.996   6.713   3.984
 3662SOL    HW111885   3.945   6.798   3.997
 3662SOL    HW211886   3.986   6.655   4.064
 3663SOL     OW11887   2.106   1.566   0.467
 3663SOL    HW111888   2.178   1.604   0.525
 3663SOL    HW211889   2.081   1.475   0.500
 3664SOL     OW11890   5.183   2.833   1.504
 3664SOL    HW111891   5.153   2.822   1.598
 3664SOL    HW211892   5.117   2.790   1.442
 3665SOL     OW11893   1.868   6.093   5.481
 3665SOL    HW111894   1.941   6.138   5.534
 3665SOL    HW211895   1.885   5.995   5.477
 3666SOL     OW11896   0.984   3.993   2.984
 3666SOL    HW111897   0.927   3.956   2.910
 3666SOL    HW211898   1.042   3.921   3.021
 3667SOL     OW11899   0.931   0.821   2.396
 3667SOL    HW111900   0.922   0.916   2.367
 3667SOL    HW211901   0.941   0.818   2.496
 3668SOL     OW11902   1.438   0.907   1.694
 3668SOL    HW111903   1.461   0.935   1.601
 3668SOL    HW211904   1.460   0.810   1.706
 3669SOL     OW11905   4.668   0.836   3.444
 3669SOL    HW111906   4.653   0.738   3.448
 3669SOL    HW211907   4.762   0.854   3.416
 3670SOL     OW11908   2.163   5.148   0.023
 3670SOL    HW111909   2.200   5.240   0.032
 3670SOL    HW211910   2.124   5.136   6.951
 3671SOL     OW11911   6.440   0.824   4.331
 3671SOL    HW111912   6.363   0.883   4.356
 3671SOL    HW211913   6.507   0.823   4.406
 3672SOL     OW11914   5.667   1.905   1.341
 3672SOL    HW111915   5.733   1.980   1.327
 3672SOL    HW211916   5.696   1.825   1.288
 3673SOL     OW11917   4.647   6.136   6.592
 3673SOL    HW111918   4.626   6.057   6.535
 3673SOL    HW211919   4.690   6.207   6.536
 3674SOL     OW11920   0.979   6.448   5.426
 3674SOL    HW111921   1.070   6.483   5.445
 3674SOL    HW211922   0.911   6.511   5.462
 3675SOL     OW11923   2.170   2.956   3.856
 3675SOL    HW111924   2.121   2.958   3.769
 3675SOL    HW211925   2.200   2.863   3.876
 3676SOL     OW11926   5.078   4.124   3.003
 3676SOL    HW111927   4.985   4.088   2.998
 3676SOL    HW211928   5.076   4.219   3.034
 3677SOL     OW11929   2.059   5.681   3.401
 3677SOL    HW111930   2.150   5.689   3.443
 3677SOL    HW211931   1.998   5.749   3.442
 3678SOL     OW11932   0.803   2.355   4.904
 3678SOL    HW111933   0.819   2.360   5.002
 3678SOL    HW211934   0.751   2.273   4.882
 3679SOL     OW11935   0.930   0.335   3.196
 3679SOL    HW111936   1.012   0.327   3.252
 3679SOL    HW211937   0.921   0.428   3.162
 3680SOL     OW11938   5.806   2.809   3.916
 3680SOL    HW111939   5.890   2.827   3.968
 3680SOL    HW211940   5.807   2.864   3.832
 3681SOL     OW11941   0.671   0.082   0.177
 3681SOL    HW111942   0.677   0.156   0.111
 3681SOL    HW211943   0.627   0.002   0.135
 3682SOL     OW11944   5.369   1.683   0.387
 3682SOL    HW111945   5.364   1.584   0.388
 3682SOL    HW211946   5.386   1.718   0.479
 3683SOL     OW11947   6.407   0.213   3.102
 3683SOL    HW111948   6.475   0.166   3.158
 3683SOL    HW211949   6.421   0.312   3.109
 3684SOL     OW11950   1.911   5.282   0.410
 3684SOL    HW111951   1.926   5.195   0.458
 3684SOL    HW211952   1.996   5.311   0.367
 3685SOL     OW11953   0.358   6.324   0.074
 3685SOL    HW111954   0.272   6.372   0.057
 3685SOL    HW211955   0.362   6.242   0.015
 3686SOL     OW11956   5.476   5.755   3.941
 3686SOL    HW111957   5.518   5.680   3.992
 3686SOL    HW211958   5.462   5.833   4.003
 3687SOL     OW11959   3.579   5.997   4.782
 3687SOL    HW111960   3.526   6.072   4.821
 3687SOL    HW211961   3.619   6.026   4.695
 3688SOL     OW11962   6.723   4.015   6.555
 3688SOL    HW111963   6.754   4.045   6.464
 3688SOL    HW211964   6.736   3.916   6.564
 3689SOL     OW11965   2.263   0.136   5.935
 3689SOL    HW111966   2.216   0.074   5.997
 3689SOL    HW211967   2.277   0.092   5.847
 3690SOL     OW11968   4.395   5.962   0.303
 3690SOL    HW111969   4.375   6.010   0.388
 3690SOL    HW211970   4.310   5.928   0.262
 3691SOL     OW11971   2.708   1.905   6.822
 3691SOL    HW111972   2.676   1.874   6.912
 3691SOL    HW211973   2.793   1.858   6.800
 3692SOL     OW11974   6.632   5.436   5.240
 3692SOL    HW111975   6.676   5.348   5.226
 3692SOL    HW211976   6.643   5.492   5.158
 3693SOL     OW11977   2.118   3.881   3.003
 3693SOL    HW111978   2.151   3.952   2.941
 3693SOL    HW211979   2.158   3.895   3.094
 3694SOL     OW11980   1.710   6.214   3.185
 3694SOL    HW111981   1.721   6.275   3.106
 3694SOL    HW211982   1.616   6.178   3.186
 3695SOL     OW11983   6.538   3.152   1.547
 3695SOL    HW111984   6.485   3.071   1.521
 3695SOL    HW211985   6.491   3.201   1.620
 3696SOL     OW11986   3.525   5.990   5.246
 3696SOL    HW111987   3.543   5.926   5.172
 3696SOL    HW211988   3.478   5.943   5.321
 3697SOL     OW11989   0.432   6.568   3.273
 3697SOL    HW111990   0.446   6.667   3.273
 3697SOL    HW211991   0.337   6.548   3.247
 3698SOL     OW11992   2.203   0.331   3.953
 3698SOL    HW111993   2.109   0.335   3.918
 3698SOL    HW211994   2.206   0.372   4.044
 3699SOL     OW11995   1.133   2.156   3.708
 3699SOL    HW111996   1.201   2.182   3.777
 3699SOL    HW211997   1.170   2.177   3.617
 3700SOL     OW11998   0.771   6.065   4.734
 3700SOL    HW111999   0.786   5.967   4.746
 3700SOL    HW212000   0.840   6.102   4.671
 3701SOL     OW12001   1.623   0.499   3.327
 3701SOL    HW112002   1.659   0.523   3.237
 3701SOL    HW212003   1.602   0.401   3.329
 3702SOL     OW12004   6.183   6.467   3.148
 3702SOL    HW112005   6.186   6.474   3.247
 3702SOL    HW212006   6.165   6.557   3.108
 3703SOL     OW12007   5.664   1.558   5.351
 3703SOL    HW112008   5.602   1.565   5.273
 3703SOL    HW212009   5.631   1.487   5.414
 3704SOL     OW12010   3.925   1.877   1.336
 3704SOL    HW112011   3.841   1.913   1.295
 3704SOL    HW212012   3.990   1.951   1.349
 3705SOL     OW12013   3.942   4.843   4.044
 3705SOL    HW112014   3.847   4.874   4.051
 3705SOL    HW212015   3.980   4.834   4.136
 3706SOL     OW12016   1.699   3.367   6.753
 3706SOL    HW112017   1.782   3.312   6.765
 3706SOL    HW212018   1.700   3.443   6.817
 3707SOL     OW12019   5.401   4.649   4.464
 3707SOL    HW112020   5.489   4.612   4.433
 3707SOL    HW212021   5.404   4.661   4.563
 3708SOL     OW12022   0.111   0.778   6.487
 3708SOL    HW112023   0.130   0.721   6.566
 3708SOL    HW212024   0.175   0.756   6.414
 3709SOL     OW12025   3.259   0.696   0.831
 3709SOL    HW112026   3.357   0.683   0.850
 3709SOL    HW212027   3.246   0.706   0.733
 3710SOL     OW12028   5.978   5.447   5.777
 3710SOL    HW112029   5.954   5.538   5.742
 3710SOL    HW212030   6.029   5.397   5.708
 3711SOL     OW12031   0.862   6.927   4.360
 3711SOL    HW112032   0.956   6.920   4.395
 3711SOL    HW212033   0.841   6.847   4.304
 3712SOL     OW12034   6.913   5.311   6.794
 3712SOL    HW112035   6.856   5.333   6.873
 3712SOL    HW212036   6.873   5.234   6.744
 3713SOL     OW12037   1.125   6.484   5.853
 3713SOL    HW112038   1.189   6.452   5.923
 3713SOL    HW212039   1.175   6.511   5.771
 3714SOL     OW12040   5.051   6.556   5.515
 3714SOL    HW112041   5.013   6.601   5.596
 3714SOL    HW212042   5.149   6.575   5.510
 3715SOL     OW12043   0.545   4.280   2.554
 3715SOL    HW112044   0.553   4.205   2.620
 3715SOL    HW212045   0.508   4.244   2.468
 3716SOL     OW12046   6.488   7.019   4.958
 3716SOL    HW112047   6.419   6.955   4.990
 3716SOL    HW212048   6.466   0.030   4.865
 3717SOL     OW12049   6.233   6.453   6.790
 3717SOL    HW112050   6.262   6.393   6.716
 3717SOL    HW212051   6.299   6.527   6.802
 3718SOL     OW12052   1.668   0.557   6.987
 3718SOL    HW112053   1.591   0.499   6.959
 3718SOL    HW212054   1.681   0.630   6.919
 3719SOL     OW12055   5.277   4.446   1.366
 3719SOL    HW112056   5.214   4.428   1.442
 3719SOL    HW212057   5.252   4.389   1.288
 3720SOL     OW12058   5.954   2.368   6.559
 3720SOL    HW112059   5.996   2.349   6.648
 3720SOL    HW212060   6.026   2.380   6.490
 3721SOL     OW12061   6.205   4.626   1.791
 3721SOL    HW112062   6.140   4.564   1.836
 3721SOL    HW212063   6.281   4.573   1.753
 3722SOL     OW12064   6.372   6.115   0.820
 3722SOL    HW112065   6.398   6.031   0.867
 3722SOL    HW212066   6.292   6.155   0.865
 3723SOL     OW12067   6.184   5.127   1.680
 3723SOL    HW112068   6.261   5.096   1.623
 3723SOL    HW212069   6.136   5.048   1.718
 3724SOL     OW12070   1.876   4.570   4.643
 3724SOL    HW112071   1.827   4.658   4.641
 3724SOL    HW212072   1.822   4.500   4.598
 3725SOL     OW12073   6.210   5.387   0.797
 3725SOL    HW112074   6.243   5.350   0.710
 3725SOL    HW212075   6.115   5.416   0.787
 3726SOL     OW12076   5.691   3.786   0.677
 3726SOL    HW112077   5.643   3.864   0.717
 3726SOL    HW212078   5.710   3.718   0.748
 3727SOL     OW12079   0.140   2.081   4.726
 3727SOL    HW112080   0.165   2.048   4.817
 3727SOL    HW212081   0.214   2.137   4.689
 3728SOL     OW12082   1.697   3.699   6.508
 3728SOL    HW112083   1.702   3.737   6.415
 3728SOL    HW212084   1.770   3.631   6.519
 3729SOL     OW12085   0.649   2.496   3.949
 3729SOL    HW112086   0.693   2.461   3.866
 3729SOL    HW212087   0.591   2.424   3.989
 3730SOL     OW12088   2.165   5.328   6.184
 3730SOL    HW112089   2.166   5.397   6.111
 3730SOL    HW212090   2.071   5.300   6.203
 3731SOL     OW12091   6.716   1.973   0.808
 3731SOL    HW112092   6.678   2.065   0.814
 3731SOL    HW212093   6.749   1.944   0.898
 3732SOL     OW12094   3.032   1.334   0.231
 3732SOL    HW112095   3.068   1.243   0.253
 3732SOL    HW212096   3.062   1.360   0.139
 3733SOL     OW12097   1.480   3.794   2.517
 3733SOL    HW112098   1.513   3.826   2.429
 3733SOL    HW212099   1.492   3.696   2.524
 3734SOL     OW12100   4.934   0.637   2.252
 3734SOL    HW112101   5.013   0.675   2.203
 3734SOL    HW212102   4.946   0.538   2.262
 3735SOL     OW12103   1.956   0.962   3.792
 3735SOL    HW112104   2.014   1.044   3.793
 3735SOL    HW212105   1.995   0.895   3.729
 3736SOL     OW12106   0.171   2.173   1.346
 3736SOL    HW112107   0.074   2.189   1.325
 3736SOL    HW212108   0.227   2.242   1.299
 3737SOL     OW12109   4.882   0.795   3.706
 3737SOL    HW112110   4.941   0.738   3.764
 3737SOL    HW212111   4.923   0.804   3.615
 3738SOL     OW12112   0.194   0.189   2.808
 3738SOL    HW112113   0.130   0.139   2.867
 3738SOL    HW212114   0.191   0.287   2.831
 3739SOL     OW12115   2.474   4.551   1.317
 3739SOL    HW112116   2.525   4.476   1.275
 3739SOL    HW212117   2.510   4.568   1.409
 3740SOL     OW12118   5.596   0.959   0.673
 3740SOL    HW112119   5.577   0.974   0.770
 3740SOL    HW212120   5.510   0.940   0.625
 3741SOL     OW12121   5.324   2.826   0.179
 3741SOL    HW112122   5.261   2.870   0.244
 3741SOL    HW212123   5.401   2.787   0.229
 3742SOL     OW12124   2.644   1.879   0.081
 3742SOL    HW112125   2.550   1.858   0.055
 3742SOL    HW212126   2.644   1.937   0.162
 3743SOL     OW12127   5.731   3.414   0.509
 3743SOL    HW112128   5.748   3.408   0.608
 3743SOL    HW212129   5.633   3.411   0.492
 3744SOL     OW12130   1.398   6.061   2.253
 3744SOL    HW112131   1.298   6.053   2.252
 3744SOL    HW212132   1.432   6.044   2.346
 3745SOL     OW12133   4.094   4.942   1.599
 3745SOL    HW112134   4.167   4.887   1.559
 3745SOL    HW212135   4.031   4.970   1.526
 3746SOL     OW12136   5.148   0.653   3.156
 3746SOL    HW112137   5.237   0.700   3.160
 3746SOL    HW212138   5.084   0.708   3.102
 3747SOL     OW12139   2.714   6.567   4.976
 3747SOL    HW112140   2.735   6.508   5.054
 3747SOL    HW212141   2.798   6.587   4.926
 3748SOL     OW12142   5.091   1.137   1.315
 3748SOL    HW112143   5.101   1.231   1.348
 3748SOL    HW212144   5.102   1.135   1.216
 3749SOL     OW12145   1.591   5.477   3.483
 3749SOL    HW112146   1.492   5.488   3.491
 3749SOL    HW212147   1.636   5.565   3.499
 3750SOL     OW12148   0.686   4.257   1.002
 3750SOL    HW112149   0.775   4.230   0.964
 3750SOL    HW212150   0.645   4.327   0.943
 3751SOL     OW12151   0.003   3.150   1.512
 3751SOL    HW112152   0.085   3.172   1.459
 3751SOL    HW212153   6.946   3.208   1.481
 3752SOL     OW12154   4.989   0.438   0.499
 3752SOL    HW112155   5.033   0.527   0.493
 3752SOL    HW212156   5.058   0.367   0.510
 3753SOL     OW12157   6.264   6.717   4.793
 3753SOL    HW112158   6.322   6.792   4.761
 3753SOL    HW212159   6.171   6.730   4.759
 3754SOL     OW12160   2.802   0.909   1.313
 3754SOL    HW112161   2.858   0.888   1.233
 3754SOL    HW212162   2.859   0.950   1.384
 3755SOL     OW12163   5.145   4.818   4.218
 3755SOL    HW112164   5.154   4.738   4.277
 3755SOL    HW212165   5.077   4.880   4.258
 3756SOL     OW12166   2.795   5.006   6.533
 3756SOL    HW112167   2.825   5.090   6.580
 3756SOL    HW212168   2.871   4.941   6.530
 3757SOL     OW12169   5.396   5.953   0.061
 3757SOL    HW112170   5.460   5.879   0.084
 3757SOL    HW212171   5.408   6.028   0.125
 3758SOL     OW12172   2.593   1.504   4.887
 3758SOL    HW112173   2.537   1.558   4.949
 3758SOL    HW212174   2.674   1.557   4.861
 3759SOL     OW12175   3.976   6.887   6.717
 3759SOL    HW112176   3.920   6.807   6.695
 3759SOL    HW212177   3.917   6.964   6.740
 3760SOL     OW12178   1.985   1.524   4.961
 3760SOL    HW112179   1.975   1.611   4.912
 3760SOL    HW212180   2.081   1.511   4.986
 3761SOL     OW12181   1.105   1.444   5.243
 3761SOL    HW112182   1.150   1.497   5.172
 3761SOL    HW212183   1.165   1.368   5.271
 3762SOL     OW12184   1.777   4.708   0.961
 3762SOL    HW112185   1.861   4.686   1.012
 3762SOL    HW212186   1.722   4.773   1.014
 3763SOL     OW12187   6.663   3.941   1.034
 3763SOL    HW112188   6.578   3.891   1.022
 3763SOL    HW212189   6.739   3.876   1.039
 3764SOL     OW12190   1.848   0.341   2.467
 3764SOL    HW112191   1.904   0.289   2.403
 3764SOL    HW212192   1.871   0.438   2.462
 3765SOL     OW12193   5.027   1.675   1.422
 3765SOL    HW112194   5.034   1.730   1.339
 3765SOL    HW212195   4.994   1.732   1.497
 3766SOL     OW12196   2.423   1.754   4.559
 3766SOL    HW112197   2.498   1.808   4.596
 3766SOL    HW212198   2.407   1.779   4.464
 3767SOL     OW12199   1.953   4.403   6.767
 3767SOL    HW112200   2.009   4.476   6.808
 3767SOL    HW212201   1.900   4.358   6.839
 3768SOL     OW12202   0.752   6.648   4.327
 3768SOL    HW112203   0.747   6.691   4.236
 3768SOL    HW212204   0.829   6.585   4.329
 3769SOL     OW12205   6.078   5.757   4.401
 3769SOL    HW112206   6.001   5.789   4.456
 3769SOL    HW212207   6.045   5.694   4.331
 3770SOL     OW12208   1.385   0.547   6.290
 3770SOL    HW112209   1.319   0.526   6.219
 3770SOL    HW212210   1.439   0.628   6.262
 3771SOL     OW12211   5.178   3.010   0.366
 3771SOL    HW112212   5.087   2.973   0.380
 3771SOL    HW212213   5.173   3.091   0.308
 3772SOL     OW12214   0.396   1.029   0.362
 3772SOL    HW112215   0.311   1.074   0.389
 3772SOL    HW212216   0.376   0.961   0.292
 3773SOL     OW12217   5.873   3.363   5.649
 3773SOL    HW112218   5.828   3.306   5.580
 3773SOL    HW212219   5.811   3.435   5.680
 3774SOL     OW12220   6.074   5.771   1.491
 3774SOL    HW112221   6.101   5.823   1.410
 3774SOL    HW212222   6.124   5.685   1.493
 3775SOL     OW12223   4.619   4.885   2.811
 3775SOL    HW112224   4.555   4.834   2.867
 3775SOL    HW212225   4.569   4.946   2.750
 3776SOL     OW12226   4.433   1.954   6.750
 3776SOL    HW112227   4.487   1.873   6.725
 3776SOL    HW212228   4.340   1.927   6.772
 3777SOL     OW12229   3.314   5.477   3.478
 3777SOL    HW112230   3.252   5.552   3.458
 3777SOL    HW212231   3.323   5.418   3.398
 3778SOL     OW12232   2.957   5.033   2.496
 3778SOL    HW112233   2.955   5.095   2.418
 3778SOL    HW212234   2.985   4.942   2.465
 3779SOL     OW12235   1.010   4.730   0.514
 3779SOL    HW112236   0.989   4.790   0.591
 3779SOL    HW212237   0.963   4.764   0.432
 3780SOL     OW12238   5.688   5.080   4.643
 3780SOL    HW112239   5.595   5.085   4.679
 3780SOL    HW212240   5.709   4.986   4.616
 3781SOL     OW12241   0.351   6.373   4.324
 3781SOL    HW112242   0.398   6.359   4.410
 3781SOL    HW212243   0.266   6.320   4.323
 3782SOL     OW12244   2.229   6.909   3.039
 3782SOL    HW112245   2.288   6.986   3.013
 3782SOL    HW212246   2.136   6.942   3.052
 3783SOL     OW12247   5.648   5.381   3.725
 3783SOL    HW112248   5.687   5.438   3.653
 3783SOL    HW212249   5.707   5.302   3.741
 3784SOL     OW12250   4.732   2.378   3.097
 3784SOL    HW112251   4.672   2.321   3.154
 3784SOL    HW212252   4.687   2.396   3.010
 3785SOL     OW12253   1.982   3.591   5.528
 3785SOL    HW112254   1.935   3.622   5.611
 3785SOL    HW212255   1.956   3.651   5.452
 3786SOL     OW12256   2.423   4.954   3.220
 3786SOL    HW112257   2.398   5.050   3.205
 3786SOL    HW212258   2.360   4.914   3.287
 3787SOL     OW12259   6.127   1.417   3.249
 3787SOL    HW112260   6.104   1.346   3.182
 3787SOL    HW212261   6.044   1.463   3.279
 3788SOL     OW12262   0.106   4.619   4.771
 3788SOL    HW112263   0.083   4.530   4.811
 3788SOL    HW212264   0.112   4.611   4.671
 3789SOL     OW12265   0.293   2.766   4.832
 3789SOL    HW112266   0.223   2.828   4.798
 3789SOL    HW212267   0.251   2.694   4.887
 3790SOL     OW12268   1.557   4.126   5.988
 3790SOL    HW112269   1.537   4.111   5.891
 3790SOL    HW212270   1.567   4.224   6.005
 3791SOL     OW12271   4.638   1.368   6.250
 3791SOL    HW112272   4.731   1.400   6.270
 3791SOL    HW212273   4.597   1.428   6.181
 3792SOL     OW12274   1.347   2.224   4.149
 3792SOL    HW112275   1.303   2.146   4.194
 3792SOL    HW212276   1.343   2.213   4.050
 3793SOL     OW12277   4.964   5.969   2.113
 3793SOL    HW112278   4.951   5.916   2.029
 3793SOL    HW212279   5.056   6.009   2.113
 3794SOL     OW12280   2.185   2.803   1.137
 3794SOL    HW112281   2.275   2.796   1.095
 3794SOL    HW212282   2.115   2.801   1.066
 3795SOL     OW12283   4.347   6.033   0.907
 3795SOL    HW112284   4.437   5.997   0.933
 3795SOL    HW212285   4.314   6.094   0.979
 3796SOL     OW12286   3.262   2.121   2.013
 3796SOL    HW112287   3.168   2.093   1.992
 3796SOL    HW212288   3.270   2.137   2.111
 3797SOL     OW12289   0.275   3.619   2.181
 3797SOL    HW112290   0.285   3.558   2.259
 3797SOL    HW212291   0.366   3.651   2.152
 3798SOL     OW12292   2.514   5.155   3.518
 3798SOL    HW112293   2.493   5.111   3.605
 3798SOL    HW212294   2.449   5.229   3.502
 3799SOL     OW12295   6.382   2.345   3.509
 3799SOL    HW112296   6.313   2.409   3.544
 3799SOL    HW212297   6.457   2.338   3.574
 3800SOL     OW12298   5.446   2.694   4.166
 3800SOL    HW112299   5.439   2.794   4.172
 3800SOL    HW212300   5.514   2.669   4.097
 3801SOL     OW12301   5.933   6.724   2.020
 3801SOL    HW112302   5.839   6.719   1.985
 3801SOL    HW212303   5.971   6.632   2.026
 3802SOL     OW12304   1.449   2.254   1.522
 3802SOL    HW112305   1.506   2.231   1.602
 3802SOL    HW212306   1.493   2.327   1.470
 3803SOL     OW12307   4.027   3.170   2.286
 3803SOL    HW112308   4.024   3.203   2.192
 3803SOL    HW212309   4.085   3.088   2.291
 3804SOL     OW12310   4.781   1.247   4.005
 3804SOL    HW112311   4.681   1.250   3.998
 3804SOL    HW212312   4.810   1.151   4.010
 3805SOL     OW12313   2.121   2.646   1.362
 3805SOL    HW112314   2.106   2.550   1.340
 3805SOL    HW212315   2.142   2.697   1.278
 3806SOL     OW12316   3.701   3.451   5.605
 3806SOL    HW112317   3.733   3.517   5.673
 3806SOL    HW212318   3.636   3.495   5.543
 3807SOL     OW12319   1.582   6.054   2.822
 3807SOL    HW112320   1.618   6.117   2.754
 3807SOL    HW212321   1.561   6.103   2.907
 3808SOL     OW12322   4.724   1.157   0.696
 3808SOL    HW112323   4.792   1.108   0.751
 3808SOL    HW212324   4.635   1.112   0.704
 3809SOL     OW12325   5.718   2.650   1.683
 3809SOL    HW112326   5.750   2.735   1.724
 3809SOL    HW212327   5.628   2.664   1.643
 3810SOL     OW12328   4.518   2.478   3.624
 3810SOL    HW112329   4.557   2.519   3.706
 3810SOL    HW212330   4.459   2.544   3.578
 3811SOL     OW12331   0.918   5.315   5.088
 3811SOL    HW112332   1.001   5.370   5.075
 3811SOL    HW212333   0.938   5.220   5.066
 3812SOL     OW12334   4.427   5.338   5.226
 3812SOL    HW112335   4.371   5.361   5.146
 3812SOL    HW212336   4.380   5.269   5.281
 3813SOL     OW12337   4.116   3.156   0.419
 3813SOL    HW112338   4.026   3.142   0.377
 3813SOL    HW212339   4.166   3.069   0.420
 3814SOL     OW12340   0.071   6.688   6.276
 3814SOL    HW112341   0.127   6.683   6.194
 3814SOL    HW212342   0.129   6.675   6.357
 3815SOL     OW12343   3.996   2.473   1.023
 3815SOL    HW112344   4.083   2.503   0.985
 3815SOL    HW212345   3.927   2.470   0.951
 3816SOL     OW12346   0.973   5.646   6.405
 3816SOL    HW112347   0.896   5.665   6.466
 3816SOL    HW212348   1.046   5.713   6.421
 3817SOL     OW12349   4.892   3.416   2.874
 3817SOL    HW112350   4.954   3.493   2.855
 3817SOL    HW212351   4.923   3.369   2.957
 3818SOL     OW12352   6.342   1.001   6.821
 3818SOL    HW112353   6.281   0.922   6.821
 3818SOL    HW212354   6.325   1.056   6.903
 3819SOL     OW12355   4.995   5.406   1.550
 3819SOL    HW112356   5.083   5.430   1.508
 3819SOL    HW212357   4.976   5.309   1.535
 3820SOL     OW12358   5.408   6.806   3.923
 3820SOL    HW112359   5.314   6.811   3.959
 3820SOL    HW212360   5.407   6.832   3.826
 3821SOL     OW12361   2.415   1.473   1.257
 3821SOL    HW112362   2.458   1.476   1.347
 3821SOL    HW212363   2.404   1.377   1.228
 3822SOL     OW12364   2.491   0.399   1.128
 3822SOL    HW112365   2.396   0.430   1.127
 3822SOL    HW212366   2.540   0.446   1.201
 3823SOL     OW12367   3.359   3.719   5.569
 3823SOL    HW112368   3.431   3.669   5.521
 3823SOL    HW212369   3.400   3.791   5.626
 3824SOL     OW12370   0.152   3.251   0.456
 3824SOL    HW112371   0.066   3.276   0.412
 3824SOL    HW212372   0.195   3.176   0.405
 3825SOL     OW12373   0.409   5.571   0.764
 3825SOL    HW112374   0.504   5.537   0.767
 3825SOL    HW212375   0.382   5.603   0.854
 3826SOL     OW12376   1.107   3.053   6.707
 3826SOL    HW112377   1.163   3.087   6.631
 3826SOL    HW212378   1.165   3.001   6.770
 3827SOL     OW12379   1.571   1.199   1.993
 3827SOL    HW112380   1.533   1.107   1.988
 3827SOL    HW212381   1.621   1.219   1.909
 3828SOL     OW12382   3.370   3.750   2.408
 3828SOL    HW112383   3.440   3.777   2.474
 3828SOL    HW212384   3.337   3.831   2.359
 3829SOL     OW12385   1.612   5.231   2.880
 3829SOL    HW112386   1.590   5.328   2.888
 3829SOL    HW212387   1.682   5.219   2.810
 3830SOL     OW12388   0.888   1.248   5.331
 3830SOL    HW112389   0.872   1.267   5.428
 3830SOL    HW212390   0.963   1.304   5.297
 3831SOL     OW12391   4.640   2.619   2.306
 3831SOL    HW112392   4.720   2.560   2.290
 3831SOL    HW212393   4.634   2.687   2.233
 3832SOL     OW12394   5.831   0.653   2.781
 3832SOL    HW112395   5.824   0.670   2.879
 3832SOL    HW212396   5.912   0.698   2.745
 3833SOL     OW12397   0.425   6.508   6.130
 3833SOL    HW112398   0.500   6.444   6.115
 3833SOL    HW212399   0.418   6.528   6.228
 3834SOL     OW12400   4.299   4.510   1.454
 3834SOL    HW112401   4.200   4.496   1.457
 3834SOL    HW212402   4.341   4.467   1.534
 3835SOL     OW12403   3.745   5.792   4.727
 3835SOL    HW112404   3.672   5.852   4.759
 3835SOL    HW212405   3.707   5.703   4.703
 3836SOL     OW12406   1.492   3.884   6.070
 3836SOL    HW112407   1.491   3.980   6.043
 3836SOL    HW212408   1.401   3.844   6.057
 3837SOL     OW12409   4.493   4.719   6.128
 3837SOL    HW112410   4.501   4.768   6.215
 3837SOL    HW212411   4.483   4.785   6.054
 3838SOL     OW12412   0.561   4.021   4.485
 3838SOL    HW112413   0.642   3.964   4.472
 3838SOL    HW212414   0.573   4.107   4.435
 3839SOL     OW12415   5.327   0.823   4.103
 3839SOL    HW112416   5.409   0.769   4.121
 3839SOL    HW212417   5.246   0.765   4.109
 3840SOL     OW12418   2.680   1.102   6.058
 3840SOL    HW112419   2.672   1.039   6.135
 3840SOL    HW212420   2.619   1.074   5.984
 3841SOL     OW12421   0.036   3.121   4.258
 3841SOL    HW112422   6.978   3.117   4.194
 3841SOL    HW212423   0.110   3.063   4.225
 3842SOL     OW12424   2.229   3.094   0.963
 3842SOL    HW112425   2.278   3.064   0.881
 3842SOL    HW212426   2.262   3.185   0.990
 3843SOL     OW12427   5.778   4.692   2.317
 3843SOL    HW112428   5.702   4.681   2.253
 3843SOL    HW212429   5.743   4.700   2.410
 3844SOL     OW12430   0.582   2.951   6.223
 3844SOL    HW112431   0.660   2.889   6.213
 3844SOL    HW212432   0.594   3.030   6.163
 3845SOL     OW12433   3.004   3.451   5.469
 3845SOL    HW112434   2.938   3.470   5.395
 3845SOL    HW212435   3.045   3.537   5.499
 3846SOL     OW12436   0.683   5.379   3.565
 3846SOL    HW112437   0.680   5.399   3.467
 3846SOL    HW212438   0.736   5.296   3.580
 3847SOL     OW12439   5.574   1.182   4.616
 3847SOL    HW112440   5.489   1.207   4.570
 3847SOL    HW212441   5.592   1.246   4.690
 3848SOL     OW12442   4.545   5.360   2.938
 3848SOL    HW112443   4.539   5.298   2.860
 3848SOL    HW212444   4.583   5.311   3.017
 3849SOL     OW12445   1.676   1.020   5.802
 3849SOL    HW112446   1.646   0.935   5.759
 3849SOL    HW212447   1.621   1.096   5.768
 3850SOL     OW12448   2.258   3.382   1.126
 3850SOL    HW112449   2.194   3.457   1.114
 3850SOL    HW212450   2.309   3.394   1.211
 3851SOL     OW12451   0.836   4.653   2.105
 3851SOL    HW112452   0.814   4.565   2.147
 3851SOL    HW212453   0.926   4.684   2.135
 3852SOL     OW12454   4.290   6.722   4.032
 3852SOL    HW112455   4.204   6.763   4.000
 3852SOL    HW212456   4.269   6.650   4.099
 3853SOL     OW12457   1.216   4.131   3.233
 3853SOL    HW112458   1.159   4.144   3.152
 3853SOL    HW212459   1.311   4.119   3.205
 3854SOL     OW12460   1.883   3.235   2.386
 3854SOL    HW112461   1.860   3.189   2.301
 3854SOL    HW212462   1.914   3.168   2.453
 3855SOL     OW12463   5.303   6.826   6.272
 3855SOL    HW112464   5.241   6.890   6.225
 3855SOL    HW212465   5.368   6.789   6.206
 3856SOL     OW12466   0.289   0.850   6.042
 3856SOL    HW112467   0.264   0.755   6.064
 3856SOL    HW212468   0.242   0.912   6.106
 3857SOL     OW12469   0.358   6.084   6.977
 3857SOL    HW112470   0.315   6.002   7.014
 3857SOL    HW212471   0.364   6.076   6.877
 3858SOL     OW12472   1.816   0.260   5.355
 3858SOL    HW112473   1.912   0.281   5.337
 3858SOL    HW212474   1.758   0.321   5.300
 3859SOL     OW12475   6.077   1.343   2.768
 3859SOL    HW112476   6.097   1.314   2.674
 3859SOL    HW212477   6.141   1.415   2.794
 3860SOL     OW12478   2.947   0.467   5.920
 3860SOL    HW112479   2.897   0.385   5.949
 3860SOL    HW212480   2.901   0.549   5.955
 3861SOL     OW12481   4.862   4.780   3.272
 3861SOL    HW112482   4.868   4.753   3.175
 3861SOL    HW212483   4.952   4.812   3.303
 3862SOL     OW12484   1.402   0.163   5.320
 3862SOL    HW112485   1.467   0.232   5.288
 3862SOL    HW212486   1.449   0.099   5.382
 3863SOL     OW12487   4.750   2.900   6.488
 3863SOL    HW112488   4.833   2.914   6.434
 3863SOL    HW212489   4.701   2.987   6.496
 3864SOL     OW12490   2.514   0.373   5.555
 3864SOL    HW112491   2.577   0.382   5.478
 3864SOL    HW212492   2.559   0.400   5.639
 3865SOL     OW12493   3.433   0.090   6.995
 3865SOL    HW112494   3.364   0.036   0.025
 3865SOL    HW212495   3.519   0.085   0.025
 3866SOL     OW12496   4.018   1.031   1.230
 3866SOL    HW112497   4.074   0.970   1.174
 3866SOL    HW212498   4.072   1.063   1.308
 3867SOL     OW12499   1.470   4.110   3.478
 3867SOL    HW112500   1.413   4.029   3.489
 3867SOL    HW212501   1.451   4.174   3.552
 3868SOL     OW12502   3.260   6.958   0.122
 3868SOL    HW112503   3.325   6.907   0.177
 3868SOL    HW212504   3.196   7.006   0.182
 3869SOL     OW12505   6.046   4.296   5.202
 3869SOL    HW112506   6.068   4.201   5.179
 3869SOL    HW212507   6.075   4.355   5.127
 3870SOL     OW12508   4.656   5.051   6.877
 3870SOL    HW112509   4.652   4.978   6.946
 3870SOL    HW212510   4.715   5.124   6.910
 3871SOL     OW12511   3.466   0.321   2.543
 3871SOL    HW112512   3.461   0.418   2.518
 3871SOL    HW212513   3.505   0.312   2.634
 3872SOL     OW12514   3.667   3.217   3.173
 3872SOL    HW112515   3.748   3.258   3.132
 3872SOL    HW212516   3.586   3.242   3.119
 3873SOL     OW12517   6.029   3.030   2.187
 3873SOL    HW112518   5.937   2.991   2.186
 3873SOL    HW212519   6.023   3.129   2.198
 3874SOL     OW12520   4.040   5.949   6.778
 3874SOL    HW112521   4.128   5.913   6.809
 3874SOL    HW212522   4.006   5.893   6.702
 3875SOL     OW12523   1.638   2.783   1.687
 3875SOL    HW112524   1.647   2.780   1.786
 3875SOL    HW212525   1.584   2.863   1.661
 3876SOL     OW12526   4.529   4.833   0.445
 3876SOL    HW112527   4.447   4.799   0.399
 3876SOL    HW212528   4.525   4.933   0.450
 3877SOL     OW12529   6.860   2.855   0.356
 3877SOL    HW112530   6.944   2.830   0.403
 3877SOL    HW212531   6.862   2.822   0.262
 3878SOL     OW12532   3.073   6.725   4.491
 3878SOL    HW112533   3.126   6.762   4.415
 3878SOL    HW212534   3.008   6.794   4.524
 3879SOL     OW12535   4.763   6.184   1.210
 3879SOL    HW112536   4.822   6.194   1.291
 3879SOL    HW212537   4.767   6.269   1.156
 3880SOL     OW12538   6.329   5.039   3.556
 3880SOL    HW112539   6.406   5.100   3.535
 3880SOL    HW212540   6.276   5.078   3.632
 3881SOL     OW12541   1.058   4.471   0.993
 3881SOL    HW112542   1.100   4.548   1.042
 3881SOL    HW212543   1.118   4.442   0.919
 3882SOL     OW12544   0.846   1.838   5.397
 3882SOL    HW112545   0.868   1.743   5.371
 3882SOL    HW212546   0.765   1.839   5.455
 3883SOL     OW12547   4.309   0.776   3.942
 3883SOL    HW112548   4.299   0.700   3.879
 3883SOL    HW212549   4.236   0.843   3.926
 3884SOL     OW12550   0.738   5.186   3.102
 3884SOL    HW112551   0.753   5.284   3.117
 3884SOL    HW212552   0.660   5.155   3.157
 3885SOL     OW12553   6.113   0.402   2.519
 3885SOL    HW112554   6.111   0.489   2.567
 3885SOL    HW212555   6.101   0.417   2.421
 3886SOL     OW12556   6.425   5.676   4.699
 3886SOL    HW112557   6.358   5.692   4.771
 3886SOL    HW212558   6.514   5.713   4.727
 3887SOL     OW12559   0.162   1.021   6.212
 3887SOL    HW112560   0.062   1.028   6.216
 3887SOL    HW212561   0.201   1.055   6.298
 3888SOL     OW12562   0.803   0.178   6.704
 3888SOL    HW112563   0.843   0.126   6.628
 3888SOL    HW212564   0.860   0.166   6.785
 3889SOL     OW12565   6.806   3.797   5.726
 3889SOL    HW112566   6.754   3.875   5.760
 3889SOL    HW212567   6.851   3.750   5.802
 3890SOL     OW12568   5.610   5.679   2.479
 3890SOL    HW112569   5.600   5.749   2.550
 3890SOL    HW212570   5.658   5.600   2.516
 3891SOL     OW12571   5.836   4.573   4.034
 3891SOL    HW112572   5.794   4.655   3.994
 3891SOL    HW212573   5.893   4.528   3.965
 3892SOL     OW12574   0.048   2.323   1.558
 3892SOL    HW112575   0.095   2.272   1.486
 3892SOL    HW212576   6.968   2.317   1.544
 3893SOL     OW12577   3.274   5.482   0.823
 3893SOL    HW112578   3.243   5.502   0.916
 3893SOL    HW212579   3.332   5.556   0.790
 3894SOL     OW12580   2.944   2.205   0.857
 3894SOL    HW112581   2.989   2.177   0.772
 3894SOL    HW212582   2.848   2.226   0.838
 3895SOL     OW12583   1.812   0.413   5.062
 3895SOL    HW112584   1.857   0.430   5.150
 3895SOL    HW212585   1.842   0.325   5.027
 3896SOL     OW12586   0.458   1.567   6.703
 3896SOL    HW112587   0.441   1.469   6.693
 3896SOL    HW212588   0.524   1.597   6.635
 3897SOL     OW12589   3.521   6.486   2.059
 3897SOL    HW112590   3.593   6.475   2.127
 3897SOL    HW212591   3.553   6.546   1.986
 3898SOL     OW12592   3.578   3.446   4.028
 3898SOL    HW112593   3.542   3.356   4.052
 3898SOL    HW212594   3.558   3.511   4.101
 3899SOL     OW12595   5.081   1.009   4.708
 3899SOL    HW112596   5.106   0.922   4.665
 3899SOL    HW212597   5.164   1.059   4.733
 3900SOL     OW12598   4.971   2.537   4.038
 3900SOL    HW112599   5.062   2.505   4.064
 3900SOL    HW212600   4.904   2.466   4.058
 3901SOL     OW12601   3.041   6.310   5.446
 3901SOL    HW112602   2.970   6.247   5.414
 3901SOL    HW212603   3.124   6.297   5.391
 3902SOL     OW12604   5.987   3.708   1.356
 3902SOL    HW112605   6.055   3.635   1.367
 3902SOL    HW212606   5.900   3.668   1.325
 3903SOL     OW12607   5.085   4.486   6.770
 3903SOL    HW112608   5.150   4.460   6.842
 3903SOL    HW212609   5.074   4.586   6.769
 3904SOL     OW12610   2.391   6.595   5.538
 3904SOL    HW112611   2.320   6.576   5.606
 3904SOL    HW212612   2.457   6.660   5.576
 3905SOL     OW12613   5.895   6.914   5.746
 3905SOL    HW112614   5.974   6.883   5.694
 3905SOL    HW212615   5.891   7.014   5.747
 3906SOL     OW12616   2.254   5.589   5.529
 3906SOL    HW112617   2.292   5.620   5.616
 3906SOL    HW212618   2.329   5.569   5.465
 3907SOL     OW12619   6.695   6.808   4.919
 3907SOL    HW112620   6.626   6.880   4.925
 3907SOL    HW212621   6.668   6.729   4.973
 3908SOL     OW12622   1.431   0.975   6.766
 3908SOL    HW112623   1.466   0.998   6.676
 3908SOL    HW212624   1.429   1.056   6.824
 3909SOL     OW12625   0.121   4.870   6.501
 3909SOL    HW112626   0.038   4.925   6.507
 3909SOL    HW212627   0.100   4.774   6.521
 3910SOL     OW12628   3.664   4.131   1.864
 3910SOL    HW112629   3.618   4.048   1.832
 3910SOL    HW212630   3.685   4.121   1.961
 3911SOL     OW12631   4.543   1.705   0.195
 3911SOL    HW112632   4.494   1.619   0.181
 3911SOL    HW212633   4.482   1.781   0.175
 3912SOL     OW12634   3.548   1.720   6.282
 3912SOL    HW112635   3.469   1.662   6.301
 3912SOL    HW212636   3.529   1.814   6.311
 3913SOL     OW12637   2.916   6.226   6.756
 3913SOL    HW112638   2.929   6.325   6.766
 3913SOL    HW212639   2.972   6.191   6.681
 3914SOL     OW12640   5.139   0.704   1.270
 3914SOL    HW112641   5.085   0.713   1.187
 3914SOL    HW212642   5.135   0.609   1.302
 3915SOL     OW12643   4.188   6.415   0.802
 3915SOL    HW112644   4.165   6.318   0.796
 3915SOL    HW212645   4.246   6.440   0.724
 3916SOL     OW12646   1.972   6.555   2.500
 3916SOL    HW112647   1.879   6.564   2.535
 3916SOL    HW212648   2.036   6.545   2.576
 3917SOL     OW12649   1.166   4.376   0.769
 3917SOL    HW112650   1.130   4.409   0.683
 3917SOL    HW212651   1.166   4.276   0.769
 3918SOL     OW12652   4.322   6.481   1.929
 3918SOL    HW112653   4.347   6.563   1.877
 3918SOL    HW212654   4.269   6.508   2.010
 3919SOL     OW12655   3.150   0.059   6.621
 3919SOL    HW112656   3.147   0.136   6.558
 3919SOL    HW212657   3.068   0.060   6.679
 3920SOL     OW12658   2.572   2.273   6.335
 3920SOL    HW112659   2.567   2.367   6.301
 3920SOL    HW212660   2.651   2.264   6.395
 3921SOL     OW12661   0.426   3.181   0.129
 3921SOL    HW112662   0.392   3.186   0.223
 3921SOL    HW212663   0.520   3.148   0.130
 3922SOL     OW12664   4.488   5.099   0.451
 3922SOL    HW112665   4.394   5.129   0.466
 3922SOL    HW212666   4.551   5.169   0.485
 3923SOL     OW12667   6.310   1.914   0.296
 3923SOL    HW112668   6.233   1.955   0.345
 3923SOL    HW212669   6.364   1.986   0.253
 3924SOL     OW12670   0.498   4.876   2.895
 3924SOL    HW112671   0.467   4.970   2.880
 3924SOL    HW212672   0.421   4.819   2.922
 3925SOL     OW12673   4.141   4.359   0.683
 3925SOL    HW112674   4.206   4.310   0.741
 3925SOL    HW212675   4.190   4.426   0.628
 3926SOL     OW12676   6.898   6.794   4.009
 3926SOL    HW112677   6.978   6.813   4.066
 3926SOL    HW212678   6.907   6.841   3.922
 3927SOL     OW12679   0.204   2.929   4.652
 3927SOL    HW112680   0.267   2.895   4.582
 3927SOL    HW212681   0.147   3.001   4.613
 3928SOL     OW12682   4.133   5.835   5.006
 3928SOL    HW112683   4.220   5.869   5.042
 3928SOL    HW212684   4.142   5.739   4.982
 3929SOL     OW12685   0.189   1.706   6.671
 3929SOL    HW112686   0.205   1.760   6.588
 3929SOL    HW212687   0.270   1.650   6.691
 3930SOL     OW12688   1.451   1.984   3.305
 3930SOL    HW112689   1.549   2.002   3.296
 3930SOL    HW212690   1.438   1.892   3.342
 3931SOL     OW12691   2.110   1.777   2.020
 3931SOL    HW112692   2.016   1.755   1.994
 3931SOL    HW212693   2.109   1.848   2.091
 3932SOL     OW12694   1.736   4.113   3.680
 3932SOL    HW112695   1.708   4.195   3.630
 3932SOL    HW212696   1.750   4.136   3.776
 3933SOL     OW12697   1.745   6.904   0.169
 3933SOL    HW112698   1.669   6.945   0.219
 3933SOL    HW212699   1.722   6.810   0.144
 3934SOL     OW12700   0.366   0.620   2.191
 3934SOL    HW112701   0.438   0.665   2.139
 3934SOL    HW212702   0.360   0.524   2.165
 3935SOL     OW12703   1.704   1.035   5.468
 3935SOL    HW112704   1.735   1.129   5.479
 3935SOL    HW212705   1.627   1.017   5.529
 3936SOL     OW12706   6.603   6.395   5.257
 3936SOL    HW112707   6.685   6.343   5.283
 3936SOL    HW212708   6.552   6.344   5.188
 3937SOL     OW12709   6.944   6.597   2.909
 3937SOL    HW112710   6.878   6.576   2.837
 3937SOL    HW212711   6.965   6.514   2.961
 3938SOL     OW12712   5.939   2.800   3.611
 3938SOL    HW112713   5.950   2.889   3.566
 3938SOL    HW212714   5.984   2.801   3.700
 3939SOL     OW12715   2.799   2.110   3.115
 3939SOL    HW112716   2.779   2.202   3.082
 3939SOL    HW212717   2.802   2.110   3.215
 3940SOL     OW12718   3.734   4.901   2.110
 3940SOL    HW112719   3.674   4.895   2.189
 3940SOL    HW212720   3.705   4.836   2.039
 3941SOL     OW12721   6.235   0.382   4.936
 3941SOL    HW112722   6.218   0.480   4.934
 3941SOL    HW212723   6.317   0.361   4.883
 3942SOL     OW12724   0.986   6.324   5.701
 3942SOL    HW112725   1.032   6.381   5.769
 3942SOL    HW212726   0.983   6.373   5.614
 3943SOL     OW12727   0.334   3.453   2.411
 3943SOL    HW112728   0.331   3.355   2.395
 3943SOL    HW212729   0.294   3.474   2.500
 3944SOL     OW12730   5.660   3.712   5.509
 3944SOL    HW112731   5.700   3.771   5.579
 3944SOL    HW212732   5.731   3.682   5.446
 3945SOL     OW12733   1.325   2.558   2.853
 3945SOL    HW112734   1.271   2.612   2.788
 3945SOL    HW212735   1.291   2.463   2.853
 3946SOL     OW12736   6.807   4.151   6.308
 3946SOL    HW112737   6.883   4.213   6.286
 3946SOL    HW212738   6.720   4.201   6.299
 3947SOL     OW12739   5.556   5.540   1.247
 3947SOL    HW112740   5.619   5.512   1.175
 3947SOL    HW212741   5.578   5.491   1.331
 3948SOL     OW12742   0.650   4.933   0.529
 3948SOL    HW112743   0.569   4.992   0.532
 3948SOL    HW212744   0.732   4.989   0.532
 3949SOL     OW12745   6.124   6.726   3.093
 3949SOL    HW112746   6.093   6.769   3.008
 3949SOL    HW212747   6.062   6.750   3.167
 3950SOL     OW12748   3.490   4.067   1.341
 3950SOL    HW112749   3.570   4.006   1.340
 3950SOL    HW212750   3.407   4.014   1.324
 3951SOL     OW12751   0.244   0.568   6.963
 3951SOL    HW112752   0.195   0.647   6.999
 3951SOL    HW212753   0.330   0.556   7.013
 3952SOL     OW12754   6.016   3.538   4.688
 3952SOL    HW112755   5.962   3.585   4.618
 3952SOL    HW212756   6.105   3.512   4.649
 3953SOL     OW12757   3.523   4.743   6.928
 3953SOL    HW112758   3.449   4.789   6.880
 3953SOL    HW212759   3.550   4.796   7.008
 3954SOL     OW12760   5.735   5.401   5.467
 3954SOL    HW112761   5.728   5.406   5.567
 3954SOL    HW212762   5.763   5.309   5.441
 3955SOL     OW12763   4.571   6.810   6.923
 3955SOL    HW112764   4.494   6.750   6.902
 3955SOL    HW212765   4.546   6.869   7.000
 3956SOL     OW12766   1.418   2.018   4.496
 3956SOL    HW112767   1.358   1.995   4.573
 3956SOL    HW212768   1.449   2.113   4.505
 3957SOL     OW12769   4.235   0.041   3.415
 3957SOL    HW112770   4.158   0.086   3.369
 3957SOL    HW212771   4.227   0.054   3.513
 3958SOL     OW12772   5.839   0.053   6.219
 3958SOL    HW112773   5.740   0.047   6.211
 3958SOL    HW212774   5.879   6.983   6.197
 3959SOL     OW12775   3.318   6.983   0.812
 3959SOL    HW112776   3.401   6.944   0.851
 3959SOL    HW212777   3.258   6.909   0.781
 3960SOL     OW12778   6.011   2.056   5.983
 3960SOL    HW112779   5.989   2.004   5.900
 3960SOL    HW212780   5.954   2.024   6.058
 3961SOL     OW12781   5.251   2.924   2.575
 3961SOL    HW112782   5.214   2.865   2.648
 3961SOL    HW212783   5.346   2.945   2.595
 3962SOL     OW12784   1.163   5.822   6.507
 3962SOL    HW112785   1.195   5.891   6.443
 3962SOL    HW212786   1.224   5.820   6.587
 3963SOL     OW12787   5.113   4.938   3.615
 3963SOL    HW112788   5.101   4.953   3.517
 3963SOL    HW212789   5.068   5.011   3.666
 3964SOL     OW12790   4.274   4.767   4.791
 3964SOL    HW112791   4.343   4.721   4.847
 3964SOL    HW212792   4.183   4.743   4.823
 3965SOL     OW12793   4.056   3.863   6.317
 3965SOL    HW112794   4.110   3.831   6.395
 3965SOL    HW212795   4.059   3.963   6.313
 3966SOL     OW12796   6.869   5.056   0.237
 3966SOL    HW112797   6.773   5.030   0.223
 3966SOL    HW212798   6.897   5.031   0.329
 3967SOL     OW12799   1.527   4.625   2.455
 3967SOL    HW112800   1.518   4.531   2.488
 3967SOL    HW212801   1.624   4.650   2.451
 3968SOL     OW12802   6.695   0.366   1.123
 3968SOL    HW112803   6.771   0.311   1.157
 3968SOL    HW212804   6.658   0.324   1.040
 3969SOL     OW12805   0.262   3.718   3.057
 3969SOL    HW112806   0.351   3.698   3.098
 3969SOL    HW212807   0.227   3.804   3.094
 3970SOL     OW12808   4.007   5.335   3.701
 3970SOL    HW112809   3.947   5.275   3.648
 3970SOL    HW212810   4.068   5.279   3.758
 3971SOL     OW12811   2.313   4.738   2.222
 3971SOL    HW112812   2.394   4.680   2.208
 3971SOL    HW212813   2.231   4.682   2.213
 3972SOL     OW12814   2.048   5.528   1.697
 3972SOL    HW112815   2.122   5.542   1.763
 3972SOL    HW212816   2.079   5.466   1.625
 3973SOL     OW12817   2.334   4.366   5.346
 3973SOL    HW112818   2.290   4.283   5.311
 3973SOL    HW212819   2.267   4.421   5.395
 3974SOL     OW12820   2.152   0.853   5.793
 3974SOL    HW112821   2.094   0.933   5.777
 3974SOL    HW212822   2.140   0.821   5.887
 3975SOL     OW12823   5.904   6.969   6.656
 3975SOL    HW112824   5.953   0.035   6.639
 3975SOL    HW212825   5.858   6.939   6.572
 3976SOL     OW12826   2.204   4.941   0.986
 3976SOL    HW112827   2.138   4.881   1.031
 3976SOL    HW212828   2.294   4.898   0.987
 3977SOL     OW12829   3.071   4.817   5.555
 3977SOL    HW112830   2.990   4.830   5.612
 3977SOL    HW212831   3.080   4.720   5.532
 3978SOL     OW12832   5.866   0.677   4.407
 3978SOL    HW112833   5.952   0.702   4.362
 3978SOL    HW212834   5.882   0.600   4.468
 3979SOL     OW12835   2.440   6.122   1.507
 3979SOL    HW112836   2.354   6.127   1.558
 3979SOL    HW212837   2.428   6.065   1.426
 3980SOL     OW12838   0.251   4.412   6.275
 3980SOL    HW112839   0.156   4.396   6.302
 3980SOL    HW212840   0.288   4.328   6.233
 3981SOL     OW12841   1.725   1.668   6.809
 3981SOL    HW112842   1.746   1.760   6.842
 3981SOL    HW212843   1.654   1.673   6.739
 3982SOL     OW12844   2.255   0.443   4.209
 3982SOL    HW112845   2.338   0.470   4.258
 3982SOL    HW212846   2.242   0.344   4.219
 3983SOL     OW12847   3.652   5.576   4.382
 3983SOL    HW112848   3.569   5.621   4.417
 3983SOL    HW212849   3.635   5.544   4.289
 3984SOL     OW12850   2.295   0.653   2.060
 3984SOL    HW112851   2.343   0.620   1.979
 3984SOL    HW212852   2.207   0.606   2.069
 3985SOL     OW12853   2.152   4.235   6.680
 3985SOL    HW112854   2.148   4.209   6.583
 3985SOL    HW212855   2.072   4.292   6.702
 3986SOL     OW12856   6.730   1.573   3.362
 3986SOL    HW112857   6.635   1.601   3.346
 3986SOL    HW212858   6.732   1.499   3.429
 3987SOL     OW12859   1.535   5.844   4.933
 3987SOL    HW112860   1.586   5.775   4.984
 3987SOL    HW212861   1.486   5.903   4.997
 3988SOL     OW12862   3.935   2.887   5.606
 3988SOL    HW112863   3.968   2.848   5.520
 3988SOL    HW212864   3.877   2.821   5.654
 3989SOL     OW12865   6.655   1.492   0.179
 3989SOL    HW112866   6.680   1.586   0.155
 3989SOL    HW212867   6.658   1.481   0.279
 3990SOL     OW12868   6.265   1.514   3.773
 3990SOL    HW112869   6.169   1.497   3.750
 3990SOL    HW212870   6.290   1.457   3.851
 3991SOL     OW12871   5.982   1.508   2.209
 3991SOL    HW112872   5.888   1.503   2.176
 3991SOL    HW212873   5.982   1.522   2.308
 3992SOL     OW12874   4.229   1.916   6.445
 3992SOL    HW112875   4.311   1.973   6.435
 3992SOL    HW212876   4.171   1.954   6.516
 3993SOL     OW12877   1.289   2.162   3.478
 3993SOL    HW112878   1.294   2.254   3.438
 3993SOL    HW212879   1.324   2.095   3.413
 3994SOL     OW12880   1.634   2.816   5.475
 3994SOL    HW112881   1.619   2.880   5.551
 3994SOL    HW212882   1.546   2.797   5.430
 3995SOL     OW12883   2.124   3.734   4.311
 3995SOL    HW112884   2.146   3.651   4.363
 3995SOL    HW212885   2.041   3.776   4.349
 3996SOL     OW12886   1.612   0.757   4.806
 3996SOL    HW112887   1.633   0.745   4.709
 3996SOL    HW212888   1.607   0.855   4.826
 3997SOL     OW12889   4.716   2.764   3.019
 3997SOL    HW112890   4.760   2.792   2.934
 3997SOL    HW212891   4.713   2.841   3.082
 3998SOL     OW12892   4.841   1.709   2.395
 3998SOL    HW112893   4.758   1.661   2.423
 3998SOL    HW212894   4.883   1.660   2.318
 3999SOL     OW12895   5.163   3.299   3.632
 3999SOL    HW112896   5.226   3.367   3.670
 3999SOL    HW212897   5.082   3.291   3.690
 4000SOL     OW12898   3.513   5.716   2.690
 4000SOL    HW112899   3.438   5.775   2.717
 4000SOL    HW212900   3.477   5.634   2.646
 4001SOL     OW12901   1.593   2.702   4.570
 4001SOL    HW112902   1.613   2.707   4.473
 4001SOL    HW212903   1.608   2.609   4.603
 4002SOL     OW12904   2.583   3.000   0.174
 4002SOL    HW112905   2.557   2.962   0.085
 4002SOL    HW212906   2.562   3.098   0.176
 4003SOL     OW12907   2.693   6.873   5.899
 4003SOL    HW112908   2.678   6.874   5.998
 4003SOL    HW212909   2.706   6.966   5.866
 4004SOL     OW12910   5.995   2.629   4.174
 4004SOL    HW112911   5.903   2.642   4.211
 4004SOL    HW212912   6.062   2.675   4.232
 4005SOL     OW12913   5.082   5.268   1.091
 4005SOL    HW112914   5.093   5.325   1.010
 4005SOL    HW212915   5.142   5.301   1.164
 4006SOL     OW12916   4.504   4.638   1.826
 4006SOL    HW112917   4.533   4.601   1.914
 4006SOL    HW212918   4.543   4.729   1.813
 4007SOL     OW12919   0.590   2.989   2.007
 4007SOL    HW112920   0.556   2.996   1.913
 4007SOL    HW212921   0.689   2.973   2.005
 4008SOL     OW12922   3.586   1.762   4.957
 4008SOL    HW112923   3.532   1.847   4.961
 4008SOL    HW212924   3.601   1.737   4.861
 4009SOL     OW12925   5.072   2.499   0.496
 4009SOL    HW112926   5.072   2.572   0.564
 4009SOL    HW212927   5.077   2.411   0.542
 4010SOL     OW12928   1.925   3.619   1.253
 4010SOL    HW112929   1.910   3.526   1.220
 4010SOL    HW212930   1.977   3.615   1.338
 4011SOL     OW12931   1.112   6.936   2.028
 4011SOL    HW112932   1.148   7.016   2.076
 4011SOL    HW212933   1.071   6.873   2.093
 4012SOL     OW12934   4.413   4.520   1.181
 4012SOL    HW112935   4.379   4.507   1.274
 4012SOL    HW212936   4.337   4.529   1.118
 4013SOL     OW12937   2.786   0.461   1.006
 4013SOL    HW112938   2.690   0.459   1.032
 4013SOL    HW212939   2.838   0.516   1.071
 4014SOL     OW12940   4.187   5.533   3.548
 4014SOL    HW112941   4.172   5.557   3.451
 4014SOL    HW212942   4.125   5.459   3.574
 4015SOL     OW12943   4.069   4.840   6.049
 4015SOL    HW112944   3.969   4.842   6.037
 4015SOL    HW212945   4.094   4.889   6.132
 4016SOL     OW12946   0.984   5.272   6.657
 4016SOL    HW112947   1.059   5.338   6.663
 4016SOL    HW212948   1.016   5.182   6.688
 4017SOL     OW12949   0.474   6.894   0.322
 4017SOL    HW112950   0.499   6.958   0.395
 4017SOL    HW212951   0.377   6.871   0.331
 4018SOL     OW12952   5.889   6.428   1.952
 4018SOL    HW112953   5.835   6.431   2.036
 4018SOL    HW212954   5.927   6.336   1.940
 4019SOL     OW12955   5.804   3.826   2.083
 4019SOL    HW112956   5.751   3.795   2.162
 4019SOL    HW212957   5.898   3.795   2.091
 4020SOL     OW12958   6.344   2.728   5.802
 4020SOL    HW112959   6.323   2.745   5.705
 4020SOL    HW212960   6.282   2.658   5.837
 4021SOL     OW12961   2.857   4.175   5.784
 4021SOL    HW112962   2.946   4.183   5.740
 4021SOL    HW212963   2.824   4.081   5.775
 4022SOL     OW12964   4.371   0.218   6.690
 4022SOL    HW112965   4.295   0.239   6.628
 4022SOL    HW212966   4.334   0.182   6.776
 4023SOL     OW12967   6.871   0.944   4.026
 4023SOL    HW112968   6.932   0.905   3.957
 4023SOL    HW212969   6.836   1.032   3.993
 4024SOL     OW12970   2.744   5.138   4.100
 4024SOL    HW112971   2.785   5.220   4.140
 4024SOL    HW212972   2.689   5.091   4.168
 4025SOL     OW12973   0.338   5.914   4.867
 4025SOL    HW112974   0.270   5.987   4.860
 4025SOL    HW212975   0.357   5.895   4.963
 4026SOL     OW12976   6.517   0.009   3.319
 4026SOL    HW112977   6.453   6.978   3.261
 4026SOL    HW212978   6.610   7.017   3.284
 4027SOL     OW12979   2.643   2.810   0.943
 4027SOL    HW112980   2.661   2.716   0.973
 4027SOL    HW212981   2.557   2.841   0.982
 4028SOL     OW12982   3.084   2.162   2.700
 4028SOL    HW112983   3.163   2.194   2.649
 4028SOL    HW212984   3.003   2.167   2.642
 4029SOL     OW12985   2.916   4.696   6.016
 4029SOL    HW112986   3.009   4.661   6.017
 4029SOL    HW212987   2.914   4.785   5.970
 4030SOL     OW12988   1.006   1.892   0.416
 4030SOL    HW112989   1.036   1.985   0.396
 4030SOL    HW212990   0.939   1.893   0.491
 4031SOL     OW12991   4.952   6.517   3.631
 4031SOL    HW112992   4.878   6.534   3.565
 4031SOL    HW212993   5.028   6.580   3.612
 4032SOL     OW12994   6.513   0.325   2.308
 4032SOL    HW112995   6.585   0.367   2.254
 4032SOL    HW212996   6.475   0.393   2.371
 4033SOL     OW12997   2.936   3.701   1.906
 4033SOL    HW112998   2.966   3.773   1.968
 4033SOL    HW212999   2.963   3.724   1.812
 4034SOL     OW13000   0.025   1.584   4.616
 4034SOL    HW113001   0.122   1.608   4.618
 4034SOL    HW213002   7.001   1.628   4.537
 4035SOL     OW13003   6.797   2.670   0.665
 4035SOL    HW113004   6.719   2.729   0.684
 4035SOL    HW213005   6.773   2.604   0.594
 4036SOL     OW13006   5.117   6.460   2.570
 4036SOL    HW113007   5.207   6.437   2.532
 4036SOL    HW213008   5.046   6.433   2.506
 4037SOL     OW13009   2.151   1.234   0.785
 4037SOL    HW113010   2.060   1.197   0.802
 4037SOL    HW213011   2.213   1.160   0.760
 4038SOL     OW13012   4.381   4.040   1.682
 4038SOL    HW113013   4.468   4.034   1.632
 4038SOL    HW213014   4.385   4.115   1.747
 4039SOL     OW13015   4.587   4.334   1.445
 4039SOL    HW113016   4.518   4.264   1.426
 4039SOL    HW213017   4.632   4.360   1.359
 4040SOL     OW13018   3.710   0.172   5.749
 4040SOL    HW113019   3.790   0.232   5.744
 4040SOL    HW213020   3.654   0.198   5.828
 4041SOL     OW13021   2.296   5.257   1.140
 4041SOL    HW113022   2.297   5.158   1.146
 4041SOL    HW213023   2.211   5.287   1.097
 4042SOL     OW13024   6.435   5.524   2.769
 4042SOL    HW113025   6.418   5.496   2.863
 4042SOL    HW213026   6.494   5.457   2.724
 4043SOL     OW13027   4.953   2.215   4.506
 4043SOL    HW113028   4.958   2.149   4.430
 4043SOL    HW213029   4.912   2.300   4.473
 4044SOL     OW13030   4.691   0.057   3.312
 4044SOL    HW113031   4.668   0.131   3.250
 4044SOL    HW213032   4.616   7.010   3.316
 4045SOL     OW13033   2.648   5.296   5.892
 4045SOL    HW113034   2.718   5.224   5.893
 4045SOL    HW213035   2.634   5.327   5.798
 4046SOL     OW13036   1.207   1.448   3.602
 4046SOL    HW113037   1.180   1.468   3.696
 4046SOL    HW213038   1.293   1.398   3.602
 4047SOL     OW13039   1.775   2.382   0.752
 4047SOL    HW113040   1.781   2.286   0.725
 4047SOL    HW213041   1.679   2.413   0.747
 4048SOL     OW13042   5.154   2.192   2.083
 4048SOL    HW113043   5.253   2.198   2.099
 4048SOL    HW213044   5.128   2.259   2.012
 4049SOL     OW13045   6.499   5.970   6.385
 4049SOL    HW113046   6.400   5.972   6.372
 4049SOL    HW213047   6.539   6.057   6.358
 4050SOL     OW13048   1.261   6.481   0.505
 4050SOL    HW113049   1.268   6.580   0.493
 4050SOL    HW213050   1.321   6.436   0.438
 4051SOL     OW13051   3.690   2.927   6.991
 4051SOL    HW113052   3.607   2.890   6.949
 4051SOL    HW213053   3.754   2.853   7.012
 4052SOL     OW13054   0.165   0.774   2.353
 4052SOL    HW113055   0.257   0.795   2.385
 4052SOL    HW213056   0.099   0.795   2.426
 4053SOL     OW13057   3.163   5.265   4.085
 4053SOL    HW113058   3.184   5.177   4.041
 4053SOL    HW213059   3.248   5.313   4.106
 4054SOL     OW13060   0.032   3.225   2.230
 4054SOL    HW113061   7.013   3.310   2.193
 4054SOL    HW213062   0.112   3.199   2.177
 4055SOL     OW13063   3.939   3.238   6.149
 4055SOL    HW113064   3.962   3.330   6.182
 4055SOL    HW213065   3.842   3.219   6.168
 4056SOL     OW13066   3.963   3.716   0.921
 4056SOL    HW113067   4.015   3.657   0.860
 4056SOL    HW213068   4.010   3.804   0.931
 4057SOL     OW13069   5.427   2.301   1.648
 4057SOL    HW113070   5.345   2.269   1.601
 4057SOL    HW213071   5.401   2.368   1.718
 4058SOL     OW13072   1.852   0.127   3.961
 4058SOL    HW113073   1.937   0.100   4.006
 4058SOL    HW213074   1.795   0.177   4.026
 4059SOL     OW13075   0.863   2.727   3.678
 4059SOL    HW113076   0.866   2.795   3.605
 4059SOL    HW213077   0.791   2.660   3.658
 4060SOL     OW13078   4.679   5.196   4.714
 4060SOL    HW113079   4.724   5.238   4.635
 4060SOL    HW213080   4.580   5.200   4.702
 4061SOL     OW13081   3.484   5.458   1.468
 4061SOL    HW113082   3.413   5.388   1.468
 4061SOL    HW213083   3.555   5.433   1.401
 4062SOL     OW13084   2.940   1.840   3.115
 4062SOL    HW113085   2.968   1.824   3.020
 4062SOL    HW213086   2.892   1.927   3.122
 4063SOL     OW13087   6.123   6.343   5.071
 4063SOL    HW113088   6.025   6.331   5.051
 4063SOL    HW213089   6.138   6.436   5.107
 4064SOL     OW13090   1.766   6.543   3.700
 4064SOL    HW113091   1.707   6.476   3.743
 4064SOL    HW213092   1.726   6.634   3.708
 4065SOL     OW13093   6.956   6.703   0.659
 4065SOL    HW113094   7.017   6.625   0.651
 4065SOL    HW213095   6.960   6.740   0.752
 4066SOL     OW13096   5.089   5.431   2.822
 4066SOL    HW113097   5.145   5.354   2.791
 4066SOL    HW213098   5.120   5.515   2.777
 4067SOL     OW13099   5.822   3.274   3.072
 4067SOL    HW113100   5.738   3.329   3.069
 4067SOL    HW213101   5.830   3.220   2.988
 4068SOL     OW13102   3.501   0.386   4.608
 4068SOL    HW113103   3.482   0.290   4.585
 4068SOL    HW213104   3.463   0.445   4.538
 4069SOL     OW13105   4.298   4.363   6.269
 4069SOL    HW113106   4.224   4.427   6.253
 4069SOL    HW213107   4.284   4.316   6.356
 4070SOL     OW13108   0.565   3.705   2.120
 4070SOL    HW113109   0.564   3.766   2.199
 4070SOL    HW213110   0.548   3.758   2.037
 4071SOL     OW13111   1.231   0.899   5.750
 4071SOL    HW113112   1.165   0.863   5.684
 4071SOL    HW213113   1.300   0.829   5.769
 4072SOL     OW13114   0.920   5.661   4.038
 4072SOL    HW113115   0.973   5.683   3.956
 4072SOL    HW213116   0.955   5.714   4.116
 4073SOL     OW13117   2.696   5.761   5.938
 4073SOL    HW113118   2.640   5.828   5.988
 4073SOL    HW213119   2.680   5.670   5.975
 4074SOL     OW13120   0.146   2.867   1.791
 4074SOL    HW113121   0.159   2.799   1.718
 4074SOL    HW213122   0.063   2.920   1.771
 4075SOL     OW13123   3.721   2.121   2.454
 4075SOL    HW113124   3.723   2.096   2.551
 4075SOL    HW213125   3.777   2.202   2.440
 4076SOL     OW13126   2.953   3.977   5.511
 4076SOL    HW113127   2.888   4.014   5.444
 4076SOL    HW213128   2.906   3.966   5.599
 4077SOL     OW13129   3.694   0.041   0.067
 4077SOL    HW113130   3.674   0.049   0.165
 4077SOL    HW213131   3.682   6.966   0.038
 4078SOL     OW13132   6.098   5.411   2.106
 4078SOL    HW113133   6.182   5.450   2.145
 4078SOL    HW213134   6.095   5.313   2.125
 4079SOL     OW13135   0.559   2.018   3.666
 4079SOL    HW113136   0.514   1.936   3.701
 4079SOL    HW213137   0.530   2.035   3.572
 4080SOL     OW13138   2.228   3.557   0.362
 4080SOL    HW113139   2.281   3.508   0.431
 4080SOL    HW213140   2.264   3.650   0.351
 4081SOL     OW13141   1.747   2.030   3.998
 4081SOL    HW113142   1.844   2.011   3.988
 4081SOL    HW213143   1.700   1.949   4.034
 4082SOL     OW13144   1.771   2.611   1.111
 4082SOL    HW113145   1.780   2.676   1.186
 4082SOL    HW213146   1.779   2.518   1.146
 4083SOL     OW13147   6.117   4.435   2.013
 4083SOL    HW113148   6.216   4.427   2.026
 4083SOL    HW213149   6.073   4.445   2.102
 4084SOL     OW13150   4.557   2.182   3.220
 4084SOL    HW113151   4.548   2.088   3.188
 4084SOL    HW213152   4.551   2.184   3.320
 4085SOL     OW13153   2.663   5.589   1.012
 4085SOL    HW113154   2.692   5.614   1.105
 4085SOL    HW213155   2.566   5.569   1.012
 4086SOL     OW13156   0.129   4.651   1.140
 4086SOL    HW113157   0.167   4.705   1.064
 4086SOL    HW213158   0.178   4.564   1.147
 4087SOL     OW13159   1.716   1.534   2.932
 4087SOL    HW113160   1.619   1.554   2.922
 4087SOL    HW213161   1.765   1.566   2.851
 4088SOL     OW13162   6.489   1.017   6.373
 4088SOL    HW113163   6.405   0.971   6.346
 4088SOL    HW213164   6.497   1.017   6.473
 4089SOL     OW13165   6.414   4.686   4.125
 4089SOL    HW113166   6.509   4.665   4.101
 4089SOL    HW213167   6.402   4.673   4.224
 4090SOL     OW13168   1.602   5.839   5.724
 4090SOL    HW113169   1.683   5.820   5.780
 4090SOL    HW213170   1.624   5.826   5.627
 4091SOL     OW13171   0.393   6.206   0.309
 4091SOL    HW113172   0.397   6.243   0.217
 4091SOL    HW213173   0.347   6.117   0.308
 4092SOL     OW13174   5.657   2.591   4.000
 4092SOL    HW113175   5.593   2.605   3.924
 4092SOL    HW213176   5.733   2.655   3.991
 4093SOL     OW13177   4.923   6.215   1.414
 4093SOL    HW113178   5.013   6.252   1.391
 4093SOL    HW213179   4.874   6.282   1.470
 4094SOL     OW13180   1.298   4.716   6.005
 4094SOL    HW113181   1.206   4.689   6.034
 4094SOL    HW213182   1.339   4.775   6.075
 4095SOL     OW13183   0.137   3.850   0.238
 4095SOL    HW113184   0.185   3.810   0.160
 4095SOL    HW213185   0.193   3.839   0.320
 4096SOL     OW13186   4.392   0.695   6.684
 4096SOL    HW113187   4.297   0.725   6.675
 4096SOL    HW213188   4.396   0.608   6.732
 4097SOL     OW13189   4.602   4.611   4.508
 4097SOL    HW113190   4.612   4.551   4.587
 4097SOL    HW213191   4.678   4.677   4.507
 4098SOL     OW13192   0.920   2.167   1.819
 4098SOL    HW113193   0.928   2.230   1.896
 4098SOL    HW213194   0.911   2.074   1.853
 4099SOL     OW13195   3.926   5.296   1.038
 4099SOL    HW113196   3.859   5.343   0.981
 4099SOL    HW213197   3.952   5.210   0.995
 4100SOL     OW13198   0.243   6.668   4.294
 4100SOL    HW113199   0.251   6.574   4.264
 4100SOL    HW213200   0.316   6.688   4.360
 4101SOL     OW13201   0.284   1.482   0.657
 4101SOL    HW113202   0.365   1.459   0.711
 4101SOL    HW213203   0.266   1.580   0.665
 4102SOL     OW13204   1.306   0.989   0.942
 4102SOL    HW113205   1.363   0.979   0.860
 4102SOL    HW213206   1.327   1.076   0.986
 4103SOL     OW13207   0.453   6.705   1.270
 4103SOL    HW113208   0.434   6.658   1.356
 4103SOL    HW213209   0.458   6.639   1.196
 4104SOL     OW13210   0.483   4.566   3.388
 4104SOL    HW113211   0.481   4.626   3.468
 4104SOL    HW213212   0.567   4.584   3.336
 4105SOL     OW13213   5.738   0.360   3.052
 4105SOL    HW113214   5.838   0.355   3.054
 4105SOL    HW213215   5.706   0.352   2.958
 4106SOL     OW13216   0.189   3.105   3.401
 4106SOL    HW113217   0.197   3.194   3.355
 4106SOL    HW213218   0.110   3.106   3.462
 4107SOL     OW13219   1.334   5.701   1.037
 4107SOL    HW113220   1.238   5.726   1.047
 4107SOL    HW213221   1.367   5.729   0.947
 4108SOL     OW13222   6.792   4.906   4.422
 4108SOL    HW113223   6.842   4.896   4.335
 4108SOL    HW213224   6.786   4.817   4.466
 4109SOL     OW13225   6.448   0.379   4.719
 4109SOL    HW113226   6.467   0.282   4.709
 4109SOL    HW213227   6.431   0.420   4.629
 4110SOL     OW13228   4.279   3.510   6.066
 4110SOL    HW113229   4.236   3.600   6.063
 4110SOL    HW213230   4.311   3.485   5.974
 4111SOL     OW13231   5.627   4.697   6.458
 4111SOL    HW113232   5.715   4.654   6.440
 4111SOL    HW213233   5.565   4.679   6.382
 4112SOL     OW13234   4.655   6.236   4.605
 4112SOL    HW113235   4.628   6.213   4.512
 4112SOL    HW213236   4.681   6.152   4.654
 4113SOL     OW13237   5.214   5.596   5.082
 4113SOL    HW113238   5.274   5.524   5.050
 4113SOL    HW213239   5.239   5.623   5.175
 4114SOL     OW13240   3.863   1.971   3.946
 4114SOL    HW113241   3.887   1.875   3.934
 4114SOL    HW213242   3.933   2.029   3.903
 4115SOL     OW13243   3.377   5.030   2.049
 4115SOL    HW113244   3.303   4.962   2.042
 4115SOL    HW213245   3.465   4.983   2.050
 4116SOL     OW13246   3.943   1.577   3.067
 4116SOL    HW113247   4.023   1.563   3.125
 4116SOL    HW213248   3.861   1.582   3.124
 4117SOL     OW13249   0.768   3.454   2.493
 4117SOL    HW113250   0.706   3.531   2.479
 4117SOL    HW213251   0.717   3.377   2.532
 4118SOL     OW13252   5.315   6.754   0.418
 4118SOL    HW113253   5.356   6.727   0.331
 4118SOL    HW213254   5.264   6.676   0.456
 4119SOL     OW13255   2.920   1.401   3.900
 4119SOL    HW113256   2.852   1.473   3.887
 4119SOL    HW213257   2.874   1.317   3.930
 4120SOL     OW13258   3.725   0.748   5.325
 4120SOL    HW113259   3.736   0.829   5.267
 4120SOL    HW213260   3.779   0.759   5.409
 4121SOL     OW13261   6.563   0.052   3.617
 4121SOL    HW113262   6.574   6.990   3.560
 4121SOL    HW213263   6.648   0.104   3.618
 4122SOL     OW13264   1.449   6.932   4.485
 4122SOL    HW113265   1.419   7.013   4.536
 4122SOL    HW213266   1.384   6.857   4.501
 4123SOL     OW13267   4.240   4.564   5.504
 4123SOL    HW113268   4.284   4.564   5.594
 4123SOL    HW213269   4.141   4.571   5.516
 4124SOL     OW13270   6.497   6.374   0.421
 4124SOL    HW113271   6.544   6.461   0.438
 4124SOL    HW213272   6.403   6.379   0.454
 4125SOL     OW13273   4.405   1.935   2.930
 4125SOL    HW113274   4.463   1.970   3.004
 4125SOL    HW213275   4.448   1.956   2.842
 4126SOL     OW13276   1.883   3.110   3.285
 4126SOL    HW113277   1.923   3.156   3.365
 4126SOL    HW213278   1.919   3.017   3.280
 4127SOL     OW13279   5.643   3.802   5.203
 4127SOL    HW113280   5.675   3.720   5.250
 4127SOL    HW213281   5.577   3.775   5.131
 4128SOL     OW13282   1.009   3.154   1.338
 4128SOL    HW113283   1.073   3.219   1.377
 4128SOL    HW213284   0.931   3.203   1.298
 4129SOL     OW13285   3.366   0.815   6.782
 4129SOL    HW113286   3.453   0.822   6.734
 4129SOL    HW213287   3.307   0.749   6.735
 4130SOL     OW13288   6.384   2.751   0.741
 4130SOL    HW113289   6.436   2.835   0.731
 4130SOL    HW213290   6.369   2.711   0.651
 4131SOL     OW13291   0.522   1.313   3.222
 4131SOL    HW113292   0.616   1.332   3.191
 4131SOL    HW213293   0.470   1.398   3.223
 4132SOL     OW13294   4.803   4.113   3.600
 4132SOL    HW113295   4.796   4.038   3.665
 4132SOL    HW213296   4.811   4.077   3.507
 4133SOL     OW13297   3.501   6.138   1.457
 4133SOL    HW113298   3.502   6.039   1.465
 4133SOL    HW213299   3.591   6.171   1.431
 4134SOL     OW13300   1.920   3.884   1.220
 4134SOL    HW113301   1.994   3.931   1.269
 4134SOL    HW213302   1.928   3.786   1.233
 4135SOL     OW13303   0.553   2.320   2.300
 4135SOL    HW113304   0.607   2.381   2.358
 4135SOL    HW213305   0.564   2.346   2.205
 4136SOL     OW13306   1.106   3.253   3.070
 4136SOL    HW113307   1.139   3.201   2.991
 4136SOL    HW213308   1.033   3.314   3.041
 4137SOL     OW13309   1.445   3.587   1.331
 4137SOL    HW113310   1.495   3.547   1.408
 4137SOL    HW213311   1.508   3.638   1.273
 4138SOL     OW13312   4.078   5.756   2.646
 4138SOL    HW113313   3.986   5.746   2.684
 4138SOL    HW213314   4.141   5.785   2.719
 4139SOL     OW13315   1.543   1.501   5.547
 4139SOL    HW113316   1.568   1.505   5.450
 4139SOL    HW213317   1.471   1.567   5.565
 4140SOL     OW13318   3.532   0.679   5.155
 4140SOL    HW113319   3.563   0.677   5.060
 4140SOL    HW213320   3.611   0.698   5.215
 4141SOL     OW13321   4.980   6.048   1.078
 4141SOL    HW113322   4.920   6.115   1.121
 4141SOL    HW213323   4.925   5.972   1.042
 4142SOL     OW13324   6.465   5.002   1.102
 4142SOL    HW113325   6.527   4.954   1.040
 4142SOL    HW213326   6.508   5.088   1.133
 4143SOL     OW13327   5.901   2.462   1.034
 4143SOL    HW113328   5.867   2.449   1.127
 4143SOL    HW213329   5.962   2.386   1.010
 4144SOL     OW13330   4.836   1.698   0.113
 4144SOL    HW113331   4.747   1.716   0.155
 4144SOL    HW213332   4.846   1.755   0.031
 4145SOL     OW13333   0.180   6.484   1.890
 4145SOL    HW113334   0.121   6.542   1.945
 4145SOL    HW213335   0.127   6.408   1.852
 4146SOL     OW13336   6.354   0.203   3.392
 4146SOL    HW113337   6.257   0.182   3.378
 4146SOL    HW213338   6.408   0.118   3.389
 4147SOL     OW13339   4.505   4.956   5.941
 4147SOL    HW113340   4.525   4.872   5.891
 4147SOL    HW213341   4.411   4.984   5.923
 4148SOL     OW13342   2.543   0.310   4.563
 4148SOL    HW113343   2.591   0.267   4.486
 4148SOL    HW213344   2.565   0.260   4.647
 4149SOL     OW13345   0.005   4.050   1.454
 4149SOL    HW113346   0.088   3.999   1.476
 4149SOL    HW213347   0.029   4.133   1.403
 4150SOL     OW13348   1.366   0.648   5.862
 4150SOL    HW113349   1.304   0.634   5.938
 4150SOL    HW213350   1.366   0.566   5.804
 4151SOL     OW13351   3.278   6.206   5.646
 4151SOL    HW113352   3.264   6.126   5.703
 4151SOL    HW213353   3.210   6.276   5.670
 4152SOL     OW13354   4.413   5.931   1.240
 4152SOL    HW113355   4.338   5.924   1.174
 4152SOL    HW213356   4.382   5.983   1.320
 4153SOL     OW13357   5.762   5.440   1.081
 4153SOL    HW113358   5.797   5.362   1.133
 4153SOL    HW213359   5.836   5.506   1.066
 4154SOL     OW13360   0.031   5.093   3.980
 4154SOL    HW113361   6.964   5.143   3.973
 4154SOL    HW213362   0.107   5.158   3.985
 4155SOL     OW13363   6.891   1.182   1.379
 4155SOL    HW113364   6.971   1.122   1.375
 4155SOL    HW213365   6.905   1.252   1.449
 4156SOL     OW13366   6.023   5.927   4.837
 4156SOL    HW113367   5.966   5.937   4.919
 4156SOL    HW213368   5.965   5.903   4.759
 4157SOL     OW13369   4.934   5.815   4.405
 4157SOL    HW113370   4.834   5.806   4.401
 4157SOL    HW213371   4.960   5.909   4.385
 4158SOL     OW13372   0.883   2.966   1.989
 4158SOL    HW113373   0.921   2.881   2.025
 4158SOL    HW213374   0.872   2.959   1.890
 4159SOL     OW13375   2.150   3.005   3.071
 4159SOL    HW113376   2.173   3.093   3.029
 4159SOL    HW213377   2.221   2.981   3.138
 4160SOL     OW13378   5.189   0.869   0.316
 4160SOL    HW113379   5.221   0.956   0.278
 4160SOL    HW213380   5.107   0.840   0.267
 4161SOL     OW13381   1.052   2.205   0.856
 4161SOL    HW113382   0.962   2.198   0.898
 4161SOL    HW213383   1.114   2.254   0.917
 4162SOL     OW13384   6.719   6.011   0.127
 4162SOL    HW113385   6.676   6.013   0.037
 4162SOL    HW213386   6.654   6.042   0.196
 4163SOL     OW13387   4.961   0.205   3.175
 4163SOL    HW113388   4.994   0.117   3.209
 4163SOL    HW213389   5.039   0.266   3.159
 4164SOL     OW13390   2.056   6.586   5.577
 4164SOL    HW113391   2.070   6.488   5.590
 4164SOL    HW213392   2.106   6.636   5.647
 4165SOL     OW13393   4.539   0.694   5.783
 4165SOL    HW113394   4.621   0.712   5.838
 4165SOL    HW213395   4.459   0.691   5.843
 4166SOL     OW13396   5.371   1.683   0.655
 4166SOL    HW113397   5.424   1.598   0.657
 4166SOL    HW213398   5.274   1.662   0.652
 4167SOL     OW13399   2.137   4.581   6.862
 4167SOL    HW113400   2.137   4.626   6.773
 4167SOL    HW213401   2.171   4.644   6.932
 4168SOL     OW13402   0.304   4.139   1.314
 4168SOL    HW113403   0.360   4.068   1.355
 4168SOL    HW213404   0.317   4.139   1.215
 4169SOL     OW13405   5.676   5.435   4.847
 4169SOL    HW113406   5.711   5.345   4.876
 4169SOL    HW213407   5.578   5.440   4.865
 4170SOL     OW13408   4.534   3.346   6.658
 4170SOL    HW113409   4.448   3.325   6.613
 4170SOL    HW213410   4.593   3.265   6.656
 4171SOL     OW13411   6.484   6.007   0.589
 4171SOL    HW113412   6.445   6.059   0.665
 4171SOL    HW213413   6.472   5.909   0.605
 4172SOL     OW13414   1.378   2.114   6.665
 4172SOL    HW113415   1.403   2.130   6.570
 4172SOL    HW213416   1.288   2.070   6.669
 4173SOL     OW13417   4.950   4.138   4.376
 4173SOL    HW113418   5.044   4.168   4.361
 4173SOL    HW213419   4.910   4.188   4.452
 4174SOL     OW13420   4.592   1.583   2.765
 4174SOL    HW113421   4.543   1.497   2.780
 4174SOL    HW213422   4.611   1.594   2.667
 4175SOL     OW13423   2.063   5.388   4.732
 4175SOL    HW113424   2.053   5.327   4.810
 4175SOL    HW213425   2.156   5.424   4.730
 4176SOL     OW13426   3.620   6.094   2.006
 4176SOL    HW113427   3.572   6.008   1.989
 4176SOL    HW213428   3.565   6.152   2.067
 4177SOL     OW13429   6.076   5.313   5.569
 4177SOL    HW113430   6.051   5.277   5.479
 4177SOL    HW213431   6.165   5.359   5.563
 4178SOL     OW13432   3.970   6.877   4.299
 4178SOL    HW113433   3.902   6.819   4.345
 4178SOL    HW213434   3.924   6.937   4.233
 4179SOL     OW13435   5.642   3.146   3.253
 4179SOL    HW113436   5.565   3.184   3.201
 4179SOL    HW213437   5.725   3.195   3.228
 4180SOL     OW13438   4.437   3.870   0.450
 4180SOL    HW113439   4.514   3.910   0.400
 4180SOL    HW213440   4.353   3.919   0.427
 4181SOL     OW13441   3.519   0.934   0.217
 4181SOL    HW113442   3.609   0.937   0.174
 4181SOL    HW213443   3.457   0.997   0.170
 4182SOL     OW13444   0.842   6.253   3.507
 4182SOL    HW113445   0.774   6.317   3.472
 4182SOL    HW213446   0.909   6.233   3.436
 4183SOL     OW13447   3.096   1.345   6.995
 4183SOL    HW113448   3.046   1.425   6.962
 4183SOL    HW213449   3.194   1.362   6.989
 4184SOL     OW13450   3.719   6.347   2.186
 4184SOL    HW113451   3.647   6.278   2.190
 4184SOL    HW213452   3.798   6.309   2.139
 4185SOL     OW13453   1.040   4.595   2.843
 4185SOL    HW113454   1.063   4.691   2.857
 4185SOL    HW213455   1.019   4.552   2.931
 4186SOL     OW13456   2.777   4.793   0.256
 4186SOL    HW113457   2.822   4.705   0.243
 4186SOL    HW213458   2.700   4.801   0.192
 4187SOL     OW13459   3.998   3.564   5.237
 4187SOL    HW113460   4.005   3.485   5.298
 4187SOL    HW213461   3.924   3.625   5.269
 4188SOL     OW13462   5.366   0.869   5.331
 4188SOL    HW113463   5.285   0.828   5.373
 4188SOL    HW213464   5.339   0.946   5.275
 4189SOL     OW13465   3.503   5.170   5.437
 4189SOL    HW113466   3.594   5.169   5.478
 4189SOL    HW213467   3.505   5.120   5.351
 4190SOL     OW13468   0.615   0.534   0.654
 4190SOL    HW113469   0.620   0.592   0.573
 4190SOL    HW213470   0.585   0.442   0.628
 4191SOL     OW13471   4.970   4.490   3.639
 4191SOL    HW113472   5.036   4.558   3.670
 4191SOL    HW213473   4.893   4.536   3.596
 4192SOL     OW13474   0.821   0.926   4.224
 4192SOL    HW113475   0.723   0.921   4.243
 4192SOL    HW213476   0.837   0.900   4.128
 4193SOL     OW13477   0.054   1.402   1.533
 4193SOL    HW113478   0.018   1.381   1.624
 4193SOL    HW213479   0.151   1.426   1.540
 4194SOL     OW13480   6.032   0.213   4.204
 4194SOL    HW113481   6.070   0.172   4.121
 4194SOL    HW213482   6.060   0.309   4.209
 4195SOL     OW13483   3.949   6.692   1.371
 4195SOL    HW113484   3.980   6.786   1.387
 4195SOL    HW213485   3.961   6.638   1.454
 4196SOL     OW13486   6.199   1.941   2.670
 4196SOL    HW113487   6.141   1.933   2.751
 4196SOL    HW213488   6.192   1.857   2.616
 4197SOL     OW13489   4.768   5.522   5.761
 4197SOL    HW113490   4.805   5.541   5.852
 4197SOL    HW213491   4.692   5.457   5.768
 4198SOL     OW13492   5.639   2.237   0.290
 4198SOL    HW113493   5.643   2.156   0.348
 4198SOL    HW213494   5.730   2.254   0.250
 4199SOL     OW13495   1.909   2.689   6.267
 4199SOL    HW113496   1.879   2.779   6.296
 4199SOL    HW213497   1.916   2.628   6.346
 4200SOL     OW13498   3.745   0.542   5.895
 4200SOL    HW113499   3.699   0.453   5.891
 4200SOL    HW213500   3.677   0.615   5.884
 4201SOL     OW13501   6.314   0.039   3.691
 4201SOL    HW113502   6.265   0.124   3.711
 4201SOL    HW213503   6.412   0.058   3.687
 4202SOL     OW13504   3.615   5.845   5.027
 4202SOL    HW113505   3.609   5.907   4.949
 4202SOL    HW213506   3.710   5.816   5.039
 4203SOL     OW13507   3.968   4.805   0.079
 4203SOL    HW113508   3.959   4.714   0.120
 4203SOL    HW213509   4.017   4.865   0.142
 4204SOL     OW13510   3.671   3.733   3.020
 4204SOL    HW113511   3.746   3.791   3.051
 4204SOL    HW213512   3.591   3.748   3.078
 4205SOL     OW13513   4.091   5.880   3.366
 4205SOL    HW113514   4.112   5.785   3.345
 4205SOL    HW213515   4.042   5.921   3.289
 4206SOL     OW13516   6.930   0.422   5.629
 4206SOL    HW113517   6.975   0.405   5.716
 4206SOL    HW213518   6.938   0.520   5.606
 4207SOL     OW13519   2.051   2.086   1.209
 4207SOL    HW113520   2.018   2.088   1.303
 4207SOL    HW213521   2.003   2.156   1.156
 4208SOL     OW13522   6.884   2.759   5.696
 4208SOL    HW113523   6.924   2.826   5.634
 4208SOL    HW213524   6.787   2.746   5.673
 4209SOL     OW13525   0.097   0.186   3.844
 4209SOL    HW113526   0.119   0.117   3.913
 4209SOL    HW213527   0.029   0.149   3.780
 4210SOL     OW13528   3.410   3.497   2.275
 4210SOL    HW113529   3.321   3.501   2.230
 4210SOL    HW213530   3.427   3.584   2.322
 4211SOL     OW13531   4.774   6.314   6.415
 4211SOL    HW113532   4.747   6.395   6.363
 4211SOL    HW213533   4.859   6.334   6.464
 4212SOL     OW13534   5.951   1.559   2.489
 4212SOL    HW113535   5.948   1.461   2.508
 4212SOL    HW213536   5.888   1.606   2.549
 4213SOL     OW13537   1.793   0.860   1.460
 4213SOL    HW113538   1.829   0.796   1.392
 4213SOL    HW213539   1.868   0.892   1.518
 4214SOL     OW13540   0.984   5.054   5.039
 4214SOL    HW113541   0.937   4.966   5.035
 4214SOL    HW213542   1.064   5.052   4.980
 4215SOL     OW13543   5.603   6.958   6.020
 4215SOL    HW113544   5.504   6.951   6.014
 4215SOL    HW213545   5.634   6.924   6.109
 4216SOL     OW13546   1.115   1.449   2.601
 4216SOL    HW113547   1.045   1.462   2.671
 4216SOL    HW213548   1.074   1.406   2.521
 4217SOL     OW13549   0.990   0.223   2.294
 4217SOL    HW113550   0.966   0.268   2.380
 4217SOL    HW213551   0.915   0.165   2.264
 4218SOL     OW13552   4.275   0.712   1.349
 4218SOL    HW113553   4.332   0.631   1.338
 4218SOL    HW213554   4.291   0.752   1.439
 4219SOL     OW13555   3.626   5.633   3.945
 4219SOL    HW113556   3.637   5.565   4.018
 4219SOL    HW213557   3.559   5.601   3.879
 4220SOL     OW13558   6.171   2.555   3.900
 4220SOL    HW113559   6.150   2.641   3.854
 4220SOL    HW213560   6.086   2.505   3.918
 4221SOL     OW13561   5.627   4.686   6.740
 4221SOL    HW113562   5.537   4.644   6.749
 4221SOL    HW213563   5.638   4.722   6.647
 4222SOL     OW13564   6.598   2.085   2.973
 4222SOL    HW113565   6.680   2.128   3.011
 4222SOL    HW213566   6.553   2.148   2.909
 4223SOL     OW13567   4.053   2.993   6.190
 4223SOL    HW113568   3.999   3.076   6.173
 4223SOL    HW213569   4.042   2.966   6.286
 4224SOL     OW13570   5.242   3.851   4.032
 4224SOL    HW113571   5.242   3.810   4.123
 4224SOL    HW213572   5.240   3.950   4.039
 4225SOL     OW13573   3.970   1.102   5.593
 4225SOL    HW113574   3.934   1.031   5.653
 4225SOL    HW213575   4.068   1.114   5.609
 4226SOL     OW13576   1.050   0.679   2.201
 4226SOL    HW113577   1.014   0.735   2.275
 4226SOL    HW213578   1.150   0.687   2.199
 4227SOL     OW13579   3.743   4.758   1.094
 4227SOL    HW113580   3.732   4.699   1.174
 4227SOL    HW213581   3.677   4.731   1.024
 4228SOL     OW13582   0.779   4.487   4.881
 4228SOL    HW113583   0.754   4.452   4.791
 4228SOL    HW213584   0.824   4.415   4.933
 4229SOL     OW13585   5.054   5.488   5.675
 4229SOL    HW113586   5.101   5.408   5.636
 4229SOL    HW213587   4.955   5.471   5.676
 4230SOL     OW13588   1.721   6.368   2.962
 4230SOL    HW113589   1.758   6.461   2.964
 4230SOL    HW213590   1.761   6.318   2.885
 4231SOL     OW13591   5.668   6.755   5.805
 4231SOL    HW113592   5.736   6.821   5.773
 4231SOL    HW213593   5.632   6.784   5.893
 4232SOL     OW13594   6.990   4.960   2.458
 4232SOL    HW113595   0.012   5.047   2.486
 4232SOL    HW213596   6.986   4.899   2.537
 4233SOL     OW13597   6.971   0.822   6.271
 4233SOL    HW113598   0.022   0.820   6.200
 4233SOL    HW213599   7.015   0.819   6.361
 4234SOL     OW13600   2.681   6.742   5.490
 4234SOL    HW113601   2.640   6.743   5.581
 4234SOL    HW213602   2.685   6.648   5.456
 4235SOL     OW13603   5.810   3.876   5.693
 4235SOL    HW113604   5.748   3.846   5.765
 4235SOL    HW213605   5.885   3.930   5.733
 4236SOL     OW13606   6.141   3.817   2.741
 4236SOL    HW113607   6.115   3.743   2.802
 4236SOL    HW213608   6.083   3.897   2.759
 4237SOL     OW13609   5.368   5.558   1.982
 4237SOL    HW113610   5.298   5.626   1.958
 4237SOL    HW213611   5.407   5.581   2.071
 4238SOL     OW13612   2.909   5.377   2.956
 4238SOL    HW113613   2.938   5.407   3.047
 4238SOL    HW213614   2.981   5.322   2.914
 4239SOL     OW13615   5.663   1.634   3.221
 4239SOL    HW113616   5.593   1.700   3.195
 4239SOL    HW213617   5.681   1.573   3.144
 4240SOL     OW13618   2.118   6.582   6.746
 4240SOL    HW113619   2.067   6.636   6.679
 4240SOL    HW213620   2.072   6.588   6.835
 4241SOL     OW13621   6.243   1.386   0.375
 4241SOL    HW113622   6.268   1.396   0.278
 4241SOL    HW213623   6.282   1.301   0.410
 4242SOL     OW13624   2.600   0.942   3.793
 4242SOL    HW113625   2.623   0.938   3.696
 4242SOL    HW213626   2.606   0.851   3.833
 4243SOL     OW13627   6.729   3.030   3.372
 4243SOL    HW113628   6.817   3.059   3.334
 4243SOL    HW213629   6.680   2.976   3.304
 4244SOL     OW13630   4.305   4.203   1.349
 4244SOL    HW113631   4.325   4.201   1.251
 4244SOL    HW213632   4.235   4.272   1.367
 4245SOL     OW13633   0.402   1.458   6.145
 4245SOL    HW113634   0.360   1.508   6.221
 4245SOL    HW213635   0.348   1.472   6.062
 4246SOL     OW13636   6.901   3.897   2.881
 4246SOL    HW113637   6.992   3.858   2.866
 4246SOL    HW213638   6.899   3.944   2.970
 4247SOL     OW13639   3.011   4.836   3.266
 4247SOL    HW113640   2.939   4.816   3.199
 4247SOL    HW213641   2.978   4.816   3.358
 4248SOL     OW13642   2.255   1.867   3.756
 4248SOL    HW113643   2.276   1.908   3.667
 4248SOL    HW213644   2.274   1.933   3.828
 4249SOL     OW13645   5.364   2.406   3.767
 4249SOL    HW113646   5.414   2.320   3.776
 4249SOL    HW213647   5.292   2.395   3.698
 4250SOL     OW13648   6.682   5.583   3.035
 4250SOL    HW113649   6.669   5.678   3.066
 4250SOL    HW213650   6.629   5.522   3.093
 4251SOL     OW13651   5.573   4.365   1.658
 4251SOL    HW113652   5.630   4.437   1.699
 4251SOL    HW213653   5.596   4.277   1.700
 4252SOL     OW13654   5.612   0.247   6.476
 4252SOL    HW113655   5.596   0.179   6.405
 4252SOL    HW213656   5.588   0.209   6.565
 4253SOL     OW13657   3.053   6.955   1.154
 4253SOL    HW113658   3.102   7.004   1.082
 4253SOL    HW213659   2.978   6.903   1.115
 4254SOL     OW13660   1.057   3.725   1.897
 4254SOL    HW113661   1.129   3.795   1.905
 4254SOL    HW213662   1.040   3.685   1.987
 4255SOL     OW13663   0.362   4.175   4.272
 4255SOL    HW113664   0.279   4.119   4.277
 4255SOL    HW213665   0.432   4.127   4.219
 4256SOL     OW13666   1.944   6.069   0.710
 4256SOL    HW113667   1.913   5.977   0.688
 4256SOL    HW213668   1.969   6.074   0.806
 4257SOL     OW13669   2.675   0.566   4.276
 4257SOL    HW113670   2.710   0.657   4.254
 4257SOL    HW213671   2.607   0.573   4.349
 4258SOL     OW13672   3.827   5.981   0.868
 4258SOL    HW113673   3.850   5.968   0.964
 4258SOL    HW213674   3.757   6.051   0.859
 4259SOL     OW13675   2.328   0.847   1.025
 4259SOL    HW113676   2.360   0.837   0.931
 4259SOL    HW213677   2.405   0.869   1.084
 4260SOL     OW13678   5.618   0.503   1.298
 4260SOL    HW113679   5.560   0.436   1.252
 4260SOL    HW213680   5.656   0.463   1.382
 4261SOL     OW13681   2.371   0.082   2.883
 4261SOL    HW113682   2.445   0.052   2.823
 4261SOL    HW213683   2.304   0.133   2.830
 4262SOL     OW13684   0.657   4.316   6.482
 4262SOL    HW113685   0.652   4.380   6.405
 4262SOL    HW213686   0.565   4.292   6.512
 4263SOL     OW13687   3.038   0.368   3.057
 4263SOL    HW113688   3.007   0.367   2.962
 4263SOL    HW213689   2.973   0.422   3.111
 4264SOL     OW13690   6.182   1.678   2.916
 4264SOL    HW113691   6.209   1.657   3.010
 4264SOL    HW213692   6.144   1.770   2.911
 4265SOL     OW13693   4.361   1.403   1.131
 4265SOL    HW113694   4.290   1.399   1.060
 4265SOL    HW213695   4.448   1.371   1.092
 4266SOL     OW13696   1.825   5.428   6.362
 4266SOL    HW113697   1.915   5.467   6.383
 4266SOL    HW213698   1.836   5.335   6.328
 4267SOL     OW13699   2.102   3.666   3.626
 4267SOL    HW113700   2.176   3.632   3.569
 4267SOL    HW213701   2.031   3.706   3.568
 4268SOL     OW13702   1.023   5.897   6.227
 4268SOL    HW113703   1.116   5.932   6.219
 4268SOL    HW213704   0.991   5.866   6.137
 4269SOL     OW13705   2.794   0.634   2.496
 4269SOL    HW113706   2.774   0.631   2.398
 4269SOL    HW213707   2.815   0.728   2.523
 4270SOL     OW13708   3.818   3.517   3.156
 4270SOL    HW113709   3.723   3.532   3.131
 4270SOL    HW213710   3.878   3.560   3.088
 4271SOL     OW13711   6.758   1.304   0.024
 4271SOL    HW113712   6.727   1.380   0.081
 4271SOL    HW213713   6.744   1.327   6.946
 4272SOL     OW13714   6.732   2.505   4.167
 4272SOL    HW113715   6.711   2.597   4.134
 4272SOL    HW213716   6.745   2.507   4.266
 4273SOL     OW13717   4.823   6.927   4.670
 4273SOL    HW113718   4.831   6.945   4.768
 4273SOL    HW213719   4.760   6.993   4.629
 4274SOL     OW13720   0.833   6.728   1.602
 4274SOL    HW113721   0.845   6.822   1.634
 4274SOL    HW213722   0.914   6.700   1.550
 4275SOL     OW13723   6.937   2.314   4.266
 4275SOL    HW113724   6.961   2.402   4.227
 4275SOL    HW213725   6.993   2.296   4.347
 4276SOL     OW13726   1.786   5.366   3.726
 4276SOL    HW113727   1.719   5.424   3.772
 4276SOL    HW213728   1.762   5.355   3.630
 4277SOL     OW13729   6.329   4.606   3.283
 4277SOL    HW113730   6.412   4.604   3.227
 4277SOL    HW213731   6.321   4.696   3.327
 4278SOL     OW13732   6.836   6.898   5.652
 4278SOL    HW113733   6.791   6.951   5.581
 4278SOL    HW213734   6.891   6.958   5.710
 4279SOL     OW13735   3.587   0.870   4.074
 4279SOL    HW113736   3.625   0.945   4.128
 4279SOL    HW213737   3.508   0.904   4.022
 4280SOL     OW13738   4.962   0.691   5.692
 4280SOL    HW113739   4.970   0.617   5.625
 4280SOL    HW213740   5.028   0.679   5.765
 4281SOL     OW13741   0.123   4.320   3.076
 4281SOL    HW113742   0.074   4.324   3.162
 4281SOL    HW213743   0.194   4.250   3.081
 4282SOL     OW13744   3.441   3.991   5.994
 4282SOL    HW113745   3.502   3.978   6.073
 4282SOL    HW213746   3.384   4.072   6.009
 4283SOL     OW13747   1.309   0.505   3.101
 4283SOL    HW113748   1.306   0.572   3.175
 4283SOL    HW213749   1.329   0.415   3.138
 4284SOL     OW13750   4.105   4.743   1.290
 4284SOL    HW113751   4.108   4.644   1.272
 4284SOL    HW213752   4.051   4.788   1.220
 4285SOL     OW13753   1.879   0.626   5.589
 4285SOL    HW113754   1.839   0.616   5.680
 4285SOL    HW213755   1.879   0.722   5.563
 4286SOL     OW13756   4.971   6.759   5.746
 4286SOL    HW113757   5.042   6.803   5.691
 4286SOL    HW213758   4.881   6.776   5.705
 4287SOL     OW13759   5.755   1.400   5.932
 4287SOL    HW113760   5.747   1.500   5.926
 4287SOL    HW213761   5.841   1.371   5.890
 4288SOL     OW13762   0.184   5.434   3.618
 4288SOL    HW113763   0.084   5.443   3.615
 4288SOL    HW213764   0.221   5.441   3.526
 4289SOL     OW13765   6.902   3.148   6.218
 4289SOL    HW113766   6.892   3.166   6.316
 4289SOL    HW213767   6.812   3.147   6.175
 4290SOL     OW13768   1.248   5.947   3.948
 4290SOL    HW113769   1.215   6.005   4.023
 4290SOL    HW213770   1.318   5.996   3.896
 4291SOL     OW13771   4.775   3.542   0.452
 4291SOL    HW113772   4.827   3.594   0.385
 4291SOL    HW213773   4.678   3.545   0.429
 4292SOL     OW13774   5.616   3.046   0.254
 4292SOL    HW113775   5.545   3.017   0.189
 4292SOL    HW213776   5.572   3.085   0.335
 4293SOL     OW13777   2.665   2.520   0.416
 4293SOL    HW113778   2.570   2.524   0.384
 4293SOL    HW213779   2.686   2.603   0.468
 4294SOL     OW13780   1.949   2.211   6.952
 4294SOL    HW113781   1.869   2.264   6.979
 4294SOL    HW213782   2.031   2.253   6.991
 4295SOL     OW13783   3.875   5.893   5.128
 4295SOL    HW113784   3.857   5.992   5.125
 4295SOL    HW213785   3.966   5.875   5.091
 4296SOL     OW13786   2.827   6.851   0.997
 4296SOL    HW113787   2.815   6.949   0.979
 4296SOL    HW213788   2.799   6.798   0.917
 4297SOL     OW13789   5.015   0.284   6.624
 4297SOL    HW113790   5.082   0.273   6.698
 4297SOL    HW213791   4.967   0.371   6.636
 4298SOL     OW13792   3.950   4.989   0.333
 4298SOL    HW113793   3.942   5.019   0.428
 4298SOL    HW213794   4.030   5.032   0.291
 4299SOL     OW13795   1.487   3.185   6.821
 4299SOL    HW113796   1.556   3.257   6.818
 4299SOL    HW213797   1.495   3.129   6.739
 4300SOL     OW13798   3.212   6.648   0.317
 4300SOL    HW113799   3.293   6.703   0.339
 4300SOL    HW213800   3.238   6.552   0.308
 4301SOL     OW13801   3.796   1.237   1.676
 4301SOL    HW113802   3.711   1.234   1.625
 4301SOL    HW213803   3.782   1.285   1.762
 4302SOL     OW13804   0.682   0.463   6.274
 4302SOL    HW113805   0.582   0.461   6.277
 4302SOL    HW213806   0.716   0.532   6.337
 4303SOL     OW13807   6.832   4.524   3.780
 4303SOL    HW113808   6.743   4.517   3.827
 4303SOL    HW213809   6.870   4.433   3.766
 4304SOL     OW13810   3.100   3.985   2.427
 4304SOL    HW113811   3.200   3.991   2.438
 4304SOL    HW213812   3.058   4.070   2.456
 4305SOL     OW13813   0.214   0.663   5.234
 4305SOL    HW113814   0.124   0.668   5.191
 4305SOL    HW213815   0.219   0.581   5.291
 4306SOL     OW13816   5.205   4.967   5.860
 4306SOL    HW113817   5.232   4.871   5.863
 4306SOL    HW213818   5.283   5.024   5.886
 4307SOL     OW13819   5.510   3.899   6.117
 4307SOL    HW113820   5.420   3.858   6.108
 4307SOL    HW213821   5.501   3.998   6.123
 4308SOL     OW13822   5.996   4.922   1.217
 4308SOL    HW113823   5.986   4.975   1.301
 4308SOL    HW213824   5.906   4.890   1.187
 4309SOL     OW13825   0.916   1.108   6.924
 4309SOL    HW113826   0.857   1.075   6.998
 4309SOL    HW213827   0.987   1.168   6.962
 4310SOL     OW13828   2.075   2.465   1.718
 4310SOL    HW113829   2.142   2.392   1.709
 4310SOL    HW213830   2.118   2.554   1.701
 4311SOL     OW13831   2.114   6.092   2.592
 4311SOL    HW113832   2.076   6.091   2.685
 4311SOL    HW213833   2.107   6.184   2.554
 4312SOL     OW13834   2.189   5.346   1.550
 4312SOL    HW113835   2.247   5.383   1.478
 4312SOL    HW213836   2.244   5.328   1.632
 4313SOL     OW13837   4.632   1.253   1.447
 4313SOL    HW113838   4.668   1.324   1.386
 4313SOL    HW213839   4.534   1.243   1.433
 4314SOL     OW13840   6.023   1.000   4.404
 4314SOL    HW113841   5.955   1.025   4.473
 4314SOL    HW213842   5.976   0.970   4.321
 4315SOL     OW13843   2.539   5.734   2.115
 4315SOL    HW113844   2.501   5.826   2.110
 4315SOL    HW213845   2.601   5.719   2.038
 4316SOL     OW13846   5.481   0.870   2.101
 4316SOL    HW113847   5.572   0.856   2.063
 4316SOL    HW213848   5.424   0.791   2.081
 4317SOL     OW13849   5.144   2.746   4.861
 4317SOL    HW113850   5.114   2.840   4.845
 4317SOL    HW213851   5.208   2.745   4.938
 4318SOL     OW13852   0.481   2.865   4.518
 4318SOL    HW113853   0.525   2.936   4.463
 4318SOL    HW213854   0.494   2.776   4.475
 4319SOL     OW13855   2.045   1.427   1.031
 4319SOL    HW113856   2.079   1.432   1.125
 4319SOL    HW213857   2.113   1.465   0.969
 4320SOL     OW13858   4.987   5.161   0.226
 4320SOL    HW113859   4.911   5.109   0.186
 4320SOL    HW213860   5.004   5.242   0.171
 4321SOL     OW13861   0.018   6.377   5.361
 4321SOL    HW113862   6.950   6.329   5.356
 4321SOL    HW213863   0.038   6.421   5.273
 4322SOL     OW13864   6.424   2.682   6.807
 4322SOL    HW113865   6.353   2.652   6.743
 4322SOL    HW213866   6.473   2.759   6.768
 4323SOL     OW13867   4.618   3.982   0.246
 4323SOL    HW113868   4.551   4.012   0.177
 4323SOL    HW213869   4.690   4.051   0.253
 4324SOL     OW13870   6.010   3.880   6.695
 4324SOL    HW113871   5.953   3.803   6.665
 4324SOL    HW213872   6.089   3.888   6.635
 4325SOL     OW13873   2.203   1.320   1.663
 4325SOL    HW113874   2.181   1.222   1.662
 4325SOL    HW213875   2.199   1.356   1.570
 4326SOL     OW13876   4.496   4.860   3.768
 4326SOL    HW113877   4.525   4.898   3.680
 4326SOL    HW213878   4.568   4.873   3.835
 4327SOL     OW13879   5.737   6.042   1.626
 4327SOL    HW113880   5.755   5.945   1.645
 4327SOL    HW213881   5.690   6.083   1.704
 4328SOL     OW13882   4.626   3.421   5.650
 4328SOL    HW113883   4.669   3.423   5.560
 4328SOL    HW213884   4.604   3.327   5.675
 4329SOL     OW13885   4.658   1.926   5.569
 4329SOL    HW113886   4.560   1.941   5.557
 4329SOL    HW213887   4.672   1.843   5.624
 4330SOL     OW13888   2.084   6.087   4.448
 4330SOL    HW113889   2.106   6.071   4.352
 4330SOL    HW213890   2.164   6.121   4.496
 4331SOL     OW13891   5.677   1.889   1.850
 4331SOL    HW113892   5.750   1.821   1.850
 4331SOL    HW213893   5.663   1.922   1.943
 4332SOL     OW13894   5.022   3.283   2.029
 4332SOL    HW113895   5.069   3.215   1.973
 4332SOL    HW213896   4.967   3.342   1.970
 4333SOL     OW13897   3.857   0.942   5.789
 4333SOL    HW113898   3.846   0.969   5.884
 4333SOL    HW213899   3.777   0.890   5.759
 4334SOL     OW13900   1.934   2.388   2.827
 4334SOL    HW113901   1.927   2.355   2.733
 4334SOL    HW213902   1.846   2.427   2.855
 4335SOL     OW13903   3.525   4.062   2.715
 4335SOL    HW113904   3.463   3.985   2.729
 4335SOL    HW213905   3.535   4.080   2.617
 4336SOL     OW13906   3.389   6.406   5.998
 4336SOL    HW113907   3.445   6.469   6.054
 4336SOL    HW213908   3.438   6.320   5.987
 4337SOL     OW13909   0.615   4.211   0.600
 4337SOL    HW113910   0.705   4.254   0.604
 4337SOL    HW213911   0.550   4.263   0.656
 4338SOL     OW13912   6.296   0.053   5.624
 4338SOL    HW113913   6.343   0.098   5.701
 4338SOL    HW213914   6.338   0.082   5.538
 4339SOL     OW13915   5.322   3.168   5.755
 4339SOL    HW113916   5.235   3.122   5.773
 4339SOL    HW213917   5.360   3.136   5.668
 4340SOL     OW13918   6.114   3.443   2.031
 4340SOL    HW113919   6.206   3.464   2.061
 4340SOL    HW213920   6.098   3.485   1.941
 4341SOL     OW13921   0.662   5.507   1.589
 4341SOL    HW113922   0.644   5.596   1.631
 4341SOL    HW213923   0.748   5.470   1.624
 4342SOL     OW13924   5.433   3.785   3.842
 4342SOL    HW113925   5.371   3.792   3.920
 4342SOL    HW213926   5.527   3.774   3.874
 4343SOL     OW13927   2.658   6.435   5.402
 4343SOL    HW113928   2.584   6.383   5.360
 4343SOL    HW213929   2.671   6.405   5.496
 4344SOL     OW13930   0.132   3.846   1.883
 4344SOL    HW113931   0.071   3.896   1.945
 4344SOL    HW213932   0.087   3.763   1.851
 4345SOL     OW13933   3.374   3.830   4.823
 4345SOL    HW113934   3.347   3.806   4.916
 4345SOL    HW213935   3.427   3.915   4.825
 4346SOL     OW13936   1.991   3.321   2.703
 4346SOL    HW113937   1.926   3.334   2.778
 4346SOL    HW213938   2.017   3.224   2.699
 4347SOL     OW13939   6.434   6.524   2.771
 4347SOL    HW113940   6.517   6.575   2.794
 4347SOL    HW213941   6.398   6.556   2.684
 4348SOL     OW13942   6.772   5.176   3.912
 4348SOL    HW113943   6.693   5.147   3.966
 4348SOL    HW213944   6.751   5.170   3.815
 4349SOL     OW13945   5.383   1.774   2.850
 4349SOL    HW113946   5.321   1.732   2.784
 4349SOL    HW213947   5.443   1.839   2.803
 4350SOL     OW13948   3.190   1.999   3.915
 4350SOL    HW113949   3.253   2.063   3.870
 4350SOL    HW213950   3.174   2.029   4.009
 4351SOL     OW13951   1.976   5.450   0.671
 4351SOL    HW113952   1.962   5.520   0.601
 4351SOL    HW213953   1.920   5.369   0.650
 4352SOL     OW13954   6.548   3.850   2.478
 4352SOL    HW113955   6.644   3.875   2.473
 4352SOL    HW213956   6.510   3.845   2.385
 4353SOL     OW13957   4.264   2.877   6.680
 4353SOL    HW113958   4.249   2.818   6.601
 4353SOL    HW213959   4.361   2.879   6.703
 4354SOL     OW13960   2.352   0.748   5.667
 4354SOL    HW113961   2.283   0.801   5.716
 4354SOL    HW213962   2.403   0.807   5.605
 4355SOL     OW13963   2.475   6.738   2.559
 4355SOL    HW113964   2.534   6.764   2.636
 4355SOL    HW213965   2.496   6.645   2.531
 4356SOL     OW13966   4.923   3.966   0.430
 4356SOL    HW113967   4.886   3.923   0.347
 4356SOL    HW213968   5.015   3.999   0.412
 4357SOL     OW13969   6.242   1.114   1.421
 4357SOL    HW113970   6.266   1.047   1.350
 4357SOL    HW213971   6.190   1.068   1.493
 4358SOL     OW13972   7.013   0.779   0.707
 4358SOL    HW113973   6.947   0.719   0.752
 4358SOL    HW213974   0.042   0.834   0.775
 4359SOL     OW13975   1.972   1.772   6.094
 4359SOL    HW113976   1.953   1.862   6.134
 4359SOL    HW213977   1.971   1.703   6.166
 4360SOL     OW13978   1.332   3.382   3.540
 4360SOL    HW113979   1.300   3.325   3.616
 4360SOL    HW213980   1.393   3.453   3.575
 4361SOL     OW13981   2.747   3.345   1.317
 4361SOL    HW113982   2.796   3.302   1.393
 4361SOL    HW213983   2.798   3.425   1.286
 4362SOL     OW13984   6.390   5.167   3.145
 4362SOL    HW113985   6.406   5.069   3.139
 4362SOL    HW213986   6.304   5.184   3.194
 4363SOL     OW13987   5.991   2.148   1.074
 4363SOL    HW113988   5.962   2.123   0.982
 4363SOL    HW213989   5.989   2.067   1.133
 4364SOL     OW13990   2.952   3.643   4.140
 4364SOL    HW113991   2.904   3.607   4.060
 4364SOL    HW213992   2.933   3.585   4.219
 4365SOL     OW13993   3.043   0.833   2.040
 4365SOL    HW113994   3.019   0.904   1.974
 4365SOL    HW213995   3.117   0.865   2.099
 4366SOL     OW13996   5.710   0.344   0.295
 4366SOL    HW113997   5.803   0.320   0.323
 4366SOL    HW213998   5.715   0.399   0.211
 4367SOL     OW13999   2.257   4.259   4.586
 4367SOL    HW114000   2.287   4.299   4.672
 4367SOL    HW214001   2.326   4.193   4.554
 4368SOL     OW14002   3.501   5.200   0.132
 4368SOL    HW114003   3.421   5.144   0.155
 4368SOL    HW214004   3.580   5.140   0.117
 4369SOL     OW14005   4.620   5.572   2.786
 4369SOL    HW114006   4.689   5.526   2.730
 4369SOL    HW214007   4.600   5.515   2.866
 4370SOL     OW14008   3.817   5.104   1.683
 4370SOL    HW114009   3.832   5.176   1.615
 4370SOL    HW214010   3.903   5.081   1.727
 4371SOL     OW14011   1.138   2.536   2.498
 4371SOL    HW114012   1.139   2.537   2.398
 4371SOL    HW214013   1.187   2.455   2.531
 4372SOL     OW14014   2.740   2.064   2.789
 4372SOL    HW114015   2.700   1.983   2.831
 4372SOL    HW214016   2.727   2.143   2.848
 4373SOL     OW14017   5.656   1.795   0.422
 4373SOL    HW114018   5.559   1.799   0.400
 4373SOL    HW214019   5.690   1.702   0.410
 4374SOL     OW14020   0.786   2.025   0.614
 4374SOL    HW114021   0.745   2.117   0.612
 4374SOL    HW214022   0.715   1.957   0.593
 4375SOL     OW14023   4.444   6.930   3.295
 4375SOL    HW114024   4.371   6.985   3.337
 4375SOL    HW214025   4.416   6.903   3.203
 4376SOL     OW14026   6.657   6.706   2.728
 4376SOL    HW114027   6.615   6.793   2.701
 4376SOL    HW214028   6.697   6.661   2.648
 4377SOL     OW14029   5.556   4.870   0.110
 4377SOL    HW114030   5.596   4.928   0.038
 4377SOL    HW214031   5.513   4.927   0.179
 4378SOL     OW14032   2.259   2.594   2.416
 4378SOL    HW114033   2.339   2.553   2.461
 4378SOL    HW214034   2.288   2.675   2.365
 4379SOL     OW14035   2.115   2.587   2.654
 4379SOL    HW114036   2.136   2.588   2.556
 4379SOL    HW214037   2.045   2.656   2.674
 4380SOL     OW14038   1.056   0.117   3.071
 4380SOL    HW114039   1.145   0.122   3.115
 4380SOL    HW214040   1.002   0.198   3.094
 4381SOL     OW14041   1.678   3.906   5.183
 4381SOL    HW114042   1.696   4.003   5.198
 4381SOL    HW214043   1.765   3.858   5.171
 4382SOL     OW14044   6.140   3.616   5.745
 4382SOL    HW114045   6.060   3.622   5.806
 4382SOL    HW214046   6.186   3.528   5.759
 4383SOL     OW14047   1.026   2.496   5.977
 4383SOL    HW114048   1.020   2.530   6.071
 4383SOL    HW214049   1.038   2.397   5.978
 4384SOL     OW14050   6.738   1.977   5.671
 4384SOL    HW114051   6.642   1.999   5.686
 4384SOL    HW214052   6.748   1.878   5.662
 4385SOL     OW14053   5.993   2.998   5.196
 4385SOL    HW114054   6.030   2.924   5.252
 4385SOL    HW214055   5.900   2.976   5.168
 4386SOL     OW14056   2.232   3.273   6.928
 4386SOL    HW114057   2.242   3.314   7.018
 4386SOL    HW214058   2.311   3.297   6.871
 4387SOL     OW14059   6.835   1.757   1.228
 4387SOL    HW114060   6.901   1.694   1.269
 4387SOL    HW214061   6.760   1.704   1.188
 4388SOL     OW14062   5.089   1.999   6.319
 4388SOL    HW114063   4.994   1.971   6.304
 4388SOL    HW214064   5.136   2.006   6.231
 4389SOL     OW14065   0.214   3.416   0.951
 4389SOL    HW114066   0.245   3.386   0.860
 4389SOL    HW214067   0.242   3.511   0.965
 4390SOL     OW14068   3.749   1.122   1.204
 4390SOL    HW114069   3.835   1.083   1.236
 4390SOL    HW214070   3.769   1.190   1.134
 4391SOL     OW14071   2.027   5.941   0.027
 4391SOL    HW114072   1.955   5.882   7.012
 4391SOL    HW214073   2.074   5.985   6.969
 4392SOL     OW14074   6.998   3.110   5.171
 4392SOL    HW114075   7.008   3.195   5.119
 4392SOL    HW214076   6.983   3.034   5.108
 4393SOL     OW14077   6.198   0.128   2.458
 4393SOL    HW114078   6.226   0.071   2.535
 4393SOL    HW214079   6.158   0.213   2.493
 4394SOL     OW14080   6.085   6.195   2.232
 4394SOL    HW114081   6.121   6.253   2.306
 4394SOL    HW214082   6.146   6.116   2.220
 4395SOL     OW14083   3.105   6.479   1.723
 4395SOL    HW114084   3.177   6.494   1.654
 4395SOL    HW214085   3.146   6.442   1.806
 4396SOL     OW14086   1.962   2.191   3.815
 4396SOL    HW114087   1.885   2.251   3.837
 4396SOL    HW214088   1.988   2.139   3.897
 4397SOL     OW14089   0.549   1.119   4.629
 4397SOL    HW114090   0.596   1.180   4.692
 4397SOL    HW214091   0.610   1.044   4.603
 4398SOL     OW14092   0.671   4.167   5.788
 4398SOL    HW114093   0.693   4.257   5.825
 4398SOL    HW214094   0.671   4.172   5.688
 4399SOL     OW14095   2.029   0.377   1.680
 4399SOL    HW114096   2.094   0.442   1.639
 4399SOL    HW214097   1.936   0.408   1.663
 4400SOL     OW14098   3.487   6.607   5.713
 4400SOL    HW114099   3.397   6.611   5.755
 4400SOL    HW214100   3.556   6.642   5.777
 4401SOL     OW14101   4.225   6.974   6.624
 4401SOL    HW114102   4.140   6.930   6.653
 4401SOL    HW214103   4.204   0.036   6.570
 4402SOL     OW14104   2.754   0.376   1.968
 4402SOL    HW114105   2.817   0.454   1.965
 4402SOL    HW214106   2.676   0.395   1.908
 4403SOL     OW14107   0.811   7.015   2.573
 4403SOL    HW114108   0.738   7.012   2.641
 4403SOL    HW214109   0.888   6.960   2.605
 4404SOL     OW14110   0.766   5.167   5.951
 4404SOL    HW114111   0.692   5.110   5.916
 4404SOL    HW214112   0.766   5.255   5.905
 4405SOL     OW14113   1.742   4.442   0.911
 4405SOL    HW114114   1.770   4.538   0.910
 4405SOL    HW214115   1.643   4.437   0.925
 4406SOL     OW14116   0.053   3.688   0.612
 4406SOL    HW114117   0.004   3.663   0.528
 4406SOL    HW214118   0.005   3.650   0.691
 4407SOL     OW14119   6.164   4.916   0.572
 4407SOL    HW114120   6.098   4.903   0.646
 4407SOL    HW214121   6.214   4.831   0.556
 4408SOL     OW14122   3.492   1.207   1.273
 4408SOL    HW114123   3.575   1.157   1.296
 4408SOL    HW214124   3.466   1.189   1.179
 4409SOL     OW14125   4.936   0.830   2.473
 4409SOL    HW114126   4.916   0.922   2.441
 4409SOL    HW214127   4.931   0.766   2.396
 4410SOL     OW14128   1.188   5.018   6.686
 4410SOL    HW114129   1.188   5.081   6.763
 4410SOL    HW214130   1.268   5.035   6.629
 4411SOL     OW14131   3.929   3.956   4.371
 4411SOL    HW114132   3.957   3.881   4.431
 4411SOL    HW214133   3.994   3.965   4.296
 4412SOL     OW14134   4.244   6.462   4.817
 4412SOL    HW114135   4.335   6.451   4.858
 4412SOL    HW214136   4.235   6.400   4.739
 4413SOL     OW14137   6.565   4.976   4.013
 4413SOL    HW114138   6.529   4.887   3.986
 4413SOL    HW214139   6.559   4.986   4.112
 4414SOL     OW14140   3.423   4.554   1.265
 4414SOL    HW114141   3.522   4.549   1.248
 4414SOL    HW214142   3.406   4.611   1.345
 4415SOL     OW14143   3.778   2.865   0.270
 4415SOL    HW114144   3.703   2.918   0.310
 4415SOL    HW214145   3.764   2.858   0.171
 4416SOL     OW14146   2.962   0.548   3.958
 4416SOL    HW114147   2.995   0.484   3.889
 4416SOL    HW214148   3.029   0.620   3.973
 4417SOL     OW14149   5.780   4.207   3.287
 4417SOL    HW114150   5.708   4.201   3.218
 4417SOL    HW214151   5.771   4.294   3.336
 4418SOL     OW14152   6.031   2.004   2.297
 4418SOL    HW114153   6.056   1.950   2.216
 4418SOL    HW214154   6.055   1.954   2.380
 4419SOL     OW14155   5.816   6.161   6.298
 4419SOL    HW114156   5.916   6.152   6.303
 4419SOL    HW214157   5.787   6.148   6.203
 4420SOL     OW14158   5.362   1.110   2.020
 4420SOL    HW114159   5.411   1.026   2.043
 4420SOL    HW214160   5.282   1.086   1.964
 4421SOL     OW14161   2.174   0.998   4.803
 4421SOL    HW114162   2.093   0.996   4.861
 4421SOL    HW214163   2.186   1.090   4.765
 4422SOL     OW14164   2.280   4.033   6.796
 4422SOL    HW114165   2.363   4.021   6.851
 4422SOL    HW214166   2.229   4.112   6.831
 4423SOL     OW14167   0.027   2.828   5.903
 4423SOL    HW114168   6.986   2.784   5.836
 4423SOL    HW214169   0.025   2.927   5.890
 4424SOL     OW14170   5.822   1.079   4.582
 4424SOL    HW114171   5.803   1.005   4.647
 4424SOL    HW214172   5.749   1.148   4.588
 4425SOL     OW14173   3.084   4.543   0.482
 4425SOL    HW114174   3.065   4.450   0.511
 4425SOL    HW214175   3.049   4.607   0.550
 4426SOL     OW14176   6.893   1.367   3.781
 4426SOL    HW114177   6.962   1.367   3.854
 4426SOL    HW214178   6.845   1.455   3.780
 4427SOL     OW14179   0.254   6.552   2.735
 4427SOL    HW114180   0.272   6.606   2.818
 4427SOL    HW214181   0.168   6.583   2.693
 4428SOL     OW14182   3.190   0.008   2.313
 4428SOL    HW114183   3.208   6.981   2.226
 4428SOL    HW214184   3.121   0.078   2.299
 4429SOL     OW14185   2.388   5.939   2.358
 4429SOL    HW114186   2.459   5.965   2.293
 4429SOL    HW214187   2.414   5.970   2.449
 4430SOL     OW14188   4.820   3.974   4.784
 4430SOL    HW114189   4.835   4.054   4.842
 4430SOL    HW214190   4.773   3.903   4.836
 4431SOL     OW14191   2.268   1.414   1.910
 4431SOL    HW114192   2.241   1.376   1.822
 4431SOL    HW214193   2.275   1.340   1.977
 4432SOL     OW14194   2.768   3.930   5.738
 4432SOL    HW114195   2.763   3.895   5.832
 4432SOL    HW214196   2.693   3.893   5.685
 4433SOL     OW14197   4.791   1.997   4.684
 4433SOL    HW114198   4.854   2.062   4.642
 4433SOL    HW214199   4.742   1.947   4.613
 4434SOL     OW14200   5.203   1.584   3.881
 4434SOL    HW114201   5.132   1.516   3.901
 4434SOL    HW214202   5.178   1.671   3.923
 4435SOL     OW14203   4.891   3.492   1.532
 4435SOL    HW114204   4.853   3.562   1.471
 4435SOL    HW214205   4.948   3.535   1.601
 4436SOL     OW14206   4.559   0.757   0.849
 4436SOL    HW114207   4.550   0.661   0.823
 4436SOL    HW214208   4.564   0.764   0.949
 4437SOL     OW14209   6.181   2.239   2.882
 4437SOL    HW114210   6.169   2.217   2.979
 4437SOL    HW214211   6.117   2.184   2.827
 4438SOL     OW14212   5.076   0.635   7.001
 4438SOL    HW114213   5.069   0.664   6.906
 4438SOL    HW214214   4.984   0.631   0.022
 4439SOL     OW14215   0.511   4.515   1.919
 4439SOL    HW114216   0.427   4.559   1.886
 4439SOL    HW214217   0.490   4.459   1.998
 4440SOL     OW14218   2.700   4.951   0.691
 4440SOL    HW114219   2.610   4.984   0.660
 4440SOL    HW214220   2.740   5.018   0.754
 4441SOL     OW14221   6.775   1.626   2.413
 4441SOL    HW114222   6.771   1.561   2.336
 4441SOL    HW214223   6.863   1.617   2.459
 4442SOL     OW14224   2.209   5.181   4.346
 4442SOL    HW114225   2.216   5.215   4.440
 4442SOL    HW214226   2.197   5.082   4.347
 4443SOL     OW14227   0.665   3.082   0.184
 4443SOL    HW114228   0.687   3.162   0.240
 4443SOL    HW214229   0.749   3.043   0.147
 4444SOL     OW14230   3.107   4.567   5.347
 4444SOL    HW114231   3.042   4.593   5.275
 4444SOL    HW214232   3.103   4.468   5.361
 4445SOL     OW14233   0.981   6.672   0.712
 4445SOL    HW114234   0.998   6.575   0.729
 4445SOL    HW214235   0.980   6.688   0.613
 4446SOL     OW14236   5.586   0.352   2.070
 4446SOL    HW114237   5.621   0.322   1.981
 4446SOL    HW214238   5.553   0.446   2.063
 4447SOL     OW14239   5.770   3.932   6.023
 4447SOL    HW114240   5.830   4.000   6.064
 4447SOL    HW214241   5.686   3.925   6.076
 4448SOL     OW14242   2.525   3.918   1.604
 4448SOL    HW114243   2.600   3.859   1.573
 4448SOL    HW214244   2.453   3.862   1.645
 4449SOL     OW14245   5.475   0.458   6.218
 4449SOL    HW114246   5.400   0.514   6.254
 4449SOL    HW214247   5.561   0.484   6.263
 4450SOL     OW14248   3.184   3.411   5.218
 4450SOL    HW114249   3.265   3.359   5.245
 4450SOL    HW214250   3.109   3.391   5.281
 4451SOL     OW14251   6.514   4.910   3.029
 4451SOL    HW114252   6.539   4.850   3.105
 4451SOL    HW214253   6.592   4.920   2.967
 4452SOL     OW14254   5.101   6.261   4.320
 4452SOL    HW114255   5.168   6.298   4.256
 4452SOL    HW214256   5.063   6.176   4.283
 4453SOL     OW14257   0.856   2.590   1.682
 4453SOL    HW114258   0.948   2.552   1.671
 4453SOL    HW214259   0.824   2.576   1.775
 4454SOL     OW14260   1.599   2.245   0.476
 4454SOL    HW114261   1.543   2.194   0.540
 4454SOL    HW214262   1.564   2.233   0.383
 4455SOL     OW14263   4.261   6.788   5.888
 4455SOL    HW114264   4.243   6.885   5.872
 4455SOL    HW214265   4.305   6.777   5.977
 4456SOL     OW14266   3.602   5.819   2.246
 4456SOL    HW114267   3.537   5.812   2.170
 4456SOL    HW214268   3.557   5.791   2.331
 4457SOL     OW14269   4.499   1.253   2.553
 4457SOL    HW114270   4.478   1.195   2.474
 4457SOL    HW214271   4.431   1.326   2.560
 4458SOL     OW14272   1.684   2.995   0.474
 4458SOL    HW114273   1.701   3.089   0.446
 4458SOL    HW214274   1.740   2.973   0.554
 4459SOL     OW14275   3.772   1.104   4.802
 4459SOL    HW114276   3.743   1.019   4.757
 4459SOL    HW214277   3.872   1.109   4.801
 4460SOL     OW14278   2.936   3.137   5.899
 4460SOL    HW114279   2.906   3.231   5.916
 4460SOL    HW214280   2.976   3.099   5.982
 4461SOL     OW14281   1.226   0.137   1.115
 4461SOL    HW114282   1.139   0.185   1.102
 4461SOL    HW214283   1.290   0.198   1.163
 4462SOL     OW14284   5.846   5.219   1.683
 4462SOL    HW114285   5.867   5.145   1.746
 4462SOL    HW214286   5.912   5.294   1.696
 4463SOL     OW14287   5.237   1.892   0.288
 4463SOL    HW114288   5.142   1.862   0.289
 4463SOL    HW214289   5.295   1.822   0.329
 4464SOL     OW14290   6.639   5.675   0.826
 4464SOL    HW114291   6.693   5.649   0.747
 4464SOL    HW214292   6.700   5.696   0.903
 4465SOL     OW14293   2.868   5.374   1.562
 4465SOL    HW114294   2.922   5.413   1.487
 4465SOL    HW214295   2.812   5.299   1.526
 4466SOL     OW14296   1.817   1.381   3.527
 4466SOL    HW114297   1.787   1.333   3.445
 4466SOL    HW214298   1.915   1.365   3.541
 4467SOL     OW14299   1.782   6.239   2.662
 4467SOL    HW114300   1.851   6.207   2.597
 4467SOL    HW214301   1.711   6.290   2.614
 4468SOL     OW14302   1.882   3.632   0.089
 4468SOL    HW114303   1.925   3.715   0.053
 4468SOL    HW214304   1.895   3.628   0.188
 4469SOL     OW14305   3.226   0.468   1.503
 4469SOL    HW114306   3.176   0.383   1.488
 4469SOL    HW214307   3.189   0.516   1.583
 4470SOL     OW14308   6.235   2.518   2.018
 4470SOL    HW114309   6.314   2.456   2.018
 4470SOL    HW214310   6.215   2.546   2.112
 4471SOL     OW14311   1.164   2.238   6.862
 4471SOL    HW114312   1.164   2.149   6.816
 4471SOL    HW214313   1.205   2.307   6.802
 4472SOL     OW14314   1.265   3.462   2.346
 4472SOL    HW114315   1.317   3.398   2.403
 4472SOL    HW214316   1.173   3.473   2.385
 4473SOL     OW14317   6.143   2.760   4.369
 4473SOL    HW114318   6.239   2.787   4.380
 4473SOL    HW214319   6.113   2.709   4.449
 4474SOL     OW14320   2.820   0.712   2.216
 4474SOL    HW114321   2.899   0.687   2.160
 4474SOL    HW214322   2.790   0.804   2.191
 4475SOL     OW14323   1.570   3.887   2.780
 4475SOL    HW114324   1.521   3.882   2.693
 4475SOL    HW214325   1.651   3.829   2.776
 4476SOL     OW14326   4.151   0.568   3.123
 4476SOL    HW114327   4.196   0.484   3.093
 4476SOL    HW214328   4.057   0.547   3.152
 4477SOL     OW14329   2.066   6.939   4.765
 4477SOL    HW114330   2.005   6.861   4.751
 4477SOL    HW214331   2.056   7.003   4.689
 4478SOL     OW14332   3.864   6.809   2.948
 4478SOL    HW114333   3.915   6.851   3.023
 4478SOL    HW214334   3.883   6.858   2.863
 4479SOL     OW14335   0.352   1.521   1.962
 4479SOL    HW114336   0.277   1.587   1.952
 4479SOL    HW214337   0.387   1.525   2.056
 4480SOL     OW14338   1.313   3.837   4.677
 4480SOL    HW114339   1.413   3.837   4.667
 4480SOL    HW214340   1.271   3.861   4.589
 4481SOL     OW14341   3.405   6.207   4.889
 4481SOL    HW114342   3.377   6.299   4.914
 4481SOL    HW214343   3.347   6.173   4.815
 4482SOL     OW14344   1.233   2.932   4.798
 4482SOL    HW114345   1.319   2.980   4.813
 4482SOL    HW214346   1.199   2.896   4.884
 4483SOL     OW14347   5.475   3.163   2.341
 4483SOL    HW114348   5.555   3.122   2.386
 4483SOL    HW214349   5.407   3.092   2.323
 4484SOL     OW14350   2.660   2.542   6.551
 4484SOL    HW114351   2.692   2.552   6.457
 4484SOL    HW214352   2.722   2.481   6.601
 4485SOL     OW14353   5.859   1.863   4.834
 4485SOL    HW114354   5.787   1.853   4.765
 4485SOL    HW214355   5.876   1.960   4.852
 4486SOL     OW14356   5.617   4.793   5.405
 4486SOL    HW114357   5.583   4.861   5.470
 4486SOL    HW214358   5.555   4.788   5.327
 4487SOL     OW14359   2.357   2.806   6.766
 4487SOL    HW114360   2.349   2.731   6.700
 4487SOL    HW214361   2.344   2.893   6.719
 4488SOL     OW14362   0.436   3.582   6.203
 4488SOL    HW114363   0.390   3.495   6.190
 4488SOL    HW214364   0.495   3.577   6.284
 4489SOL     OW14365   5.431   5.024   4.766
 4489SOL    HW114366   5.335   5.054   4.768
 4489SOL    HW214367   5.451   4.985   4.676
 4490SOL     OW14368   5.964   2.630   2.311
 4490SOL    HW114369   6.026   2.551   2.315
 4490SOL    HW214370   5.923   2.644   2.401
 4491SOL     OW14371   6.486   2.536   4.342
 4491SOL    HW114372   6.427   2.482   4.402
 4491SOL    HW214373   6.565   2.568   4.393
 4492SOL     OW14374   5.896   4.758   1.564
 4492SOL    HW114375   5.905   4.678   1.623
 4492SOL    HW214376   5.816   4.747   1.504
 4493SOL     OW14377   4.736   5.162   4.981
 4493SOL    HW114378   4.822   5.113   4.993
 4493SOL    HW214379   4.724   5.186   4.885
 4494SOL     OW14380   0.557   1.203   6.940
 4494SOL    HW114381   0.508   1.289   6.952
 4494SOL    HW214382   0.508   1.130   6.987
 4495SOL     OW14383   3.601   6.437   4.365
 4495SOL    HW114384   3.594   6.450   4.266
 4495SOL    HW214385   3.697   6.426   4.391
 4496SOL     OW14386   5.442   6.148   1.007
 4496SOL    HW114387   5.377   6.083   0.967
 4496SOL    HW214388   5.401   6.239   1.009
 4497SOL     OW14389   5.153   1.692   0.071
 4497SOL    HW114390   5.224   1.761   0.086
 4497SOL    HW214391   5.081   1.730   0.013
 4498SOL     OW14392   0.262   3.767   0.454
 4498SOL    HW114393   0.302   3.679   0.431
 4498SOL    HW214394   0.180   3.752   0.511
 4499SOL     OW14395   6.215   3.746   4.634
 4499SOL    HW114396   6.151   3.745   4.711
 4499SOL    HW214397   6.224   3.653   4.598
 4500SOL     OW14398   3.051   3.076   4.839
 4500SOL    HW114399   3.094   3.164   4.859
 4500SOL    HW214400   3.106   3.002   4.878
 4501SOL     OW14401   0.211   3.331   3.236
 4501SOL    HW114402   0.198   3.414   3.290
 4501SOL    HW214403   0.159   3.337   3.151
 4502SOL     OW14404   0.697   2.782   6.601
 4502SOL    HW114405   0.786   2.778   6.647
 4502SOL    HW214406   0.660   2.875   6.607
 4503SOL     OW14407   3.353   6.963   1.628
 4503SOL    HW114408   3.292   6.892   1.663
 4503SOL    HW214409   3.444   6.925   1.612
 4504SOL     OW14410   6.782   1.202   4.974
 4504SOL    HW114411   6.790   1.193   4.875
 4504SOL    HW214412   6.704   1.260   4.996
 4505SOL     OW14413   5.413   5.243   1.783
 4505SOL    HW114414   5.412   5.343   1.785
 4505SOL    HW214415   5.319   5.209   1.781
 4506SOL     OW14416   4.743   2.853   3.502
 4506SOL    HW114417   4.705   2.870   3.593
 4506SOL    HW214418   4.712   2.764   3.468
 4507SOL     OW14419   5.433   4.432   2.777
 4507SOL    HW114420   5.390   4.446   2.687
 4507SOL    HW214421   5.484   4.514   2.802
 4508SOL     OW14422   1.469   5.306   6.653
 4508SOL    HW114423   1.414   5.326   6.734
 4508SOL    HW214424   1.469   5.385   6.593
 4509SOL     OW14425   4.337   2.402   2.884
 4509SOL    HW114426   4.319   2.407   2.786
 4509SOL    HW214427   4.424   2.448   2.905
 4510SOL     OW14428   3.438   1.835   3.859
 4510SOL    HW114429   3.503   1.818   3.933
 4510SOL    HW214430   3.356   1.879   3.895
 4511SOL     OW14431   6.423   3.352   0.090
 4511SOL    HW114432   6.390   3.447   0.084
 4511SOL    HW214433   6.363   3.293   0.036
 4512SOL     OW14434   2.834   1.571   5.434
 4512SOL    HW114435   2.765   1.559   5.506
 4512SOL    HW214436   2.921   1.531   5.464
 4513SOL     OW14437   6.513   5.254   0.220
 4513SOL    HW114438   6.600   5.284   0.260
 4513SOL    HW214439   6.495   5.308   0.138
 4514SOL     OW14440   3.997   1.661   6.284
 4514SOL    HW114441   4.082   1.660   6.336
 4514SOL    HW214442   3.923   1.697   6.342
 4515SOL     OW14443   0.324   1.822   6.093
 4515SOL    HW114444   0.242   1.798   6.144
 4515SOL    HW214445   0.324   1.773   6.005
 4516SOL     OW14446   1.978   0.051   0.110
 4516SOL    HW114447   1.917   6.992   0.097
 4516SOL    HW214448   1.945   0.128   0.056
 4517SOL     OW14449   4.204   1.050   6.784
 4517SOL    HW114450   4.249   0.981   6.841
 4517SOL    HW214451   4.237   1.141   6.810
 4518SOL     OW14452   6.467   0.485   2.589
 4518SOL    HW114453   6.375   0.487   2.628
 4518SOL    HW214454   6.517   0.406   2.625
 4519SOL     OW14455   0.053   6.942   1.588
 4519SOL    HW114456   0.063   0.022   1.578
 4519SOL    HW214457   6.974   6.919   1.592
 4520SOL     OW14458   4.658   6.513   4.535
 4520SOL    HW114459   4.635   6.425   4.578
 4520SOL    HW214460   4.738   6.552   4.580
 4521SOL     OW14461   6.642   1.913   4.586
 4521SOL    HW114462   6.651   1.959   4.498
 4521SOL    HW214463   6.689   1.967   4.657
 4522SOL     OW14464   5.167   5.886   3.246
 4522SOL    HW114465   5.123   5.857   3.331
 4522SOL    HW214466   5.104   5.940   3.191
 4523SOL     OW14467   0.775   4.520   6.932
 4523SOL    HW114468   0.774   4.511   6.833
 4523SOL    HW214469   0.822   4.605   6.957
 4524SOL     OW14470   6.426   2.674   3.086
 4524SOL    HW114471   6.346   2.707   3.036
 4524SOL    HW214472   6.397   2.606   3.153
 4525SOL     OW14473   5.108   1.731   5.912
 4525SOL    HW114474   5.033   1.794   5.896
 4525SOL    HW214475   5.171   1.771   5.978
 4526SOL     OW14476   6.640   0.241   0.897
 4526SOL    HW114477   6.599   0.268   0.809
 4526SOL    HW214478   6.612   0.147   0.918
 4527SOL     OW14479   5.359   1.112   4.079
 4527SOL    HW114480   5.396   1.146   3.993
 4527SOL    HW214481   5.341   1.014   4.071
 4528SOL     OW14482   4.846   0.860   0.347
 4528SOL    HW114483   4.790   0.780   0.329
 4528SOL    HW214484   4.803   0.941   0.305
 4529SOL     OW14485   2.434   0.598   5.251
 4529SOL    HW114486   2.343   0.617   5.289
 4529SOL    HW214487   2.477   0.684   5.222
 4530SOL     OW14488   2.341   5.446   4.749
 4530SOL    HW114489   2.351   5.348   4.765
 4530SOL    HW214490   2.400   5.496   4.812
 4531SOL     OW14491   0.299   2.594   5.217
 4531SOL    HW114492   0.239   2.552   5.149
 4531SOL    HW214493   0.365   2.654   5.171
 4532SOL     OW14494   6.183   1.198   2.273
 4532SOL    HW114495   6.130   1.137   2.215
 4532SOL    HW214496   6.251   1.247   2.219
 4533SOL     OW14497   1.097   1.755   1.879
 4533SOL    HW114498   1.185   1.711   1.860
 4533SOL    HW214499   1.026   1.686   1.888
 4534SOL     OW14500   4.873   4.090   4.134
 4534SOL    HW114501   4.912   4.081   4.226
 4534SOL    HW214502   4.844   4.000   4.101
 4535SOL     OW14503   3.568   0.975   2.573
 4535SOL    HW114504   3.631   1.052   2.563
 4535SOL    HW214505   3.578   0.914   2.495
 4536SOL     OW14506   3.640   1.722   4.069
 4536SOL    HW114507   3.672   1.771   4.150
 4536SOL    HW214508   3.664   1.626   4.076
 4537SOL     OW14509   3.837   3.338   0.617
 4537SOL    HW114510   3.925   3.381   0.596
 4537SOL    HW214511   3.777   3.343   0.538
 4538SOL     OW14512   1.695   0.302   2.929
 4538SOL    HW114513   1.772   0.276   2.872
 4538SOL    HW214514   1.610   0.272   2.886
 4539SOL     OW14515   2.980   6.712   5.124
 4539SOL    HW114516   2.949   6.806   5.139
 4539SOL    HW214517   3.034   6.681   5.202
 4540SOL     OW14518   2.761   2.838   6.196
 4540SOL    HW114519   2.823   2.772   6.152
 4540SOL    HW214520   2.730   2.904   6.128
 4541SOL     OW14521   6.520   2.198   0.506
 4541SOL    HW114522   6.503   2.172   0.601
 4541SOL    HW214523   6.614   2.177   0.482
 4542SOL     OW14524   6.983   1.644   1.972
 4542SOL    HW114525   0.021   1.645   2.054
 4542SOL    HW214526   6.892   1.679   1.994
 4543SOL     OW14527   4.548   2.191   2.059
 4543SOL    HW114528   4.554   2.182   2.159
 4543SOL    HW214529   4.459   2.228   2.034
 4544SOL     OW14530   3.388   5.932   6.033
 4544SOL    HW114531   3.404   5.843   5.989
 4544SOL    HW214532   3.326   5.920   6.110
 4545SOL     OW14533   5.765   3.601   4.133
 4545SOL    HW114534   5.715   3.514   4.131
 4545SOL    HW214535   5.863   3.583   4.130
 4546SOL     OW14536   1.780   1.018   5.187
 4546SOL    HW114537   1.774   1.116   5.173
 4546SOL    HW214538   1.738   0.993   5.274
 4547SOL     OW14539   5.827   2.377   2.097
 4547SOL    HW114540   5.806   2.418   2.008
 4547SOL    HW214541   5.893   2.434   2.146
 4548SOL     OW14542   1.564   3.236   4.080
 4548SOL    HW114543   1.652   3.275   4.109
 4548SOL    HW214544   1.534   3.169   4.147
 4549SOL     OW14545   6.626   3.926   1.667
 4549SOL    HW114546   6.531   3.900   1.687
 4549SOL    HW214547   6.664   3.866   1.597
 4550SOL     OW14548   0.895   4.979   3.204
 4550SOL    HW114549   0.836   5.042   3.155
 4550SOL    HW214550   0.854   4.956   3.292
 4551SOL     OW14551   6.628   2.856   4.709
 4551SOL    HW114552   6.644   2.941   4.759
 4551SOL    HW214553   6.669   2.780   4.759
 4552SOL     OW14554   6.442   3.253   2.140
 4552SOL    HW114555   6.466   3.215   2.229
 4552SOL    HW214556   6.370   3.197   2.099
 4553SOL     OW14557   3.104   4.839   6.331
 4553SOL    HW114558   3.042   4.902   6.285
 4553SOL    HW214559   3.199   4.867   6.315
 4554SOL     OW14560   6.006   6.937   1.376
 4554SOL    HW114561   6.063   6.935   1.458
 4554SOL    HW214562   5.949   0.000   1.377
 4555SOL     OW14563   2.170   2.909   6.114
 4555SOL    HW114564   2.132   2.965   6.040
 4555SOL    HW214565   2.107   2.835   6.136
 4556SOL     OW14566   5.666   2.941   4.125
 4556SOL    HW114567   5.590   2.962   4.063
 4556SOL    HW214568   5.733   2.885   4.077
 4557SOL     OW14569   5.304   6.820   5.218
 4557SOL    HW114570   5.214   6.789   5.247
 4557SOL    HW214571   5.325   6.781   5.128
 4558SOL     OW14572   0.329   4.542   5.190
 4558SOL    HW114573   0.267   4.464   5.206
 4558SOL    HW214574   0.292   4.599   5.117
 4559SOL     OW14575   0.389   3.835   1.911
 4559SOL    HW114576   0.430   3.751   1.875
 4559SOL    HW214577   0.290   3.828   1.907
 4560SOL     OW14578   5.038   3.863   1.557
 4560SOL    HW114579   5.118   3.914   1.590
 4560SOL    HW214580   4.982   3.923   1.499
 4561SOL     OW14581   2.395   2.001   2.930
 4561SOL    HW114582   2.324   2.046   2.875
 4561SOL    HW214583   2.383   1.902   2.924
 4562SOL     OW14584   2.431   6.423   5.786
 4562SOL    HW114585   2.520   6.453   5.750
 4562SOL    HW214586   2.443   6.337   5.836
 4563SOL     OW14587   6.884   2.604   1.464
 4563SOL    HW114588   6.905   2.591   1.367
 4563SOL    HW214589   6.802   2.552   1.488
 4564SOL     OW14590   6.821   6.119   1.610
 4564SOL    HW114591   6.842   6.100   1.514
 4564SOL    HW214592   6.880   6.063   1.668
 4565SOL     OW14593   0.876   1.330   4.991
 4565SOL    HW114594   0.899   1.234   5.006
 4565SOL    HW214595   0.957   1.387   5.005
 4566SOL     OW14596   6.571   2.611   0.014
 4566SOL    HW114597   6.513   2.593   6.953
 4566SOL    HW214598   6.593   2.708   0.018
 4567SOL     OW14599   6.201   0.919   6.431
 4567SOL    HW114600   6.207   0.858   6.351
 4567SOL    HW214601   6.212   0.865   6.514
 4568SOL     OW14602   2.393   3.591   6.083
 4568SOL    HW114603   2.441   3.605   5.996
 4568SOL    HW214604   2.345   3.675   6.109
 4569SOL     OW14605   2.067   1.651   2.844
 4569SOL    HW114606   2.050   1.693   2.933
 4569SOL    HW214607   1.981   1.645   2.793
 4570SOL     OW14608   0.552   6.476   3.031
 4570SOL    HW114609   0.497   6.490   3.114
 4570SOL    HW214610   0.598   6.561   3.006
 4571SOL     OW14611   4.254   4.209   6.494
 4571SOL    HW114612   4.313   4.132   6.473
 4571SOL    HW214613   4.278   4.248   6.583
 4572SOL     OW14614   2.071   0.548   6.987
 4572SOL    HW114615   2.003   0.572   6.917
 4572SOL    HW214616   2.056   0.604   0.049
 4573SOL     OW14617   6.318   0.766   0.703
 4573SOL    HW114618   6.296   0.680   0.750
 4573SOL    HW214619   6.299   0.843   0.764
 4574SOL     OW14620   5.719   4.234   0.710
 4574SOL    HW114621   5.737   4.208   0.804
 4574SOL    HW214622   5.803   4.232   0.657
 4575SOL     OW14623   5.797   0.900   6.688
 4575SOL    HW114624   5.836   0.907   6.596
 4575SOL    HW214625   5.762   0.808   6.703
 4576SOL     OW14626   2.688   6.417   5.666
 4576SOL    HW114627   2.680   6.504   5.715
 4576SOL    HW214628   2.778   6.377   5.685
 4577SOL     OW14629   1.643   2.160   4.765
 4577SOL    HW114630   1.684   2.199   4.847
 4577SOL    HW214631   1.713   2.146   4.696
 4578SOL     OW14632   0.454   2.818   5.102
 4578SOL    HW114633   0.479   2.774   5.015
 4578SOL    HW214634   0.532   2.871   5.135
 4579SOL     OW14635   3.906   0.788   3.383
 4579SOL    HW114636   3.867   0.827   3.466
 4579SOL    HW214637   3.997   0.752   3.403
 4580SOL     OW14638   5.673   4.808   0.500
 4580SOL    HW114639   5.725   4.863   0.435
 4580SOL    HW214640   5.699   4.712   0.491
 4581SOL     OW14641   2.485   5.237   2.935
 4581SOL    HW114642   2.506   5.298   2.859
 4581SOL    HW214643   2.471   5.291   3.018
 4582SOL     OW14644   5.534   0.087   5.288
 4582SOL    HW114645   5.607   0.106   5.223
 4582SOL    HW214646   5.547   7.014   5.326
 4583SOL     OW14647   2.369   2.604   6.566
 4583SOL    HW114648   2.317   2.524   6.594
 4583SOL    HW214649   2.452   2.574   6.517
 4584SOL     OW14650   0.358   4.782   5.716
 4584SOL    HW114651   0.334   4.715   5.646
 4584SOL    HW214652   0.457   4.797   5.715
 4585SOL     OW14653   3.210   5.997   3.463
 4585SOL    HW114654   3.150   5.991   3.543
 4585SOL    HW214655   3.282   6.064   3.481
 4586SOL     OW14656   3.524   4.789   0.551
 4586SOL    HW114657   3.591   4.822   0.485
 4586SOL    HW214658   3.571   4.733   0.620
 4587SOL     OW14659   3.677   4.119   3.141
 4587SOL    HW114660   3.644   4.110   3.235
 4587SOL    HW214661   3.599   4.119   3.078
 4588SOL     OW14662   2.541   3.537   5.329
 4588SOL    HW114663   2.600   3.459   5.351
 4588SOL    HW214664   2.593   3.605   5.277
 4589SOL     OW14665   5.982   0.866   2.672
 4589SOL    HW114666   6.074   0.901   2.684
 4589SOL    HW214667   5.916   0.928   2.716
 4590SOL     OW14668   4.850   5.715   1.321
 4590SOL    HW114669   4.773   5.775   1.299
 4590SOL    HW214670   4.857   5.704   1.420
 4591SOL     OW14671   1.367   0.024   4.811
 4591SOL    HW114672   1.328   6.952   4.822
 4591SOL    HW214673   1.440   0.037   4.878
 4592SOL     OW14674   2.804   1.684   2.638
 4592SOL    HW114675   2.730   1.621   2.660
 4592SOL    HW214676   2.872   1.682   2.711
 4593SOL     OW14677   4.844   5.467   2.683
 4593SOL    HW114678   4.879   5.506   2.598
 4593SOL    HW214679   4.918   5.420   2.731
 4594SOL     OW14680   2.724   1.285   3.218
 4594SOL    HW114681   2.741   1.383   3.230
 4594SOL    HW214682   2.632   1.272   3.180
 4595SOL     OW14683   3.893   3.389   5.443
 4595SOL    HW114684   3.922   3.297   5.472
 4595SOL    HW214685   3.825   3.424   5.507
 4596SOL     OW14686   5.663   6.883   2.096
 4596SOL    HW114687   5.642   6.860   2.001
 4596SOL    HW214688   5.631   6.809   2.156
 4597SOL     OW14689   3.681   5.523   6.164
 4597SOL    HW114690   3.585   5.532   6.189
 4597SOL    HW214691   3.702   5.586   6.089
 4598SOL     OW14692   2.052   6.328   6.551
 4598SOL    HW114693   2.095   6.320   6.641
 4598SOL    HW214694   2.074   6.418   6.512
 4599SOL     OW14695   1.615   5.111   0.949
 4599SOL    HW114696   1.698   5.104   1.003
 4599SOL    HW214697   1.553   5.035   0.971
 4600SOL     OW14698   1.521   5.535   5.586
 4600SOL    HW114699   1.528   5.535   5.685
 4600SOL    HW214700   1.458   5.463   5.556
 4601SOL     OW14701   2.106   1.172   5.588
 4601SOL    HW114702   2.044   1.132   5.656
 4601SOL    HW214703   2.088   1.271   5.582
 4602SOL     OW14704   2.178   6.456   1.392
 4602SOL    HW114705   2.262   6.435   1.442
 4602SOL    HW214706   2.178   6.553   1.366
 4603SOL     OW14707   2.949   6.072   0.678
 4603SOL    HW114708   3.000   6.092   0.595
 4603SOL    HW214709   2.876   6.006   0.657
 4604SOL     OW14710   4.414   0.534   0.561
 4604SOL    HW114711   4.478   0.469   0.520
 4604SOL    HW214712   4.411   0.520   0.660
 4605SOL     OW14713   2.973   0.210   2.312
 4605SOL    HW114714   2.929   0.210   2.402
 4605SOL    HW214715   2.925   0.146   2.251
 4606SOL     OW14716   0.575   6.204   2.234
 4606SOL    HW114717   0.506   6.139   2.265
 4606SOL    HW214718   0.606   6.180   2.143
 4607SOL     OW14719   1.350   3.546   1.713
 4607SOL    HW114720   1.328   3.634   1.755
 4607SOL    HW214721   1.291   3.530   1.634
 4608SOL     OW14722   0.472   5.912   3.479
 4608SOL    HW114723   0.438   5.995   3.435
 4608SOL    HW214724   0.546   5.936   3.542
 4609SOL     OW14725   4.343   5.188   6.307
 4609SOL    HW114726   4.244   5.190   6.292
 4609SOL    HW214727   4.362   5.212   6.403
 4610SOL     OW14728   4.947   2.342   1.010
 4610SOL    HW114729   4.940   2.243   0.998
 4610SOL    HW214730   5.011   2.379   0.942
 4611SOL     OW14731   0.789   6.168   6.702
 4611SOL    HW114732   0.838   6.100   6.648
 4611SOL    HW214733   0.844   6.195   6.781
 4612SOL     OW14734   1.435   5.870   0.085
 4612SOL    HW114735   1.497   5.802   0.046
 4612SOL    HW214736   1.341   5.837   0.080
 4613SOL     OW14737   2.447   5.747   1.734
 4613SOL    HW114738   2.531   5.713   1.778
 4613SOL    HW214739   2.466   5.835   1.691
 4614SOL     OW14740   6.522   3.197   3.492
 4614SOL    HW114741   6.478   3.267   3.436
 4614SOL    HW214742   6.591   3.149   3.437
 4615SOL     OW14743   1.590   0.299   0.116
 4615SOL    HW114744   1.563   0.360   0.190
 4615SOL    HW214745   1.687   0.314   0.094
 4616SOL     OW14746   6.563   0.895   4.562
 4616SOL    HW114747   6.504   0.974   4.579
 4616SOL    HW214748   6.586   0.850   4.648
 4617SOL     OW14749   0.898   2.477   2.622
 4617SOL    HW114750   0.983   2.498   2.574
 4617SOL    HW214751   0.901   2.383   2.656
 4618SOL     OW14752   2.267   2.918   4.738
 4618SOL    HW114753   2.271   2.932   4.639
 4618SOL    HW214754   2.332   2.980   4.782
 4619SOL     OW14755   3.056   6.264   3.105
 4619SOL    HW114756   3.053   6.166   3.124
 4619SOL    HW214757   3.132   6.285   3.044
 4620SOL     OW14758   3.041   4.881   0.751
 4620SOL    HW114759   2.975   4.956   0.739
 4620SOL    HW214760   3.120   4.897   0.692
 4621SOL     OW14761   5.027   0.373   2.286
 4621SOL    HW114762   5.109   0.327   2.254
 4621SOL    HW214763   5.029   0.380   2.386
 4622SOL     OW14764   2.717   4.535   0.843
 4622SOL    HW114765   2.812   4.527   0.812
 4622SOL    HW214766   2.675   4.445   0.842
 4623SOL     OW14767   5.361   6.383   0.918
 4623SOL    HW114768   5.387   6.456   0.982
 4623SOL    HW214769   5.428   6.379   0.844
 4624SOL     OW14770   4.053   6.927   3.136
 4624SOL    HW114771   4.032   7.014   3.091
 4624SOL    HW214772   4.139   6.891   3.099
 4625SOL     OW14773   2.137   4.490   1.090
 4625SOL    HW114774   2.071   4.415   1.100
 4625SOL    HW214775   2.218   4.458   1.040
 4626SOL     OW14776   5.041   4.314   1.474
 4626SOL    HW114777   5.023   4.259   1.555
 4626SOL    HW214778   4.968   4.380   1.461
 4627SOL     OW14779   2.299   4.446   4.785
 4627SOL    HW114780   2.395   4.459   4.809
 4627SOL    HW214781   2.252   4.534   4.788
 4628SOL     OW14782   6.392   4.107   3.578
 4628SOL    HW114783   6.295   4.130   3.582
 4628SOL    HW214784   6.436   4.133   3.664
 4629SOL     OW14785   2.436   5.495   5.995
 4629SOL    HW114786   2.380   5.482   5.913
 4629SOL    HW214787   2.466   5.406   6.029
 4630SOL     OW14788   3.138   5.720   2.574
 4630SOL    HW114789   3.062   5.782   2.593
 4630SOL    HW214790   3.131   5.640   2.634
 4631SOL     OW14791   1.529   5.703   3.211
 4631SOL    HW114792   1.625   5.687   3.189
 4631SOL    HW214793   1.482   5.615   3.220
 4632SOL     OW14794   3.291   4.916   2.381
 4632SOL    HW114795   3.237   4.994   2.350
 4632SOL    HW214796   3.235   4.834   2.383
 4633SOL     OW14797   5.784   0.822   4.653
 4633SOL    HW114798   5.859   0.791   4.711
 4633SOL    HW214799   5.785   0.772   4.566
 4634SOL     OW14800   3.408   4.405   5.808
 4634SOL    HW114801   3.491   4.446   5.846
 4634SOL    HW214802   3.360   4.473   5.752
 4635SOL     OW14803   4.623   4.019   1.124
 4635SOL    HW114804   4.677   4.014   1.040
 4635SOL    HW214805   4.525   4.021   1.100
 4636SOL     OW14806   1.070   4.796   6.876
 4636SOL    HW114807   1.121   4.813   6.961
 4636SOL    HW214808   1.075   4.699   6.854
 4637SOL     OW14809   0.805   6.016   1.122
 4637SOL    HW114810   0.856   6.101   1.118
 4637SOL    HW214811   0.714   6.033   1.160
 4638SOL     OW14812   4.473   4.501   6.647
 4638SOL    HW114813   4.464   4.415   6.699
 4638SOL    HW214814   4.394   4.512   6.588
 4639SOL     OW14815   3.824   3.710   5.398
 4639SOL    HW114816   3.813   3.797   5.447
 4639SOL    HW214817   3.742   3.691   5.345
 4640SOL     OW14818   4.949   3.809   3.988
 4640SOL    HW114819   5.048   3.800   3.975
 4640SOL    HW214820   4.930   3.827   4.084
 4641SOL     OW14821   2.379   7.007   4.623
 4641SOL    HW114822   2.284   7.018   4.593
 4641SOL    HW214823   2.423   6.936   4.568
 4642SOL     OW14824   1.080   5.752   4.247
 4642SOL    HW114825   1.152   5.756   4.178
 4642SOL    HW214826   1.083   5.835   4.303
 4643SOL     OW14827   6.540   2.668   1.115
 4643SOL    HW114828   6.461   2.701   1.064
 4643SOL    HW214829   6.513   2.592   1.173
 4644SOL     OW14830   6.905   5.187   5.591
 4644SOL    HW114831   6.889   5.254   5.519
 4644SOL    HW214832   6.850   5.209   5.671
 4645SOL     OW14833   0.474   0.232   3.897
 4645SOL    HW114834   0.471   0.269   3.990
 4645SOL    HW214835   0.506   0.303   3.834
 4646SOL     OW14836   2.040   5.622   3.693
 4646SOL    HW114837   2.051   5.523   3.703
 4646SOL    HW214838   2.119   5.660   3.645
 4647SOL     OW14839   1.754   6.791   3.086
 4647SOL    HW114840   1.715   6.704   3.118
 4647SOL    HW214841   1.716   6.866   3.140
 4648SOL     OW14842   3.346   1.235   2.672
 4648SOL    HW114843   3.444   1.232   2.653
 4648SOL    HW214844   3.331   1.229   2.771
 4649SOL     OW14845   5.304   1.058   6.975
 4649SOL    HW114846   5.262   1.147   6.989
 4649SOL    HW214847   5.327   1.017   0.044
 4650SOL     OW14848   4.639   5.283   2.568
 4650SOL    HW114849   4.697   5.346   2.620
 4650SOL    HW214850   4.696   5.227   2.508
 4651SOL     OW14851   6.531   3.063   0.474
 4651SOL    HW114852   6.473   3.021   0.405
 4651SOL    HW214853   6.507   3.160   0.484
 4652SOL     OW14854   6.398   6.884   4.558
 4652SOL    HW114855   6.426   6.931   4.474
 4652SOL    HW214856   6.478   6.838   4.598
 4653SOL     OW14857   5.106   5.446   0.882
 4653SOL    HW114858   5.202   5.462   0.861
 4653SOL    HW214859   5.049   5.510   0.831
 4654SOL     OW14860   0.838   6.901   0.290
 4654SOL    HW114861   0.789   6.818   0.261
 4654SOL    HW214862   0.796   6.981   0.247
 4655SOL     OW14863   5.236   3.956   1.214
 4655SOL    HW114864   5.220   4.046   1.253
 4655SOL    HW214865   5.280   3.965   1.124
 4656SOL     OW14866   1.584   0.193   2.552
 4656SOL    HW114867   1.660   0.252   2.528
 4656SOL    HW214868   1.579   0.116   2.488
 4657SOL     OW14869   4.273   6.593   2.187
 4657SOL    HW114870   4.342   6.597   2.260
 4657SOL    HW214871   4.234   6.685   2.174
 4658SOL     OW14872   3.733   1.090   2.915
 4658SOL    HW114873   3.660   1.135   2.865
 4658SOL    HW214874   3.756   1.144   2.997
 4659SOL     OW14875   3.498   4.848   5.210
 4659SOL    HW114876   3.426   4.908   5.175
 4659SOL    HW214877   3.458   4.781   5.272
 4660SOL     OW14878   1.004   4.240   5.383
 4660SOL    HW114879   0.990   4.294   5.300
 4660SOL    HW214880   1.099   4.208   5.385
 4661SOL     OW14881   2.503   4.521   5.889
 4661SOL    HW114882   2.555   4.448   5.843
 4661SOL    HW214883   2.466   4.486   5.975
 4662SOL     OW14884   3.391   0.045   5.569
 4662SOL    HW114885   3.375   7.008   5.650
 4662SOL    HW214886   3.339   0.130   5.576
 4663SOL     OW14887   0.533   1.665   1.621
 4663SOL    HW114888   0.604   1.727   1.653
 4663SOL    HW214889   0.443   1.700   1.645
 4664SOL     OW14890   1.168   1.226   1.437
 4664SOL    HW114891   1.112   1.293   1.486
 4664SOL    HW214892   1.260   1.264   1.424
 4665SOL     OW14893   3.759   0.045   6.679
 4665SOL    HW114894   3.671   0.024   6.723
 4665SOL    HW214895   3.753   0.025   6.582
 4666SOL     OW14896   1.595   3.193   0.740
 4666SOL    HW114897   1.637   3.137   0.668
 4666SOL    HW214898   1.640   3.173   0.828
 4667SOL     OW14899   0.016   3.540   2.388
 4667SOL    HW114900   6.997   3.586   2.308
 4667SOL    HW214901   7.006   3.444   2.387
 4668SOL     OW14902   4.080   2.263   2.848
 4668SOL    HW114903   4.164   2.310   2.874
 4668SOL    HW214904   4.095   2.164   2.851
 4669SOL     OW14905   4.747   6.522   6.238
 4669SOL    HW114906   4.726   6.620   6.236
 4669SOL    HW214907   4.842   6.508   6.212
 4670SOL     OW14908   2.139   2.592   5.922
 4670SOL    HW114909   2.058   2.551   5.965
 4670SOL    HW214910   2.221   2.552   5.963
 4671SOL     OW14911   0.211   2.935   0.509
 4671SOL    HW114912   0.170   2.851   0.475
 4671SOL    HW214913   0.152   2.976   0.578
 4672SOL     OW14914   2.250   4.834   6.032
 4672SOL    HW114915   2.330   4.790   6.072
 4672SOL    HW214916   2.273   4.929   6.007
 4673SOL     OW14917   5.025   6.894   2.202
 4673SOL    HW114918   5.024   6.800   2.235
 4673SOL    HW214919   4.933   6.923   2.178
 4674SOL     OW14920   5.513   1.080   6.595
 4674SOL    HW114921   5.578   1.155   6.597
 4674SOL    HW214922   5.506   1.044   6.502
 4675SOL     OW14923   2.202   1.038   6.656
 4675SOL    HW114924   2.130   1.059   6.590
 4675SOL    HW214925   2.283   1.005   6.606
 4676SOL     OW14926   6.884   6.358   4.156
 4676SOL    HW114927   6.868   6.261   4.138
 4676SOL    HW214928   6.801   6.399   4.195
 4677SOL     OW14929   2.385   1.607   6.530
 4677SOL    HW114930   2.299   1.658   6.536
 4677SOL    HW214931   2.457   1.667   6.494
 4678SOL     OW14932   1.624   4.430   2.854
 4678SOL    HW114933   1.540   4.482   2.834
 4678SOL    HW214934   1.677   4.478   2.924
 4679SOL     OW14935   3.623   1.167   0.422
 4679SOL    HW114936   3.705   1.125   0.462
 4679SOL    HW214937   3.577   1.100   0.365
 4680SOL     OW14938   3.029   1.488   0.475
 4680SOL    HW114939   3.036   1.416   0.405
 4680SOL    HW214940   2.962   1.556   0.446
 4681SOL     OW14941   5.051   5.847   6.239
 4681SOL    HW114942   5.040   5.852   6.140
 4681SOL    HW214943   5.143   5.815   6.261
 4682SOL     OW14944   4.275   4.159   5.707
 4682SOL    HW114945   4.369   4.193   5.713
 4682SOL    HW214946   4.225   4.210   5.638
 4683SOL     OW14947   4.162   4.874   3.028
 4683SOL    HW114948   4.181   4.952   2.969
 4683SOL    HW214949   4.063   4.863   3.039
 4684SOL     OW14950   6.806   1.824   5.314
 4684SOL    HW114951   6.761   1.889   5.253
 4684SOL    HW214952   6.873   1.871   5.371
 4685SOL     OW14953   0.657   5.931   5.416
 4685SOL    HW114954   0.671   5.848   5.470
 4685SOL    HW214955   0.566   5.969   5.436
 4686SOL     OW14956   4.375   4.854   0.142
 4686SOL    HW114957   4.342   4.762   0.159
 4686SOL    HW214958   4.414   4.859   0.049
 4687SOL     OW14959   6.231   4.212   4.649
 4687SOL    HW114960   6.153   4.164   4.610
 4687SOL    HW214961   6.315   4.161   4.630
 4688SOL     OW14962   6.125   4.588   4.585
 4688SOL    HW114963   6.060   4.514   4.602
 4688SOL    HW214964   6.078   4.676   4.591
 4689SOL     OW14965   5.804   0.599   0.564
 4689SOL    HW114966   5.796   0.505   0.597
 4689SOL    HW214967   5.778   0.603   0.468
 4690SOL     OW14968   1.375   0.037   6.971
 4690SOL    HW114969   1.395   0.131   6.941
 4690SOL    HW214970   1.302   0.039   0.020
 4691SOL     OW14971   3.114   5.078   1.733
 4691SOL    HW114972   3.027   5.029   1.730
 4691SOL    HW214973   3.097   5.175   1.750
 4692SOL     OW14974   5.885   5.576   2.115
 4692SOL    HW114975   5.961   5.513   2.123
 4692SOL    HW214976   5.814   5.536   2.058
 4693SOL     OW14977   0.943   1.383   3.244
 4693SOL    HW114978   1.013   1.443   3.282
 4693SOL    HW214979   0.892   1.432   3.173
 4694SOL     OW14980   2.058   0.582   0.541
 4694SOL    HW114981   2.128   0.628   0.486
 4694SOL    HW214982   2.100   0.511   0.597
 4695SOL     OW14983   1.803   3.734   1.818
 4695SOL    HW114984   1.802   3.760   1.914
 4695SOL    HW214985   1.849   3.646   1.807
 4696SOL     OW14986   0.243   4.043   0.071
 4696SOL    HW114987   0.331   3.998   0.052
 4696SOL    HW214988   0.204   4.004   0.155
 4697SOL     OW14989   2.063   3.194   1.253
 4697SOL    HW114990   2.060   3.222   1.349
 4697SOL    HW214991   2.141   3.238   1.208
 4698SOL     OW14992   4.217   5.053   2.828
 4698SOL    HW114993   4.302   5.014   2.793
 4698SOL    HW214994   4.221   5.153   2.820
 4699SOL     OW14995   1.683   6.662   2.030
 4699SOL    HW114996   1.657   6.741   1.974
 4699SOL    HW214997   1.639   6.580   1.993
 4700SOL     OW14998   6.569   1.813   2.769
 4700SOL    HW114999   6.515   1.729   2.760
 4700SOL    HW215000   6.509   1.893   2.762
 4701SOL     OW15001   2.187   2.323   6.996
 4701SOL    HW115002   2.258   2.263   6.960
 4701SOL    HW215003   2.223   2.416   7.004
 4702SOL     OW15004   3.976   5.327   6.886
 4702SOL    HW115005   4.004   5.364   6.975
 4702SOL    HW215006   4.056   5.287   6.840
 4703SOL     OW15007   0.977   1.383   1.596
 4703SOL    HW115008   0.965   1.481   1.607
 4703SOL    HW215009   1.012   1.343   1.681
 4704SOL     OW15010   0.555   6.546   0.504
 4704SOL    HW115011   0.532   6.547   0.406
 4704SOL    HW215012   0.654   6.550   0.515
 4705SOL     OW15013   3.523   2.985   2.194
 4705SOL    HW115014   3.609   2.995   2.143
 4705SOL    HW215015   3.540   2.932   2.277
 4706SOL     OW15016   3.490   0.357   6.557
 4706SOL    HW115017   3.544   0.428   6.601
 4706SOL    HW215018   3.465   0.287   6.624
 4707SOL     OW15019   1.832   6.368   0.869
 4707SOL    HW115020   1.876   6.282   0.895
 4707SOL    HW215021   1.870   6.442   0.924
 4708SOL     OW15022   1.303   1.715   6.755
 4708SOL    HW115023   1.258   1.648   6.695
 4708SOL    HW215024   1.387   1.747   6.712
 4709SOL     OW15025   4.606   5.871   5.621
 4709SOL    HW115026   4.522   5.869   5.568
 4709SOL    HW215027   4.645   5.779   5.626
 4710SOL     OW15028   4.037   1.085   5.290
 4710SOL    HW115029   4.008   1.128   5.376
 4710SOL    HW215030   4.122   1.126   5.259
 4711SOL     OW15031   5.814   0.800   1.449
 4711SOL    HW115032   5.776   0.768   1.536
 4711SOL    HW215033   5.797   0.732   1.378
 4712SOL     OW15034   2.586   4.262   6.702
 4712SOL    HW115035   2.536   4.310   6.774
 4712SOL    HW215036   2.581   4.164   6.718
 4713SOL     OW15037   2.991   3.613   0.221
 4713SOL    HW115038   3.046   3.571   0.293
 4713SOL    HW215039   2.898   3.629   0.255
 4714SOL     OW15040   1.033   2.391   0.274
 4714SOL    HW115041   1.010   2.412   0.179
 4714SOL    HW215042   1.058   2.476   0.321
 4715SOL     OW15043   5.594   2.402   2.667
 4715SOL    HW115044   5.573   2.475   2.601
 4715SOL    HW215045   5.543   2.320   2.643
 4716SOL     OW15046   4.874   5.465   6.520
 4716SOL    HW115047   4.889   5.373   6.483
 4716SOL    HW215048   4.863   5.530   6.444
 4717SOL     OW15049   0.269   0.102   3.643
 4717SOL    HW115050   0.228   0.165   3.709
 4717SOL    HW215051   0.204   0.030   3.620
 4718SOL     OW15052   5.472   2.709   1.550
 4718SOL    HW115053   5.484   2.779   1.479
 4718SOL    HW215054   5.405   2.642   1.520
 4719SOL     OW15055   5.386   3.225   1.812
 4719SOL    HW115056   5.310   3.160   1.821
 4719SOL    HW215057   5.438   3.226   1.898
 4720SOL     OW15058   2.114   5.445   5.942
 4720SOL    HW115059   2.143   5.375   5.876
 4720SOL    HW215060   2.025   5.482   5.915
 4721SOL     OW15061   6.791   2.138   1.887
 4721SOL    HW115062   6.858   2.065   1.897
 4721SOL    HW215063   6.837   2.222   1.857
 4722SOL     OW15064   1.108   6.392   6.267
 4722SOL    HW115065   1.165   6.365   6.189
 4722SOL    HW215066   1.127   6.331   6.344
 4723SOL     OW15067   2.071   3.793   5.800
 4723SOL    HW115068   2.164   3.818   5.771
 4723SOL    HW215069   2.073   3.760   5.894
 4724SOL     OW15070   6.179   5.856   2.815
 4724SOL    HW115071   6.158   5.954   2.810
 4724SOL    HW215072   6.278   5.843   2.807
 4725SOL     OW15073   6.430   5.801   2.764
 4725SOL    HW115074   6.414   5.704   2.782
 4725SOL    HW215075   6.464   5.813   2.671
 4726SOL     OW15076   1.777   2.791   5.934
 4726SOL    HW115077   1.827   2.718   5.981
 4726SOL    HW215078   1.703   2.752   5.880
 4727SOL     OW15079   0.969   5.868   0.826
 4727SOL    HW115080   0.989   5.883   0.923
 4727SOL    HW215081   1.012   5.783   0.796
 4728SOL     OW15082   5.996   0.809   1.977
 4728SOL    HW115083   5.993   0.903   1.943
 4728SOL    HW215084   6.037   0.750   1.907
 4729SOL     OW15085   2.739   1.560   0.776
 4729SOL    HW115086   2.655   1.518   0.741
 4729SOL    HW215087   2.745   1.546   0.875
 4730SOL     OW15088   3.194   5.769   5.091
 4730SOL    HW115089   3.120   5.729   5.037
 4730SOL    HW215090   3.204   5.866   5.066
 4731SOL     OW15091   4.598   0.251   0.140
 4731SOL    HW115092   4.639   0.241   0.049
 4731SOL    HW215093   4.667   0.288   0.203
 4732SOL     OW15094   0.624   3.216   6.114
 4732SOL    HW115095   0.710   3.242   6.158
 4732SOL    HW215096   0.583   3.297   6.070
 4733SOL     OW15097   1.011   3.964   3.376
 4733SOL    HW115098   1.085   3.924   3.322
 4733SOL    HW215099   1.019   4.063   3.374
 4734SOL     OW15100   4.775   2.509   0.502
 4734SOL    HW115101   4.868   2.503   0.537
 4734SOL    HW215102   4.764   2.447   0.423
 4735SOL     OW15103   7.006   5.672   4.789
 4735SOL    HW115104   6.968   5.748   4.841
 4735SOL    HW215105   0.071   5.701   4.744
 4736SOL     OW15106   0.459   1.980   6.315
 4736SOL    HW115107   0.461   1.958   6.218
 4736SOL    HW215108   0.540   2.032   6.339
 4737SOL     OW15109   2.373   4.310   2.314
 4737SOL    HW115110   2.449   4.343   2.370
 4737SOL    HW215111   2.380   4.349   2.223
 4738SOL     OW15112   0.152   6.475   3.262
 4738SOL    HW115113   0.087   6.546   3.290
 4738SOL    HW215114   0.172   6.415   3.340
 4739SOL     OW15115   4.016   6.388   3.291
 4739SOL    HW115116   4.019   6.367   3.388
 4739SOL    HW215117   4.067   6.319   3.240
 4740SOL     OW15118   0.804   1.483   1.364
 4740SOL    HW115119   0.834   1.566   1.412
 4740SOL    HW215120   0.830   1.403   1.418
 4741SOL     OW15121   3.971   3.332   1.125
 4741SOL    HW115122   3.871   3.325   1.130
 4741SOL    HW215123   4.006   3.374   1.209
 4742SOL     OW15124   3.685   6.696   5.891
 4742SOL    HW115125   3.612   6.730   5.951
 4742SOL    HW215126   3.747   6.770   5.867
 4743SOL     OW15127   1.742   3.289   3.155
 4743SOL    HW115128   1.807   3.239   3.211
 4743SOL    HW215129   1.671   3.329   3.213
 4744SOL     OW15130   1.776   4.538   0.328
 4744SOL    HW115131   1.814   4.449   0.301
 4744SOL    HW215132   1.805   4.559   0.421
 4745SOL     OW15133   3.116   4.154   5.640
 4745SOL    HW115134   3.069   4.108   5.564
 4745SOL    HW215135   3.170   4.087   5.691
 4746SOL     OW15136   5.663   5.995   2.852
 4746SOL    HW115137   5.601   5.975   2.928
 4746SOL    HW215138   5.757   5.977   2.880
 4747SOL     OW15139   1.490   3.929   7.014
 4747SOL    HW115140   1.543   4.012   0.009
 4747SOL    HW215141   1.495   3.901   6.918
 4748SOL     OW15142   2.599   5.297   0.982
 4748SOL    HW115143   2.618   5.364   1.054
 4748SOL    HW215144   2.583   5.345   0.896
 4749SOL     OW15145   2.095   6.323   5.529
 4749SOL    HW115146   2.161   6.367   5.468
 4749SOL    HW215147   2.137   6.241   5.569
 4750SOL     OW15148   0.402   3.637   4.741
 4750SOL    HW115149   0.368   3.545   4.724
 4750SOL    HW215150   0.470   3.661   4.673
 4751SOL     OW15151   4.011   2.042   2.319
 4751SOL    HW115152   4.018   2.090   2.407
 4751SOL    HW215153   3.939   1.973   2.324
 4752SOL     OW15154   4.000   1.319   6.623
 4752SOL    HW115155   4.092   1.345   6.649
 4752SOL    HW215156   3.944   1.401   6.611
 4753SOL     OW15157   6.296   0.371   3.625
 4753SOL    HW115158   6.332   0.450   3.674
 4753SOL    HW215159   6.331   0.370   3.532
 4754SOL     OW15160   5.756   5.188   4.888
 4754SOL    HW115161   5.739   5.126   4.811
 4754SOL    HW215162   5.854   5.208   4.892
 4755SOL     OW15163   3.036   0.532   0.411
 4755SOL    HW115164   2.966   0.493   0.351
 4755SOL    HW215165   3.124   0.488   0.394
 4756SOL     OW15166   6.117   2.553   6.892
 4756SOL    HW115167   6.056   2.588   6.821
 4756SOL    HW215168   6.184   2.491   6.852
 4757SOL     OW15169   2.320   1.656   1.066
 4757SOL    HW115170   2.307   1.586   0.995
 4757SOL    HW215171   2.364   1.615   1.146
 4758SOL     OW15172   1.446   6.383   3.854
 4758SOL    HW115173   1.389   6.304   3.831
 4758SOL    HW215174   1.393   6.447   3.910
 4759SOL     OW15175   6.363   4.674   5.121
 4759SOL    HW115176   6.417   4.649   5.041
 4759SOL    HW215177   6.338   4.771   5.115
 4760SOL     OW15178   2.524   2.132   0.480
 4760SOL    HW115179   2.547   2.075   0.558
 4760SOL    HW215180   2.606   2.147   0.425
 4761SOL     OW15181   0.687   5.963   0.367
 4761SOL    HW115182   0.614   5.940   0.303
 4761SOL    HW215183   0.668   6.051   0.410
 4762SOL     OW15184   1.495   5.796   1.841
 4762SOL    HW115185   1.519   5.702   1.865
 4762SOL    HW215186   1.499   5.853   1.923
 4763SOL     OW15187   6.084   0.131   3.016
 4763SOL    HW115188   6.095   0.159   2.920
 4763SOL    HW215189   6.173   0.103   3.053
 4764SOL     OW15190   4.930   3.848   5.061
 4764SOL    HW115191   5.012   3.859   5.005
 4764SOL    HW215192   4.887   3.760   5.041
 4765SOL     OW15193   4.711   0.915   4.854
 4765SOL    HW115194   4.639   0.894   4.921
 4765SOL    HW215195   4.753   1.003   4.878
 4766SOL     OW15196   5.467   5.563   4.189
 4766SOL    HW115197   5.499   5.607   4.273
 4766SOL    HW215198   5.379   5.518   4.206
 4767SOL     OW15199   2.778   5.407   5.271
 4767SOL    HW115200   2.848   5.396   5.200
 4767SOL    HW215201   2.688   5.384   5.233
 4768SOL     OW15202   4.356   2.235   6.387
 4768SOL    HW115203   4.345   2.211   6.290
 4768SOL    HW215204   4.273   2.209   6.437
 4769SOL     OW15205   4.704   4.897   0.083
 4769SOL    HW115206   4.747   4.890   0.173
 4769SOL    HW215207   4.713   4.809   0.036
 4770SOL     OW15208   0.152   1.598   4.267
 4770SOL    HW115209   0.202   1.666   4.213
 4770SOL    HW215210   0.055   1.621   4.266
 4771SOL     OW15211   2.824   5.675   5.287
 4771SOL    HW115212   2.827   5.577   5.267
 4771SOL    HW215213   2.770   5.691   5.369
 4772SOL     OW15214   4.020   5.078   0.921
 4772SOL    HW115215   4.016   4.990   0.874
 4772SOL    HW215216   4.113   5.114   0.916
 4773SOL     OW15217   6.892   5.367   4.567
 4773SOL    HW115218   6.817   5.374   4.634
 4773SOL    HW215219   6.872   5.427   4.490
 4774SOL     OW15220   1.841   3.449   1.630
 4774SOL    HW115221   1.886   3.474   1.715
 4774SOL    HW215222   1.884   3.367   1.592
 4775SOL     OW15223   5.758   6.619   2.992
 4775SOL    HW115224   5.755   6.528   3.032
 4775SOL    HW215225   5.760   6.688   3.065
 4776SOL     OW15226   1.369   6.214   5.610
 4776SOL    HW115227   1.374   6.121   5.574
 4776SOL    HW215228   1.316   6.272   5.548
 4777SOL     OW15229   1.804   5.377   1.247
 4777SOL    HW115230   1.791   5.306   1.317
 4777SOL    HW215231   1.779   5.466   1.286
 4778SOL     OW15232   6.566   2.802   3.700
 4778SOL    HW115233   6.509   2.726   3.731
 4778SOL    HW215234   6.512   2.886   3.703
 4779SOL     OW15235   5.825   6.154   2.255
 4779SOL    HW115236   5.921   6.171   2.231
 4779SOL    HW215237   5.820   6.077   2.319
 4780SOL     OW15238   5.832   1.860   0.125
 4780SOL    HW115239   5.859   1.943   0.077
 4780SOL    HW215240   5.740   1.873   0.163
 4781SOL     OW15241   2.415   5.629   2.587
 4781SOL    HW115242   2.414   5.635   2.487
 4781SOL    HW215243   2.324   5.607   2.621
 4782SOL     OW15244   5.925   5.394   7.000
 4782SOL    HW115245   6.006   5.385   6.943
 4782SOL    HW215246   5.914   5.313   0.038
 4783SOL     OW15247   4.828   3.821   6.870
 4783SOL    HW115248   4.809   3.916   6.894
 4783SOL    HW215249   4.746   3.779   6.831
 4784SOL     OW15250   6.694   3.434   6.291
 4784SOL    HW115251   6.685   3.377   6.372
 4784SOL    HW215252   6.651   3.389   6.213
 4785SOL     OW15253   1.459   6.112   3.189
 4785SOL    HW115254   1.424   6.182   3.128
 4785SOL    HW215255   1.409   6.027   3.175
 4786SOL     OW15256   2.556   0.173   0.223
 4786SOL    HW115257   2.467   0.190   0.266
 4786SOL    HW215258   2.602   0.098   0.271
 4787SOL     OW15259   4.060   1.286   2.940
 4787SOL    HW115260   3.988   1.323   2.999
 4787SOL    HW215261   4.121   1.360   2.912
 4788SOL     OW15262   6.563   6.024   6.927
 4788SOL    HW115263   6.550   5.981   6.838
 4788SOL    HW215264   6.530   6.118   6.923
 4789SOL     OW15265   4.826   1.829   1.549
 4789SOL    HW115266   4.733   1.845   1.518
 4789SOL    HW215267   4.841   1.875   1.636
 4790SOL     OW15268   5.962   1.516   5.387
 4790SOL    HW115269   5.972   1.441   5.323
 4790SOL    HW215270   5.868   1.549   5.387
 4791SOL     OW15271   0.005   3.080   1.181
 4791SOL    HW115272   6.941   3.063   1.234
 4791SOL    HW215273   0.079   3.023   1.217
 4792SOL     OW15274   2.707   5.062   3.832
 4792SOL    HW115275   2.741   5.123   3.761
 4792SOL    HW215276   2.725   5.101   3.922
 4793SOL     OW15277   2.345   2.731   4.946
 4793SOL    HW115278   2.316   2.827   4.955
 4793SOL    HW215279   2.335   2.685   5.034
 4794SOL     OW15280   5.520   0.104   4.896
 4794SOL    HW115281   5.594   0.170   4.883
 4794SOL    HW215282   5.558   0.011   4.897
 4795SOL     OW15283   6.317   2.150   3.831
 4795SOL    HW115284   6.281   2.138   3.739
 4795SOL    HW215285   6.260   2.099   3.896
 4796SOL     OW15286   4.560   1.365   4.967
 4796SOL    HW115287   4.562   1.286   5.029
 4796SOL    HW215288   4.653   1.399   4.953
 4797SOL     OW15289   0.557   6.574   5.549
 4797SOL    HW115290   0.522   6.548   5.639
 4797SOL    HW215291   0.534   6.504   5.482
 4798SOL     OW15292   0.347   4.407   5.543
 4798SOL    HW115293   0.393   4.348   5.476
 4798SOL    HW215294   0.266   4.360   5.578
 4799SOL     OW15295   4.091   1.645   0.757
 4799SOL    HW115296   4.042   1.708   0.697
 4799SOL    HW215297   4.190   1.657   0.744
 4800SOL     OW15298   2.961   2.895   6.978
 4800SOL    HW115299   2.889   2.917   6.912
 4800SOL    HW215300   2.946   2.946   0.044
 4801SOL     OW15301   3.062   2.442   6.763
 4801SOL    HW115302   3.090   2.525   6.811
 4801SOL    HW215303   3.062   2.365   6.827
 4802SOL     OW15304   0.473   6.591   1.958
 4802SOL    HW115305   0.530   6.565   2.036
 4802SOL    HW215306   0.394   6.643   1.990
 4803SOL     OW15307   6.717   4.777   6.921
 4803SOL    HW115308   6.801   4.823   6.893
 4803SOL    HW215309   6.658   4.841   6.970
 4804SOL     OW15310   6.774   6.656   1.584
 4804SOL    HW115311   6.814   6.708   1.659
 4804SOL    HW215312   6.799   6.559   1.593
 4805SOL     OW15313   5.724   1.476   2.150
 4805SOL    HW115314   5.709   1.404   2.083
 4805SOL    HW215315   5.636   1.502   2.191
 4806SOL     OW15316   0.929   4.579   2.408
 4806SOL    HW115317   0.893   4.502   2.461
 4806SOL    HW215318   0.997   4.546   2.343
 4807SOL     OW15319   0.549   5.256   0.020
 4807SOL    HW115320   0.613   5.244   6.963
 4807SOL    HW215321   0.587   5.322   0.085
 4808SOL     OW15322   4.607   5.568   1.003
 4808SOL    HW115323   4.609   5.657   0.958
 4808SOL    HW215324   4.602   5.581   1.102
 4809SOL     OW15325   3.698   5.025   0.074
 4809SOL    HW115326   3.686   4.947   0.135
 4809SOL    HW215327   3.790   5.022   0.034
 4810SOL     OW15328   1.725   4.326   2.514
 4810SOL    HW115329   1.748   4.351   2.608
 4810SOL    HW215330   1.625   4.320   2.504
 4811SOL     OW15331   2.480   4.195   1.607
 4811SOL    HW115332   2.489   4.096   1.607
 4811SOL    HW215333   2.571   4.237   1.615
 4812SOL     OW15334   0.695   5.723   2.289
 4812SOL    HW115335   0.758   5.678   2.225
 4812SOL    HW215336   0.661   5.656   2.355
 4813SOL     OW15337   5.864   1.704   6.879
 4813SOL    HW115338   5.822   1.780   6.831
 4813SOL    HW215339   5.882   1.730   6.974
 4814SOL     OW15340   6.996   3.321   1.070
 4814SOL    HW115341   0.069   3.355   1.051
 4814SOL    HW215342   7.002   3.233   1.118
 4815SOL     OW15343   5.099   3.785   3.073
 4815SOL    HW115344   5.120   3.881   3.057
 4815SOL    HW215345   5.022   3.757   3.015
 4816SOL     OW15346   2.418   4.834   1.233
 4816SOL    HW115347   2.492   4.858   1.170
 4816SOL    HW215348   2.422   4.736   1.253
 4817SOL     OW15349   2.196   1.533   0.103
 4817SOL    HW115350   2.103   1.509   0.078
 4817SOL    HW215351   2.202   1.544   0.203
 4818SOL     OW15352   0.642   6.988   4.505
 4818SOL    HW115353   0.717   6.958   4.445
 4818SOL    HW215354   0.555   6.978   4.457
 4819SOL     OW15355   2.321   1.828   0.833
 4819SOL    HW115356   2.333   1.755   0.901
 4819SOL    HW215357   2.244   1.886   0.860
 4820SOL     OW15358   6.147   2.434   2.290
 4820SOL    HW115359   6.130   2.352   2.236
 4820SOL    HW215360   6.185   2.408   2.379
 4821SOL     OW15361   0.600   6.734   2.383
 4821SOL    HW115362   0.605   6.665   2.311
 4821SOL    HW215363   0.670   6.804   2.367
 4822SOL     OW15364   2.143   3.470   4.427
 4822SOL    HW115365   2.162   3.424   4.514
 4822SOL    HW215366   2.044   3.478   4.415
 4823SOL     OW15367   1.157   0.351   4.414
 4823SOL    HW115368   1.109   0.394   4.490
 4823SOL    HW215369   1.093   0.335   4.339
 4824SOL     OW15370   5.293   2.039   4.485
 4824SOL    HW115371   5.296   2.114   4.551
 4824SOL    HW215372   5.273   2.075   4.394
 4825SOL     OW15373   1.850   2.147   4.603
 4825SOL    HW115374   1.936   2.109   4.637
 4825SOL    HW215375   1.863   2.179   4.509
 4826SOL     OW15376   0.039   1.390   6.266
 4826SOL    HW115377   6.985   1.397   6.198
 4826SOL    HW215378   0.008   1.333   6.342
 4827SOL     OW15379   6.467   1.286   1.516
 4827SOL    HW115380   6.555   1.241   1.501
 4827SOL    HW215381   6.394   1.233   1.473
 4828SOL     OW15382   5.359   2.965   0.833
 4828SOL    HW115383   5.453   2.931   0.829
 4828SOL    HW215384   5.357   3.054   0.879
 4829SOL     OW15385   4.527   6.977   0.110
 4829SOL    HW115386   4.541   0.056   0.127
 4829SOL    HW215387   4.434   6.952   0.137
 4830SOL     OW15388   4.546   6.832   3.812
 4830SOL    HW115389   4.522   6.764   3.743
 4830SOL    HW215390   4.595   6.788   3.887
 4831SOL     OW15391   0.289   4.585   6.508
 4831SOL    HW115392   0.342   4.663   6.477
 4831SOL    HW215393   0.264   4.528   6.430
 4832SOL     OW15394   3.234   3.353   4.738
 4832SOL    HW115395   3.163   3.382   4.802
 4832SOL    HW215396   3.279   3.433   4.699
 4833SOL     OW15397   5.018   1.848   3.368
 4833SOL    HW115398   5.091   1.847   3.299
 4833SOL    HW215399   4.930   1.864   3.323
 4834SOL     OW15400   3.866   5.969   1.159
 4834SOL    HW115401   3.838   6.060   1.129
 4834SOL    HW215402   3.789   5.924   1.205
 4835SOL     OW15403   0.006   1.265   6.514
 4835SOL    HW115404   0.028   1.173   6.547
 4835SOL    HW215405   6.927   1.282   6.528
 4836SOL     OW15406   5.209   2.876   4.488
 4836SOL    HW115407   5.165   2.871   4.578
 4836SOL    HW215408   5.253   2.789   4.467
 4837SOL     OW15409   5.914   3.707   2.497
 4837SOL    HW115410   5.907   3.635   2.566
 4837SOL    HW215411   6.001   3.699   2.449
 4838SOL     OW15412   1.079   5.055   0.296
 4838SOL    HW115413   1.023   5.077   0.216
 4838SOL    HW215414   1.168   5.019   0.266
 4839SOL     OW15415   1.809   3.067   6.586
 4839SOL    HW115416   1.877   3.137   6.564
 4839SOL    HW215417   1.816   3.042   6.682
 4840SOL     OW15418   6.613   5.173   6.304
 4840SOL    HW115419   6.662   5.104   6.249
 4840SOL    HW215420   6.671   5.203   6.379
 4841SOL     OW15421   3.363   5.554   2.003
 4841SOL    HW115422   3.383   5.458   1.982
 4841SOL    HW215423   3.419   5.613   1.944
 4842SOL     OW15424   3.727   4.851   2.535
 4842SOL    HW115425   3.653   4.851   2.601
 4842SOL    HW215426   3.800   4.912   2.566
 4843SOL     OW15427   6.323   2.785   1.028
 4843SOL    HW115428   6.238   2.734   1.042
 4843SOL    HW215429   6.339   2.798   0.930
 4844SOL     OW15430   0.015   3.099   5.813
 4844SOL    HW115431   6.953   3.158   5.811
 4844SOL    HW215432   0.076   3.125   5.738
 4845SOL     OW15433   5.114   5.362   6.273
 4845SOL    HW115434   5.042   5.302   6.309
 4845SOL    HW215435   5.109   5.363   6.173
 4846SOL     OW15436   7.005   3.121   3.572
 4846SOL    HW115437   6.922   3.084   3.613
 4846SOL    HW215438   0.030   3.184   3.636
 4847SOL     OW15439   2.911   1.295   5.992
 4847SOL    HW115440   2.853   1.376   5.996
 4847SOL    HW215441   2.865   1.219   6.037
 4848SOL     OW15442   1.855   0.623   3.866
 4848SOL    HW115443   1.844   0.566   3.785
 4848SOL    HW215444   1.792   0.701   3.860
 4849SOL     OW15445   1.272   6.161   6.492
 4849SOL    HW115446   1.369   6.186   6.489
 4849SOL    HW215447   1.252   6.096   6.420
 4850SOL     OW15448   3.852   1.731   2.132
 4850SOL    HW115449   3.873   1.654   2.193
 4850SOL    HW215450   3.785   1.791   2.176
 4851SOL     OW15451   4.573   6.629   5.891
 4851SOL    HW115452   4.504   6.628   5.818
 4851SOL    HW215453   4.544   6.568   5.965
 4852SOL     OW15454   1.555   6.211   4.978
 4852SOL    HW115455   1.496   6.266   5.037
 4852SOL    HW215456   1.647   6.208   5.016
 4853SOL     OW15457   3.103   1.373   3.314
 4853SOL    HW115458   3.103   1.343   3.218
 4853SOL    HW215459   3.197   1.393   3.342
 4854SOL     OW15460   4.705   6.884   1.648
 4854SOL    HW115461   4.697   6.938   1.564
 4854SOL    HW215462   4.722   6.788   1.624
 4855SOL     OW15463   6.069   2.510   3.133
 4855SOL    HW115464   6.078   2.610   3.129
 4855SOL    HW215465   6.061   2.473   3.040
 4856SOL     OW15466   1.772   3.632   2.784
 4856SOL    HW115467   1.738   3.564   2.718
 4856SOL    HW215468   1.749   3.602   2.876
 4857SOL     OW15469   2.399   1.787   4.916
 4857SOL    HW115470   2.311   1.802   4.961
 4857SOL    HW215471   2.392   1.709   4.853
 4858SOL     OW15472   0.356   0.597   4.294
 4858SOL    HW115473   0.259   0.620   4.292
 4858SOL    HW215474   0.384   0.577   4.387
 4859SOL     OW15475   0.403   0.385   4.962
 4859SOL    HW115476   0.367   0.339   4.881
 4859SOL    HW215477   0.490   0.429   4.938
 4860SOL     OW15478   4.379   4.403   1.713
 4860SOL    HW115479   4.430   4.327   1.753
 4860SOL    HW215480   4.405   4.488   1.759
 4861SOL     OW15481   6.008   4.704   0.125
 4861SOL    HW115482   5.975   4.610   0.124
 4861SOL    HW215483   5.984   4.749   0.039
 4862SOL     OW15484   2.432   4.876   4.958
 4862SOL    HW115485   2.443   4.876   4.859
 4862SOL    HW215486   2.344   4.836   4.982
 4863SOL     OW15487   5.420   3.748   1.575
 4863SOL    HW115488   5.487   3.732   1.649
 4863SOL    HW215489   5.466   3.787   1.496
 4864SOL     OW15490   4.167   1.522   2.803
 4864SOL    HW115491   4.071   1.550   2.801
 4864SOL    HW215492   4.222   1.594   2.846
 4865SOL     OW15493   1.935   6.465   4.284
 4865SOL    HW115494   2.025   6.422   4.274
 4865SOL    HW215495   1.864   6.401   4.257
 4866SOL     OW15496   6.277   3.111   1.969
 4866SOL    HW115497   6.331   3.027   1.983
 4866SOL    HW215498   6.181   3.092   1.988
 4867SOL     OW15499   3.729   5.126   1.954
 4867SOL    HW115500   3.720   5.109   1.855
 4867SOL    HW215501   3.728   5.039   2.003
 4868SOL     OW15502   6.647   4.749   2.739
 4868SOL    HW115503   6.592   4.665   2.745
 4868SOL    HW215504   6.744   4.724   2.735
 4869SOL     OW15505   0.960   1.050   2.043
 4869SOL    HW115506   0.938   0.999   1.959
 4869SOL    HW215507   1.058   1.048   2.058
 4870SOL     OW15508   0.211   5.872   2.629
 4870SOL    HW115509   0.163   5.927   2.561
 4870SOL    HW215510   0.145   5.813   2.676
 4871SOL     OW15511   1.621   0.924   3.874
 4871SOL    HW115512   1.663   1.012   3.852
 4871SOL    HW215513   1.629   0.906   3.972
 4872SOL     OW15514   6.067   6.036   3.769
 4872SOL    HW115515   6.015   6.016   3.687
 4872SOL    HW215516   6.041   6.126   3.805
 4873SOL     OW15517   0.235   5.011   3.390
 4873SOL    HW115518   0.216   4.913   3.383
 4873SOL    HW215519   0.311   5.026   3.453
 4874SOL     OW15520   6.301   3.279   3.116
 4874SOL    HW115521   6.293   3.305   3.019
 4874SOL    HW215522   6.315   3.181   3.122
 4875SOL     OW15523   5.929   2.534   1.540
 4875SOL    HW115524   5.867   2.571   1.608
 4875SOL    HW215525   5.877   2.499   1.462
 4876SOL     OW15526   5.703   1.472   4.395
 4876SOL    HW115527   5.654   1.424   4.467
 4876SOL    HW215528   5.721   1.566   4.423
 4877SOL     OW15529   1.606   1.991   6.881
 4877SOL    HW115530   1.576   2.035   6.797
 4877SOL    HW215531   1.527   1.972   6.939
 4878SOL     OW15532   6.440   0.463   3.012
 4878SOL    HW115533   6.532   0.500   3.004
 4878SOL    HW215534   6.390   0.479   2.927
 4879SOL     OW15535   4.376   6.285   2.470
 4879SOL    HW115536   4.441   6.213   2.493
 4879SOL    HW215537   4.305   6.249   2.410
 4880SOL     OW15538   5.538   3.358   0.216
 4880SOL    HW115539   5.488   3.403   0.290
 4880SOL    HW215540   5.635   3.353   0.240
 4881SOL     OW15541   1.604   0.981   6.566
 4881SOL    HW115542   1.661   0.900   6.555
 4881SOL    HW215543   1.634   1.052   6.503
 4882SOL     OW15544   5.413   1.335   4.993
 4882SOL    HW115545   5.341   1.402   5.014
 4882SOL    HW215546   5.412   1.263   5.062
 4883SOL     OW15547   5.413   4.546   2.195
 4883SOL    HW115548   5.470   4.495   2.130
 4883SOL    HW215549   5.397   4.638   2.161
 4884SOL     OW15550   2.930   6.739   1.492
 4884SOL    HW115551   2.835   6.722   1.520
 4884SOL    HW215552   2.938   6.728   1.393
 4885SOL     OW15553   2.065   4.901   1.839
 4885SOL    HW115554   2.114   4.958   1.773
 4885SOL    HW215555   2.065   4.945   1.928
 4886SOL     OW15556   1.399   5.448   1.069
 4886SOL    HW115557   1.379   5.546   1.065
 4886SOL    HW215558   1.357   5.410   1.152
 4887SOL     OW15559   0.778   0.282   2.605
 4887SOL    HW115560   0.712   0.281   2.680
 4887SOL    HW215561   0.812   0.189   2.588
 4888SOL     OW15562   2.341   6.491   4.068
 4888SOL    HW115563   2.393   6.447   3.995
 4888SOL    HW215564   2.276   6.426   4.107
 4889SOL     OW15565   6.856   1.370   6.100
 4889SOL    HW115566   6.829   1.274   6.104
 4889SOL    HW215567   6.775   1.428   6.107
 4890SOL     OW15568   1.129   1.272   7.008
 4890SOL    HW115569   1.217   1.237   0.022
 4890SOL    HW215570   1.084   1.324   0.061
 4891SOL     OW15571   1.572   4.731   6.673
 4891SOL    HW115572   1.582   4.808   6.611
 4891SOL    HW215573   1.647   4.666   6.658
 4892SOL     OW15574   3.276   5.978   2.253
 4892SOL    HW115575   3.252   5.907   2.319
 4892SOL    HW215576   3.340   5.942   2.186
 4893SOL     OW15577   6.393   3.648   1.458
 4893SOL    HW115578   6.371   3.735   1.501
 4893SOL    HW215579   6.325   3.580   1.485
 4894SOL     OW15580   2.493   1.338   2.894
 4894SOL    HW115581   2.434   1.270   2.849
 4894SOL    HW215582   2.437   1.415   2.924
 4895SOL     OW15583   0.980   4.831   3.787
 4895SOL    HW115584   0.942   4.767   3.854
 4895SOL    HW215585   0.918   4.909   3.776
 4896SOL     OW15586   1.826   5.265   1.980
 4896SOL    HW115587   1.771   5.229   2.055
 4896SOL    HW215588   1.916   5.221   1.981
 4897SOL     OW15589   2.612   4.157   5.999
 4897SOL    HW115590   2.659   4.139   5.913
 4897SOL    HW215591   2.527   4.206   5.980
 4898SOL     OW15592   3.972   0.640   4.254
 4898SOL    HW115593   4.006   0.563   4.200
 4898SOL    HW215594   3.934   0.607   4.340
 4899SOL     OW15595   5.659   5.116   3.216
 4899SOL    HW115596   5.656   5.192   3.280
 4899SOL    HW215597   5.570   5.072   3.213
 4900SOL     OW15598   2.119   6.053   4.189
 4900SOL    HW115599   2.180   6.075   4.112
 4900SOL    HW215600   2.081   5.961   4.176
 4901SOL     OW15601   3.343   6.911   5.796
 4901SOL    HW115602   3.407   6.904   5.872
 4901SOL    HW215603   3.293   6.825   5.786
 4902SOL     OW15604   2.375   1.896   4.312
 4902SOL    HW115605   2.420   1.944   4.237
 4902SOL    HW215606   2.276   1.899   4.299
 4903SOL     OW15607   3.847   6.326   6.473
 4903SOL    HW115608   3.905   6.401   6.506
 4903SOL    HW215609   3.758   6.363   6.448
 4904SOL     OW15610   1.791   6.218   4.034
 4904SOL    HW115611   1.876   6.257   3.998
 4904SOL    HW215612   1.741   6.175   3.959
 4905SOL     OW15613   4.747   0.064   2.631
 4905SOL    HW115614   4.689   0.001   2.580
 4905SOL    HW215615   4.842   0.036   2.624
 4906SOL     OW15616   4.699   2.162   6.131
 4906SOL    HW115617   4.628   2.118   6.186
 4906SOL    HW215618   4.748   2.229   6.187
 4907SOL     OW15619   4.350   6.056   1.509
 4907SOL    HW115620   4.294   6.130   1.547
 4907SOL    HW215621   4.435   6.050   1.560
 4908SOL     OW15622   5.411   5.048   6.642
 4908SOL    HW115623   5.490   5.040   6.581
 4908SOL    HW215624   5.387   5.145   6.652
 4909SOL     OW15625   6.845   0.294   3.933
 4909SOL    HW115626   6.940   0.264   3.938
 4909SOL    HW215627   6.788   0.220   3.899
 4910SOL     OW15628   5.867   0.498   5.153
 4910SOL    HW115629   5.835   0.577   5.204
 4910SOL    HW215630   5.963   0.479   5.176
 4911SOL     OW15631   1.341   3.333   4.270
 4911SOL    HW115632   1.304   3.287   4.351
 4911SOL    HW215633   1.277   3.402   4.238
 4912SOL     OW15634   5.027   1.511   6.889
 4912SOL    HW115635   5.022   1.570   6.809
 4912SOL    HW215636   5.070   1.561   6.965
 4913SOL     OW15637   3.749   2.873   5.122
 4913SOL    HW115638   3.848   2.875   5.135
 4913SOL    HW215639   3.729   2.887   5.025
 4914SOL     OW15640   4.188   0.630   4.937
 4914SOL    HW115641   4.128   0.555   4.910
 4914SOL    HW215642   4.136   0.716   4.934
 4915SOL     OW15643   4.796   0.014   4.926
 4915SOL    HW115644   4.747   0.099   4.905
 4915SOL    HW215645   4.763   6.996   5.012
 4916SOL     OW15646   1.364   7.004   4.113
 4916SOL    HW115647   1.353   6.921   4.058
 4916SOL    HW215648   1.450   6.998   4.165
 4917SOL     OW15649   2.770   4.804   1.280
 4917SOL    HW115650   2.838   4.773   1.346
 4917SOL    HW215651   2.780   4.753   1.195
 4918SOL     OW15652   4.515   5.496   2.383
 4918SOL    HW115653   4.552   5.436   2.454
 4918SOL    HW215654   4.427   5.533   2.413
 4919SOL     OW15655   2.987   2.214   7.003
 4919SOL    HW115656   3.036   2.164   0.056
 4919SOL    HW215657   2.964   2.305   0.017
 4920SOL     OW15658   6.276   1.026   4.107
 4920SOL    HW115659   6.243   1.095   4.042
 4920SOL    HW215660   6.259   0.935   4.071
 4921SOL     OW15661   1.297   4.721   0.775
 4921SOL    HW115662   1.392   4.730   0.743
 4921SOL    HW215663   1.254   4.644   0.729
 4922SOL     OW15664   1.762   2.238   5.023
 4922SOL    HW115665   1.844   2.235   5.080
 4922SOL    HW215666   1.681   2.219   5.079
 4923SOL     OW15667   4.266   1.993   2.171
 4923SOL    HW115668   4.188   2.056   2.176
 4923SOL    HW215669   4.239   1.904   2.208
 4924SOL     OW15670   2.910   1.775   5.282
 4924SOL    HW115671   2.934   1.862   5.326
 4924SOL    HW215672   2.895   1.705   5.352
 4925SOL     OW15673   6.630   6.245   2.430
 4925SOL    HW115674   6.611   6.274   2.524
 4925SOL    HW215675   6.544   6.241   2.379
 4926SOL     OW15676   5.527   1.445   0.677
 4926SOL    HW115677   5.619   1.478   0.657
 4926SOL    HW215678   5.506   1.365   0.621
 4927SOL     OW15679   3.676   3.900   4.225
 4927SOL    HW115680   3.619   3.943   4.296
 4927SOL    HW215681   3.771   3.901   4.255
 4928SOL     OW15682   1.544   0.052   0.224
 4928SOL    HW115683   1.491   0.001   0.156
 4928SOL    HW215684   1.582   0.134   0.182
 4929SOL     OW15685   0.532   5.459   4.967
 4929SOL    HW115686   0.443   5.414   4.967
 4929SOL    HW215687   0.527   5.542   5.022
 4930SOL     OW15688   4.915   0.847   3.377
 4930SOL    HW115689   4.962   0.935   3.383
 4930SOL    HW215690   4.944   0.799   3.294
 4931SOL     OW15691   0.071   0.053   0.887
 4931SOL    HW115692   0.155   0.052   0.941
 4931SOL    HW215693   0.093   0.033   0.791
 4932SOL     OW15694   2.706   3.257   1.648
 4932SOL    HW115695   2.651   3.191   1.596
 4932SOL    HW215696   2.733   3.216   1.735
 4933SOL     OW15697   2.452   0.097   3.354
 4933SOL    HW115698   2.527   0.161   3.337
 4933SOL    HW215699   2.489   0.008   3.380
 4934SOL     OW15700   2.731   5.653   2.542
 4934SOL    HW115701   2.636   5.657   2.572
 4934SOL    HW215702   2.735   5.660   2.443
 4935SOL     OW15703   1.526   0.734   6.150
 4935SOL    HW115704   1.442   0.771   6.112
 4935SOL    HW215705   1.604   0.789   6.121
 4936SOL     OW15706   2.545   4.723   1.858
 4936SOL    HW115707   2.628   4.675   1.887
 4936SOL    HW215708   2.467   4.662   1.865
 4937SOL     OW15709   6.475   2.980   5.652
 4937SOL    HW115710   6.377   2.964   5.663
 4937SOL    HW215711   6.526   2.899   5.682
 4938SOL     OW15712   2.335   5.704   5.754
 4938SOL    HW115713   2.321   5.690   5.852
 4938SOL    HW215714   2.398   5.780   5.739
 4939SOL     OW15715   6.573   2.118   3.945
 4939SOL    HW115716   6.633   2.162   4.012
 4939SOL    HW215717   6.481   2.110   3.982
 4940SOL     OW15718   0.221   0.895   5.388
 4940SOL    HW115719   0.129   0.935   5.387
 4940SOL    HW215720   0.224   0.816   5.328
 4941SOL     OW15721   5.208   2.203   5.306
 4941SOL    HW115722   5.265   2.121   5.300
 4941SOL    HW215723   5.175   2.227   5.214
 4942SOL     OW15724   5.433   3.243   6.109
 4942SOL    HW115725   5.514   3.185   6.097
 4942SOL    HW215726   5.390   3.222   6.196
 4943SOL     OW15727   4.563   3.674   6.093
 4943SOL    HW115728   4.509   3.759   6.090
 4943SOL    HW215729   4.551   3.624   6.007
 4944SOL     OW15730   2.291   4.249   1.826
 4944SOL    HW115731   2.208   4.277   1.778
 4944SOL    HW215732   2.355   4.211   1.759
 4945SOL     OW15733   0.845   0.365   4.606
 4945SOL    HW115734   0.907   0.419   4.662
 4945SOL    HW215735   0.834   0.274   4.646
 4946SOL     OW15736   1.610   4.881   0.098
 4946SOL    HW115737   1.571   4.875   0.006
 4946SOL    HW215738   1.593   4.795   0.147
 4947SOL     OW15739   2.373   0.649   1.243
 4947SOL    HW115740   2.376   0.727   1.181
 4947SOL    HW215741   2.464   0.631   1.279
 4948SOL     OW15742   1.535   2.737   2.894
 4948SOL    HW115743   1.444   2.696   2.884
 4948SOL    HW215744   1.551   2.802   2.820
 4949SOL     OW15745   5.305   5.788   6.352
 4949SOL    HW115746   5.305   5.823   6.445
 4949SOL    HW215747   5.388   5.818   6.305
 4950SOL     OW15748   2.440   5.457   4.481
 4950SOL    HW115749   2.369   5.495   4.423
 4950SOL    HW215750   2.423   5.483   4.577
 4951SOL     OW15751   6.297   1.581   5.231
 4951SOL    HW115752   6.365   1.513   5.258
 4951SOL    HW215753   6.332   1.672   5.250
 4952SOL     OW15754   0.787   1.033   6.046
 4952SOL    HW115755   0.691   1.009   6.059
 4952SOL    HW215756   0.834   1.029   6.134
 4953SOL     OW15757   1.981   5.788   2.698
 4953SOL    HW115758   1.916   5.817   2.768
 4953SOL    HW215759   2.009   5.868   2.643
 4954SOL     OW15760   3.570   3.018   0.347
 4954SOL    HW115761   3.563   3.108   0.391
 4954SOL    HW215762   3.549   2.947   0.414
 4955SOL     OW15763   3.113   6.514   6.726
 4955SOL    HW115764   3.028   6.520   6.674
 4955SOL    HW215765   3.182   6.573   6.684
 4956SOL     OW15766   2.340   0.245   5.186
 4956SOL    HW115767   2.257   0.279   5.230
 4956SOL    HW215768   2.334   0.146   5.175
 4957SOL     OW15769   6.107   2.218   2.133
 4957SOL    HW115770   6.057   2.211   2.046
 4957SOL    HW215771   6.090   2.137   2.188
 4958SOL     OW15772   0.020   5.307   5.347
 4958SOL    HW115773   0.027   5.363   5.264
 4958SOL    HW215774   0.084   5.342   5.416
 4959SOL     OW15775   6.376   1.721   0.114
 4959SOL    HW115776   6.469   1.700   0.145
 4959SOL    HW215777   6.340   1.799   0.165
 4960SOL     OW15778   3.224   4.980   3.291
 4960SOL    HW115779   3.160   4.904   3.279
 4960SOL    HW215780   3.176   5.060   3.325
 4961SOL     OW15781   4.412   1.403   5.855
 4961SOL    HW115782   4.421   1.387   5.757
 4961SOL    HW215783   4.315   1.400   5.881
 4962SOL     OW15784   6.279   2.346   0.497
 4962SOL    HW115785   6.281   2.365   0.399
 4962SOL    HW215786   6.357   2.287   0.521
 4963SOL     OW15787   6.410   5.750   0.598
 4963SOL    HW115788   6.331   5.699   0.567
 4963SOL    HW215789   6.431   5.725   0.693
 4964SOL     OW15790   3.100   0.157   3.684
 4964SOL    HW115791   3.010   0.114   3.691
 4964SOL    HW215792   3.089   0.256   3.677
 4965SOL     OW15793   0.526   0.937   2.356
 4965SOL    HW115794   0.593   1.004   2.390
 4965SOL    HW215795   0.464   0.912   2.430
 4966SOL     OW15796   2.340   6.972   5.131
 4966SOL    HW115797   2.377   6.933   5.046
 4966SOL    HW215798   2.341   6.902   5.202
 4967SOL     OW15799   3.425   5.358   5.649
 4967SOL    HW115800   3.366   5.338   5.571
 4967SOL    HW215801   3.438   5.275   5.703
 4968SOL     OW15802   6.683   1.832   3.850
 4968SOL    HW115803   6.641   1.884   3.776
 4968SOL    HW215804   6.735   1.756   3.812
 4969SOL     OW15805   2.464   6.256   2.800
 4969SOL    HW115806   2.511   6.342   2.786
 4969SOL    HW215807   2.400   6.264   2.877
 4970SOL     OW15808   1.906   2.739   2.769
 4970SOL    HW115809   1.841   2.698   2.832
 4970SOL    HW215810   1.858   2.778   2.690
 4971SOL     OW15811   6.043   5.550   3.671
 4971SOL    HW115812   6.135   5.589   3.671
 4971SOL    HW215813   6.045   5.457   3.707
 4972SOL     OW15814   1.479   3.826   0.561
 4972SOL    HW115815   1.417   3.750   0.581
 4972SOL    HW215816   1.427   3.901   0.521
 4973SOL     OW15817   1.782   6.800   2.296
 4973SOL    HW115818   1.705   6.760   2.246
 4973SOL    HW215819   1.757   6.892   2.328
 4974SOL     OW15820   5.860   4.433   0.991
 4974SOL    HW115821   5.863   4.430   1.091
 4974SOL    HW215822   5.779   4.484   0.961
 4975SOL     OW15823   5.598   4.290   5.571
 4975SOL    HW115824   5.698   4.284   5.569
 4975SOL    HW215825   5.570   4.383   5.550
 4976SOL     OW15826   2.124   0.435   3.488
 4976SOL    HW115827   2.205   0.494   3.493
 4976SOL    HW215828   2.050   0.485   3.442
 4977SOL     OW15829   3.738   4.579   0.072
 4977SOL    HW115830   3.714   4.676   0.062
 4977SOL    HW215831   3.796   4.551   7.015
 4978SOL     OW15832   6.909   3.810   4.739
 4978SOL    HW115833   7.007   3.806   4.758
 4978SOL    HW215834   6.859   3.823   4.825
 4979SOL     OW15835   0.364   0.204   6.115
 4979SOL    HW115836   0.350   0.215   6.213
 4979SOL    HW215837   0.462   0.209   6.094
 4980SOL     OW15838   5.027   6.412   3.336
 4980SOL    HW115839   5.051   6.343   3.404
 4980SOL    HW215840   4.990   6.366   3.255
 4981SOL     OW15841   4.775   6.131   0.221
 4981SOL    HW115842   4.776   6.205   0.154
 4981SOL    HW215843   4.806   6.046   0.177
 4982SOL     OW15844   2.591   1.402   5.986
 4982SOL    HW115845   2.632   1.488   6.017
 4982SOL    HW215846   2.616   1.329   6.050
 4983SOL     OW15847   5.955   3.075   4.863
 4983SOL    HW115848   5.923   3.098   4.955
 4983SOL    HW215849   5.877   3.049   4.806
 4984SOL     OW15850   5.564   3.935   3.521
 4984SOL    HW115851   5.642   3.958   3.463
 4984SOL    HW215852   5.494   3.890   3.465
 4985SOL     OW15853   6.085   6.491   3.466
 4985SOL    HW115854   6.040   6.535   3.544
 4985SOL    HW215855   6.159   6.433   3.498
 4986SOL     OW15856   5.902   4.301   1.838
 4986SOL    HW115857   5.864   4.228   1.895
 4986SOL    HW215858   5.985   4.337   1.881
 4987SOL     OW15859   1.039   0.297   1.543
 4987SOL    HW115860   0.962   0.234   1.552
 4987SOL    HW215861   1.005   0.392   1.541
 4988SOL     OW15862   5.099   0.538   3.416
 4988SOL    HW115863   5.090   0.599   3.337
 4988SOL    HW215864   5.018   0.480   3.422
 4989SOL     OW15865   4.764   0.017   2.087
 4989SOL    HW115866   4.813   0.104   2.096
 4989SOL    HW215867   4.722   0.012   1.996
 4990SOL     OW15868   1.895   2.172   5.262
 4990SOL    HW115869   1.976   2.231   5.266
 4990SOL    HW215870   1.869   2.145   5.355
 4991SOL     OW15871   6.553   4.935   4.291
 4991SOL    HW115872   6.636   4.915   4.343
 4991SOL    HW215873   6.474   4.900   4.341
 4992SOL     OW15874   4.967   0.984   4.017
 4992SOL    HW115875   5.042   0.988   4.083
 4992SOL    HW215876   5.000   0.944   3.931
 4993SOL     OW15877   2.940   5.932   3.945
 4993SOL    HW115878   2.941   5.988   4.028
 4993SOL    HW215879   2.846   5.911   3.920
 4994SOL     OW15880   1.976   6.976   3.021
 4994SOL    HW115881   1.930   0.044   3.037
 4994SOL    HW215882   1.914   6.901   3.042
 4995SOL     OW15883   0.001   2.507   5.782
 4995SOL    HW115884   6.976   2.424   5.748
 4995SOL    HW215885   6.969   2.587   5.751
 4996SOL     OW15886   1.374   1.433   2.677
 4996SOL    HW115887   1.372   1.502   2.749
 4996SOL    HW215888   1.300   1.450   2.612
 4997SOL     OW15889   5.475   2.257   2.980
 4997SOL    HW115890   5.562   2.271   2.932
 4997SOL    HW215891   5.419   2.339   2.970
 4998SOL     OW15892   2.220   4.258   5.019
 4998SOL    HW115893   2.252   4.307   4.938
 4998SOL    HW215894   2.257   4.165   5.019
 4999SOL     OW15895   6.606   4.285   0.330
 4999SOL    HW115896   6.596   4.268   0.232
 4999SOL    HW215897   6.525   4.251   0.378
 5000SOL     OW15898   2.709   6.449   3.216
 5000SOL    HW115899   2.664   6.368   3.181
 5000SOL    HW215900   2.785   6.422   3.276
 5001SOL     OW15901   0.161   4.147   0.865
 5001SOL    HW115902   0.106   4.077   0.821
 5001SOL    HW215903   0.211   4.107   0.942
 5002SOL     OW15904   0.646   3.103   3.582
 5002SOL    HW115905   0.727   3.098   3.641
 5002SOL    HW215906   0.625   3.199   3.562
 5003SOL     OW15907   2.538   6.323   2.480
 5003SOL    HW115908   2.576   6.378   2.554
 5003SOL    HW215909   2.466   6.264   2.517
 5004SOL     OW15910   3.318   4.997   6.249
 5004SOL    HW115911   3.372   5.081   6.246
 5004SOL    HW215912   3.360   4.929   6.189
 5005SOL     OW15913   3.177   2.462   0.403
 5005SOL    HW115914   3.216   2.465   0.311
 5005SOL    HW215915   3.095   2.405   0.403
 5006SOL     OW15916   5.378   0.928   0.528
 5006SOL    HW115917   5.321   1.008   0.547
 5006SOL    HW215918   5.352   0.889   0.440
 5007SOL     OW15919   1.502   6.922   6.793
 5007SOL    HW115920   1.469   6.962   6.878
 5007SOL    HW215921   1.559   6.988   6.744
 5008SOL     OW15922   6.863   6.318   3.319
 5008SOL    HW115923   6.842   6.368   3.235
 5008SOL    HW215924   6.897   6.227   3.295
 5009SOL     OW15925   1.324   6.475   0.909
 5009SOL    HW115926   1.424   6.479   0.907
 5009SOL    HW215927   1.287   6.548   0.851
 5010SOL     OW15928   3.291   3.548   2.646
 5010SOL    HW115929   3.337   3.470   2.602
 5010SOL    HW215930   3.327   3.633   2.607
 5011SOL     OW15931   1.772   3.543   3.065
 5011SOL    HW115932   1.862   3.564   3.026
 5011SOL    HW215933   1.768   3.446   3.089
 5012SOL     OW15934   5.262   4.255   6.296
 5012SOL    HW115935   5.359   4.266   6.318
 5012SOL    HW215936   5.206   4.289   6.372
 5013SOL     OW15937   4.911   1.682   6.631
 5013SOL    HW115938   4.977   1.738   6.581
 5013SOL    HW215939   4.917   1.587   6.600
 5014SOL     OW15940   5.303   4.717   0.644
 5014SOL    HW115941   5.363   4.757   0.714
 5014SOL    HW215942   5.319   4.618   0.639
 5015SOL     OW15943   4.248   1.873   4.413
 5015SOL    HW115944   4.151   1.872   4.437
 5015SOL    HW215945   4.258   1.874   4.314
 5016SOL     OW15946   2.159   2.459   0.965
 5016SOL    HW115947   2.230   2.526   0.987
 5016SOL    HW215948   2.095   2.498   0.899
 5017SOL     OW15949   1.934   2.024   0.231
 5017SOL    HW115950   1.845   1.980   0.221
 5017SOL    HW215951   1.943   2.061   0.324
 5018SOL     OW15952   6.832   4.348   2.052
 5018SOL    HW115953   6.889   4.341   1.970
 5018SOL    HW215954   6.872   4.293   2.126
 5019SOL     OW15955   0.947   4.951   6.590
 5019SOL    HW115956   1.040   4.943   6.627
 5019SOL    HW215957   0.947   5.016   6.515
 5020SOL     OW15958   5.106   0.114   6.314
 5020SOL    HW115959   5.074   0.198   6.356
 5020SOL    HW215960   5.179   0.134   6.249
 5021SOL     OW15961   1.634   2.025   6.215
 5021SOL    HW115962   1.570   1.972   6.160
 5021SOL    HW215963   1.583   2.087   6.275
 5022SOL     OW15964   1.252   1.014   0.050
 5022SOL    HW115965   1.216   1.053   0.134
 5022SOL    HW215966   1.226   0.917   0.044
 5023SOL     OW15967   6.491   3.037   1.098
 5023SOL    HW115968   6.447   3.126   1.109
 5023SOL    HW215969   6.424   2.964   1.110
 5024SOL     OW15970   5.479   5.668   2.195
 5024SOL    HW115971   5.502   5.621   2.281
 5024SOL    HW215972   5.559   5.718   2.162
 5025SOL     OW15973   3.753   2.204   1.640
 5025SOL    HW115974   3.718   2.260   1.716
 5025SOL    HW215975   3.769   2.111   1.672
 5026SOL     OW15976   6.320   6.361   6.232
 5026SOL    HW115977   6.369   6.395   6.152
 5026SOL    HW215978   6.227   6.396   6.232
 5027SOL     OW15979   0.807   6.224   2.386
 5027SOL    HW115980   0.832   6.129   2.405
 5027SOL    HW215981   0.716   6.228   2.345
 5028SOL     OW15982   0.730   0.171   3.229
 5028SOL    HW115983   0.776   0.094   3.272
 5028SOL    HW215984   0.798   0.241   3.204
 5029SOL     OW15985   0.341   2.384   3.027
 5029SOL    HW115986   0.302   2.299   3.062
 5029SOL    HW215987   0.380   2.437   3.102
 5030SOL     OW15988   6.770   6.923   6.869
 5030SOL    HW115989   6.689   6.869   6.845
 5030SOL    HW215990   6.743   6.999   6.928
 5031SOL     OW15991   6.003   0.648   4.744
 5031SOL    HW115992   5.980   0.566   4.692
 5031SOL    HW215993   6.101   0.667   4.735
 5032SOL     OW15994   1.135   3.728   1.050
 5032SOL    HW115995   1.130   3.775   1.138
 5032SOL    HW215996   1.191   3.645   1.059
 5033SOL     OW15997   3.175   6.230   6.203
 5033SOL    HW115998   3.187   6.281   6.118
 5033SOL    HW215999   3.264   6.198   6.236
 5034SOL     OW16000   5.591   0.935   3.020
 5034SOL    HW116001   5.636   1.024   3.008
 5034SOL    HW216002   5.514   0.946   3.083
 5035SOL     OW16003   0.315   4.317   0.412
 5035SOL    HW116004   0.393   4.322   0.349
 5035SOL    HW216005   0.292   4.221   0.428
 5036SOL     OW16006   0.116   5.181   6.929
 5036SOL    HW116007   0.078   5.206   7.018
 5036SOL    HW216008   0.045   5.185   6.860
 5037SOL     OW16009   5.190   2.558   3.194
 5037SOL    HW116010   5.215   2.655   3.193
 5037SOL    HW216011   5.091   2.549   3.190
 5038SOL     OW16012   1.817   4.190   6.943
 5038SOL    HW116013   1.885   4.159   6.877
 5038SOL    HW216014   1.833   4.146   0.012
 5039SOL     OW16015   2.855   4.395   5.386
 5039SOL    HW116016   2.868   4.430   5.293
 5039SOL    HW216017   2.856   4.471   5.451
 5040SOL     OW16018   1.964   4.900   5.992
 5040SOL    HW116019   2.059   4.871   6.002
 5040SOL    HW216020   1.957   4.967   5.918
 5041SOL     OW16021   1.584   1.936   1.564
 5041SOL    HW116022   1.580   2.035   1.575
 5041SOL    HW216023   1.580   1.913   1.467
 5042SOL     OW16024   6.247   3.039   0.664
 5042SOL    HW116025   6.174   3.063   0.600
 5042SOL    HW216026   6.220   2.958   0.717
 5043SOL     OW16027   3.125   1.218   5.848
 5043SOL    HW116028   3.102   1.130   5.808
 5043SOL    HW216029   3.047   1.251   5.902
 5044SOL     OW16030   0.056   6.266   1.767
 5044SOL    HW116031   0.062   6.226   1.676
 5044SOL    HW216032   0.082   6.198   1.835
 5045SOL     OW16033   5.891   2.216   0.483
 5045SOL    HW116034   5.920   2.272   0.561
 5045SOL    HW216035   5.825   2.148   0.514
 5046SOL     OW16036   3.458   4.165   3.613
 5046SOL    HW116037   3.429   4.141   3.706
 5046SOL    HW216038   3.545   4.214   3.617
 5047SOL     OW16039   0.371   3.239   2.652
 5047SOL    HW116040   0.356   3.223   2.749
 5047SOL    HW216041   0.298   3.196   2.599
 5048SOL     OW16042   0.623   0.796   1.828
 5048SOL    HW116043   0.592   0.785   1.922
 5048SOL    HW216044   0.718   0.826   1.827
 5049SOL     OW16045   6.553   1.791   5.171
 5049SOL    HW116046   6.641   1.752   5.197
 5049SOL    HW216047   6.552   1.889   5.192
 5050SOL     OW16048   1.395   0.148   1.861
 5050SOL    HW116049   1.310   0.201   1.860
 5050SOL    HW216050   1.374   0.052   1.875
 5051SOL     OW16051   4.274   3.840   1.201
 5051SOL    HW116052   4.370   3.837   1.230
 5051SOL    HW216053   4.257   3.768   1.134
 5052SOL     OW16054   2.219   6.158   5.898
 5052SOL    HW116055   2.143   6.135   5.959
 5052SOL    HW216056   2.302   6.171   5.952
 5053SOL     OW16057   2.206   4.001   3.671
 5053SOL    HW116058   2.245   4.093   3.673
 5053SOL    HW216059   2.270   3.937   3.715
 5054SOL     OW16060   3.692   6.225   4.976
 5054SOL    HW116061   3.715   6.319   5.002
 5054SOL    HW216062   3.596   6.221   4.948
 5055SOL     OW16063   2.123   0.302   5.336
 5055SOL    HW116064   2.171   0.316   5.423
 5055SOL    HW216065   2.085   0.390   5.305
 5056SOL     OW16066   6.338   4.214   0.422
 5056SOL    HW116067   6.261   4.214   0.358
 5056SOL    HW216068   6.325   4.285   0.490
 5057SOL     OW16069   6.783   5.933   5.314
 5057SOL    HW116070   6.728   5.879   5.378
 5057SOL    HW216071   6.737   5.936   5.225
 5058SOL     OW16072   2.676   3.110   5.323
 5058SOL    HW116073   2.600   3.083   5.264
 5058SOL    HW216074   2.707   3.031   5.376
 5059SOL     OW16075   5.494   2.549   3.461
 5059SOL    HW116076   5.398   2.573   3.478
 5059SOL    HW216077   5.553   2.618   3.502
 5060SOL     OW16078   0.375   2.266   5.756
 5060SOL    HW116079   0.456   2.287   5.702
 5060SOL    HW216080   0.402   2.236   5.848
 5061SOL     OW16081   3.716   3.244   2.864
 5061SOL    HW116082   3.784   3.171   2.865
 5061SOL    HW216083   3.730   3.301   2.783
 5062SOL     OW16084   5.570   7.001   3.413
 5062SOL    HW116085   5.528   0.016   3.329
 5062SOL    HW216086   5.553   0.047   3.487
 5063SOL     OW16087   1.401   6.910   2.262
 5063SOL    HW116088   1.401   6.847   2.184
 5063SOL    HW216089   1.330   6.979   2.249
 5064SOL     OW16090   4.290   3.763   1.679
 5064SOL    HW116091   4.333   3.853   1.681
 5064SOL    HW216092   4.357   3.695   1.649
 5065SOL     OW16093   1.652   1.607   3.539
 5065SOL    HW116094   1.726   1.541   3.554
 5065SOL    HW216095   1.689   1.699   3.545
 5066SOL     OW16096   3.355   4.667   1.009
 5066SOL    HW116097   3.372   4.648   1.106
 5066SOL    HW216098   3.368   4.583   0.956
 5067SOL     OW16099   3.238   1.086   2.461
 5067SOL    HW116100   3.238   0.987   2.475
 5067SOL    HW216101   3.272   1.131   2.544
 5068SOL     OW16102   3.032   4.825   6.937
 5068SOL    HW116103   3.054   4.862   6.847
 5068SOL    HW216104   3.098   4.753   6.961
 5069SOL     OW16105   2.137   2.981   5.806
 5069SOL    HW116106   2.128   2.990   5.706
 5069SOL    HW216107   2.050   3.006   5.849
 5070SOL     OW16108   5.377   4.625   3.836
 5070SOL    HW116109   5.394   4.537   3.880
 5070SOL    HW216110   5.449   4.690   3.862
 5071SOL     OW16111   4.109   0.951   3.944
 5071SOL    HW116112   4.038   0.911   4.003
 5071SOL    HW216113   4.109   1.050   3.955
 5072SOL     OW16114   1.076   0.760   1.674
 5072SOL    HW116115   1.097   0.854   1.645
 5072SOL    HW216116   1.160   0.705   1.673
 5073SOL     OW16117   1.582   4.438   1.195
 5073SOL    HW116118   1.564   4.386   1.112
 5073SOL    HW216119   1.516   4.513   1.202
 5074SOL     OW16120   3.255   2.165   1.393
 5074SOL    HW116121   3.185   2.196   1.458
 5074SOL    HW216122   3.330   2.122   1.444
 5075SOL     OW16123   1.405   2.300   6.048
 5075SOL    HW116124   1.494   2.286   6.091
 5075SOL    HW216125   1.338   2.238   6.089
 5076SOL     OW16126   5.239   0.477   1.025
 5076SOL    HW116127   5.198   0.544   0.964
 5076SOL    HW216128   5.181   0.396   1.030
 5077SOL     OW16129   1.629   4.389   5.374
 5077SOL    HW116130   1.556   4.446   5.412
 5077SOL    HW216131   1.696   4.369   5.445
 5078SOL     OW16132   0.692   0.641   4.025
 5078SOL    HW116133   0.599   0.604   4.029
 5078SOL    HW216134   0.688   0.738   4.003
 5079SOL     OW16135   2.182   3.312   4.659
 5079SOL    HW116136   2.225   3.247   4.596
 5079SOL    HW216137   2.200   3.283   4.753
 5080SOL     OW16138   6.093   6.316   6.018
 5080SOL    HW116139   6.086   6.399   5.962
 5080SOL    HW216140   6.153   6.250   5.973
 5081SOL     OW16141   2.960   3.812   5.260
 5081SOL    HW116142   2.989   3.848   5.349
 5081SOL    HW216143   2.963   3.886   5.193
 5082SOL     OW16144   5.225   5.847   1.516
 5082SOL    HW116145   5.135   5.876   1.482
 5082SOL    HW216146   5.273   5.796   1.444
 5083SOL     OW16147   2.456   0.725   2.846
 5083SOL    HW116148   2.469   0.679   2.758
 5083SOL    HW216149   2.362   0.714   2.875
 5084SOL     OW16150   0.796   4.008   4.143
 5084SOL    HW116151   0.874   3.976   4.089
 5084SOL    HW216152   0.826   4.026   4.237
 5085SOL     OW16153   6.553   2.344   6.060
 5085SOL    HW116154   6.610   2.424   6.041
 5085SOL    HW216155   6.487   2.366   6.132
 5086SOL     OW16156   1.405   5.044   2.937
 5086SOL    HW116157   1.392   5.059   3.036
 5086SOL    HW216158   1.479   5.103   2.905
 5087SOL     OW16159   1.356   5.247   2.099
 5087SOL    HW116160   1.388   5.191   2.022
 5087SOL    HW216161   1.311   5.189   2.166
 5088SOL     OW16162   5.928   0.191   3.826
 5088SOL    HW116163   6.022   0.222   3.833
 5088SOL    HW216164   5.925   0.103   3.779
 5089SOL     OW16165   5.839   3.860   4.153
 5089SOL    HW116166   5.800   3.768   4.162
 5089SOL    HW216167   5.818   3.897   4.063
 5090SOL     OW16168   2.008   3.637   2.643
 5090SOL    HW116169   2.069   3.716   2.651
 5090SOL    HW216170   1.933   3.646   2.708
 5091SOL     OW16171   6.759   1.352   1.609
 5091SOL    HW116172   6.706   1.429   1.574
 5091SOL    HW216173   6.800   1.377   1.697
 5092SOL     OW16174   3.448   3.822   3.243
 5092SOL    HW116175   3.457   3.750   3.312
 5092SOL    HW216176   3.456   3.911   3.287
 5093SOL     OW16177   3.159   0.696   0.574
 5093SOL    HW116178   3.104   0.639   0.513
 5093SOL    HW216179   3.223   0.750   0.520
 5094SOL     OW16180   2.546   5.894   5.729
 5094SOL    HW116181   2.601   5.840   5.793
 5094SOL    HW216182   2.595   5.978   5.705
 5095SOL     OW16183   6.401   1.853   3.539
 5095SOL    HW116184   6.480   1.913   3.553
 5095SOL    HW216185   6.372   1.816   3.628
 5096SOL     OW16186   3.777   5.040   6.404
 5096SOL    HW116187   3.876   5.044   6.414
 5096SOL    HW216188   3.744   5.126   6.367
 5097SOL     OW16189   0.776   0.204   6.241
 5097SOL    HW116190   0.750   0.269   6.312
 5097SOL    HW216191   0.726   0.225   6.157
 5098SOL     OW16192   3.262   0.913   2.220
 5098SOL    HW116193   3.194   0.903   2.293
 5098SOL    HW216194   3.330   0.981   2.248
 5099SOL     OW16195   0.358   0.262   0.794
 5099SOL    HW116196   0.357   0.195   0.868
 5099SOL    HW216197   0.384   0.351   0.831
 5100SOL     OW16198   3.237   5.576   4.646
 5100SOL    HW116199   3.176   5.611   4.574
 5100SOL    HW216200   3.310   5.642   4.663
 5101SOL     OW16201   4.397   0.454   6.832
 5101SOL    HW116202   4.352   0.458   6.922
 5101SOL    HW216203   4.379   0.365   6.790
 5102SOL     OW16204   5.800   6.746   4.216
 5102SOL    HW116205   5.722   6.782   4.166
 5102SOL    HW216206   5.884   6.764   4.164
 5103SOL     OW16207   0.442   0.568   4.024
 5103SOL    HW116208   0.366   0.533   3.969
 5103SOL    HW216209   0.413   0.575   4.120
 5104SOL     OW16210   1.559   6.399   1.949
 5104SOL    HW116211   1.650   6.371   1.918
 5104SOL    HW216212   1.539   6.355   2.037
 5105SOL     OW16213   2.097   2.266   0.430
 5105SOL    HW116214   2.176   2.290   0.373
 5105SOL    HW216215   2.123   2.195   0.495
 5106SOL     OW16216   4.238   2.696   0.308
 5106SOL    HW116217   4.186   2.622   0.351
 5106SOL    HW216218   4.311   2.656   0.253
 5107SOL     OW16219   4.025   1.530   1.231
 5107SOL    HW116220   4.069   1.619   1.244
 5107SOL    HW216221   4.001   1.491   1.320
 5108SOL     OW16222   3.933   3.873   4.763
 5108SOL    HW116223   3.962   3.777   4.763
 5108SOL    HW216224   3.902   3.898   4.671
 5109SOL     OW16225   0.877   1.880   6.980
 5109SOL    HW116226   0.881   1.876   6.880
 5109SOL    HW216227   0.870   1.975   7.010
 5110SOL     OW16228   0.526   0.528   5.928
 5110SOL    HW116229   0.620   0.560   5.945
 5110SOL    HW216230   0.519   0.493   5.835
 5111SOL     OW16231   1.250   0.398   4.883
 5111SOL    HW116232   1.158   0.405   4.843
 5111SOL    HW216233   1.308   0.469   4.844
 5112SOL     OW16234   1.346   0.170   3.215
 5112SOL    HW116235   1.349   0.071   3.204
 5112SOL    HW216236   1.329   0.192   3.311
 5113SOL     OW16237   1.627   6.760   0.891
 5113SOL    HW116238   1.700   6.759   0.959
 5113SOL    HW216239   1.667   6.761   0.799
 5114SOL     OW16240   3.608   0.434   6.977
 5114SOL    HW116241   3.646   0.418   0.049
 5114SOL    HW216242   3.512   0.464   6.985
 5115SOL     OW16243   1.550   4.528   3.951
 5115SOL    HW116244   1.465   4.531   4.005
 5115SOL    HW216245   1.582   4.434   3.945
 5116SOL     OW16246   0.632   6.948   6.644
 5116SOL    HW116247   0.694   6.974   6.570
 5116SOL    HW216248   0.682   6.941   6.730
 5117SOL     OW16249   2.127   3.891   4.772
 5117SOL    HW116250   2.181   3.939   4.842
 5117SOL    HW216251   2.137   3.792   4.785
 5118SOL     OW16252   5.025   1.180   0.126
 5118SOL    HW116253   5.051   1.182   0.030
 5118SOL    HW216254   4.967   1.259   0.147
 5119SOL     OW16255   5.346   0.558   2.105
 5119SOL    HW116256   5.263   0.613   2.094
 5119SOL    HW216257   5.341   0.506   2.190
 5120SOL     OW16258   3.466   0.429   4.278
 5120SOL    HW116259   3.439   0.334   4.261
 5120SOL    HW216260   3.554   0.447   4.234
 5121SOL     OW16261   2.711   2.183   6.892
 5121SOL    HW116262   2.691   2.091   6.860
 5121SOL    HW216263   2.800   2.184   6.938
 5122SOL     OW16264   3.420   6.385   3.474
 5122SOL    HW116265   3.497   6.449   3.462
 5122SOL    HW216266   3.339   6.423   3.430
 5123SOL     OW16267   4.118   2.154   4.120
 5123SOL    HW116268   4.180   2.079   4.139
 5123SOL    HW216269   4.105   2.209   4.203
 5124SOL     OW16270   2.585   5.872   4.668
 5124SOL    HW116271   2.494   5.883   4.708
 5124SOL    HW216272   2.582   5.896   4.571
 5125SOL     OW16273   6.143   2.818   3.786
 5125SOL    HW116274   6.200   2.872   3.724
 5125SOL    HW216275   6.153   2.852   3.879
 5126SOL     OW16276   5.763   5.308   5.913
 5126SOL    HW116277   5.836   5.374   5.896
 5126SOL    HW216278   5.701   5.344   5.984
 5127SOL     OW16279   0.848   4.236   6.942
 5127SOL    HW116280   0.793   4.320   6.938
 5127SOL    HW216281   0.920   4.240   6.873
 5128SOL     OW16282   6.897   0.413   6.557
 5128SOL    HW116283   6.929   0.321   6.580
 5128SOL    HW216284   6.976   0.471   6.538
 5129SOL     OW16285   6.301   6.985   2.668
 5129SOL    HW116286   6.244   6.903   2.662
 5129SOL    HW216287   6.330   6.999   2.763
 5130SOL     OW16288   0.242   5.724   3.804
 5130SOL    HW116289   0.207   5.635   3.775
 5130SOL    HW216290   0.339   5.716   3.827
 5131SOL     OW16291   1.865   5.225   4.269
 5131SOL    HW116292   1.964   5.219   4.284
 5131SOL    HW216293   1.845   5.210   4.172
 5132SOL     OW16294   3.250   2.712   6.538
 5132SOL    HW116295   3.221   2.787   6.598
 5132SOL    HW216296   3.330   2.740   6.486
 5133SOL     OW16297   1.896   5.695   6.717
 5133SOL    HW116298   1.957   5.724   6.791
 5133SOL    HW216299   1.948   5.684   6.633
 5134SOL     OW16300   0.439   2.947   2.426
 5134SOL    HW116301   0.431   2.924   2.523
 5134SOL    HW216302   0.501   3.024   2.415
 5135SOL     OW16303   5.571   3.288   4.605
 5135SOL    HW116304   5.472   3.296   4.614
 5135SOL    HW216305   5.616   3.345   4.674
 5136SOL     OW16306   4.744   0.608   6.347
 5136SOL    HW116307   4.740   0.573   6.253
 5136SOL    HW216308   4.651   0.621   6.381
 5137SOL     OW16309   5.449   4.088   5.510
 5137SOL    HW116310   5.494   3.999   5.513
 5137SOL    HW216311   5.515   4.160   5.531
 5138SOL     OW16312   3.889   3.138   5.122
 5138SOL    HW116313   3.945   3.189   5.058
 5138SOL    HW216314   3.941   3.121   5.206
 5139SOL     OW16315   1.537   1.101   2.966
 5139SOL    HW116316   1.441   1.114   2.943
 5139SOL    HW216317   1.545   1.044   3.048
 5140SOL     OW16318   3.871   2.913   6.428
 5140SOL    HW116319   3.878   3.004   6.468
 5140SOL    HW216320   3.782   2.902   6.383
 5141SOL     OW16321   6.203   3.815   1.037
 5141SOL    HW116322   6.195   3.815   1.136
 5141SOL    HW216323   6.299   3.806   1.011
 5142SOL     OW16324   6.349   6.843   3.178
 5142SOL    HW116325   6.415   6.768   3.184
 5142SOL    HW216326   6.259   6.806   3.158
 5143SOL     OW16327   6.606   4.350   3.914
 5143SOL    HW116328   6.514   4.365   3.878
 5143SOL    HW216329   6.606   4.270   3.974
 5144SOL     OW16330   0.732   4.396   5.503
 5144SOL    HW116331   0.691   4.304   5.508
 5144SOL    HW216332   0.828   4.391   5.531
 5145SOL     OW16333   2.970   5.455   5.712
 5145SOL    HW116334   2.922   5.392   5.652
 5145SOL    HW216335   2.927   5.546   5.706
 5146SOL     OW16336   3.366   4.056   5.167
 5146SOL    HW116337   3.455   4.065   5.213
 5146SOL    HW216338   3.309   3.993   5.219
 5147SOL     OW16339   6.817   5.195   2.578
 5147SOL    HW116340   6.721   5.220   2.592
 5147SOL    HW216341   6.857   5.255   2.510
 5148SOL     OW16342   6.188   6.949   1.599
 5148SOL    HW116343   6.282   6.973   1.574
 5148SOL    HW216344   6.184   6.853   1.628
 5149SOL     OW16345   6.537   5.223   2.902
 5149SOL    HW116346   6.500   5.130   2.908
 5149SOL    HW216347   6.516   5.272   2.987
 5150SOL     OW16348   2.144   5.376   3.254
 5150SOL    HW116349   2.064   5.409   3.304
 5150SOL    HW216350   2.221   5.365   3.317
 5151SOL     OW16351   6.374   2.896   1.753
 5151SOL    HW116352   6.375   2.872   1.656
 5151SOL    HW216353   6.302   2.845   1.799
 5152SOL     OW16354   1.881   4.534   0.042
 5152SOL    HW116355   1.803   4.527   6.999
 5152SOL    HW216356   1.862   4.605   0.111
 5153SOL     OW16357   1.878   0.913   6.851
 5153SOL    HW116358   1.903   0.853   6.775
 5153SOL    HW216359   1.959   0.935   6.905
 5154SOL     OW16360   0.817   2.774   6.096
 5154SOL    HW116361   0.757   2.701   6.064
 5154SOL    HW216362   0.792   2.859   6.050
 5155SOL     OW16363   4.317   0.347   2.057
 5155SOL    HW116364   4.381   0.279   2.092
 5155SOL    HW216365   4.337   0.436   2.099
 5156SOL     OW16366   5.684   3.649   6.035
 5156SOL    HW116367   5.607   3.616   6.091
 5156SOL    HW216368   5.675   3.747   6.020
 5157SOL     OW16369   3.748   2.090   3.324
 5157SOL    HW116370   3.828   2.035   3.299
 5157SOL    HW216371   3.757   2.119   3.420
 5158SOL     OW16372   3.895   1.716   1.744
 5158SOL    HW116373   3.860   1.645   1.805
 5158SOL    HW216374   3.852   1.804   1.766
 5159SOL     OW16375   6.649   3.773   4.424
 5159SOL    HW116376   6.600   3.855   4.455
 5159SOL    HW216377   6.747   3.791   4.426
 5160SOL     OW16378   0.103   5.265   2.846
 5160SOL    HW116379   0.199   5.264   2.818
 5160SOL    HW216380   0.080   5.354   2.884
 5161SOL     OW16381   1.824   3.732   5.720
 5161SOL    HW116382   1.918   3.759   5.741
 5161SOL    HW216383   1.773   3.721   5.805
 5162SOL     OW16384   1.207   4.857   2.819
 5162SOL    HW116385   1.115   4.866   2.857
 5162SOL    HW216386   1.263   4.934   2.848
 5163SOL     OW16387   3.484   6.463   0.181
 5163SOL    HW116388   3.402   6.406   0.177
 5163SOL    HW216389   3.507   6.494   0.090
 5164SOL     OW16390   3.927   2.715   6.603
 5164SOL    HW116391   3.908   2.750   6.512
 5164SOL    HW216392   3.926   2.791   6.669
 5165SOL     OW16393   6.459   4.237   5.774
 5165SOL    HW116394   6.532   4.289   5.819
 5165SOL    HW216395   6.392   4.301   5.735
 5166SOL     OW16396   0.618   5.241   2.458
 5166SOL    HW116397   0.588   5.164   2.514
 5166SOL    HW216398   0.716   5.256   2.471
 5167SOL     OW16399   6.836   6.313   6.636
 5167SOL    HW116400   6.858   6.410   6.626
 5167SOL    HW216401   6.854   6.284   6.730
 5168SOL     OW16402   5.324   3.468   1.711
 5168SOL    HW116403   5.315   3.521   1.795
 5168SOL    HW216404   5.354   3.375   1.733
 5169SOL     OW16405   4.027   2.168   4.615
 5169SOL    HW116406   3.987   2.183   4.705
 5169SOL    HW216407   4.127   2.176   4.621
 5170SOL     OW16408   0.466   4.272   5.318
 5170SOL    HW116409   0.418   4.195   5.277
 5170SOL    HW216410   0.476   4.345   5.251
 5171SOL     OW16411   0.722   5.274   4.463
 5171SOL    HW116412   0.683   5.351   4.512
 5171SOL    HW216413   0.651   5.232   4.406
 5172SOL     OW16414   1.472   2.549   2.533
 5172SOL    HW116415   1.395   2.488   2.555
 5172SOL    HW216416   1.538   2.500   2.476
 5173SOL     OW16417   5.400   5.128   5.976
 5173SOL    HW116418   5.406   5.182   6.060
 5173SOL    HW216419   5.464   5.051   5.982
 5174SOL     OW16420   2.205   4.871   3.389
 5174SOL    HW116421   2.247   4.811   3.458
 5174SOL    HW216422   2.143   4.935   3.434
 5175SOL     OW16423   2.865   3.309   6.907
 5175SOL    HW116424   2.889   3.276   6.999
 5175SOL    HW216425   2.913   3.254   6.839
 5176SOL     OW16426   4.710   3.142   6.663
 5176SOL    HW116427   4.804   3.117   6.644
 5176SOL    HW216428   4.674   3.087   6.738
 5177SOL     OW16429   4.812   0.672   0.064
 5177SOL    HW116430   4.774   0.636   0.149
 5177SOL    HW216431   4.740   0.716   0.010
 5178SOL     OW16432   1.090   4.460   2.232
 5178SOL    HW116433   1.101   4.383   2.294
 5178SOL    HW216434   1.056   4.428   2.143
 5179SOL     OW16435   4.178   5.814   3.619
 5179SOL    HW116436   4.143   5.850   3.533
 5179SOL    HW216437   4.150   5.718   3.629
 5180SOL     OW16438   2.335   2.181   1.189
 5180SOL    HW116439   2.255   2.125   1.165
 5180SOL    HW216440   2.412   2.155   1.130
 5181SOL     OW16441   5.688   1.268   2.588
 5181SOL    HW116442   5.692   1.366   2.567
 5181SOL    HW216443   5.674   1.216   2.505
 5182SOL     OW16444   4.045   4.387   1.522
 5182SOL    HW116445   4.085   4.307   1.566
 5182SOL    HW216446   3.949   4.369   1.501
 5183SOL     OW16447   4.189   1.640   3.190
 5183SOL    HW116448   4.242   1.708   3.241
 5183SOL    HW216449   4.251   1.573   3.148
 5184SOL     OW16450   0.790   1.917   4.522
 5184SOL    HW116451   0.753   1.830   4.552
 5184SOL    HW216452   0.772   1.929   4.424
 5185SOL     OW16453   5.732   0.598   2.429
 5185SOL    HW116454   5.777   0.529   2.372
 5185SOL    HW216455   5.794   0.675   2.443
 5186SOL     OW16456   6.611   2.893   0.684
 5186SOL    HW116457   6.644   2.961   0.749
 5186SOL    HW216458   6.594   2.938   0.596
 5187SOL     OW16459   1.149   6.979   4.455
 5187SOL    HW116460   1.211   0.030   4.490
 5187SOL    HW216461   1.200   6.915   4.397
 5188SOL     OW16462   0.731   5.568   0.725
 5188SOL    HW116463   0.734   5.657   0.677
 5188SOL    HW216464   0.824   5.542   0.751
 5189SOL     OW16465   3.380   4.420   0.882
 5189SOL    HW116466   3.383   4.357   0.804
 5189SOL    HW216467   3.413   4.373   0.964
 5190SOL     OW16468   0.634   1.897   4.282
 5190SOL    HW116469   0.670   1.949   4.204
 5190SOL    HW216470   0.661   1.801   4.274
 5191SOL     OW16471   3.929   0.219   1.660
 5191SOL    HW116472   3.920   0.291   1.729
 5191SOL    HW216473   3.851   0.222   1.598
 5192SOL     OW16474   2.745   5.590   2.901
 5192SOL    HW116475   2.707   5.607   2.992
 5192SOL    HW216476   2.805   5.510   2.904
 5193SOL     OW16477   5.112   4.759   4.888
 5193SOL    HW116478   5.057   4.715   4.959
 5193SOL    HW216479   5.119   4.699   4.808
 5194SOL     OW16480   4.843   2.240   0.348
 5194SOL    HW116481   4.812   2.146   0.329
 5194SOL    HW216482   4.886   2.242   0.439
 5195SOL     OW16483   6.374   6.407   4.137
 5195SOL    HW116484   6.396   6.386   4.232
 5195SOL    HW216485   6.349   6.503   4.129
 5196SOL     OW16486   3.476   5.304   0.400
 5196SOL    HW116487   3.436   5.238   0.465
 5196SOL    HW216488   3.476   5.264   0.308
 5197SOL     OW16489   1.924   5.471   5.424
 5197SOL    HW116490   2.009   5.504   5.464
 5197SOL    HW216491   1.875   5.547   5.381
 5198SOL     OW16492   4.386   6.673   3.620
 5198SOL    HW116493   4.318   6.742   3.644
 5198SOL    HW216494   4.341   6.586   3.603
 5199SOL     OW16495   1.708   5.899   0.178
 5199SOL    HW116496   1.664   5.985   0.200
 5199SOL    HW216497   1.706   5.884   0.079
 5200SOL     OW16498   1.306   2.459   5.020
 5200SOL    HW116499   1.224   2.425   4.974
 5200SOL    HW216500   1.334   2.546   4.980
 5201SOL     OW16501   0.241   6.568   3.912
 5201SOL    HW116502   0.282   6.621   3.838
 5201SOL    HW216503   0.299   6.573   3.993
 5202SOL     OW16504   6.014   4.046   5.812
 5202SOL    HW116505   5.986   4.031   5.907
 5202SOL    HW216506   6.113   4.061   5.808
 5203SOL     OW16507   2.349   1.152   6.851
 5203SOL    HW116508   2.315   1.108   6.768
 5203SOL    HW216509   2.327   1.250   6.847
 5204SOL     OW16510   4.519   5.809   6.790
 5204SOL    HW116511   4.429   5.766   6.794
 5204SOL    HW216512   4.530   5.871   6.868
 5205SOL     OW16513   0.507   6.042   0.700
 5205SOL    HW116514   0.550   6.068   0.786
 5205SOL    HW216515   0.538   6.105   0.628
 5206SOL     OW16516   0.402   4.868   6.471
 5206SOL    HW116517   0.303   4.880   6.462
 5206SOL    HW216518   0.427   4.872   6.568
 5207SOL     OW16519   1.121   6.150   4.110
 5207SOL    HW116520   1.049   6.163   4.041
 5207SOL    HW216521   1.083   6.101   4.189
 5208SOL     OW16522   5.259   2.502   6.820
 5208SOL    HW116523   5.165   2.517   6.851
 5208SOL    HW216524   5.322   2.520   6.895
 5209SOL     OW16525   5.546   6.667   2.214
 5209SOL    HW116526   5.520   6.724   2.291
 5209SOL    HW216527   5.592   6.585   2.247
 5210SOL     OW16528   4.692   2.777   0.247
 5210SOL    HW116529   4.765   2.719   0.283
 5210SOL    HW216530   4.688   2.766   0.147
 5211SOL     OW16531   3.848   2.471   5.727
 5211SOL    HW116532   3.903   2.408   5.673
 5211SOL    HW216533   3.758   2.430   5.744
 5212SOL     OW16534   0.266   2.525   0.497
 5212SOL    HW116535   0.287   2.510   0.401
 5212SOL    HW216536   0.333   2.478   0.554
 5213SOL     OW16537   4.747   4.072   6.917
 5213SOL    HW116538   4.795   4.155   6.889
 5213SOL    HW216539   4.649   4.084   6.903
 5214SOL     OW16540   5.275   1.992   6.095
 5214SOL    HW116541   5.279   2.034   6.004
 5214SOL    HW216542   5.359   1.939   6.110
 5215SOL     OW16543   0.934   4.306   3.813
 5215SOL    HW116544   1.006   4.280   3.749
 5215SOL    HW216545   0.873   4.228   3.830
 5216SOL     OW16546   4.609   4.910   1.847
 5216SOL    HW116547   4.606   4.928   1.945
 5216SOL    HW216548   4.688   4.957   1.807
 5217SOL     OW16549   3.597   5.439   4.134
 5217SOL    HW116550   3.548   5.381   4.200
 5217SOL    HW216551   3.684   5.396   4.111
 5218SOL     OW16552   0.822   0.702   2.027
 5218SOL    HW116553   0.869   0.657   1.951
 5218SOL    HW216554   0.888   0.724   2.099
 5219SOL     OW16555   4.352   1.513   4.864
 5219SOL    HW116556   4.378   1.599   4.819
 5219SOL    HW216557   4.434   1.466   4.896
 5220SOL     OW16558   1.072   6.359   2.231
 5220SOL    HW116559   1.132   6.324   2.159
 5220SOL    HW216560   0.985   6.310   2.229
 5221SOL     OW16561   6.006   1.492   3.775
 5221SOL    HW116562   5.956   1.545   3.843
 5221SOL    HW216563   5.946   1.422   3.736
 5222SOL     OW16564   4.532   6.579   3.138
 5222SOL    HW116565   4.525   6.622   3.228
 5222SOL    HW216566   4.501   6.484   3.143
 5223SOL     OW16567   6.221   2.532   0.856
 5223SOL    HW116568   6.268   2.594   0.793
 5223SOL    HW216569   6.124   2.553   0.857
 5224SOL     OW16570   6.113   2.894   4.766
 5224SOL    HW116571   6.109   2.809   4.819
 5224SOL    HW216572   6.072   2.968   4.820
 5225SOL     OW16573   0.381   0.830   3.868
 5225SOL    HW116574   0.394   0.803   3.773
 5225SOL    HW216575   0.410   0.755   3.928
 5226SOL     OW16576   6.902   0.204   5.112
 5226SOL    HW116577   6.946   0.123   5.073
 5226SOL    HW216578   6.972   0.265   5.148
 5227SOL     OW16579   0.280   3.231   5.213
 5227SOL    HW116580   0.276   3.233   5.113
 5227SOL    HW216581   0.220   3.158   5.247
 5228SOL     OW16582   6.390   2.376   1.040
 5228SOL    HW116583   6.335   2.402   1.120
 5228SOL    HW216584   6.367   2.436   0.964
 5229SOL     OW16585   2.558   6.086   0.311
 5229SOL    HW116586   2.568   6.099   0.213
 5229SOL    HW216587   2.465   6.113   0.339
 5230SOL     OW16588   0.610   5.763   1.706
 5230SOL    HW116589   0.523   5.813   1.704
 5230SOL    HW216590   0.682   5.821   1.668
 5231SOL     OW16591   4.687   2.358   4.440
 5231SOL    HW116592   4.637   2.435   4.401
 5231SOL    HW216593   4.651   2.337   4.530
 5232SOL     OW16594   1.999   3.724   6.073
 5232SOL    HW116595   1.960   3.633   6.088
 5232SOL    HW216596   1.926   3.792   6.075
 5233SOL     OW16597   4.474   1.163   2.269
 5233SOL    HW116598   4.512   1.078   2.305
 5233SOL    HW216599   4.398   1.142   2.208
 5234SOL     OW16600   2.592   1.804   5.839
 5234SOL    HW116601   2.543   1.761   5.915
 5234SOL    HW216602   2.535   1.877   5.801
 5235SOL     OW16603   1.993   2.574   0.778
 5235SOL    HW116604   1.911   2.518   0.793
 5235SOL    HW216605   1.984   2.624   0.692
 5236SOL     OW16606   4.887   5.006   1.731
 5236SOL    HW116607   4.900   5.039   1.638
 5236SOL    HW216608   4.892   5.083   1.795
 5237SOL     OW16609   1.676   1.271   5.131
 5237SOL    HW116610   1.728   1.289   5.048
 5237SOL    HW216611   1.596   1.215   5.109
 5238SOL     OW16612   0.405   4.304   0.126
 5238SOL    HW116613   0.343   4.228   0.104
 5238SOL    HW216614   0.354   4.390   0.126
 5239SOL     OW16615   3.305   2.929   4.492
 5239SOL    HW116616   3.225   2.924   4.433
 5239SOL    HW216617   3.324   3.025   4.515
 5240SOL     OW16618   2.752   2.637   5.801
 5240SOL    HW116619   2.683   2.691   5.754
 5240SOL    HW216620   2.833   2.628   5.744
 5241SOL     OW16621   0.279   5.069   4.560
 5241SOL    HW116622   0.253   5.066   4.656
 5241SOL    HW216623   0.272   5.163   4.526
 5242SOL     OW16624   6.590   6.538   6.689
 5242SOL    HW116625   6.605   6.462   6.753
 5242SOL    HW216626   6.561   6.502   6.601
 5243SOL     OW16627   1.488   5.465   1.506
 5243SOL    HW116628   1.450   5.385   1.552
 5243SOL    HW216629   1.583   5.478   1.534
 5244SOL     OW16630   3.212   5.471   6.880
 5244SOL    HW116631   3.162   5.385   6.869
 5244SOL    HW216632   3.299   5.453   6.926
 5245SOL     OW16633   4.017   4.818   6.814
 5245SOL    HW116634   3.985   4.810   6.908
 5245SOL    HW216635   3.960   4.883   6.764
 5246SOL     OW16636   5.379   3.516   1.413
 5246SOL    HW116637   5.324   3.436   1.436
 5246SOL    HW216638   5.404   3.565   1.496
 5247SOL     OW16639   1.643   0.807   6.866
 5247SOL    HW116640   1.576   0.863   6.818
 5247SOL    HW216641   1.733   0.851   6.861
 5248SOL     OW16642   5.814   1.571   3.951
 5248SOL    HW116643   5.806   1.487   4.004
 5248SOL    HW216644   5.723   1.608   3.932
 5249SOL     OW16645   7.006   5.174   6.110
 5249SOL    HW116646   6.972   5.080   6.112
 5249SOL    HW216647   0.069   5.180   6.166
 5250SOL     OW16648   1.931   5.742   6.212
 5250SOL    HW116649   1.888   5.675   6.151
 5250SOL    HW216650   1.860   5.800   6.252
 5251SOL     OW16651   0.616   3.634   0.076
 5251SOL    HW116652   0.674   3.682   0.010
 5251SOL    HW216653   0.537   3.596   0.028
 5252SOL     OW16654   1.679   6.412   0.566
 5252SOL    HW116655   1.658   6.323   0.526
 5252SOL    HW216656   1.611   6.434   0.636
 5253SOL     OW16657   6.239   4.811   4.766
 5253SOL    HW116658   6.278   4.782   4.679
 5253SOL    HW216659   6.306   4.865   4.816
 5254SOL     OW16660   4.398   0.982   3.066
 5254SOL    HW116661   4.388   0.889   3.031
 5254SOL    HW216662   4.393   1.047   2.989
 5255SOL     OW16663   6.045   1.721   5.182
 5255SOL    HW116664   5.955   1.715   5.138
 5255SOL    HW216665   6.086   1.630   5.185
 5256SOL     OW16666   3.757   1.245   3.780
 5256SOL    HW116667   3.836   1.234   3.840
 5256SOL    HW216668   3.782   1.221   3.686
 5257SOL     OW16669   5.290   6.704   2.025
 5257SOL    HW116670   5.361   6.715   2.095
 5257SOL    HW216671   5.332   6.704   1.935
 5258SOL     OW16672   5.705   3.633   1.653
 5258SOL    HW116673   5.677   3.584   1.571
 5258SOL    HW216674   5.728   3.567   1.725
 5259SOL     OW16675   5.468   6.309   2.066
 5259SOL    HW116676   5.438   6.214   2.080
 5259SOL    HW216677   5.408   6.353   1.999
 5260SOL     OW16678   5.261   3.693   0.674
 5260SOL    HW116679   5.237   3.733   0.586
 5260SOL    HW216680   5.253   3.594   0.670
 5261SOL     OW16681   0.407   3.747   6.879
 5261SOL    HW116682   0.455   3.749   6.791
 5261SOL    HW216683   0.453   3.810   6.942
 5262SOL     OW16684   2.967   0.847   3.557
 5262SOL    HW116685   3.024   0.800   3.626
 5262SOL    HW216686   2.999   0.941   3.547
 5263SOL     OW16687   1.858   1.627   4.078
 5263SOL    HW116688   1.861   1.636   3.979
 5263SOL    HW216689   1.800   1.549   4.103
 5264SOL     OW16690   6.509   2.306   2.818
 5264SOL    HW116691   6.555   2.383   2.862
 5264SOL    HW216692   6.442   2.340   2.752
 5265SOL     OW16693   6.495   3.913   3.904
 5265SOL    HW116694   6.521   3.824   3.868
 5265SOL    HW216695   6.401   3.910   3.938
 5266SOL     OW16696   2.851   5.683   0.837
 5266SOL    HW116697   2.822   5.757   0.776
 5266SOL    HW216698   2.770   5.643   0.881
 5267SOL     OW16699   5.553   4.053   4.927
 5267SOL    HW116700   5.634   4.035   4.983
 5267SOL    HW216701   5.563   4.140   4.881
 5268SOL     OW16702   5.550   0.627   6.527
 5268SOL    HW116703   5.619   0.574   6.477
 5268SOL    HW216704   5.479   0.566   6.561
 5269SOL     OW16705   1.406   6.788   3.625
 5269SOL    HW116706   1.388   6.690   3.632
 5269SOL    HW216707   1.496   6.808   3.665
 5270SOL     OW16708   6.007   0.870   1.126
 5270SOL    HW116709   5.943   0.802   1.163
 5270SOL    HW216710   6.035   0.841   1.034
 5271SOL     OW16711   5.865   5.619   5.120
 5271SOL    HW116712   5.839   5.640   5.214
 5271SOL    HW216713   5.791   5.645   5.058
 5272SOL     OW16714   3.065   5.302   1.967
 5272SOL    HW116715   3.165   5.294   1.958
 5272SOL    HW216716   3.028   5.216   2.003
 5273SOL     OW16717   6.762   2.988   3.636
 5273SOL    HW116718   6.686   2.933   3.672
 5273SOL    HW216719   6.744   3.014   3.542
 5274SOL     OW16720   6.848   6.868   2.890
 5274SOL    HW116721   6.892   6.779   2.900
 5274SOL    HW216722   6.782   6.864   2.814
 5275SOL     OW16723   3.686   2.303   1.210
 5275SOL    HW116724   3.635   2.326   1.127
 5275SOL    HW216725   3.623   2.303   1.288
 5276SOL     OW16726   2.031   0.430   1.090
 5276SOL    HW116727   2.074   0.498   1.031
 5276SOL    HW216728   2.091   0.410   1.167
 5277SOL     OW16729   1.564   1.484   2.501
 5277SOL    HW116730   1.499   1.443   2.565
 5277SOL    HW216731   1.611   1.412   2.450
 5278SOL     OW16732   6.093   0.085   3.421
 5278SOL    HW116733   6.135   0.002   3.459
 5278SOL    HW216734   6.040   0.061   3.340
 5279SOL     OW16735   1.878   5.251   6.095
 5279SOL    HW116736   1.828   5.174   6.134
 5279SOL    HW216737   1.877   5.244   5.996
 5280SOL     OW16738   2.462   6.278   5.211
 5280SOL    HW116739   2.552   6.235   5.201
 5280SOL    HW216740   2.391   6.213   5.183
 5281SOL     OW16741   0.231   1.959   3.039
 5281SOL    HW116742   0.320   1.991   3.005
 5281SOL    HW216743   0.181   1.916   2.964
 5282SOL     OW16744   2.567   1.746   3.160
 5282SOL    HW116745   2.650   1.790   3.192
 5282SOL    HW216746   2.534   1.682   3.230
 5283SOL     OW16747   4.264   6.579   0.506
 5283SOL    HW116748   4.306   6.508   0.562
 5283SOL    HW216749   4.311   6.585   0.418
 5284SOL     OW16750   4.874   3.873   3.722
 5284SOL    HW116751   4.905   3.845   3.813
 5284SOL    HW216752   4.892   3.800   3.656
 5285SOL     OW16753   2.755   5.200   3.377
 5285SOL    HW116754   2.697   5.185   3.457
 5285SOL    HW216755   2.757   5.118   3.321
 5286SOL     OW16756   1.157   4.799   0.148
 5286SOL    HW116757   1.205   4.885   0.167
 5286SOL    HW216758   1.067   4.801   0.191
 5287SOL     OW16759   2.772   6.608   0.753
 5287SOL    HW116760   2.775   6.560   0.841
 5287SOL    HW216761   2.709   6.561   0.691
 5288SOL     OW16762   3.436   0.281   1.490
 5288SOL    HW116763   3.376   0.360   1.495
 5288SOL    HW216764   3.404   0.210   1.553
 5289SOL     OW16765   1.569   4.410   5.686
 5289SOL    HW116766   1.491   4.473   5.688
 5289SOL    HW216767   1.651   4.459   5.717
 5290SOL     OW16768   1.549   4.864   4.848
 5290SOL    HW116769   1.492   4.917   4.786
 5290SOL    HW216770   1.584   4.923   4.921
 5291SOL     OW16771   2.338   5.131   6.128
 5291SOL    HW116772   2.319   5.090   6.218
 5291SOL    HW216773   2.266   5.196   6.105
 5292SOL     OW16774   6.552   2.942   6.752
 5292SOL    HW116775   6.484   2.988   6.695
 5292SOL    HW216776   6.638   2.935   6.701
 5293SOL     OW16777   0.486   0.251   5.179
 5293SOL    HW116778   0.444   0.162   5.192
 5293SOL    HW216779   0.456   0.289   5.091
 5294SOL     OW16780   4.872   3.510   5.718
 5294SOL    HW116781   4.887   3.413   5.735
 5294SOL    HW216782   4.781   3.523   5.679
 5295SOL     OW16783   5.381   0.462   2.863
 5295SOL    HW116784   5.453   0.394   2.874
 5295SOL    HW216785   5.418   0.553   2.879
 5296SOL     OW16786   2.291   5.382   0.046
 5296SOL    HW116787   2.315   5.472   0.011
 5296SOL    HW216788   2.351   5.360   0.123
 5297SOL     OW16789   2.764   1.939   1.608
 5297SOL    HW116790   2.706   1.901   1.680
 5297SOL    HW216791   2.711   1.943   1.523
 5298SOL     OW16792   1.021   5.607   0.432
 5298SOL    HW116793   1.025   5.612   0.532
 5298SOL    HW216794   1.016   5.511   0.404
 5299SOL     OW16795   2.771   2.406   0.630
 5299SOL    HW116796   2.712   2.439   0.556
 5299SOL    HW216797   2.717   2.356   0.697
 5300SOL     OW16798   0.481   5.924   2.259
 5300SOL    HW116799   0.528   5.836   2.250
 5300SOL    HW216800   0.451   5.936   2.353
 5301SOL     OW16801   4.531   1.888   0.659
 5301SOL    HW116802   4.513   1.938   0.575
 5301SOL    HW216803   4.509   1.946   0.738
 5302SOL     OW16804   5.826   3.966   2.899
 5302SOL    HW116805   5.833   3.986   2.801
 5302SOL    HW216806   5.862   4.044   2.951
 5303SOL     OW16807   6.559   5.835   3.384
 5303SOL    HW116808   6.512   5.868   3.301
 5303SOL    HW216809   6.514   5.873   3.465
 5304SOL     OW16810   0.030   1.874   5.802
 5304SOL    HW116811   6.990   1.795   5.785
 5304SOL    HW216812   7.013   1.928   5.878
 5305SOL     OW16813   1.449   6.543   4.839
 5305SOL    HW116814   1.539   6.520   4.802
 5305SOL    HW216815   1.432   6.489   4.921
 5306SOL     OW16816   0.200   5.905   5.269
 5306SOL    HW116817   0.200   6.003   5.290
 5306SOL    HW216818   0.169   5.853   5.348
 5307SOL     OW16819   4.315   0.222   0.187
 5307SOL    HW116820   4.296   0.126   0.170
 5307SOL    HW216821   4.401   0.248   0.143
 5308SOL     OW16822   0.747   6.616   5.180
 5308SOL    HW116823   0.784   6.536   5.133
 5308SOL    HW216824   0.651   6.600   5.202
 5309SOL     OW16825   3.208   3.677   2.143
 5309SOL    HW116826   3.178   3.585   2.118
 5309SOL    HW216827   3.129   3.736   2.157
 5310SOL     OW16828   5.192   3.035   1.906
 5310SOL    HW116829   5.098   3.016   1.878
 5310SOL    HW216830   5.254   2.973   1.859
 5311SOL     OW16831   0.382   5.638   1.027
 5311SOL    HW116832   0.383   5.566   1.097
 5311SOL    HW216833   0.472   5.682   1.024
 5312SOL     OW16834   0.162   4.278   2.359
 5312SOL    HW116835   0.153   4.319   2.450
 5312SOL    HW216836   0.254   4.240   2.349
 5313SOL     OW16837   0.942   5.171   0.068
 5313SOL    HW116838   0.886   5.221   0.134
 5313SOL    HW216839   0.886   5.149   7.006
 5314SOL     OW16840   3.297   5.029   0.201
 5314SOL    HW116841   3.325   4.954   0.261
 5314SOL    HW216842   3.214   5.003   0.151
 5315SOL     OW16843   3.679   3.830   1.276
 5315SOL    HW116844   3.647   3.880   1.195
 5315SOL    HW216845   3.753   3.768   1.250
 5316SOL     OW16846   6.773   5.216   5.204
 5316SOL    HW116847   6.864   5.245   5.234
 5316SOL    HW216848   6.770   5.116   5.199
 5317SOL     OW16849   6.845   0.911   4.554
 5317SOL    HW116850   6.872   0.816   4.568
 5317SOL    HW216851   6.745   0.916   4.544
 5318SOL     OW16852   0.716   2.056   6.141
 5318SOL    HW116853   0.662   1.972   6.152
 5318SOL    HW216854   0.714   2.085   6.046
 5319SOL     OW16855   4.801   6.893   0.189
 5319SOL    HW116856   4.847   6.810   0.158
 5319SOL    HW216857   4.704   6.889   0.164
 5320SOL     OW16858   5.658   5.047   6.920
 5320SOL    HW116859   5.572   5.099   6.921
 5320SOL    HW216860   5.694   5.043   6.827
 5321SOL     OW16861   0.954   4.175   2.714
 5321SOL    HW116862   1.044   4.131   2.713
 5321SOL    HW216863   0.910   4.158   2.803
 5322SOL     OW16864   4.202   6.474   6.039
 5322SOL    HW116865   4.270   6.520   5.982
 5322SOL    HW216866   4.206   6.512   6.132
 5323SOL     OW16867   3.751   3.111   0.774
 5323SOL    HW116868   3.770   3.196   0.725
 5323SOL    HW216869   3.822   3.096   0.844
 5324SOL     OW16870   3.585   2.619   1.734
 5324SOL    HW116871   3.644   2.693   1.766
 5324SOL    HW216872   3.609   2.534   1.782
 5325SOL     OW16873   5.773   6.239   3.381
 5325SOL    HW116874   5.674   6.230   3.386
 5325SOL    HW216875   5.798   6.308   3.313
 5326SOL     OW16876   6.934   5.056   2.795
 5326SOL    HW116877   6.863   5.089   2.733
 5326SOL    HW216878   6.999   5.129   2.815
 5327SOL     OW16879   0.164   5.170   5.718
 5327SOL    HW116880   0.154   5.147   5.815
 5327SOL    HW216881   0.074   5.188   5.679
 5328SOL     OW16882   4.287   3.068   5.696
 5328SOL    HW116883   4.318   3.144   5.638
 5328SOL    HW216884   4.208   3.097   5.750
 5329SOL     OW16885   0.146   4.096   6.633
 5329SOL    HW116886   0.112   4.004   6.611
 5329SOL    HW216887   0.237   4.108   6.595
 5330SOL     OW16888   3.010   4.820   6.612
 5330SOL    HW116889   3.063   4.850   6.532
 5330SOL    HW216890   3.024   4.723   6.627
 5331SOL     OW16891   5.423   1.358   1.505
 5331SOL    HW116892   5.469   1.354   1.416
 5331SOL    HW216893   5.470   1.423   1.565
 5332SOL     OW16894   6.769   4.213   0.547
 5332SOL    HW116895   6.867   4.202   0.533
 5332SOL    HW216896   6.726   4.242   0.462
 5333SOL     OW16897   1.069   0.617   3.671
 5333SOL    HW116898   1.150   0.560   3.659
 5333SOL    HW216899   1.023   0.591   3.755
 5334SOL     OW16900   3.654   5.004   5.706
 5334SOL    HW116901   3.694   4.939   5.642
 5334SOL    HW216902   3.587   4.958   5.764
 5335SOL     OW16903   0.406   5.137   2.274
 5335SOL    HW116904   0.481   5.193   2.309
 5335SOL    HW216905   0.443   5.062   2.219
 5336SOL     OW16906   2.013   2.079   3.585
 5336SOL    HW116907   2.003   2.116   3.677
 5336SOL    HW216908   1.923   2.062   3.546
 5337SOL     OW16909   5.549   4.469   1.396
 5337SOL    HW116910   5.556   4.422   1.484
 5337SOL    HW216911   5.453   4.492   1.378
 5338SOL     OW16912   5.582   0.863   6.367
 5338SOL    HW116913   5.566   0.788   6.432
 5338SOL    HW216914   5.495   0.891   6.327
 5339SOL     OW16915   5.563   1.215   3.055
 5339SOL    HW116916   5.619   1.296   3.036
 5339SOL    HW216917   5.595   1.171   3.139
 5340SOL     OW16918   5.969   3.989   1.251
 5340SOL    HW116919   5.966   3.893   1.281
 5340SOL    HW216920   5.876   4.020   1.230
 5341SOL     OW16921   3.007   5.083   5.072
 5341SOL    HW116922   2.981   5.006   5.013
 5341SOL    HW216923   3.102   5.070   5.103
 5342SOL     OW16924   5.358   6.307   4.791
 5342SOL    HW116925   5.280   6.325   4.731
 5342SOL    HW216926   5.350   6.363   4.874
 5343SOL     OW16927   3.876   3.463   4.315
 5343SOL    HW116928   3.811   3.388   4.323
 5343SOL    HW216929   3.850   3.537   4.377
 5344SOL     OW16930   0.659   1.787   0.536
 5344SOL    HW116931   0.586   1.784   0.467
 5344SOL    HW216932   0.710   1.701   0.535
 5345SOL     OW16933   4.701   0.923   7.017
 5345SOL    HW116934   4.788   0.926   6.968
 5345SOL    HW216935   4.707   0.978   0.081
 5346SOL     OW16936   2.964   5.501   4.098
 5346SOL    HW116937   3.024   5.425   4.075
 5346SOL    HW216938   3.019   5.578   4.130
 5347SOL     OW16939   6.600   3.986   3.155
 5347SOL    HW116940   6.599   3.931   3.072
 5347SOL    HW216941   6.621   4.081   3.132
 5348SOL     OW16942   0.534   1.367   6.435
 5348SOL    HW116943   0.467   1.350   6.507
 5348SOL    HW216944   0.486   1.395   6.351
 5349SOL     OW16945   2.650   3.080   0.852
 5349SOL    HW116946   2.650   2.985   0.883
 5349SOL    HW216947   2.585   3.133   0.906
 5350SOL     OW16948   2.804   6.947   5.385
 5350SOL    HW116949   2.772   6.855   5.409
 5350SOL    HW216950   2.746   7.015   5.430
 5351SOL     OW16951   0.398   5.561   2.219
 5351SOL    HW116952   0.433   5.555   2.313
 5351SOL    HW216953   0.463   5.517   2.157
 5352SOL     OW16954   2.105   4.773   3.108
 5352SOL    HW116955   2.154   4.775   3.195
 5352SOL    HW216956   2.135   4.850   3.051
 5353SOL     OW16957   3.730   6.023   4.068
 5353SOL    HW116958   3.662   5.967   4.022
 5353SOL    HW216959   3.821   5.986   4.052
 5354SOL     OW16960   2.147   4.997   0.623
 5354SOL    HW116961   2.176   5.080   0.576
 5354SOL    HW216962   2.217   4.926   0.611
 5355SOL     OW16963   6.276   4.921   4.178
 5355SOL    HW116964   6.326   4.844   4.138
 5355SOL    HW216965   6.249   4.899   4.271
 5356SOL     OW16966   6.603   3.511   2.552
 5356SOL    HW116967   6.576   3.517   2.455
 5356SOL    HW216968   6.576   3.595   2.599
 5357SOL     OW16969   3.695   4.452   0.861
 5357SOL    HW116970   3.752   4.430   0.782
 5357SOL    HW216971   3.721   4.392   0.938
 5358SOL     OW16972   4.744   2.572   1.080
 5358SOL    HW116973   4.810   2.496   1.078
 5358SOL    HW216974   4.709   2.588   0.988
 5359SOL     OW16975   2.474   2.125   6.077
 5359SOL    HW116976   2.513   2.169   6.158
 5359SOL    HW216977   2.430   2.039   6.104
 5360SOL     OW16978   5.229   6.239   3.903
 5360SOL    HW116979   5.152   6.288   3.861
 5360SOL    HW216980   5.314   6.272   3.864
 5361SOL     OW16981   2.134   6.327   4.137
 5361SOL    HW116982   2.101   6.352   4.046
 5361SOL    HW216983   2.124   6.228   4.151
 5362SOL     OW16984   6.489   5.805   2.488
 5362SOL    HW116985   6.579   5.842   2.466
 5362SOL    HW216986   6.482   5.711   2.455
 5363SOL     OW16987   5.288   6.399   5.970
 5363SOL    HW116988   5.367   6.351   5.933
 5363SOL    HW216989   5.209   6.338   5.971
 5364SOL     OW16990   5.966   6.681   1.627
 5364SOL    HW116991   6.043   6.712   1.683
 5364SOL    HW216992   5.884   6.674   1.684
 5365SOL     OW16993   3.075   3.047   2.213
 5365SOL    HW116994   3.124   2.976   2.164
 5365SOL    HW216995   3.042   3.116   2.148
 5366SOL     OW16996   6.842   6.627   2.528
 5366SOL    HW116997   6.830   6.677   2.442
 5366SOL    HW216998   6.906   6.677   2.587
 5367SOL     OW16999   0.109   6.741   1.423
 5367SOL    HW117000   0.151   6.784   1.343
 5367SOL    HW217001   0.095   6.810   1.494
 5368SOL     OW17002   6.553   6.923   2.624
 5368SOL    HW117003   6.568   6.900   2.528
 5368SOL    HW217004   6.457   6.948   2.637
 5369SOL     OW17005   3.236   6.329   0.927
 5369SOL    HW117006   3.271   6.246   0.885
 5369SOL    HW217007   3.171   6.305   0.999
 5370SOL     OW17008   4.030   3.836   1.352
 5370SOL    HW117009   4.127   3.845   1.329
 5370SOL    HW217010   3.984   3.783   1.281
 5371SOL     OW17011   0.053   5.020   5.371
 5371SOL    HW117012   7.013   5.001   5.449
 5371SOL    HW217013   0.050   5.118   5.350
 5372SOL     OW17014   0.937   6.134   2.821
 5372SOL    HW117015   0.970   6.074   2.893
 5372SOL    HW217016   0.932   6.228   2.855
 5373SOL     OW17017   4.040   6.723   5.402
 5373SOL    HW117018   4.015   6.727   5.499
 5373SOL    HW217019   4.077   6.632   5.381
 5374SOL     OW17020   2.059   4.769   0.762
 5374SOL    HW117021   2.072   4.865   0.738
 5374SOL    HW217022   2.085   4.755   0.857
 5375SOL     OW17023   0.476   5.588   5.949
 5375SOL    HW117024   0.542   5.583   6.024
 5375SOL    HW217025   0.460   5.496   5.913
 5376SOL     OW17026   1.269   2.269   1.304
 5376SOL    HW117027   1.314   2.225   1.382
 5376SOL    HW217028   1.191   2.323   1.337
 5377SOL     OW17029   1.123   0.169   2.787
 5377SOL    HW117030   1.049   0.128   2.841
 5377SOL    HW217031   1.140   0.262   2.819
 5378SOL     OW17032   6.833   0.139   2.454
 5378SOL    HW117033   6.884   0.220   2.426
 5378SOL    HW217034   6.896   0.069   2.487
 5379SOL     OW17035   1.023   3.268   4.925
 5379SOL    HW117036   1.085   3.253   4.847
 5379SOL    HW217037   1.049   3.352   4.972
 5380SOL     OW17038   2.493   6.651   1.234
 5380SOL    HW117039   2.582   6.607   1.236
 5380SOL    HW217040   2.477   6.689   1.143
 5381SOL     OW17041   6.975   6.041   2.105
 5381SOL    HW117042   7.005   5.952   2.139
 5381SOL    HW217043   6.961   6.035   2.006
 5382SOL     OW17044   2.949   2.175   2.377
 5382SOL    HW117045   2.916   2.218   2.293
 5382SOL    HW217046   2.889   2.201   2.453
 5383SOL     OW17047   1.341   2.605   4.634
 5383SOL    HW117048   1.280   2.577   4.560
 5383SOL    HW217049   1.422   2.649   4.596
 5384SOL     OW17050   4.777   5.981   4.766
 5384SOL    HW117051   4.679   5.994   4.780
 5384SOL    HW217052   4.821   5.961   4.854
 5385SOL     OW17053   4.923   3.090   5.504
 5385SOL    HW117054   4.953   3.180   5.535
 5385SOL    HW217055   4.976   3.063   5.424
 5386SOL     OW17056   5.695   1.131   4.135
 5386SOL    HW117057   5.656   1.070   4.204
 5386SOL    HW217058   5.652   1.113   4.046
 5387SOL     OW17059   2.416   6.076   3.052
 5387SOL    HW117060   2.335   6.097   3.106
 5387SOL    HW217061   2.411   5.981   3.020
 5388SOL     OW17062   1.495   6.752   2.682
 5388SOL    HW117063   1.524   6.843   2.711
 5388SOL    HW217064   1.422   6.760   2.615
 5389SOL     OW17065   3.826   1.759   4.617
 5389SOL    HW117066   3.771   1.688   4.660
 5389SOL    HW217067   3.766   1.825   4.572
 5390SOL     OW17068   5.489   4.384   3.403
 5390SOL    HW117069   5.521   4.392   3.497
 5390SOL    HW217070   5.492   4.473   3.358
 5391SOL     OW17071   2.376   1.774   0.065
 5391SOL    HW117072   2.342   1.688   0.028
 5391SOL    HW217073   2.300   1.838   0.075
 5392SOL     OW17074   5.425   4.148   1.081
 5392SOL    HW117075   5.447   4.147   1.179
 5392SOL    HW217076   5.460   4.065   1.039
 5393SOL     OW17077   4.935   0.955   5.144
 5393SOL    HW117078   4.963   1.011   5.222
 5393SOL    HW217079   4.991   0.977   5.065
 5394SOL     OW17080   0.820   5.467   1.133
 5394SOL    HW117081   0.857   5.549   1.177
 5394SOL    HW217082   0.722   5.461   1.151
 5395SOL     OW17083   5.115   0.487   1.705
 5395SOL    HW117084   5.181   0.428   1.751
 5395SOL    HW217085   5.054   0.432   1.649
 5396SOL     OW17086   5.176   5.203   1.924
 5396SOL    HW117087   5.226   5.137   1.980
 5396SOL    HW217088   5.158   5.286   1.978
 5397SOL     OW17089   0.096   1.832   2.391
 5397SOL    HW117090   0.001   1.840   2.363
 5397SOL    HW217091   0.134   1.923   2.408
 5398SOL     OW17092   2.678   1.973   3.833
 5398SOL    HW117093   2.763   1.929   3.805
 5398SOL    HW217094   2.663   2.055   3.778
 5399SOL     OW17095   2.903   6.772   6.516
 5399SOL    HW117096   2.906   6.742   6.611
 5399SOL    HW217097   2.950   6.706   6.458
 5400SOL     OW17098   2.867   3.448   0.552
 5400SOL    HW117099   2.829   3.355   0.550
 5400SOL    HW217100   2.821   3.504   0.483
 5401SOL     OW17101   5.480   3.916   2.145
 5401SOL    HW117102   5.516   3.862   2.068
 5401SOL    HW217103   5.556   3.946   2.202
 5402SOL     OW17104   2.481   6.797   0.991
 5402SOL    HW117105   2.554   6.862   1.012
 5402SOL    HW217106   2.398   6.847   0.967
 5403SOL     OW17107   5.250   3.533   6.175
 5403SOL    HW117108   5.195   3.472   6.119
 5403SOL    HW217109   5.223   3.627   6.159
 5404SOL     OW17110   0.737   0.081   1.522
 5404SOL    HW117111   0.799   0.040   1.455
 5404SOL    HW217112   0.672   0.013   1.553
 5405SOL     OW17113   6.307   4.673   6.992
 5405SOL    HW117114   6.299   4.746   0.040
 5405SOL    HW217115   6.232   4.680   6.926
 5406SOL     OW17116   2.348   1.121   5.028
 5406SOL    HW117117   2.272   1.165   5.075
 5406SOL    HW217118   2.379   1.179   4.953
 5407SOL     OW17119   3.377   1.775   0.822
 5407SOL    HW117120   3.395   1.793   0.725
 5407SOL    HW217121   3.281   1.753   0.835
 5408SOL     OW17122   4.274   1.031   5.047
 5408SOL    HW117123   4.280   1.070   4.955
 5408SOL    HW217124   4.290   1.103   5.115
 5409SOL     OW17125   6.230   1.007   2.726
 5409SOL    HW117126   6.296   1.035   2.657
 5409SOL    HW217127   6.273   1.011   2.816
 5410SOL     OW17128   0.972   2.388   6.972
 5410SOL    HW117129   1.040   2.338   6.917
 5410SOL    HW217130   0.993   2.486   6.970
 5411SOL     OW17131   4.948   4.929   6.309
 5411SOL    HW117132   4.915   4.995   6.241
 5411SOL    HW217133   4.994   4.854   6.263
 5412SOL     OW17134   2.707   1.278   6.303
 5412SOL    HW117135   2.682   1.196   6.252
 5412SOL    HW217136   2.626   1.335   6.316
 5413SOL     OW17137   0.334   0.159   6.814
 5413SOL    HW117138   0.346   0.111   6.901
 5413SOL    HW217139   0.333   0.092   6.739
 5414SOL     OW17140   6.479   4.946   5.065
 5414SOL    HW117141   6.414   5.023   5.068
 5414SOL    HW217142   6.531   4.950   4.980
 5415SOL     OW17143   2.858   6.194   0.912
 5415SOL    HW117144   2.826   6.122   0.973
 5415SOL    HW217145   2.909   6.153   0.836
 5416SOL     OW17146   2.709   4.900   5.028
 5416SOL    HW117147   2.614   4.877   5.003
 5416SOL    HW217148   2.759   4.815   5.047
 5417SOL     OW17149   4.002   0.108   5.100
 5417SOL    HW117150   4.003   0.132   5.003
 5417SOL    HW217151   3.925   0.154   5.144
 5418SOL     OW17152   5.568   5.578   5.133
 5418SOL    HW117153   5.598   5.653   5.074
 5418SOL    HW217154   5.507   5.517   5.082
 5419SOL     OW17155   3.879   6.052   0.533
 5419SOL    HW117156   3.913   5.962   0.559
 5419SOL    HW217157   3.780   6.048   0.519
 5420SOL     OW17158   1.969   2.263   1.006
 5420SOL    HW117159   1.913   2.262   0.923
 5420SOL    HW217160   2.045   2.328   0.995
 5421SOL     OW17161   3.269   5.163   1.074
 5421SOL    HW117162   3.236   5.125   1.160
 5421SOL    HW217163   3.202   5.228   1.038
 5422SOL     OW17164   1.413   4.875   4.598
 5422SOL    HW117165   1.440   4.971   4.600
 5422SOL    HW217166   1.433   4.838   4.507
 5423SOL     OW17167   5.228   5.182   0.324
 5423SOL    HW117168   5.129   5.173   0.311
 5423SOL    HW217169   5.246   5.231   0.409
 5424SOL     OW17170   5.401   3.942   4.638
 5424SOL    HW117171   5.498   3.961   4.655
 5424SOL    HW217172   5.391   3.848   4.605
 5425SOL     OW17173   6.456   2.458   4.746
 5425SOL    HW117174   6.425   2.412   4.662
 5425SOL    HW217175   6.420   2.551   4.748
 5426SOL     OW17176   5.091   5.292   2.245
 5426SOL    HW117177   5.083   5.372   2.186
 5426SOL    HW217178   5.167   5.305   2.309
 5427SOL     OW17179   5.445   3.147   0.043
 5427SOL    HW117180   5.451   3.164   6.963
 5427SOL    HW217181   5.492   3.219   0.093
 5428SOL     OW17182   5.332   6.406   1.864
 5428SOL    HW117183   5.388   6.479   1.825
 5428SOL    HW217184   5.236   6.434   1.865
 5429SOL     OW17185   2.150   0.085   4.982
 5429SOL    HW117186   2.210   0.041   5.049
 5429SOL    HW217187   2.130   0.022   4.908
 5430SOL     OW17188   1.988   2.967   4.661
 5430SOL    HW117189   2.011   2.890   4.721
 5430SOL    HW217190   1.980   3.051   4.715
 5431SOL     OW17191   3.059   3.721   6.526
 5431SOL    HW117192   3.133   3.761   6.579
 5431SOL    HW217193   2.973   3.765   6.551
 5432SOL     OW17194   4.065   5.343   6.343
 5432SOL    HW117195   4.064   5.360   6.244
 5432SOL    HW217196   4.043   5.428   6.391
 5433SOL     OW17197   0.752   0.190   1.145
 5433SOL    HW117198   0.706   0.107   1.176
 5433SOL    HW217199   0.722   0.213   1.052
 5434SOL     OW17200   4.271   1.100   4.764
 5434SOL    HW117201   4.231   1.022   4.716
 5434SOL    HW217202   4.359   1.123   4.723
 5435SOL     OW17203   6.398   3.771   0.579
 5435SOL    HW117204   6.453   3.779   0.662
 5435SOL    HW217205   6.456   3.788   0.499
 5436SOL     OW17206   6.248   4.172   4.063
 5436SOL    HW117207   6.242   4.089   4.008
 5436SOL    HW217208   6.159   4.218   4.065
 5437SOL     OW17209   3.254   4.961   5.039
 5437SOL    HW117210   3.304   4.952   4.953
 5437SOL    HW217211   3.182   4.892   5.044
 5438SOL     OW17212   5.222   4.430   1.891
 5438SOL    HW117213   5.300   4.465   1.943
 5438SOL    HW217214   5.236   4.332   1.872
 5439SOL     OW17215   0.394   3.489   6.608
 5439SOL    HW117216   0.457   3.492   6.686
 5439SOL    HW217217   0.445   3.506   6.523
 5440SOL     OW17218   6.552   6.513   3.838
 5440SOL    HW117219   6.646   6.488   3.815
 5440SOL    HW217220   6.499   6.431   3.857
 5441SOL     OW17221   5.347   3.380   3.412
 5441SOL    HW117222   5.353   3.473   3.447
 5441SOL    HW217223   5.296   3.323   3.477
 5442SOL     OW17224   4.154   6.815   3.639
 5442SOL    HW117225   4.058   6.790   3.651
 5442SOL    HW217226   4.164   6.914   3.652
 5443SOL     OW17227   4.559   5.958   3.766
 5443SOL    HW117228   4.528   5.870   3.803
 5443SOL    HW217229   4.526   6.032   3.823
 5444SOL     OW17230   0.065   0.850   3.865
 5444SOL    HW117231   0.159   0.850   3.898
 5444SOL    HW217232   0.059   0.793   3.783
 5445SOL     OW17233   6.141   4.220   3.519
 5445SOL    HW117234   6.064   4.164   3.488
 5445SOL    HW217235   6.144   4.304   3.465
 5446SOL     OW17236   6.081   5.241   4.503
 5446SOL    HW117237   5.988   5.228   4.469
 5446SOL    HW217238   6.122   5.322   4.461
 5447SOL     OW17239   1.581   1.306   1.107
 5447SOL    HW117240   1.559   1.208   1.104
 5447SOL    HW217241   1.660   1.324   1.048
 5448SOL     OW17242   4.397   4.844   4.064
 5448SOL    HW117243   4.389   4.797   3.976
 5448SOL    HW217244   4.350   4.792   4.135
 5449SOL     OW17245   1.832   1.075   1.135
 5449SOL    HW117246   1.848   1.142   1.062
 5449SOL    HW217247   1.920   1.047   1.173
 5450SOL     OW17248   3.292   0.076   1.082
 5450SOL    HW117249   3.323   0.052   1.174
 5450SOL    HW217250   3.311   0.000   1.020
 5451SOL     OW17251   1.887   5.895   3.473
 5451SOL    HW117252   1.796   5.855   3.463
 5451SOL    HW217253   1.889   5.952   3.555
 5452SOL     OW17254   2.588   4.251   0.954
 5452SOL    HW117255   2.681   4.252   0.992
 5452SOL    HW217256   2.592   4.223   0.858
 5453SOL     OW17257   5.274   3.628   1.914
 5453SOL    HW117258   5.316   3.714   1.942
 5453SOL    HW217259   5.287   3.560   1.986
 5454SOL     OW17260   5.685   5.756   0.895
 5454SOL    HW117261   5.615   5.788   0.831
 5454SOL    HW217262   5.701   5.658   0.881
 5455SOL     OW17263   0.199   2.273   3.623
 5455SOL    HW117264   0.160   2.295   3.534
 5455SOL    HW217265   0.164   2.337   3.691
 5456SOL     OW17266   3.333   1.719   6.640
 5456SOL    HW117267   3.315   1.808   6.599
 5456SOL    HW217268   3.432   1.709   6.655
 5457SOL     OW17269   6.483   2.255   1.421
 5457SOL    HW117270   6.538   2.235   1.340
 5457SOL    HW217271   6.525   2.210   1.501
 5458SOL     OW17272   6.727   5.153   0.900
 5458SOL    HW117273   6.824   5.163   0.925
 5458SOL    HW217274   6.700   5.057   0.911
 5459SOL     OW17275   1.987   4.999   5.343
 5459SOL    HW117276   2.049   4.928   5.375
 5459SOL    HW217277   1.922   4.960   5.278
 5460SOL     OW17278   2.849   0.038   2.140
 5460SOL    HW117279   2.777   0.048   2.071
 5460SOL    HW217280   2.917   6.991   2.108
 5461SOL     OW17281   0.677   0.409   4.370
 5461SOL    HW117282   0.734   0.357   4.435
 5461SOL    HW217283   0.731   0.483   4.330
 5462SOL     OW17284   5.577   6.196   6.695
 5462SOL    HW117285   5.492   6.153   6.724
 5462SOL    HW217286   5.633   6.217   6.775
 5463SOL     OW17287   0.225   1.929   0.210
 5463SOL    HW117288   0.315   1.969   0.226
 5463SOL    HW217289   0.227   1.872   0.128
 5464SOL     OW17290   5.865   5.882   4.582
 5464SOL    HW117291   5.805   5.962   4.577
 5464SOL    HW217292   5.809   5.801   4.601
 5465SOL     OW17293   6.465   0.567   3.330
 5465SOL    HW117294   6.495   0.526   3.243
 5465SOL    HW217295   6.387   0.626   3.314
 5466SOL     OW17296   5.441   2.706   5.798
 5466SOL    HW117297   5.425   2.623   5.851
 5466SOL    HW217298   5.537   2.734   5.808
 5467SOL     OW17299   5.969   3.466   3.425
 5467SOL    HW117300   6.005   3.502   3.511
 5467SOL    HW217301   6.006   3.375   3.408
 5468SOL     OW17302   0.098   2.314   4.504
 5468SOL    HW117303   0.047   2.311   4.590
 5468SOL    HW217304   0.134   2.406   4.489
 5469SOL     OW17305   3.015   5.846   5.290
 5469SOL    HW117306   3.092   5.817   5.234
 5469SOL    HW217307   2.944   5.776   5.288
 5470SOL     OW17308   3.865   5.338   4.092
 5470SOL    HW117309   3.916   5.403   4.035
 5470SOL    HW217310   3.916   5.253   4.098
 5471SOL     OW17311   6.114   0.215   2.775
 5471SOL    HW117312   6.062   0.292   2.811
 5471SOL    HW217313   6.166   0.244   2.695
 5472SOL     OW17314   2.830   3.639   6.981
 5472SOL    HW117315   2.844   3.588   0.047
 5472SOL    HW217316   2.917   3.644   6.931
 5473SOL     OW17317   1.254   3.611   0.312
 5473SOL    HW117318   1.253   3.627   0.411
 5473SOL    HW217319   1.259   3.698   0.265
 5474SOL     OW17320   0.690   4.922   4.607
 5474SOL    HW117321   0.673   4.985   4.683
 5474SOL    HW217322   0.715   4.832   4.642
 5475SOL     OW17323   1.847   2.129   0.484
 5475SOL    HW117324   1.752   2.162   0.482
 5475SOL    HW217325   1.908   2.201   0.453
 5476SOL     OW17326   2.531   4.542   4.888
 5476SOL    HW117327   2.524   4.560   4.987
 5476SOL    HW217328   2.623   4.566   4.856
 5477SOL     OW17329   2.154   3.888   3.286
 5477SOL    HW117330   2.224   3.959   3.291
 5477SOL    HW217331   2.097   3.891   3.367
 5478SOL     OW17332   4.534   7.008   5.393
 5478SOL    HW117333   4.546   0.068   5.454
 5478SOL    HW217334   4.441   6.972   5.404
 5479SOL     OW17335   5.255   2.098   4.873
 5479SOL    HW117336   5.228   2.135   4.784
 5479SOL    HW217337   5.228   2.162   4.945
 5480SOL     OW17338   5.115   5.243   4.467
 5480SOL    HW117339   5.147   5.190   4.545
 5480SOL    HW217340   5.193   5.285   4.420
 5481SOL     OW17341   4.469   1.874   4.583
 5481SOL    HW117342   4.554   1.863   4.532
 5481SOL    HW217343   4.391   1.863   4.522
 5482SOL     OW17344   3.607   3.595   1.773
 5482SOL    HW117345   3.651   3.564   1.689
 5482SOL    HW217346   3.569   3.516   1.821
 5483SOL     OW17347   0.729   2.117   5.367
 5483SOL    HW117348   0.731   2.020   5.341
 5483SOL    HW217349   0.812   2.139   5.419
 5484SOL     OW17350   5.395   0.418   4.286
 5484SOL    HW117351   5.350   0.340   4.331
 5484SOL    HW217352   5.479   0.441   4.336
 5485SOL     OW17353   3.093   0.041   5.356
 5485SOL    HW117354   3.095   6.988   5.426
 5485SOL    HW217355   3.032   0.114   5.385
 5486SOL     OW17356   1.679   5.492   4.809
 5486SOL    HW117357   1.616   5.534   4.744
 5486SOL    HW217358   1.664   5.530   4.900
 5487SOL     OW17359   4.963   3.025   6.663
 5487SOL    HW117360   5.013   3.105   6.694
 5487SOL    HW217361   5.009   2.942   6.694
 5488SOL     OW17362   5.199   1.058   1.002
 5488SOL    HW117363   5.218   0.984   0.938
 5488SOL    HW217364   5.265   1.132   0.987
 5489SOL     OW17365   1.430   5.284   0.854
 5489SOL    HW117366   1.492   5.217   0.895
 5489SOL    HW217367   1.386   5.338   0.926
 5490SOL     OW17368   3.636   0.056   0.338
 5490SOL    HW117369   3.716   0.008   0.374
 5490SOL    HW217370   3.563   0.054   0.407
 5491SOL     OW17371   1.937   4.311   0.307
 5491SOL    HW117372   2.024   4.345   0.272
 5491SOL    HW217373   1.936   4.316   0.407
 5492SOL     OW17374   0.717   2.001   6.485
 5492SOL    HW117375   0.783   2.000   6.410
 5492SOL    HW217376   0.709   2.094   6.522
 5493SOL     OW17377   4.109   3.634   3.649
 5493SOL    HW117378   4.122   3.590   3.560
 5493SOL    HW217379   4.189   3.689   3.671
 5494SOL     OW17380   6.845   2.703   6.386
 5494SOL    HW117381   6.921   2.669   6.441
 5494SOL    HW217382   6.879   2.740   6.300
 5495SOL     OW17383   3.691   2.604   1.450
 5495SOL    HW117384   3.740   2.522   1.421
 5495SOL    HW217385   3.633   2.582   1.529
 5496SOL     OW17386   2.473   0.420   3.303
 5496SOL    HW117387   2.571   0.402   3.307
 5496SOL    HW217388   2.429   0.353   3.243
 5497SOL     OW17389   0.404   1.989   4.034
 5497SOL    HW117390   0.488   2.030   4.072
 5497SOL    HW217391   0.426   1.902   3.990
 5498SOL     OW17392   5.210   6.528   1.476
 5498SOL    HW117393   5.209   6.431   1.452
 5498SOL    HW217394   5.178   6.539   1.571
 5499SOL     OW17395   0.033   1.320   3.982
 5499SOL    HW117396   0.114   1.267   3.959
 5499SOL    HW217397   0.038   1.349   4.077
 5500SOL     OW17398   1.673   7.014   0.549
 5500SOL    HW117399   1.724   6.934   0.581
 5500SOL    HW217400   1.720   0.035   0.470
 5501SOL     OW17401   4.131   6.893   0.409
 5501SOL    HW117402   4.076   6.947   0.346
 5501SOL    HW217403   4.156   6.806   0.366
 5502SOL     OW17404   5.923   3.553   6.875
 5502SOL    HW117405   5.831   3.520   6.853
 5502SOL    HW217406   5.923   3.596   6.965
 5503SOL     OW17407   0.018   5.507   2.952
 5503SOL    HW117408   0.092   5.571   2.931
 5503SOL    HW217409   6.958   5.558   2.986
 5504SOL     OW17410   4.015   1.217   4.816
 5504SOL    HW117411   4.024   1.313   4.841
 5504SOL    HW217412   4.106   1.177   4.802
 5505SOL     OW17413   1.565   5.795   4.531
 5505SOL    HW117414   1.534   5.704   4.558
 5505SOL    HW217415   1.604   5.842   4.611
 5506SOL     OW17416   1.422   1.577   6.347
 5506SOL    HW117417   1.361   1.563   6.425
 5506SOL    HW217418   1.371   1.570   6.262
 5507SOL     OW17419   2.805   6.936   4.040
 5507SOL    HW117420   2.883   6.981   4.083
 5507SOL    HW217421   2.721   6.985   4.064
 5508SOL     OW17422   2.275   0.717   6.335
 5508SOL    HW117423   2.210   0.792   6.330
 5508SOL    HW217424   2.254   0.649   6.264
 5509SOL     OW17425   0.733   6.422   0.857
 5509SOL    HW117426   0.816   6.425   0.802
 5509SOL    HW217427   0.669   6.493   0.825
 5510SOL     OW17428   4.623   5.887   0.886
 5510SOL    HW117429   4.651   5.934   0.802
 5510SOL    HW217430   4.703   5.861   0.939
 5511SOL     OW17431   2.407   0.807   4.531
 5511SOL    HW117432   2.480   0.738   4.535
 5511SOL    HW217433   2.324   0.764   4.495
 5512SOL     OW17434   5.980   2.164   1.841
 5512SOL    HW117435   5.899   2.194   1.891
 5512SOL    HW217436   6.033   2.244   1.813
 5513SOL     OW17437   4.234   4.683   6.273
 5513SOL    HW117438   4.313   4.686   6.211
 5513SOL    HW217439   4.214   4.776   6.304
 5514SOL     OW17440   4.694   6.356   3.374
 5514SOL    HW117441   4.628   6.393   3.439
 5514SOL    HW217442   4.773   6.418   3.368
 5515SOL     OW17443   0.223   4.727   1.406
 5515SOL    HW117444   0.214   4.694   1.312
 5515SOL    HW217445   0.173   4.666   1.468
 5516SOL     OW17446   1.145   3.547   6.197
 5516SOL    HW117447   1.203   3.533   6.277
 5516SOL    HW217448   1.050   3.555   6.226
 5517SOL     OW17449   2.144   3.261   2.119
 5517SOL    HW117450   2.153   3.331   2.048
 5517SOL    HW217451   2.150   3.304   2.209
 5518SOL     OW17452   6.236   6.811   6.771
 5518SOL    HW117453   6.196   6.766   6.691
 5518SOL    HW217454   6.168   6.814   6.844
 5519SOL     OW17455   5.290   3.078   3.182
 5519SOL    HW117456   5.305   2.984   3.214
 5519SOL    HW217457   5.290   3.080   3.082
 5520SOL     OW17458   6.731   6.035   1.910
 5520SOL    HW117459   6.710   6.125   1.949
 5520SOL    HW217460   6.647   5.993   1.877
 5521SOL     OW17461   5.101   6.767   1.734
 5521SOL    HW117462   5.027   6.831   1.717
 5521SOL    HW217463   5.182   6.817   1.766
 5522SOL     OW17464   6.514   5.180   0.746
 5522SOL    HW117465   6.591   5.157   0.806
 5522SOL    HW217466   6.526   5.273   0.712
 5523SOL     OW17467   4.058   0.135   2.202
 5523SOL    HW117468   4.022   0.072   2.271
 5523SOL    HW217469   4.059   0.227   2.240
 5524SOL     OW17470   5.207   5.351   4.842
 5524SOL    HW117471   5.118   5.397   4.842
 5524SOL    HW217472   5.203   5.272   4.780
 5525SOL     OW17473   0.200   3.057   0.238
 5525SOL    HW117474   0.235   3.022   0.151
 5525SOL    HW217475   0.225   2.995   0.312
 5526SOL     OW17476   4.808   4.766   4.567
 5526SOL    HW117477   4.843   4.836   4.505
 5526SOL    HW217478   4.872   4.753   4.642
 5527SOL     OW17479   6.203   3.994   4.363
 5527SOL    HW117480   6.142   3.966   4.289
 5527SOL    HW217481   6.197   4.093   4.375
 5528SOL     OW17482   1.297   1.729   0.014
 5528SOL    HW117483   1.301   1.692   6.940
 5528SOL    HW217484   1.203   1.724   0.048
 5529SOL     OW17485   2.449   0.276   3.606
 5529SOL    HW117486   2.405   0.287   3.517
 5529SOL    HW217487   2.455   0.179   3.628
 5530SOL     OW17488   6.459   1.948   2.417
 5530SOL    HW117489   6.437   1.854   2.442
 5530SOL    HW217490   6.447   2.007   2.497
 5531SOL     OW17491   3.874   2.938   2.359
 5531SOL    HW117492   3.929   2.854   2.360
 5531SOL    HW217493   3.860   2.970   2.452
 5532SOL     OW17494   1.517   2.572   0.694
 5532SOL    HW117495   1.504   2.653   0.637
 5532SOL    HW217496   1.525   2.599   0.790
 5533SOL     OW17497   3.433   1.047   3.340
 5533SOL    HW117498   3.339   1.027   3.370
 5533SOL    HW217499   3.445   1.013   3.247
 5534SOL     OW17500   1.117   1.961   5.968
 5534SOL    HW117501   1.077   2.044   5.928
 5534SOL    HW217502   1.044   1.898   5.994
 5535SOL     OW17503   0.318   3.429   3.579
 5535SOL    HW117504   0.415   3.424   3.600
 5535SOL    HW217505   0.267   3.371   3.642
 5536SOL     OW17506   2.938   1.063   4.105
 5536SOL    HW117507   2.933   1.017   4.016
 5536SOL    HW217508   3.029   1.047   4.145
 5537SOL     OW17509   2.823   0.702   3.045
 5537SOL    HW117510   2.786   0.784   3.088
 5537SOL    HW217511   2.883   0.728   2.969
 5538SOL     OW17512   3.004   6.846   5.556
 5538SOL    HW117513   2.922   6.854   5.499
 5538SOL    HW217514   3.007   6.920   5.623
 5539SOL     OW17515   1.271   3.644   0.590
 5539SOL    HW117516   1.324   3.615   0.670
 5539SOL    HW217517   1.174   3.627   0.606
 5540SOL     OW17518   5.826   3.546   3.754
 5540SOL    HW117519   5.915   3.536   3.710
 5540SOL    HW217520   5.797   3.457   3.792
 5541SOL     OW17521   5.886   0.518   6.155
 5541SOL    HW117522   5.858   0.607   6.120
 5541SOL    HW217523   5.903   0.455   6.079
 5542SOL     OW17524   6.093   5.175   6.283
 5542SOL    HW117525   6.134   5.263   6.307
 5542SOL    HW217526   5.995   5.186   6.268
 5543SOL     OW17527   3.355   5.399   5.941
 5543SOL    HW117528   3.278   5.387   5.878
 5543SOL    HW217529   3.417   5.321   5.932
 5544SOL     OW17530   5.647   6.376   6.183
 5544SOL    HW117531   5.705   6.324   6.245
 5544SOL    HW217532   5.696   6.392   6.097
 5545SOL     OW17533   4.189   1.826   2.562
 5545SOL    HW117534   4.273   1.815   2.510
 5545SOL    HW217535   4.156   1.920   2.553
 5546SOL     OW17536   0.427   6.272   4.592
 5546SOL    HW117537   0.444   6.176   4.616
 5546SOL    HW217538   0.399   6.322   4.674
 5547SOL     OW17539   3.632   0.158   4.884
 5547SOL    HW117540   3.720   0.123   4.914
 5547SOL    HW217541   3.603   0.232   4.945
 5548SOL     OW17542   5.663   3.222   5.813
 5548SOL    HW117543   5.728   3.283   5.768
 5548SOL    HW217544   5.578   3.271   5.831
 5549SOL     OW17545   4.730   4.089   0.866
 5549SOL    HW117546   4.734   3.990   0.847
 5549SOL    HW217547   4.811   4.117   0.915
 5550SOL     OW17548   2.152   4.332   2.100
 5550SOL    HW117549   2.075   4.381   2.060
 5550SOL    HW217550   2.190   4.268   2.033
 5551SOL     OW17551   1.960   6.530   3.190
 5551SOL    HW117552   1.869   6.532   3.233
 5551SOL    HW217553   1.950   6.539   3.091
 5552SOL     OW17554   6.699   0.140   7.002
 5552SOL    HW117555   6.680   0.140   0.081
 5552SOL    HW217556   6.647   0.214   6.959
 5553SOL     OW17557   5.192   6.334   6.777
 5553SOL    HW117558   5.184   6.244   6.820
 5553SOL    HW217559   5.289   6.354   6.761
 5554SOL     OW17560   4.767   1.566   5.474
 5554SOL    HW117561   4.789   1.545   5.569
 5554SOL    HW217562   4.793   1.661   5.454
 5555SOL     OW17563   2.072   4.337   3.903
 5555SOL    HW117564   2.007   4.260   3.910
 5555SOL    HW217565   2.057   4.386   3.818
 5556SOL     OW17566   0.067   1.231   3.464
 5556SOL    HW117567   0.154   1.185   3.478
 5556SOL    HW217568   0.077   1.329   3.482
 5557SOL     OW17569   3.454   6.731   2.832
 5557SOL    HW117570   3.425   6.825   2.812
 5557SOL    HW217571   3.538   6.711   2.782
 5558SOL     OW17572   4.986   3.616   5.923
 5558SOL    HW117573   5.048   3.546   5.958
 5558SOL    HW217574   4.922   3.575   5.858
 5559SOL     OW17575   1.988   0.434   2.058
 5559SOL    HW117576   1.999   0.522   2.106
 5559SOL    HW217577   1.966   0.362   2.124
 5560SOL     OW17578   1.426   6.281   2.961
 5560SOL    HW117579   1.377   6.245   2.882
 5560SOL    HW217580   1.516   6.315   2.931
 5561SOL     OW17581   1.263   1.983   4.269
 5561SOL    HW117582   1.288   1.892   4.237
 5561SOL    HW217583   1.317   2.007   4.350
 5562SOL     OW17584   3.376   2.277   6.689
 5562SOL    HW117585   3.323   2.205   6.644
 5562SOL    HW217586   3.352   2.281   6.786
 5563SOL     OW17587   4.448   5.775   2.707
 5563SOL    HW117588   4.512   5.702   2.730
 5563SOL    HW217589   4.382   5.787   2.781
 5564SOL     OW17590   4.244   0.850   1.880
 5564SOL    HW117591   4.276   0.756   1.868
 5564SOL    HW217592   4.158   0.849   1.930
 5565SOL     OW17593   4.636   1.815   6.033
 5565SOL    HW117594   4.717   1.854   6.077
 5565SOL    HW217595   4.643   1.826   5.934
 5566SOL     OW17596   1.870   5.304   6.948
 5566SOL    HW117597   1.899   5.217   6.906
 5566SOL    HW217598   1.933   5.327   0.003
 5567SOL     OW17599   0.157   3.298   1.699
 5567SOL    HW117600   0.091   3.241   1.651
 5567SOL    HW217601   0.137   3.395   1.680
 5568SOL     OW17602   4.153   1.634   3.747
 5568SOL    HW117603   4.179   1.727   3.719
 5568SOL    HW217604   4.233   1.575   3.745
 5569SOL     OW17605   1.527   1.692   2.273
 5569SOL    HW117606   1.508   1.594   2.275
 5569SOL    HW217607   1.543   1.725   2.367
 5570SOL     OW17608   6.401   4.558   4.561
 5570SOL    HW117609   6.305   4.565   4.588
 5570SOL    HW217610   6.419   4.467   4.525
 5571SOL     OW17611   0.090   5.436   0.798
 5571SOL    HW117612   0.040   5.460   0.881
 5571SOL    HW217613   0.188   5.443   0.815
 5572SOL     OW17614   1.235   2.091   5.048
 5572SOL    HW117615   1.249   1.993   5.061
 5572SOL    HW217616   1.294   2.124   4.975
 5573SOL     OW17617   2.026   4.285   6.223
 5573SOL    HW117618   2.044   4.383   6.221
 5573SOL    HW217619   2.004   4.253   6.131
 5574SOL     OW17620   6.416   1.346   2.772
 5574SOL    HW117621   6.411   1.308   2.865
 5574SOL    HW217622   6.372   1.282   2.708
 5575SOL     OW17623   6.593   1.416   1.247
 5575SOL    HW117624   6.560   1.450   1.159
 5575SOL    HW217625   6.517   1.410   1.312
 5576SOL     OW17626   1.437   5.459   2.230
 5576SOL    HW117627   1.405   5.382   2.175
 5576SOL    HW217628   1.423   5.544   2.178
 5577SOL     OW17629   2.581   2.689   5.401
 5577SOL    HW117630   2.664   2.743   5.414
 5577SOL    HW217631   2.603   2.592   5.409
 5578SOL     OW17632   3.869   3.959   6.989
 5578SOL    HW117633   3.799   3.902   6.944
 5578SOL    HW217634   3.828   4.006   0.048
 5579SOL     OW17635   0.774   3.374   5.869
 5579SOL    HW117636   0.694   3.422   5.905
 5579SOL    HW217637   0.745   3.296   5.814
 5580SOL     OW17638   5.404   2.804   6.129
 5580SOL    HW117639   5.316   2.848   6.110
 5580SOL    HW217640   5.477   2.856   6.084
 5581SOL     OW17641   2.783   0.718   1.878
 5581SOL    HW117642   2.783   0.682   1.785
 5581SOL    HW217643   2.854   0.674   1.932
 5582SOL     OW17644   3.476   3.378   4.389
 5582SOL    HW117645   3.542   3.313   4.353
 5582SOL    HW217646   3.498   3.470   4.357
 5583SOL     OW17647   4.181   0.825   2.753
 5583SOL    HW117648   4.120   0.889   2.799
 5583SOL    HW217649   4.252   0.795   2.818
 5584SOL     OW17650   5.804   4.343   3.603
 5584SOL    HW117651   5.753   4.325   3.687
 5584SOL    HW217652   5.868   4.268   3.586
 5585SOL     OW17653   4.997   6.537   4.242
 5585SOL    HW117654   4.986   6.449   4.288
 5585SOL    HW217655   5.066   6.592   4.288
 5586SOL     OW17656   0.289   2.231   0.061
 5586SOL    HW117657   0.331   2.200   6.995
 5586SOL    HW217658   0.355   2.283   0.115
 5587SOL     OW17659   3.767   6.071   2.446
 5587SOL    HW117660   3.741   5.982   2.484
 5587SOL    HW217661   3.860   6.093   2.474
 5588SOL     OW17662   1.804   6.870   2.767
 5588SOL    HW117663   1.715   6.913   2.776
 5588SOL    HW217664   1.848   6.862   2.857
 5589SOL     OW17665   6.056   3.671   5.496
 5589SOL    HW117666   5.958   3.690   5.496
 5589SOL    HW217667   6.089   3.662   5.590
 5590SOL     OW17668   6.565   5.120   3.482
 5590SOL    HW117669   6.597   5.127   3.388
 5590SOL    HW217670   6.644   5.120   3.544
 5591SOL     OW17671   5.984   1.166   6.812
 5591SOL    HW117672   6.067   1.221   6.804
 5591SOL    HW217673   5.920   1.210   6.875
 5592SOL     OW17674   0.198   4.493   2.864
 5592SOL    HW117675   0.166   4.431   2.936
 5592SOL    HW217676   0.216   4.440   2.781
 5593SOL     OW17677   0.263   2.526   5.736
 5593SOL    HW117678   0.313   2.439   5.731
 5593SOL    HW217679   0.172   2.510   5.772
 5594SOL     OW17680   3.508   1.100   6.426
 5594SOL    HW117681   3.604   1.126   6.416
 5594SOL    HW217682   3.490   1.075   6.521
 5595SOL     OW17683   6.375   0.365   5.185
 5595SOL    HW117684   6.471   0.390   5.175
 5595SOL    HW217685   6.336   0.344   5.096
 5596SOL     OW17686   4.780   0.225   2.951
 5596SOL    HW117687   4.793   0.222   2.852
 5596SOL    HW217688   4.869   0.233   2.997
 5597SOL     OW17689   6.388   1.808   5.516
 5597SOL    HW117690   6.309   1.779   5.570
 5597SOL    HW217691   6.356   1.854   5.433
 5598SOL     OW17692   6.474   3.106   4.173
 5598SOL    HW117693   6.489   3.169   4.250
 5598SOL    HW217694   6.435   3.021   4.207
 5599SOL     OW17695   0.584   2.335   2.026
 5599SOL    HW117696   0.562   2.262   1.961
 5599SOL    HW217697   0.549   2.422   1.992
 5600SOL     OW17698   2.578   0.184   2.684
 5600SOL    HW117699   2.568   0.280   2.659
 5600SOL    HW217700   2.547   0.127   2.608
 5601SOL     OW17701   2.917   1.133   6.408
 5601SOL    HW117702   2.850   1.194   6.366
 5601SOL    HW217703   2.891   1.117   6.504
 5602SOL     OW17704   0.763   0.191   1.861
 5602SOL    HW117705   0.732   0.286   1.863
 5602SOL    HW217706   0.773   0.161   1.766
 5603SOL     OW17707   5.536   2.042   6.978
 5603SOL    HW117708   5.470   2.099   0.008
 5603SOL    HW217709   5.506   1.947   6.980
 5604SOL     OW17710   0.017   2.153   5.334
 5604SOL    HW117711   6.989   2.114   5.414
 5604SOL    HW217712   0.106   2.108   5.323
 5605SOL     OW17713   1.378   0.610   4.747
 5605SOL    HW117714   1.457   0.665   4.775
 5605SOL    HW217715   1.385   0.588   4.650
 5606SOL     OW17716   6.063   0.797   0.869
 5606SOL    HW117717   6.125   0.872   0.845
 5606SOL    HW217718   5.985   0.798   0.805
 5607SOL     OW17719   5.768   1.379   4.143
 5607SOL    HW117720   5.761   1.415   4.236
 5607SOL    HW217721   5.746   1.281   4.144
 5608SOL     OW17722   6.144   0.989   3.296
 5608SOL    HW117723   6.109   1.064   3.351
 5608SOL    HW217724   6.096   0.987   3.208
 5609SOL     OW17725   4.451   5.847   2.014
 5609SOL    HW117726   4.465   5.800   1.927
 5609SOL    HW217727   4.353   5.855   2.031
 5610SOL     OW17728   5.107   4.200   1.239
 5610SOL    HW117729   5.093   4.232   1.332
 5610SOL    HW217730   5.125   4.278   1.179
 5611SOL     OW17731   0.977   4.845   2.970
 5611SOL    HW117732   0.975   4.866   3.068
 5611SOL    HW217733   0.888   4.809   2.942
 5612SOL     OW17734   4.451   3.260   0.084
 5612SOL    HW117735   4.431   3.173   0.038
 5612SOL    HW217736   4.412   3.258   0.176
 5613SOL     OW17737   5.258   5.572   5.361
 5613SOL    HW117738   5.270   5.627   5.443
 5613SOL    HW217739   5.259   5.475   5.385
 5614SOL     OW17740   5.253   3.461   5.041
 5614SOL    HW117741   5.173   3.457   5.101
 5614SOL    HW217742   5.292   3.552   5.044
 5615SOL     OW17743   6.911   1.608   4.065
 5615SOL    HW117744   6.966   1.651   3.993
 5615SOL    HW217745   6.821   1.587   4.029
 5616SOL     OW17746   2.042   2.751   4.818
 5616SOL    HW117747   2.141   2.768   4.822
 5616SOL    HW217748   2.026   2.655   4.797
 5617SOL     OW17749   1.686   4.631   5.155
 5617SOL    HW117750   1.603   4.613   5.207
 5617SOL    HW217751   1.678   4.589   5.064
 5618SOL     OW17752   6.786   5.089   3.631
 5618SOL    HW117753   6.798   5.008   3.689
 5618SOL    HW217754   6.865   5.098   3.571
 5619SOL     OW17755   3.369   3.577   3.855
 5619SOL    HW117756   3.372   3.669   3.893
 5619SOL    HW217757   3.433   3.518   3.904
 5620SOL     OW17758   4.159   3.793   0.143
 5620SOL    HW117759   4.101   3.838   0.075
 5620SOL    HW217760   4.247   3.771   0.102
 5621SOL     OW17761   1.396   3.017   0.159
 5621SOL    HW117762   1.489   3.003   0.126
 5621SOL    HW217763   1.342   3.064   0.089
 5622SOL     OW17764   4.868   0.310   5.765
 5622SOL    HW117765   4.914   0.305   5.854
 5622SOL    HW217766   4.807   0.232   5.754
 5623SOL     OW17767   4.625   6.572   4.863
 5623SOL    HW117768   4.721   6.560   4.891
 5623SOL    HW217769   4.620   6.575   4.763
 5624SOL     OW17770   0.523   4.346   4.087
 5624SOL    HW117771   0.595   4.403   4.128
 5624SOL    HW217772   0.551   4.250   4.089
 5625SOL     OW17773   0.228   6.734   5.679
 5625SOL    HW117774   0.251   6.641   5.653
 5625SOL    HW217775   0.130   6.740   5.699
 5626SOL     OW17776   2.567   5.363   3.893
 5626SOL    HW117777   2.642   5.300   3.872
 5626SOL    HW217778   2.528   5.339   3.982
 5627SOL     OW17779   0.328   5.199   6.446
 5627SOL    HW117780   0.324   5.116   6.501
 5627SOL    HW217781   0.401   5.258   6.480
 5628SOL     OW17782   1.842   3.044   1.699
 5628SOL    HW117783   1.749   3.069   1.673
 5628SOL    HW217784   1.854   2.945   1.688
 5629SOL     OW17785   4.771   3.234   1.712
 5629SOL    HW117786   4.743   3.251   1.618
 5629SOL    HW217787   4.694   3.196   1.764
 5630SOL     OW17788   1.618   4.536   6.976
 5630SOL    HW117789   1.592   4.541   0.054
 5630SOL    HW217790   1.552   4.586   6.921
 5631SOL     OW17791   4.496   1.775   1.797
 5631SOL    HW117792   4.542   1.714   1.862
 5631SOL    HW217793   4.442   1.843   1.847
 5632SOL     OW17794   3.064   2.224   5.343
 5632SOL    HW117795   3.025   2.283   5.413
 5632SOL    HW217796   3.110   2.280   5.274
 5633SOL     OW17797   6.106   4.980   4.462
 5633SOL    HW117798   6.091   5.075   4.488
 5633SOL    HW217799   6.021   4.929   4.474
 5634SOL     OW17800   2.148   4.956   4.767
 5634SOL    HW117801   2.146   4.962   4.867
 5634SOL    HW217802   2.145   4.860   4.739
 5635SOL     OW17803   1.466   6.415   6.694
 5635SOL    HW117804   1.420   6.503   6.696
 5635SOL    HW217805   1.500   6.397   6.601
 5636SOL     OW17806   6.319   6.790   5.059
 5636SOL    HW117807   6.286   6.762   4.968
 5636SOL    HW217808   6.295   6.719   5.126
 5637SOL     OW17809   3.989   6.321   3.564
 5637SOL    HW117810   3.998   6.238   3.620
 5637SOL    HW217811   4.033   6.397   3.612
 5638SOL     OW17812   6.499   3.929   1.310
 5638SOL    HW117813   6.566   3.947   1.239
 5638SOL    HW217814   6.503   3.833   1.337
 5639SOL     OW17815   2.676   0.380   2.447
 5639SOL    HW117816   2.655   0.417   2.357
 5639SOL    HW217817   2.732   0.447   2.498
 5640SOL     OW17818   3.711   0.953   2.283
 5640SOL    HW117819   3.778   1.025   2.304
 5640SOL    HW217820   3.629   0.994   2.245
 5641SOL     OW17821   1.011   4.528   5.573
 5641SOL    HW117822   0.992   4.592   5.499
 5641SOL    HW217823   0.983   4.569   5.660
 5642SOL     OW17824   0.419   5.828   5.113
 5642SOL    HW117825   0.357   5.843   5.190
 5642SOL    HW217826   0.498   5.888   5.122
 5643SOL     OW17827   3.680   0.975   4.336
 5643SOL    HW117828   3.779   0.984   4.340
 5643SOL    HW217829   3.638   1.044   4.395
 5644SOL     OW17830   3.820   6.705   4.493
 5644SOL    HW117831   3.852   6.730   4.584
 5644SOL    HW217832   3.839   6.608   4.477
 5645SOL     OW17833   5.636   4.650   2.861
 5645SOL    HW117834   5.629   4.597   2.946
 5645SOL    HW217835   5.731   4.675   2.844
 5646SOL     OW17836   1.021   5.619   3.214
 5646SOL    HW117837   0.939   5.568   3.189
 5646SOL    HW217838   1.039   5.690   3.146
 5647SOL     OW17839   5.237   0.231   0.645
 5647SOL    HW117840   5.287   0.288   0.580
 5647SOL    HW217841   5.214   0.144   0.602
 5648SOL     OW17842   1.731   0.114   3.708
 5648SOL    HW117843   1.794   0.103   3.784
 5648SOL    HW217844   1.711   0.024   3.668
 5649SOL     OW17845   0.134   0.330   5.081
 5649SOL    HW117846   0.218   0.367   5.042
 5649SOL    HW217847   0.086   0.401   5.132
 5650SOL     OW17848   1.496   5.370   0.610
 5650SOL    HW117849   1.487   5.470   0.609
 5650SOL    HW217850   1.462   5.334   0.696
 5651SOL     OW17851   0.852   1.120   1.625
 5651SOL    HW117852   0.757   1.122   1.592
 5651SOL    HW217853   0.911   1.168   1.560
 5652SOL     OW17854   6.663   0.117   2.213
 5652SOL    HW117855   6.587   0.178   2.232
 5652SOL    HW217856   6.735   0.130   2.282
 5653SOL     OW17857   0.556   6.290   6.630
 5653SOL    HW117858   0.636   6.258   6.681
 5653SOL    HW217859   0.547   6.235   6.546
 5654SOL     OW17860   6.664   0.274   5.532
 5654SOL    HW117861   6.606   0.326   5.469
 5654SOL    HW217862   6.755   0.316   5.537
 5655SOL     OW17863   1.447   3.579   4.656
 5655SOL    HW117864   1.348   3.586   4.672
 5655SOL    HW217865   1.495   3.584   4.744
 5656SOL     OW17866   0.212   3.703   0.018
 5656SOL    HW117867   0.301   3.718   6.995
 5656SOL    HW217868   0.140   3.733   6.974
 5657SOL     OW17869   5.720   1.559   0.261
 5657SOL    HW117870   5.810   1.536   0.224
 5657SOL    HW217871   5.659   1.481   0.251
 5658SOL     OW17872   3.645   4.428   6.042
 5658SOL    HW117873   3.663   4.337   6.003
 5658SOL    HW217874   3.579   4.419   6.117
 5659SOL     OW17875   3.712   3.247   4.276
 5659SOL    HW117876   3.646   3.209   4.211
 5659SOL    HW217877   3.775   3.175   4.305
 5660SOL     OW17878   5.835   0.847   0.672
 5660SOL    HW117879   5.837   0.748   0.655
 5660SOL    HW217880   5.740   0.878   0.678
 5661SOL     OW17881   1.314   4.936   5.293
 5661SOL    HW117882   1.247   5.009   5.308
 5661SOL    HW217883   1.405   4.975   5.280
 5662SOL     OW17884   2.706   5.656   3.158
 5662SOL    HW117885   2.786   5.676   3.215
 5662SOL    HW217886   2.623   5.674   3.210
 5663SOL     OW17887   2.214   3.233   0.627
 5663SOL    HW117888   2.138   3.280   0.670
 5663SOL    HW217889   2.179   3.169   0.558
 5664SOL     OW17890   6.561   4.105   4.698
 5664SOL    HW117891   6.503   4.075   4.774
 5664SOL    HW217892   6.575   4.028   4.636
 5665SOL     OW17893   1.575   1.139   0.302
 5665SOL    HW117894   1.525   1.213   0.348
 5665SOL    HW217895   1.656   1.177   0.258
 5666SOL     OW17896   5.915   6.150   1.965
 5666SOL    HW117897   5.886   6.068   1.915
 5666SOL    HW217898   5.928   6.128   2.061
 5667SOL     OW17899   1.195   4.991   4.690
 5667SOL    HW117900   1.117   5.020   4.635
 5667SOL    HW217901   1.258   4.938   4.633
 5668SOL     OW17902   5.573   2.185   4.573
 5668SOL    HW117903   5.518   2.252   4.524
 5668SOL    HW217904   5.578   2.210   4.670
 5669SOL     OW17905   0.120   3.267   6.472
 5669SOL    HW117906   0.170   3.272   6.386
 5669SOL    HW217907   0.177   3.223   6.542
 5670SOL     OW17908   6.689   2.600   3.365
 5670SOL    HW117909   6.757   2.576   3.434
 5670SOL    HW217910   6.727   2.668   3.302
 5671SOL     OW17911   7.005   6.418   0.289
 5671SOL    HW117912   0.040   6.410   0.205
 5671SOL    HW217913   0.027   6.362   0.360
 5672SOL     OW17914   3.452   4.669   6.345
 5672SOL    HW117915   3.485   4.588   6.298
 5672SOL    HW217916   3.530   4.724   6.376
 5673SOL     OW17917   0.645   0.105   2.365
 5673SOL    HW117918   0.690   0.100   2.276
 5673SOL    HW217919   0.708   0.074   2.436
 5674SOL     OW17920   0.191   5.012   4.869
 5674SOL    HW117921   0.243   4.929   4.850
 5674SOL    HW217922   0.093   4.989   4.874
 5675SOL     OW17923   4.005   2.149   5.873
 5675SOL    HW117924   3.988   2.200   5.789
 5675SOL    HW217925   4.076   2.081   5.857
 5676SOL     OW17926   1.712   2.732   1.965
 5676SOL    HW117927   1.811   2.723   1.959
 5676SOL    HW217928   1.688   2.819   2.008
 5677SOL     OW17929   0.393   1.192   1.239
 5677SOL    HW117930   0.413   1.285   1.208
 5677SOL    HW217931   0.368   1.135   1.161
 5678SOL     OW17932   4.041   6.338   2.758
 5678SOL    HW117933   4.140   6.328   2.748
 5678SOL    HW217934   4.019   6.434   2.773
 5679SOL     OW17935   1.040   1.301   3.777
 5679SOL    HW117936   0.994   1.368   3.717
 5679SOL    HW217937   0.990   1.294   3.863
 5680SOL     OW17938   1.161   4.960   6.337
 5680SOL    HW117939   1.142   4.887   6.403
 5680SOL    HW217940   1.081   5.019   6.328
 5681SOL     OW17941   0.076   4.669   0.619
 5681SOL    HW117942   0.070   4.755   0.568
 5681SOL    HW217943   7.005   4.627   0.624
 5682SOL     OW17944   2.183   4.524   5.717
 5682SOL    HW117945   2.171   4.494   5.623
 5682SOL    HW217946   2.216   4.619   5.719
 5683SOL     OW17947   3.933   0.702   6.090
 5683SOL    HW117948   3.856   0.762   6.111
 5683SOL    HW217949   3.905   0.633   6.023
 5684SOL     OW17950   2.461   3.211   5.979
 5684SOL    HW117951   2.521   3.287   6.007
 5684SOL    HW217952   2.378   3.248   5.938
 5685SOL     OW17953   1.688   3.011   2.314
 5685SOL    HW117954   1.654   3.044   2.225
 5685SOL    HW217955   1.620   2.949   2.354
 5686SOL     OW17956   3.353   1.388   5.782
 5686SOL    HW117957   3.373   1.422   5.874
 5686SOL    HW217958   3.274   1.327   5.785
 5687SOL     OW17959   0.648   4.838   6.298
 5687SOL    HW117960   0.563   4.806   6.339
 5687SOL    HW217961   0.637   4.935   6.273
 5688SOL     OW17962   0.479   2.428   0.937
 5688SOL    HW117963   0.538   2.505   0.965
 5688SOL    HW217964   0.471   2.363   1.013
 5689SOL     OW17965   4.001   1.388   0.697
 5689SOL    HW117966   4.036   1.480   0.716
 5689SOL    HW217967   3.913   1.375   0.743
 5690SOL     OW17968   2.373   6.192   0.525
 5690SOL    HW117969   2.283   6.155   0.547
 5690SOL    HW217970   2.365   6.290   0.507
 5691SOL     OW17971   2.985   0.573   2.025
 5691SOL    HW117972   3.040   0.508   1.971
 5691SOL    HW217973   3.042   0.652   2.049
 5692SOL     OW17974   6.067   3.369   0.608
 5692SOL    HW117975   6.023   3.435   0.669
 5692SOL    HW217976   6.157   3.403   0.582
 5693SOL     OW17977   5.782   2.126   2.284
 5693SOL    HW117978   5.821   2.215   2.259
 5693SOL    HW217979   5.856   2.060   2.297
 5694SOL     OW17980   0.964   1.703   3.393
 5694SOL    HW117981   1.046   1.646   3.392
 5694SOL    HW217982   0.934   1.721   3.299
 5695SOL     OW17983   1.317   2.834   3.120
 5695SOL    HW117984   1.337   2.899   3.194
 5695SOL    HW217985   1.403   2.805   3.078
 5696SOL     OW17986   1.063   1.265   2.934
 5696SOL    HW117987   1.095   1.237   3.025
 5696SOL    HW217988   1.105   1.207   2.864
 5697SOL     OW17989   6.103   2.395   1.793
 5697SOL    HW117990   6.062   2.462   1.730
 5697SOL    HW217991   6.151   2.443   1.866
 5698SOL     OW17992   0.792   3.556   3.765
 5698SOL    HW117993   0.887   3.578   3.744
 5698SOL    HW217994   0.784   3.458   3.783
 5699SOL     OW17995   0.596   2.135   3.222
 5699SOL    HW117996   0.642   2.211   3.176
 5699SOL    HW217997   0.534   2.171   3.292
 5700SOL     OW17998   0.153   6.882   3.559
 5700SOL    HW117999   0.090   6.830   3.502
 5700SOL    HW218000   0.205   6.819   3.618
 5701SOL     OW18001   1.288   0.808   2.275
 5701SOL    HW118002   1.377   0.772   2.246
 5701SOL    HW218003   1.289   0.824   2.374
 5702SOL     OW18004   3.007   6.333   4.986
 5702SOL    HW118005   2.952   6.329   5.069
 5702SOL    HW218006   2.986   6.255   4.928
 5703SOL     OW18007   6.839   4.550   1.486
 5703SOL    HW118008   6.936   4.548   1.512
 5703SOL    HW218009   6.832   4.574   1.389
 5704SOL     OW18010   4.864   4.410   2.308
 5704SOL    HW118011   4.956   4.419   2.271
 5704SOL    HW218012   4.814   4.496   2.294
 5705SOL     OW18013   4.968   0.960   0.585
 5705SOL    HW118014   4.919   0.934   0.502
 5705SOL    HW218015   5.065   0.975   0.564
 5706SOL     OW18016   6.648   3.847   0.713
 5706SOL    HW118017   6.721   3.851   0.645
 5706SOL    HW218018   6.595   3.932   0.710
 5707SOL     OW18019   0.199   6.508   0.649
 5707SOL    HW118020   0.175   6.428   0.593
 5707SOL    HW218021   0.240   6.578   0.591
 5708SOL     OW18022   5.202   5.905   1.780
 5708SOL    HW118023   5.232   5.859   1.696
 5708SOL    HW218024   5.192   6.003   1.762
 5709SOL     OW18025   1.301   0.284   2.580
 5709SOL    HW118026   1.240   0.232   2.640
 5709SOL    HW218027   1.396   0.258   2.600
 5710SOL     OW18028   2.853   3.190   0.511
 5710SOL    HW118029   2.895   3.140   0.587
 5710SOL    HW218030   2.911   3.185   0.430
 5711SOL     OW18031   5.026   1.328   2.546
 5711SOL    HW118032   5.056   1.416   2.509
 5711SOL    HW218033   4.927   1.331   2.562
 5712SOL     OW18034   0.131   6.427   6.766
 5712SOL    HW118035   0.153   6.338   6.726
 5712SOL    HW218036   0.042   6.457   6.732
 5713SOL     OW18037   3.076   2.735   1.490
 5713SOL    HW118038   3.061   2.657   1.550
 5713SOL    HW218039   3.054   2.819   1.539
 5714SOL     OW18040   0.106   5.613   0.051
 5714SOL    HW118041   0.010   5.612   0.024
 5714SOL    HW218042   0.158   5.549   7.013
 5715SOL     OW18043   0.877   6.977   3.415
 5715SOL    HW118044   0.943   7.016   3.479
 5715SOL    HW218045   0.925   6.933   3.339
 5716SOL     OW18046   1.271   3.830   0.129
 5716SOL    HW118047   1.182   3.865   0.102
 5716SOL    HW218048   1.342   3.871   0.071
 5717SOL     OW18049   2.465   5.426   0.733
 5717SOL    HW118050   2.372   5.426   0.769
 5717SOL    HW218051   2.481   5.510   0.682
 5718SOL     OW18052   0.172   2.709   5.456
 5718SOL    HW118053   0.226   2.723   5.540
 5718SOL    HW218054   0.163   2.611   5.439
 5719SOL     OW18055   2.530   2.003   6.611
 5719SOL    HW118056   2.532   2.013   6.511
 5719SOL    HW218057   2.621   1.974   6.643
 5720SOL     OW18058   1.746   5.225   4.803
 5720SOL    HW118059   1.727   5.323   4.791
 5720SOL    HW218060   1.840   5.214   4.834
 5721SOL     OW18061   0.149   3.672   1.271
 5721SOL    HW118062   0.062   3.663   1.223
 5721SOL    HW218063   0.133   3.671   1.369
 5722SOL     OW18064   6.564   1.453   5.235
 5722SOL    HW118065   6.553   1.417   5.142
 5722SOL    HW218066   6.522   1.390   5.301
 5723SOL     OW18067   4.438   3.507   0.660
 5723SOL    HW118068   4.406   3.539   0.570
 5723SOL    HW218069   4.467   3.412   0.653
 5724SOL     OW18070   5.677   3.219   4.918
 5724SOL    HW118071   5.675   3.150   4.846
 5724SOL    HW218072   5.635   3.303   4.884
 5725SOL     OW18073   4.949   5.053   3.851
 5725SOL    HW118074   4.948   5.135   3.908
 5725SOL    HW218075   4.906   4.977   3.900
 5726SOL     OW18076   0.371   4.830   4.836
 5726SOL    HW118077   0.381   4.768   4.914
 5726SOL    HW218078   0.433   4.801   4.763
 5727SOL     OW18079   6.655   1.519   4.011
 5727SOL    HW118080   6.659   1.431   4.059
 5727SOL    HW218081   6.610   1.507   3.922
 5728SOL     OW18082   3.978   0.671   6.668
 5728SOL    HW118083   3.944   0.756   6.627
 5728SOL    HW218084   3.947   0.593   6.615
 5729SOL     OW18085   1.100   1.154   0.660
 5729SOL    HW118086   1.071   1.147   0.755
 5729SOL    HW218087   1.151   1.240   0.647
 5730SOL     OW18088   4.809   5.127   6.158
 5730SOL    HW118089   4.710   5.138   6.150
 5730SOL    HW218090   4.852   5.142   6.069
 5731SOL     OW18091   0.484   6.963   3.688
 5731SOL    HW118092   0.419   7.018   3.636
 5731SOL    HW218093   0.496   7.003   3.779
 5732SOL     OW18094   6.588   5.403   4.233
 5732SOL    HW118095   6.493   5.431   4.215
 5732SOL    HW218096   6.589   5.340   4.311
 5733SOL     OW18097   3.830   6.678   5.206
 5733SOL    HW118098   3.828   6.745   5.133
 5733SOL    HW218099   3.915   6.686   5.258
 5734SOL     OW18100   1.329   6.766   5.521
 5734SOL    HW118101   1.320   6.766   5.421
 5734SOL    HW218102   1.286   6.848   5.558
 5735SOL     OW18103   4.073   2.214   2.072
 5735SOL    HW118104   4.042   2.169   1.988
 5735SOL    HW218105   4.024   2.176   2.150
 5736SOL     OW18106   6.176   4.474   0.291
 5736SOL    HW118107   6.254   4.528   0.322
 5736SOL    HW218108   6.108   4.469   0.364
 5737SOL     OW18109   5.132   6.456   0.805
 5737SOL    HW118110   5.224   6.437   0.839
 5737SOL    HW218111   5.077   6.496   0.879
 5738SOL     OW18112   2.747   3.370   6.069
 5738SOL    HW118113   2.744   3.369   5.969
 5738SOL    HW218114   2.737   3.464   6.102
 5739SOL     OW18115   1.240   0.665   5.274
 5739SOL    HW118116   1.215   0.741   5.215
 5739SOL    HW218117   1.314   0.613   5.231
 5740SOL     OW18118   4.023   3.689   1.633
 5740SOL    HW118119   4.003   3.734   1.546
 5740SOL    HW218120   4.116   3.710   1.661
 5741SOL     OW18121   0.173   3.613   4.436
 5741SOL    HW118122   0.246   3.682   4.433
 5741SOL    HW218123   0.154   3.590   4.531
 5742SOL     OW18124   5.054   6.565   2.817
 5742SOL    HW118125   4.965   6.542   2.857
 5742SOL    HW218126   5.062   6.521   2.727
 5743SOL     OW18127   2.431   5.298   5.533
 5743SOL    HW118128   2.374   5.264   5.607
 5743SOL    HW218129   2.482   5.223   5.492
 5744SOL     OW18130   5.117   1.022   1.910
 5744SOL    HW118131   5.122   0.957   1.834
 5744SOL    HW218132   5.028   1.067   1.910
 5745SOL     OW18133   1.963   0.492   4.076
 5745SOL    HW118134   1.896   0.506   4.003
 5745SOL    HW218135   1.971   0.575   4.131
 5746SOL     OW18136   5.459   6.733   1.548
 5746SOL    HW118137   5.547   6.769   1.516
 5746SOL    HW218138   5.385   6.781   1.502
 5747SOL     OW18139   6.975   4.155   2.848
 5747SOL    HW118140   6.921   4.077   2.819
 5747SOL    HW218141   0.011   4.131   2.928
 5748SOL     OW18142   1.468   5.634   0.589
 5748SOL    HW118143   1.449   5.694   0.512
 5748SOL    HW218144   1.488   5.689   0.670
 5749SOL     OW18145   1.658   6.398   4.640
 5749SOL    HW118146   1.710   6.412   4.724
 5749SOL    HW218147   1.671   6.304   4.608
 5750SOL     OW18148   6.223   6.243   4.561
 5750SOL    HW118149   6.203   6.341   4.561
 5750SOL    HW218150   6.205   6.206   4.652
 5751SOL     OW18151   2.968   2.167   4.688
 5751SOL    HW118152   3.065   2.178   4.708
 5751SOL    HW218153   2.947   2.214   4.602
 5752SOL     OW18154   6.405   0.913   0.498
 5752SOL    HW118155   6.359   0.860   0.569
 5752SOL    HW218156   6.417   0.857   0.416
 5753SOL     OW18157   4.041   3.356   4.690
 5753SOL    HW118158   3.953   3.320   4.658
 5753SOL    HW218159   4.108   3.348   4.617
 5754SOL     OW18160   6.583   4.453   1.137
 5754SOL    HW118161   6.641   4.393   1.083
 5754SOL    HW218162   6.494   4.410   1.150
 5755SOL     OW18163   1.895   3.474   6.089
 5755SOL    HW118164   1.838   3.424   6.025
 5755SOL    HW218165   1.981   3.425   6.104
 5756SOL     OW18166   6.208   6.871   3.513
 5756SOL    HW118167   6.245   6.779   3.531
 5756SOL    HW218168   6.251   6.936   3.576
 5757SOL     OW18169   6.648   6.136   2.972
 5757SOL    HW118170   6.555   6.098   2.976
 5757SOL    HW218171   6.656   6.198   2.895
 5758SOL     OW18172   2.664   1.074   4.818
 5758SOL    HW118173   2.616   1.162   4.820
 5758SOL    HW218174   2.596   1.000   4.812
 5759SOL     OW18175   4.694   1.342   6.690
 5759SOL    HW118176   4.784   1.380   6.670
 5759SOL    HW218177   4.698   1.242   6.686
 5760SOL     OW18178   0.059   4.400   0.962
 5760SOL    HW118179   0.115   4.474   0.924
 5760SOL    HW218180   0.106   4.313   0.948
 5761SOL     OW18181   5.433   6.454   6.390
 5761SOL    HW118182   5.461   6.455   6.486
 5761SOL    HW218183   5.509   6.424   6.332
 5762SOL     OW18184   4.942   5.850   0.063
 5762SOL    HW118185   4.926   5.849   0.161
 5762SOL    HW218186   4.867   5.803   0.016
 5763SOL     OW18187   0.020   0.195   0.070
 5763SOL    HW118188   0.073   0.217   0.152
 5763SOL    HW218189   0.076   0.212   7.008
 5764SOL     OW18190   4.863   5.093   5.642
 5764SOL    HW118191   4.860   5.178   5.589
 5764SOL    HW218192   4.797   5.098   5.717
 5765SOL     OW18193   6.340   3.602   0.053
 5765SOL    HW118194   6.315   3.671   0.121
 5765SOL    HW218195   6.349   3.645   6.983
 5766SOL     OW18196   1.999   2.799   0.051
 5766SOL    HW118197   1.977   2.822   0.146
 5766SOL    HW218198   2.056   2.870   0.011
 5767SOL     OW18199   1.863   0.637   0.801
 5767SOL    HW118200   1.888   0.623   0.706
 5767SOL    HW218201   1.945   0.626   0.859
 5768SOL     OW18202   0.539   6.186   3.159
 5768SOL    HW118203   0.504   6.272   3.123
 5768SOL    HW218204   0.491   6.164   3.244
 5769SOL     OW18205   2.298   5.843   4.436
 5769SOL    HW118206   2.270   5.853   4.340
 5769SOL    HW218207   2.230   5.789   4.485
 5770SOL     OW18208   5.476   7.016   0.503
 5770SOL    HW118209   5.452   0.090   0.475
 5770SOL    HW218210   5.393   6.966   0.526
 5771SOL     OW18211   1.814   6.318   3.527
 5771SOL    HW118212   1.784   6.327   3.432
 5771SOL    HW218213   1.821   6.408   3.569
 5772SOL     OW18214   6.518   1.924   1.024
 5772SOL    HW118215   6.433   1.952   1.068
 5772SOL    HW218216   6.498   1.884   0.935
 5773SOL     OW18217   4.519   0.962   3.867
 5773SOL    HW118218   4.539   0.980   3.771
 5773SOL    HW218219   4.465   0.878   3.875
 5774SOL     OW18220   2.845   5.583   3.588
 5774SOL    HW118221   2.852   5.677   3.556
 5774SOL    HW218222   2.838   5.582   3.688
 5775SOL     OW18223   1.478   0.942   1.963
 5775SOL    HW118224   1.486   0.862   2.023
 5775SOL    HW218225   1.466   0.912   1.869
 5776SOL     OW18226   6.637   0.663   6.031
 5776SOL    HW118227   6.706   0.689   5.964
 5776SOL    HW218228   6.639   0.728   6.107
 5777SOL     OW18229   6.662   0.339   5.144
 5777SOL    HW118230   6.732   0.269   5.131
 5777SOL    HW218231   6.705   0.427   5.161
 5778SOL     OW18232   1.594   0.277   1.686
 5778SOL    HW118233   1.617   0.221   1.607
 5778SOL    HW218234   1.535   0.226   1.748
 5779SOL     OW18235   4.358   1.650   0.667
 5779SOL    HW118236   4.400   1.580   0.608
 5779SOL    HW218237   4.423   1.725   0.680
 5780SOL     OW18238   6.339   5.018   2.796
 5780SOL    HW118239   6.387   4.986   2.715
 5780SOL    HW218240   6.367   4.963   2.875
 5781SOL     OW18241   0.169   3.806   4.723
 5781SOL    HW118242   0.246   3.750   4.754
 5781SOL    HW218243   0.190   3.844   4.633
 5782SOL     OW18244   0.955   0.850   0.585
 5782SOL    HW118245   1.003   0.881   0.667
 5782SOL    HW218246   0.926   0.755   0.597
 5783SOL     OW18247   1.767   0.495   1.688
 5783SOL    HW118248   1.739   0.572   1.629
 5783SOL    HW218249   1.708   0.417   1.670
 5784SOL     OW18250   6.636   6.675   0.304
 5784SOL    HW118251   6.731   6.691   0.276
 5784SOL    HW218252   6.584   6.639   0.227
 5785SOL     OW18253   1.840   1.703   0.962
 5785SOL    HW118254   1.803   1.628   0.907
 5785SOL    HW218255   1.927   1.675   1.003
 5786SOL     OW18256   0.497   3.811   0.738
 5786SOL    HW118257   0.544   3.789   0.823
 5786SOL    HW218258   0.434   3.737   0.714
 5787SOL     OW18259   4.358   2.894   5.393
 5787SOL    HW118260   4.329   2.800   5.375
 5787SOL    HW218261   4.360   2.910   5.491
 5788SOL     OW18262   2.988   1.244   1.305
 5788SOL    HW118263   3.008   1.199   1.218
 5788SOL    HW218264   3.073   1.265   1.352
 5789SOL     OW18265   3.364   3.890   6.385
 5789SOL    HW118266   3.293   3.820   6.381
 5789SOL    HW218267   3.349   3.958   6.313
 5790SOL     OW18268   0.394   4.451   4.893
 5790SOL    HW118269   0.429   4.499   4.974
 5790SOL    HW218270   0.447   4.478   4.813
 5791SOL     OW18271   3.174   1.864   2.183
 5791SOL    HW118272   3.201   1.935   2.249
 5791SOL    HW218273   3.108   1.902   2.118
 5792SOL     OW18274   5.336   2.669   2.249
 5792SOL    HW118275   5.353   2.578   2.287
 5792SOL    HW218276   5.363   2.670   2.153
 5793SOL     OW18277   5.930   0.980   4.150
 5793SOL    HW118278   6.003   1.048   4.162
 5793SOL    HW218279   5.842   1.026   4.143
 5794SOL     OW18280   2.754   0.257   6.256
 5794SOL    HW118281   2.799   0.177   6.297
 5794SOL    HW218282   2.725   0.319   6.329
 5795SOL     OW18283   6.946   6.301   1.352
 5795SOL    HW118284   6.933   6.400   1.346
 5795SOL    HW218285   7.019   6.282   1.418
 5796SOL     OW18286   4.373   1.130   6.551
 5796SOL    HW118287   4.436   1.139   6.473
 5796SOL    HW218288   4.318   1.213   6.559
 5797SOL     OW18289   5.038   1.793   0.521
 5797SOL    HW118290   4.939   1.796   0.508
 5797SOL    HW218291   5.070   1.699   0.507
 5798SOL     OW18292   0.056   5.394   4.940
 5798SOL    HW118293   0.122   5.407   4.866
 5798SOL    HW218294   6.999   5.338   4.908
 5799SOL     OW18295   0.182   0.843   4.383
 5799SOL    HW118296   0.160   0.909   4.312
 5799SOL    HW218297   0.281   0.840   4.396
 5800SOL     OW18298   0.777   6.838   2.141
 5800SOL    HW118299   0.820   6.765   2.195
 5800SOL    HW218300   0.777   6.813   2.045
 5801SOL     OW18301   1.713   2.093   3.424
 5801SOL    HW118302   1.641   2.142   3.474
 5801SOL    HW218303   1.741   2.146   3.344
 5802SOL     OW18304   6.342   2.937   2.534
 5802SOL    HW118305   6.274   2.868   2.507
 5802SOL    HW218306   6.434   2.904   2.513
 5803SOL     OW18307   1.835   5.881   2.895
 5803SOL    HW118308   1.855   5.938   2.974
 5803SOL    HW218309   1.741   5.896   2.866
 5804SOL     OW18310   0.320   5.642   3.160
 5804SOL    HW118311   0.308   5.736   3.190
 5804SOL    HW218312   0.253   5.584   3.206
 5805SOL     OW18313   1.357   3.338   0.702
 5805SOL    HW118314   1.448   3.297   0.713
 5805SOL    HW218315   1.323   3.320   0.610
 5806SOL     OW18316   6.967   4.947   4.800
 5806SOL    HW118317   6.875   4.963   4.764
 5806SOL    HW218318   7.016   4.883   4.740
 5807SOL     OW18319   1.119   5.843   0.349
 5807SOL    HW118320   1.057   5.767   0.370
 5807SOL    HW218321   1.213   5.810   0.348
 5808SOL     OW18322   7.004   6.512   4.399
 5808SOL    HW118323   0.084   6.518   4.391
 5808SOL    HW218324   6.970   6.435   4.344
 5809SOL     OW18325   6.760   1.538   5.378
 5809SOL    HW118326   6.798   1.621   5.338
 5809SOL    HW218327   6.693   1.498   5.316
 5810SOL     OW18328   5.140   1.127   5.700
 5810SOL    HW118329   5.118   1.167   5.789
 5810SOL    HW218330   5.058   1.087   5.659
 5811SOL     OW18331   3.639   1.340   4.823
 5811SOL    HW118332   3.555   1.317   4.874
 5811SOL    HW218333   3.694   1.258   4.810
 5812SOL     OW18334   5.126   3.349   5.965
 5812SOL    HW118335   5.148   3.289   6.042
 5812SOL    HW218336   5.110   3.294   5.883
 5813SOL     OW18337   2.712   0.808   0.918
 5813SOL    HW118338   2.665   0.762   0.993
 5813SOL    HW218339   2.789   0.751   0.888
 5814SOL     OW18340   6.908   2.988   2.295
 5814SOL    HW118341   6.969   3.066   2.282
 5814SOL    HW218342   6.843   2.983   2.218
 5815SOL     OW18343   4.197   1.347   4.022
 5815SOL    HW118344   4.235   1.338   4.114
 5815SOL    HW218345   4.147   1.433   4.015
 5816SOL     OW18346   5.068   4.193   7.018
 5816SOL    HW118347   5.142   4.255   0.022
 5816SOL    HW218348   5.021   4.225   6.936
 5817SOL     OW18349   6.103   4.945   5.315
 5817SOL    HW118350   6.026   4.893   5.279
 5817SOL    HW218351   6.071   5.032   5.352
 5818SOL     OW18352   6.677   5.436   5.989
 5818SOL    HW118353   6.654   5.424   5.892
 5818SOL    HW218354   6.606   5.393   6.045
 5819SOL     OW18355   3.776   6.705   6.751
 5819SOL    HW118356   3.697   6.704   6.690
 5819SOL    HW218357   3.746   6.692   6.845
 5820SOL     OW18358   4.261   4.647   2.916
 5820SOL    HW118359   4.306   4.592   2.986
 5820SOL    HW218360   4.242   4.739   2.952
 5821SOL     OW18361   6.623   0.857   1.855
 5821SOL    HW118362   6.649   0.891   1.945
 5821SOL    HW218363   6.682   0.898   1.785
 5822SOL     OW18364   1.841   2.747   1.368
 5822SOL    HW118365   1.795   2.690   1.435
 5822SOL    HW218366   1.934   2.712   1.353
 5823SOL     OW18367   2.925   6.933   4.607
 5823SOL    HW118368   2.863   6.949   4.684
 5823SOL    HW218369   3.020   6.940   4.638
 5824SOL     OW18370   0.194   5.916   3.086
 5824SOL    HW118371   0.134   5.963   3.022
 5824SOL    HW218372   0.181   5.953   3.178
 5825SOL     OW18373   0.241   6.908   4.665
 5825SOL    HW118374   0.279   6.975   4.601
 5825SOL    HW218375   0.141   6.917   4.667
 5826SOL     OW18376   0.264   5.753   6.514
 5826SOL    HW118377   0.278   5.669   6.566
 5826SOL    HW218378   0.272   5.733   6.416
 5827SOL     OW18379   1.870   3.510   4.337
 5827SOL    HW118380   1.794   3.512   4.402
 5827SOL    HW218381   1.838   3.539   4.247
 5828SOL     OW18382   5.075   1.596   2.482
 5828SOL    HW118383   4.980   1.626   2.474
 5828SOL    HW218384   5.133   1.655   2.427
 5829SOL     OW18385   1.672   0.364   4.608
 5829SOL    HW118386   1.680   0.411   4.696
 5829SOL    HW218387   1.603   0.411   4.552
 5830SOL     OW18388   5.682   0.146   5.874
 5830SOL    HW118389   5.609   0.155   5.806
 5830SOL    HW218390   5.657   0.076   5.941
 5831SOL     OW18391   1.280   0.875   6.163
 5831SOL    HW118392   1.181   0.868   6.149
 5831SOL    HW218393   1.299   0.894   6.259
 5832SOL     OW18394   3.227   4.651   6.997
 5832SOL    HW118395   3.219   4.563   0.025
 5832SOL    HW218396   3.283   4.640   6.915
 5833SOL     OW18397   4.153   3.653   5.043
 5833SOL    HW118398   4.089   3.610   5.107
 5833SOL    HW218399   4.241   3.666   5.087
 5834SOL     OW18400   6.934   4.252   6.587
 5834SOL    HW118401   0.001   4.205   6.606
 5834SOL    HW218402   6.858   4.198   6.622
 5835SOL     OW18403   5.729   2.182   3.074
 5835SOL    HW118404   5.758   2.166   3.168
 5835SOL    HW218405   5.632   2.209   3.074
 5836SOL     OW18406   2.958   0.304   1.434
 5836SOL    HW118407   2.982   0.208   1.421
 5836SOL    HW218408   2.885   0.311   1.502
 5837SOL     OW18409   3.554   3.166   6.954
 5837SOL    HW118410   3.474   3.134   7.004
 5837SOL    HW218411   3.630   3.104   6.970
 5838SOL     OW18412   2.907   1.662   1.008
 5838SOL    HW118413   2.926   1.738   0.945
 5838SOL    HW218414   2.893   1.697   1.100
 5839SOL     OW18415   0.533   2.272   1.200
 5839SOL    HW118416   0.562   2.184   1.238
 5839SOL    HW218417   0.455   2.306   1.251
 5840SOL     OW18418   1.246   3.863   6.428
 5840SOL    HW118419   1.344   3.863   6.450
 5840SOL    HW218420   1.207   3.952   6.453
 5841SOL     OW18421   5.387   1.395   2.036
 5841SOL    HW118422   5.359   1.300   2.020
 5841SOL    HW218423   5.316   1.457   2.002
 5842SOL     OW18424   4.758   2.971   1.442
 5842SOL    HW118425   4.755   2.925   1.530
 5842SOL    HW218426   4.789   3.065   1.454
 5843SOL     OW18427   1.164   4.648   1.877
 5843SOL    HW118428   1.091   4.699   1.832
 5843SOL    HW218429   1.241   4.636   1.814
 5844SOL     OW18430   1.823   6.089   5.894
 5844SOL    HW118431   1.761   6.120   5.823
 5844SOL    HW218432   1.804   6.138   5.979
 5845SOL     OW18433   0.689   0.377   1.596
 5845SOL    HW118434   0.682   0.305   1.527
 5845SOL    HW218435   0.603   0.383   1.646
 5846SOL     OW18436   6.463   3.630   5.972
 5846SOL    HW118437   6.485   3.622   5.875
 5846SOL    HW218438   6.364   3.645   5.983
 5847SOL     OW18439   2.640   2.417   2.067
 5847SOL    HW118440   2.704   2.466   2.008
 5847SOL    HW218441   2.666   2.320   2.070
 5848SOL     OW18442   1.510   5.482   2.946
 5848SOL    HW118443   1.497   5.542   2.867
 5848SOL    HW218444   1.598   5.504   2.989
 5849SOL     OW18445   1.950   0.515   5.312
 5849SOL    HW118446   1.948   0.609   5.279
 5849SOL    HW218447   1.906   0.511   5.402
 5850SOL     OW18448   6.909   3.447   2.097
 5850SOL    HW118449   6.830   3.396   2.062
 5850SOL    HW218450   6.901   3.543   2.072
 5851SOL     OW18451   5.263   3.546   3.692
 5851SOL    HW118452   5.194   3.608   3.655
 5851SOL    HW218453   5.354   3.586   3.677
 5852SOL     OW18454   5.573   6.368   3.086
 5852SOL    HW118455   5.481   6.345   3.056
 5852SOL    HW218456   5.640   6.308   3.042
 5853SOL     OW18457   4.033   5.308   5.639
 5853SOL    HW118458   3.997   5.277   5.550
 5853SOL    HW218459   3.964   5.290   5.710
 5854SOL     OW18460   4.435   3.933   5.741
 5854SOL    HW118461   4.396   3.842   5.729
 5854SOL    HW218462   4.364   4.002   5.725
 5855SOL     OW18463   1.657   0.759   4.528
 5855SOL    HW118464   1.751   0.784   4.505
 5855SOL    HW218465   1.597   0.837   4.512
 5856SOL     OW18466   1.791   5.665   3.566
 5856SOL    HW118467   1.882   5.639   3.599
 5856SOL    HW218468   1.743   5.716   3.638
 5857SOL     OW18469   6.162   3.471   5.316
 5857SOL    HW118470   6.152   3.524   5.400
 5857SOL    HW218471   6.257   3.439   5.308
 5858SOL     OW18472   2.528   2.384   2.582
 5858SOL    HW118473   2.517   2.408   2.485
 5858SOL    HW218474   2.443   2.344   2.615
 5859SOL     OW18475   6.521   6.254   1.612
 5859SOL    HW118476   6.480   6.343   1.594
 5859SOL    HW218477   6.584   6.261   1.689
 5860SOL     OW18478   0.212   4.726   3.268
 5860SOL    HW118479   0.128   4.674   3.285
 5860SOL    HW218480   0.286   4.688   3.323
 5861SOL     OW18481   5.768   0.738   4.035
 5861SOL    HW118482   5.840   0.778   4.091
 5861SOL    HW218483   5.795   0.742   3.939
 5862SOL     OW18484   5.950   5.584   0.950
 5862SOL    HW118485   5.966   5.593   0.852
 5862SOL    HW218486   6.038   5.572   0.996
 5863SOL     OW18487   2.715   2.252   5.139
 5863SOL    HW118488   2.649   2.178   5.146
 5863SOL    HW218489   2.795   2.221   5.087
 5864SOL     OW18490   3.652   4.062   2.386
 5864SOL    HW118491   3.728   4.126   2.396
 5864SOL    HW218492   3.675   3.975   2.428
 5865SOL     OW18493   5.787   0.418   5.438
 5865SOL    HW118494   5.805   0.440   5.342
 5865SOL    HW218495   5.839   0.480   5.497
 5866SOL     OW18496   3.995   3.119   0.947
 5866SOL    HW118497   4.080   3.098   0.898
 5866SOL    HW218498   4.005   3.207   0.994
 5867SOL     OW18499   2.451   3.366   1.314
 5867SOL    HW118500   2.440   3.292   1.379
 5867SOL    HW218501   2.548   3.389   1.305
 5868SOL     OW18502   2.019   1.720   5.617
 5868SOL    HW118503   1.986   1.783   5.547
 5868SOL    HW218504   2.098   1.759   5.663
 5869SOL     OW18505   1.870   5.977   3.140
 5869SOL    HW118506   1.939   5.981   3.212
 5869SOL    HW218507   1.817   6.061   3.139
 5870SOL     OW18508   5.159   6.123   4.886
 5870SOL    HW118509   5.210   6.051   4.932
 5870SOL    HW218510   5.223   6.183   4.837
 5871SOL     OW18511   3.604   3.254   1.743
 5871SOL    HW118512   3.547   3.176   1.767
 5871SOL    HW218513   3.552   3.318   1.687
 5872SOL     OW18514   4.675   6.644   1.493
 5872SOL    HW118515   4.587   6.597   1.499
 5872SOL    HW218516   4.748   6.579   1.515
 5873SOL     OW18517   3.565   0.741   1.883
 5873SOL    HW118518   3.482   0.741   1.939
 5873SOL    HW218519   3.564   0.663   1.821
 5874SOL     OW18520   2.139   4.802   5.423
 5874SOL    HW118521   2.215   4.784   5.361
 5874SOL    HW218522   2.170   4.798   5.517
 5875SOL     OW18523   4.249   1.344   6.733
 5875SOL    HW118524   4.322   1.397   6.690
 5875SOL    HW218525   4.207   1.397   6.807
 5876SOL     OW18526   3.874   3.171   1.677
 5876SOL    HW118527   3.804   3.236   1.706
 5876SOL    HW218528   3.831   3.085   1.651
 5877SOL     OW18529   6.811   6.424   1.119
 5877SOL    HW118530   6.844   6.434   1.025
 5877SOL    HW218531   6.875   6.468   1.182
 5878SOL     OW18532   0.168   5.655   4.244
 5878SOL    HW118533   0.145   5.731   4.183
 5878SOL    HW218534   0.100   5.650   4.317
 5879SOL     OW18535   1.269   4.327   6.844
 5879SOL    HW118536   1.204   4.252   6.860
 5879SOL    HW218537   1.362   4.292   6.855
 5880SOL     OW18538   4.327   4.268   6.746
 5880SOL    HW118539   4.416   4.251   6.789
 5880SOL    HW218540   4.255   4.224   6.800
 5881SOL     OW18541   0.646   6.737   2.957
 5881SOL    HW118542   0.633   6.819   3.013
 5881SOL    HW218543   0.640   6.762   2.860
 5882SOL     OW18544   0.013   5.861   1.435
 5882SOL    HW118545   6.996   5.769   1.421
 5882SOL    HW218546   0.071   5.862   1.516
 5883SOL     OW18547   1.080   1.214   6.540
 5883SOL    HW118548   1.005   1.161   6.581
 5883SOL    HW218549   1.051   1.250   6.451
 5884SOL     OW18550   2.874   1.504   4.683
 5884SOL    HW118551   2.843   1.599   4.678
 5884SOL    HW218552   2.796   1.443   4.672
 5885SOL     OW18553   0.245   0.225   3.139
 5885SOL    HW118554   0.303   0.260   3.213
 5885SOL    HW218555   0.302   0.199   3.061
 5886SOL     OW18556   1.097   1.844   4.848
 5886SOL    HW118557   1.042   1.918   4.886
 5886SOL    HW218558   1.159   1.880   4.779
 5887SOL     OW18559   2.679   1.816   2.890
 5887SOL    HW118560   2.621   1.792   2.968
 5887SOL    HW218561   2.631   1.795   2.805
 5888SOL     OW18562   2.904   0.962   1.602
 5888SOL    HW118563   2.973   0.930   1.537
 5888SOL    HW218564   2.867   1.049   1.571
 5889SOL     OW18565   1.293   6.744   0.530
 5889SOL    HW118566   1.331   6.826   0.573
 5889SOL    HW218567   1.198   6.761   0.502
 5890SOL     OW18568   2.366   1.082   3.756
 5890SOL    HW118569   2.445   1.023   3.769
 5890SOL    HW218570   2.310   1.047   3.681
 5891SOL     OW18571   3.614   2.965   6.170
 5891SOL    HW118572   3.595   3.063   6.156
 5891SOL    HW218573   3.558   2.932   6.246
 5892SOL     OW18574   0.634   4.974   1.419
 5892SOL    HW118575   0.688   5.039   1.365
 5892SOL    HW218576   0.549   5.017   1.448
 5893SOL     OW18577   2.131   3.802   4.046
 5893SOL    HW118578   2.138   3.788   4.144
 5893SOL    HW218579   2.134   3.714   3.999
 5894SOL     OW18580   6.973   4.945   4.210
 5894SOL    HW118581   0.035   4.903   4.252
 5894SOL    HW218582   7.001   5.018   4.149
 5895SOL     OW18583   5.646   4.300   3.852
 5895SOL    HW118584   5.622   4.349   3.936
 5895SOL    HW218585   5.605   4.209   3.854
 5896SOL     OW18586   3.913   0.709   0.260
 5896SOL    HW118587   3.947   0.730   0.352
 5896SOL    HW218588   3.933   0.786   0.199
 5897SOL     OW18589   3.917   0.402   1.416
 5897SOL    HW118590   3.992   0.428   1.477
 5897SOL    HW218591   3.927   0.306   1.391
 5898SOL     OW18592   1.973   6.812   3.380
 5898SOL    HW118593   2.052   6.874   3.382
 5898SOL    HW218594   1.963   6.776   3.287
 5899SOL     OW18595   5.520   5.735   5.809
 5899SOL    HW118596   5.532   5.678   5.728
 5899SOL    HW218597   5.439   5.792   5.798
 5900SOL     OW18598   5.766   5.161   3.577
 5900SOL    HW118599   5.711   5.080   3.597
 5900SOL    HW218600   5.719   5.217   3.508
 5901SOL     OW18601   2.429   0.680   0.552
 5901SOL    HW118602   2.429   0.585   0.582
 5901SOL    HW218603   2.366   0.691   0.475
 5902SOL     OW18604   6.659   2.428   5.809
 5902SOL    HW118605   6.603   2.371   5.869
 5902SOL    HW218606   6.716   2.489   5.865
 5903SOL     OW18607   4.729   4.686   6.922
 5903SOL    HW118608   4.728   4.715   6.827
 5903SOL    HW218609   4.662   4.612   6.935
 5904SOL     OW18610   1.156   4.580   1.324
 5904SOL    HW118611   1.067   4.622   1.338
 5904SOL    HW218612   1.167   4.503   1.387
 5905SOL     OW18613   5.902   6.047   3.540
 5905SOL    HW118614   5.932   5.965   3.492
 5905SOL    HW218615   5.871   6.115   3.473
 5906SOL     OW18616   3.796   2.090   3.596
 5906SOL    HW118617   3.739   2.128   3.669
 5906SOL    HW218618   3.779   1.992   3.589
 5907SOL     OW18619   0.594   5.307   0.751
 5907SOL    HW118620   0.651   5.389   0.760
 5907SOL    HW218621   0.591   5.280   0.655
 5908SOL     OW18622   0.482   2.632   6.763
 5908SOL    HW118623   0.406   2.696   6.770
 5908SOL    HW218624   0.563   2.680   6.730
 5909SOL     OW18625   6.648   5.573   0.455
 5909SOL    HW118626   6.589   5.641   0.413
 5909SOL    HW218627   6.730   5.618   0.491
 5910SOL     OW18628   6.721   3.574   3.872
 5910SOL    HW118629   6.783   3.634   3.922
 5910SOL    HW218630   6.773   3.497   3.834
 5911SOL     OW18631   6.641   6.383   6.965
 5911SOL    HW118632   6.572   6.312   6.975
 5911SOL    HW218633   6.712   6.372   0.016
 5912SOL     OW18634   6.583   1.189   5.983
 5912SOL    HW118635   6.615   1.155   5.894
 5912SOL    HW218636   6.605   1.286   5.991
 5913SOL     OW18637   5.067   3.171   6.170
 5913SOL    HW118638   4.969   3.149   6.174
 5913SOL    HW218639   5.099   3.197   6.261
 5914SOL     OW18640   1.397   4.851   6.212
 5914SOL    HW118641   1.338   4.909   6.268
 5914SOL    HW218642   1.416   4.766   6.261
 5915SOL     OW18643   4.460   5.642   1.260
 5915SOL    HW118644   4.471   5.644   1.359
 5915SOL    HW218645   4.429   5.731   1.227
 5916SOL     OW18646   5.849   6.491   4.322
 5916SOL    HW118647   5.803   6.568   4.277
 5916SOL    HW218648   5.899   6.438   4.254
 5917SOL     OW18649   2.922   3.309   4.233
 5917SOL    HW118650   3.021   3.318   4.244
 5917SOL    HW218651   2.876   3.348   4.314
 5918SOL     OW18652   1.707   3.912   5.520
 5918SOL    HW118653   1.753   3.895   5.433
 5918SOL    HW218654   1.736   3.843   5.587
 5919SOL     OW18655   3.700   2.948   3.240
 5919SOL    HW118656   3.680   2.930   3.336
 5919SOL    HW218657   3.706   3.047   3.225
 5920SOL     OW18658   4.508   1.120   6.310
 5920SOL    HW118659   4.574   1.184   6.272
 5920SOL    HW218660   4.549   1.030   6.317
 5921SOL     OW18661   3.413   5.525   6.550
 5921SOL    HW118662   3.406   5.426   6.565
 5921SOL    HW218663   3.354   5.573   6.615
 5922SOL     OW18664   5.002   4.426   2.674
 5922SOL    HW118665   4.939   4.352   2.699
 5922SOL    HW218666   5.055   4.451   2.755
 5923SOL     OW18667   6.692   1.688   2.022
 5923SOL    HW118668   6.731   1.625   2.090
 5923SOL    HW218669   6.639   1.758   2.070
 5924SOL     OW18670   6.784   0.198   2.981
 5924SOL    HW118671   6.714   0.165   2.918
 5924SOL    HW218672   6.818   0.286   2.950
 5925SOL     OW18673   4.102   6.797   2.178
 5925SOL    HW118674   4.103   6.897   2.174
 5925SOL    HW218675   4.051   6.767   2.258
 5926SOL     OW18676   3.871   5.342   2.021
 5926SOL    HW118677   3.820   5.257   2.032
 5926SOL    HW218678   3.845   5.386   1.935
 5927SOL     OW18679   1.462   4.376   2.479
 5927SOL    HW118680   1.402   4.375   2.559
 5927SOL    HW218681   1.427   4.312   2.411
 5928SOL     OW18682   3.717   0.120   1.100
 5928SOL    HW118683   3.707   0.213   1.134
 5928SOL    HW218684   3.642   0.064   1.134
 5929SOL     OW18685   6.776   6.983   6.462
 5929SOL    HW118686   6.775   6.933   6.375
 5929SOL    HW218687   6.765   0.062   6.444
 5930SOL     OW18688   6.353   4.198   3.007
 5930SOL    HW118689   6.449   4.204   3.030
 5930SOL    HW218690   6.343   4.191   2.907
 5931SOL     OW18691   0.798   5.597   2.924
 5931SOL    HW118692   0.775   5.515   2.872
 5931SOL    HW218693   0.787   5.677   2.866
 5932SOL     OW18694   3.189   0.390   0.598
 5932SOL    HW118695   3.266   0.420   0.654
 5932SOL    HW218696   3.116   0.459   0.603
 5933SOL     OW18697   6.937   5.045   3.247
 5933SOL    HW118698   7.001   4.982   3.204
 5933SOL    HW218699   6.862   5.064   3.184
 5934SOL     OW18700   3.612   3.151   5.066
 5934SOL    HW118701   3.591   3.110   5.155
 5934SOL    HW218702   3.710   3.164   5.057
 5935SOL     OW18703   5.835   5.105   6.724
 5935SOL    HW118704   5.873   5.042   6.658
 5935SOL    HW218705   5.865   5.198   6.704
 5936SOL     OW18706   3.013   2.273   1.537
 5936SOL    HW118707   3.070   2.354   1.552
 5936SOL    HW218708   2.971   2.245   1.623
 5937SOL     OW18709   6.402   3.804   2.249
 5937SOL    HW118710   6.419   3.715   2.206
 5937SOL    HW218711   6.425   3.877   2.185
 5938SOL     OW18712   6.781   5.403   2.818
 5938SOL    HW118713   6.717   5.452   2.878
 5938SOL    HW218714   6.869   5.394   2.865
 5939SOL     OW18715   2.329   6.421   2.972
 5939SOL    HW118716   2.367   6.514   2.978
 5939SOL    HW218717   2.305   6.390   3.064
 5940SOL     OW18718   4.542   5.485   2.117
 5940SOL    HW118719   4.537   5.512   2.213
 5940SOL    HW218720   4.619   5.423   2.103
 5941SOL     OW18721   5.739   3.306   2.270
 5941SOL    HW118722   5.762   3.333   2.364
 5941SOL    HW218723   5.675   3.229   2.272
 5942SOL     OW18724   6.007   3.737   0.364
 5942SOL    HW118725   5.919   3.779   0.388
 5942SOL    HW218726   5.993   3.640   0.341
 5943SOL     OW18727   2.964   4.412   5.913
 5943SOL    HW118728   2.921   4.328   5.878
 5943SOL    HW218729   2.895   4.483   5.923
 5944SOL     OW18730   6.947   2.630   1.183
 5944SOL    HW118731   0.005   2.621   1.120
 5944SOL    HW218732   6.891   2.708   1.157
 5945SOL     OW18733   7.011   4.876   5.153
 5945SOL    HW118734   6.912   4.880   5.164
 5945SOL    HW218735   0.037   4.924   5.229
 5946SOL     OW18736   4.019   3.518   5.772
 5946SOL    HW118737   4.019   3.429   5.819
 5946SOL    HW218738   3.930   3.562   5.785
 5947SOL     OW18739   3.125   3.425   2.067
 5947SOL    HW118740   3.170   3.336   2.058
 5947SOL    HW218741   3.032   3.412   2.102
 5948SOL     OW18742   4.196   4.688   2.648
 5948SOL    HW118743   4.105   4.728   2.634
 5948SOL    HW218744   4.203   4.653   2.742
 5949SOL     OW18745   4.890   4.007   1.366
 5949SOL    HW118746   4.979   4.045   1.339
 5949SOL    HW218747   4.817   4.055   1.318
 5950SOL     OW18748   5.120   0.785   5.439
 5950SOL    HW118749   5.052   0.805   5.509
 5950SOL    HW218750   5.074   0.757   5.354
 5951SOL     OW18751   1.377   5.658   3.797
 5951SOL    HW118752   1.281   5.679   3.818
 5951SOL    HW218753   1.392   5.669   3.699
 5952SOL     OW18754   5.464   4.620   3.288
 5952SOL    HW118755   5.481   4.709   3.331
 5952SOL    HW218756   5.388   4.627   3.224
 5953SOL     OW18757   6.200   3.055   5.503
 5953SOL    HW118758   6.161   3.130   5.556
 5953SOL    HW218759   6.273   3.090   5.444
 5954SOL     OW18760   5.958   5.161   5.376
 5954SOL    HW118761   5.874   5.123   5.414
 5954SOL    HW218762   5.937   5.202   5.287
 5955SOL     OW18763   4.786   5.515   2.401
 5955SOL    HW118764   4.686   5.523   2.402
 5955SOL    HW218765   4.827   5.606   2.399
 5956SOL     OW18766   4.877   1.873   4.936
 5956SOL    HW118767   4.802   1.808   4.947
 5956SOL    HW218768   4.880   1.904   4.841
 5957SOL     OW18769   3.683   1.212   5.114
 5957SOL    HW118770   3.699   1.263   5.030
 5957SOL    HW218771   3.616   1.259   5.170
 5958SOL     OW18772   5.348   5.989   2.940
 5958SOL    HW118773   5.284   5.975   3.016
 5958SOL    HW218774   5.297   5.987   2.854
 5959SOL     OW18775   4.445   3.137   5.320
 5959SOL    HW118776   4.374   3.200   5.289
 5959SOL    HW218777   4.402   3.055   5.357
 5960SOL     OW18778   3.797   5.450   5.275
 5960SOL    HW118779   3.705   5.451   5.315
 5960SOL    HW218780   3.790   5.432   5.177
 5961SOL     OW18781   4.691   1.848   2.815
 5961SOL    HW118782   4.640   1.893   2.743
 5961SOL    HW218783   4.659   1.753   2.824
 5962SOL     OW18784   5.787   6.701   0.308
 5962SOL    HW118785   5.825   6.772   0.249
 5962SOL    HW218786   5.781   6.615   0.257
 5963SOL     OW18787   4.050   3.551   6.768
 5963SOL    HW118788   4.001   3.630   6.729
 5963SOL    HW218789   4.148   3.568   6.766
 5964SOL     OW18790   1.002   6.250   5.243
 5964SOL    HW118791   0.941   6.177   5.274
 5964SOL    HW218792   1.002   6.324   5.311
 5965SOL     OW18793   1.707   1.624   0.093
 5965SOL    HW118794   1.681   1.624   7.015
 5965SOL    HW218795   1.801   1.657   0.102
 5966SOL     OW18796   2.081   6.343   5.174
 5966SOL    HW118797   2.105   6.381   5.085
 5966SOL    HW218798   2.158   6.355   5.237
 5967SOL     OW18799   3.471   0.249   6.277
 5967SOL    HW118800   3.388   0.273   6.227
 5967SOL    HW218801   3.463   0.278   6.372
 5968SOL     OW18802   5.273   2.406   0.322
 5968SOL    HW118803   5.204   2.436   0.387
 5968SOL    HW218804   5.296   2.310   0.339
 5969SOL     OW18805   6.503   0.003   6.582
 5969SOL    HW118806   6.495   6.963   6.662
 5969SOL    HW218807   6.594   7.011   6.541
 5970SOL     OW18808   0.314   4.026   2.663
 5970SOL    HW118809   0.400   4.061   2.699
 5970SOL    HW218810   0.332   3.955   2.595
 5971SOL     OW18811   0.333   1.363   2.607
 5971SOL    HW118812   0.257   1.298   2.599
 5971SOL    HW218813   0.323   1.435   2.538
 5972SOL     OW18814   5.636   5.652   6.551
 5972SOL    HW118815   5.638   5.731   6.489
 5972SOL    HW218816   5.693   5.579   6.513
 5973SOL     OW18817   1.412   3.280   2.499
 5973SOL    HW118818   1.493   3.233   2.536
 5973SOL    HW218819   1.330   3.240   2.538
 5974SOL     OW18820   5.726   5.704   6.877
 5974SOL    HW118821   5.687   5.643   6.808
 5974SOL    HW218822   5.654   5.734   6.940
 5975SOL     OW18823   4.419   0.010   0.803
 5975SOL    HW118824   4.409   6.989   0.712
 5975SOL    HW218825   4.419   0.110   0.795
 5976SOL     OW18826   3.785   2.470   6.165
 5976SOL    HW118827   3.813   2.503   6.074
 5976SOL    HW218828   3.703   2.415   6.157
 5977SOL     OW18829   1.372   5.846   6.708
 5977SOL    HW118830   1.453   5.817   6.656
 5977SOL    HW218831   1.392   5.930   6.757
 5978SOL     OW18832   4.094   5.559   2.034
 5978SOL    HW118833   4.176   5.523   2.079
 5978SOL    HW218834   4.080   5.510   1.948
 5979SOL     OW18835   5.169   0.364   3.071
 5979SOL    HW118836   5.203   0.455   3.047
 5979SOL    HW218837   5.137   0.318   2.988
 5980SOL     OW18838   3.292   3.777   0.937
 5980SOL    HW118839   3.367   3.714   0.920
 5980SOL    HW218840   3.309   3.863   0.890
 5981SOL     OW18841   5.619   2.281   1.393
 5981SOL    HW118842   5.532   2.231   1.390
 5981SOL    HW218843   5.665   2.262   1.479
 5982SOL     OW18844   5.977   2.770   2.048
 5982SOL    HW118845   5.963   2.695   2.113
 5982SOL    HW218846   6.018   2.848   2.095
 5983SOL     OW18847   1.458   1.586   3.771
 5983SOL    HW118848   1.483   1.498   3.811
 5983SOL    HW218849   1.534   1.619   3.715
 5984SOL     OW18850   6.406   5.451   3.542
 5984SOL    HW118851   6.501   5.472   3.519
 5984SOL    HW218852   6.357   5.535   3.563
 5985SOL     OW18853   6.759   3.096   4.118
 5985SOL    HW118854   6.801   3.054   4.037
 5985SOL    HW218855   6.664   3.067   4.125
 5986SOL     OW18856   3.446   4.153   4.129
 5986SOL    HW118857   3.524   4.131   4.188
 5986SOL    HW218858   3.372   4.191   4.184
 5987SOL     OW18859   5.806   0.039   4.009
 5987SOL    HW118860   5.844   0.094   4.084
 5987SOL    HW218861   5.808   0.093   3.924
 5988SOL     OW18862   4.614   0.572   6.067
 5988SOL    HW118863   4.651   0.494   6.117
 5988SOL    HW218864   4.517   0.582   6.089
 5989SOL     OW18865   2.551   5.686   6.615
 5989SOL    HW118866   2.557   5.595   6.656
 5989SOL    HW218867   2.632   5.703   6.559
 5990SOL     OW18868   3.341   3.500   0.621
 5990SOL    HW118869   3.378   3.568   0.685
 5990SOL    HW218870   3.323   3.415   0.670
 5991SOL     OW18871   3.695   5.388   6.885
 5991SOL    HW118872   3.728   5.481   6.872
 5991SOL    HW218873   3.770   5.328   6.913
 5992SOL     OW18874   3.851   0.432   2.146
 5992SOL    HW118875   3.938   0.424   2.195
 5992SOL    HW218876   3.869   0.444   2.049
 5993SOL     OW18877   3.696   4.693   5.981
 5993SOL    HW118878   3.704   4.618   6.046
 5993SOL    HW218879   3.759   4.678   5.905
 5994SOL     OW18880   6.186   2.758   1.859
 5994SOL    HW118881   6.097   2.746   1.902
 5994SOL    HW218882   6.248   2.686   1.891
 5995SOL     OW18883   4.975   3.497   2.449
 5995SOL    HW118884   4.941   3.567   2.386
 5995SOL    HW218885   5.065   3.466   2.419
 5996SOL     OW18886   1.163   6.192   1.303
 5996SOL    HW118887   1.093   6.219   1.237
 5996SOL    HW218888   1.250   6.236   1.280
 5997SOL     OW18889   0.224   5.478   2.538
 5997SOL    HW118890   0.148   5.519   2.589
 5997SOL    HW218891   0.209   5.379   2.529
 5998SOL     OW18892   6.305   1.326   3.437
 5998SOL    HW118893   6.353   1.412   3.454
 5998SOL    HW218894   6.236   1.340   3.366
 5999SOL     OW18895   2.451   2.832   1.593
 5999SOL    HW118896   2.372   2.785   1.633
 5999SOL    HW218897   2.448   2.824   1.494
 6000SOL     OW18898   2.519   6.971   0.580
 6000SOL    HW118899   2.583   0.019   0.616
 6000SOL    HW218900   2.539   6.954   0.483
 6001SOL     OW18901   0.416   4.270   6.618
 6001SOL    HW118902   0.443   4.213   6.695
 6001SOL    HW218903   0.393   4.362   6.650
 6002SOL     OW18904   5.978   1.113   0.743
 6002SOL    HW118905   5.948   1.159   0.827
 6002SOL    HW218906   5.930   1.025   0.735
 6003SOL     OW18907   6.182   1.794   4.566
 6003SOL    HW118908   6.239   1.875   4.562
 6003SOL    HW218909   6.237   1.715   4.593
 6004SOL     OW18910   6.977   3.569   2.773
 6004SOL    HW118911   6.944   3.555   2.866
 6004SOL    HW218912   0.029   3.639   2.772
 6005SOL     OW18913   4.654   5.192   3.849
 6005SOL    HW118914   4.568   5.190   3.901
 6005SOL    HW218915   4.719   5.128   3.890
 6006SOL     OW18916   2.428   1.275   5.361
 6006SOL    HW118917   2.502   1.220   5.323
 6006SOL    HW218918   2.341   1.227   5.349
 6007SOL     OW18919   5.326   4.323   5.461
 6007SOL    HW118920   5.379   4.238   5.468
 6007SOL    HW218921   5.229   4.302   5.462
 6008SOL     OW18922   2.349   4.826   5.241
 6008SOL    HW118923   2.396   4.763   5.179
 6008SOL    HW218924   2.402   4.835   5.326
 6009SOL     OW18925   2.357   1.285   3.335
 6009SOL    HW118926   2.269   1.305   3.293
 6009SOL    HW218927   2.411   1.227   3.274
 6010SOL     OW18928   1.301   4.782   4.306
 6010SOL    HW118929   1.206   4.806   4.286
 6010SOL    HW218930   1.354   4.866   4.321
 6011SOL     OW18931   4.999   2.834   3.049
 6011SOL    HW118932   4.926   2.845   3.116
 6011SOL    HW218933   4.989   2.903   2.977
 6012SOL     OW18934   5.836   1.183   0.482
 6012SOL    HW118935   5.929   1.178   0.518
 6012SOL    HW218936   5.808   1.094   0.447
 6013SOL     OW18937   5.149   2.071   2.523
 6013SOL    HW118938   5.079   2.100   2.459
 6013SOL    HW218939   5.121   2.094   2.616
 6014SOL     OW18940   3.981   3.645   2.757
 6014SOL    HW118941   3.893   3.642   2.711
 6014SOL    HW218942   4.038   3.570   2.724
 6015SOL     OW18943   6.252   3.910   3.988
 6015SOL    HW118944   6.209   3.873   4.070
 6015SOL    HW218945   6.191   3.899   3.910
 6016SOL     OW18946   6.592   1.633   5.591
 6016SOL    HW118947   6.629   1.577   5.516
 6016SOL    HW218948   6.526   1.698   5.554
 6017SOL     OW18949   6.731   4.743   3.521
 6017SOL    HW118950   6.830   4.742   3.535
 6017SOL    HW218951   6.685   4.740   3.610
 6018SOL     OW18952   4.206   0.503   6.535
 6018SOL    HW118953   4.188   0.591   6.492
 6018SOL    HW218954   4.304   0.482   6.529
 6019SOL     OW18955   0.183   2.769   4.222
 6019SOL    HW118956   0.190   2.868   4.237
 6019SOL    HW218957   0.274   2.728   4.231
 6020SOL     OW18958   1.073   5.173   0.842
 6020SOL    HW118959   1.004   5.175   0.914
 6020SOL    HW218960   1.097   5.078   0.821
 6021SOL     OW18961   4.523   0.523   2.909
 6021SOL    HW118962   4.600   0.566   2.956
 6021SOL    HW218963   4.548   0.430   2.881
 6022SOL     OW18964   5.405   1.388   4.238
 6022SOL    HW118965   5.471   1.458   4.211
 6022SOL    HW218966   5.406   1.314   4.171
 6023SOL     OW18967   5.673   1.016   1.360
 6023SOL    HW118968   5.726   0.935   1.388
 6023SOL    HW218969   5.598   1.030   1.424
 6024SOL     OW18970   1.806   4.787   2.949
 6024SOL    HW118971   1.751   4.811   2.869
 6024SOL    HW218972   1.901   4.814   2.935
 6025SOL     OW18973   3.667   1.774   3.393
 6025SOL    HW118974   3.650   1.801   3.488
 6025SOL    HW218975   3.737   1.833   3.353
 6026SOL     OW18976   6.947   4.631   5.451
 6026SOL    HW118977   0.019   4.640   5.493
 6026SOL    HW218978   6.958   4.603   5.355
 6027SOL     OW18979   0.120   3.295   5.582
 6027SOL    HW118980   0.217   3.317   5.588
 6027SOL    HW218981   0.066   3.369   5.622
 6028SOL     OW18982   6.923   5.075   0.507
 6028SOL    HW118983   6.947   5.157   0.560
 6028SOL    HW218984   6.849   5.027   0.553
 6029SOL     OW18985   2.392   6.872   4.890
 6029SOL    HW118986   2.325   6.909   4.826
 6029SOL    HW218987   2.460   6.818   4.840
 6030SOL     OW18988   4.164   5.327   2.498
 6030SOL    HW118989   4.171   5.427   2.500
 6030SOL    HW218990   4.070   5.300   2.479
 6031SOL     OW18991   2.719   5.418   4.183
 6031SOL    HW118992   2.812   5.445   4.157
 6031SOL    HW218993   2.657   5.495   4.169
 6032SOL     OW18994   2.291   4.588   2.575
 6032SOL    HW118995   2.293   4.688   2.568
 6032SOL    HW218996   2.236   4.561   2.653
 6033SOL     OW18997   2.728   2.202   2.544
 6033SOL    HW118998   2.725   2.131   2.614
 6033SOL    HW218999   2.659   2.271   2.563
 6034SOL     OW19000   1.315   6.802   5.236
 6034SOL    HW119001   1.286   6.893   5.206
 6034SOL    HW219002   1.414   6.793   5.225
 6035SOL     OW19003   0.175   1.168   2.460
 6035SOL    HW119004   0.082   1.166   2.424
 6035SOL    HW219005   0.239   1.180   2.384
 6036SOL     OW19006   5.147   4.367   3.102
 6036SOL    HW119007   5.154   4.432   3.026
 6036SOL    HW219008   5.091   4.407   3.174
 6037SOL     OW19009   4.536   5.951   7.009
 6037SOL    HW119010   4.568   6.039   6.976
 6037SOL    HW219011   4.592   5.922   0.067
 6038SOL     OW19012   1.896   3.038   5.905
 6038SOL    HW119013   1.846   2.951   5.910
 6038SOL    HW219014   1.839   3.110   5.944
 6039SOL     OW19015   3.026   3.150   2.910
 6039SOL    HW119016   3.055   3.055   2.897
 6039SOL    HW219017   3.088   3.211   2.861
 6040SOL     OW19018   0.963   1.628   0.741
 6040SOL    HW119019   0.992   1.561   0.810
 6040SOL    HW219020   1.044   1.668   0.697
 6041SOL     OW19021   2.771   0.217   4.871
 6041SOL    HW119022   2.823   0.136   4.896
 6041SOL    HW219023   2.676   0.191   4.854
 6042SOL     OW19024   4.432   6.545   2.396
 6042SOL    HW119025   4.527   6.578   2.395
 6042SOL    HW219026   4.430   6.454   2.438
 6043SOL     OW19027   1.032   5.257   5.891
 6043SOL    HW119028   0.951   5.204   5.917
 6043SOL    HW219029   1.094   5.265   5.968
 6044SOL     OW19030   1.470   2.901   1.377
 6044SOL    HW119031   1.492   2.941   1.466
 6044SOL    HW219032   1.535   2.934   1.309
 6045SOL     OW19033   5.704   3.983   2.298
 6045SOL    HW119034   5.673   4.016   2.387
 6045SOL    HW219035   5.804   3.986   2.294
 6046SOL     OW19036   3.805   2.117   6.830
 6046SOL    HW119037   3.764   2.047   6.888
 6046SOL    HW219038   3.903   2.124   6.852
 6047SOL     OW19039   4.912   1.750   1.993
 6047SOL    HW119040   4.902   1.678   2.062
 6047SOL    HW219041   4.823   1.789   1.972
 6048SOL     OW19042   4.844   5.306   5.481
 6048SOL    HW119043   4.767   5.364   5.505
 6048SOL    HW219044   4.894   5.345   5.404
 6049SOL     OW19045   4.971   3.247   7.013
 6049SOL    HW119046   4.947   3.325   6.956
 6049SOL    HW219047   4.901   3.234   0.065
 6050SOL     OW19048   3.432   5.628   5.639
 6050SOL    HW119049   3.523   5.629   5.598
 6050SOL    HW219050   3.407   5.533   5.662
 6051SOL     OW19051   2.205   6.397   3.511
 6051SOL    HW119052   2.118   6.439   3.535
 6051SOL    HW219053   2.279   6.462   3.530
 6052SOL     OW19054   6.100   1.159   0.209
 6052SOL    HW119055   6.072   1.254   0.196
 6052SOL    HW219056   6.172   1.154   0.279
 6053SOL     OW19057   3.912   1.090   6.746
 6053SOL    HW119058   3.919   1.185   6.716
 6053SOL    HW219059   4.003   1.054   6.764
 6054SOL     OW19060   2.271   3.383   0.163
 6054SOL    HW119061   2.202   3.328   0.209
 6054SOL    HW219062   2.271   3.476   0.200
 6055SOL     OW19063   5.271   0.082   5.104
 6055SOL    HW119064   5.370   0.083   5.093
 6055SOL    HW219065   5.244   7.018   5.153
 6056SOL     OW19066   4.957   3.413   4.327
 6056SOL    HW119067   4.993   3.458   4.245
 6056SOL    HW219068   4.913   3.327   4.302
 6057SOL     OW19069   6.081   2.072   3.126
 6057SOL    HW119070   5.993   2.058   3.172
 6057SOL    HW219071   6.146   2.114   3.190
 6058SOL     OW19072   4.535   3.617   1.645
 6058SOL    HW119073   4.614   3.595   1.703
 6058SOL    HW219074   4.557   3.697   1.589
 6059SOL     OW19075   4.998   4.869   5.693
 6059SOL    HW119076   4.952   4.950   5.658
 6059SOL    HW219077   5.088   4.894   5.728
 6060SOL     OW19078   2.786   3.507   6.725
 6060SOL    HW119079   2.807   3.432   6.787
 6060SOL    HW219080   2.785   3.594   6.776
 6061SOL     OW19081   3.669   2.717   0.805
 6061SOL    HW119082   3.744   2.778   0.780
 6061SOL    HW219083   3.645   2.731   0.902
 6062SOL     OW19084   2.562   0.805   5.091
 6062SOL    HW119085   2.578   0.895   5.133
 6062SOL    HW219086   2.643   0.777   5.040
 6063SOL     OW19087   4.346   2.858   5.868
 6063SOL    HW119088   4.346   2.941   5.814
 6063SOL    HW219089   4.252   2.835   5.893
 6064SOL     OW19090   1.430   6.016   1.014
 6064SOL    HW119091   1.414   5.950   0.940
 6064SOL    HW219092   1.363   6.090   1.008
 6065SOL     OW19093   0.247   6.726   2.429
 6065SOL    HW119094   0.238   6.648   2.368
 6065SOL    HW219095   0.305   6.795   2.385
 6066SOL     OW19096   4.846   1.432   6.021
 6066SOL    HW119097   4.943   1.418   6.043
 6066SOL    HW219098   4.816   1.520   6.058
 6067SOL     OW19099   5.711   1.001   5.303
 6067SOL    HW119100   5.685   1.081   5.357
 6067SOL    HW219101   5.722   1.028   5.207
 6068SOL     OW19102   5.296   3.356   4.637
 6068SOL    HW119103   5.321   3.353   4.540
 6068SOL    HW219104   5.198   3.335   4.646
 6069SOL     OW19105   6.068   3.500   5.059
 6069SOL    HW119106   6.096   3.480   5.153
 6069SOL    HW219107   6.079   3.419   5.002
 6070SOL     OW19108   2.843   2.417   1.044
 6070SOL    HW119109   2.867   2.332   0.997
 6070SOL    HW219110   2.847   2.402   1.143
 6071SOL     OW19111   5.237   5.532   4.492
 6071SOL    HW119112   5.227   5.513   4.394
 6071SOL    HW219113   5.146   5.548   4.532
 6072SOL     OW19114   6.796   0.513   1.605
 6072SOL    HW119115   6.711   0.522   1.553
 6072SOL    HW219116   6.821   0.416   1.611
 6073SOL     OW19117   5.912   3.054   6.924
 6073SOL    HW119118   5.872   2.986   6.862
 6073SOL    HW219119   5.921   3.014   7.015
 6074SOL     OW19120   0.781   6.481   2.543
 6074SOL    HW119121   0.787   6.385   2.513
 6074SOL    HW219122   0.687   6.503   2.567
 6075SOL     OW19123   6.176   0.812   5.864
 6075SOL    HW119124   6.166   0.716   5.890
 6075SOL    HW219125   6.267   0.844   5.889
 6076SOL     OW19126   3.315   5.527   4.064
 6076SOL    HW119127   3.267   5.606   4.103
 6076SOL    HW219128   3.394   5.506   4.122
 6077SOL     OW19129   6.152   5.826   0.950
 6077SOL    HW119130   6.246   5.855   0.971
 6077SOL    HW219131   6.139   5.824   0.851
 6078SOL     OW19132   4.658   4.756   0.680
 6078SOL    HW119133   4.611   4.734   0.594
 6078SOL    HW219134   4.718   4.835   0.666
 6079SOL     OW19135   4.188   3.749   6.099
 6079SOL    HW119136   4.247   3.826   6.121
 6079SOL    HW219137   4.126   3.731   6.176
 6080SOL     OW19138   0.275   6.516   1.421
 6080SOL    HW119139   0.184   6.545   1.450
 6080SOL    HW219140   0.266   6.443   1.353
 6081SOL     OW19141   6.656   2.672   5.127
 6081SOL    HW119142   6.745   2.695   5.166
 6081SOL    HW219143   6.588   2.738   5.159
 6082SOL     OW19144   1.939   1.316   3.923
 6082SOL    HW119145   2.029   1.279   3.943
 6082SOL    HW219146   1.884   1.317   4.007
 6083SOL     OW19147   6.435   5.831   0.051
 6083SOL    HW119148   6.471   5.909   0.001
 6083SOL    HW219149   6.347   5.854   0.091
 6084SOL     OW19150   0.768   6.846   3.621
 6084SOL    HW119151   0.789   6.871   3.527
 6084SOL    HW219152   0.670   6.861   3.638
 6085SOL     OW19153   0.120   5.760   0.555
 6085SOL    HW119154   0.090   5.735   0.463
 6085SOL    HW219155   0.220   5.765   0.558
 6086SOL     OW19156   3.622   0.771   5.797
 6086SOL    HW119157   3.570   0.720   5.729
 6086SOL    HW219158   3.584   0.863   5.805
 6087SOL     OW19159   3.541   5.502   1.018
 6087SOL    HW119160   3.492   5.442   1.082
 6087SOL    HW219161   3.484   5.581   0.997
 6088SOL     OW19162   5.160   5.826   4.098
 6088SOL    HW119163   5.174   5.792   4.005
 6088SOL    HW219164   5.247   5.861   4.134
 6089SOL     OW19165   5.046   3.083   1.561
 6089SOL    HW119166   5.021   3.060   1.656
 6089SOL    HW219167   5.102   3.010   1.522
 6090SOL     OW19168   1.830   5.685   5.313
 6090SOL    HW119169   1.760   5.713   5.379
 6090SOL    HW219170   1.907   5.748   5.318
 6091SOL     OW19171   1.975   1.132   0.117
 6091SOL    HW119172   1.918   1.059   0.153
 6091SOL    HW219173   2.048   1.093   0.061
 6092SOL     OW19174   4.052   0.013   2.827
 6092SOL    HW119175   4.083   0.108   2.817
 6092SOL    HW219176   4.122   6.970   2.791
 6093SOL     OW19177   1.976   3.475   1.852
 6093SOL    HW119178   1.923   3.402   1.896
 6093SOL    HW219179   2.046   3.507   1.915
 6094SOL     OW19180   2.417   6.917   2.246
 6094SOL    HW119181   2.340   6.858   2.272
 6094SOL    HW219182   2.454   6.886   2.158
 6095SOL     OW19183   5.086   4.306   0.467
 6095SOL    HW119184   5.097   4.248   0.548
 6095SOL    HW219185   5.175   4.341   0.439
 6096SOL     OW19186   6.302   6.654   4.176
 6096SOL    HW119187   6.256   6.631   4.262
 6096SOL    HW219188   6.379   6.715   4.194
 6097SOL     OW19189   2.079   6.053   2.028
 6097SOL    HW119190   2.092   6.023   2.122
 6097SOL    HW219191   2.168   6.072   1.986
 6098SOL     OW19192   1.702   1.812   5.226
 6098SOL    HW119193   1.625   1.869   5.200
 6098SOL    HW219194   1.723   1.749   5.152
 6099SOL     OW19195   5.708   6.541   6.884
 6099SOL    HW119196   5.785   6.579   6.833
 6099SOL    HW219197   5.638   6.612   6.897
 6100SOL     OW19198   5.510   5.864   0.706
 6100SOL    HW119199   5.446   5.816   0.766
 6100SOL    HW219200   5.463   5.891   0.622
 6101SOL     OW19201   6.473   3.083   3.744
 6101SOL    HW119202   6.502   3.124   3.659
 6101SOL    HW219203   6.488   3.147   3.820
 6102SOL     OW19204   3.308   6.502   2.766
 6102SOL    HW119205   3.292   6.496   2.667
 6102SOL    HW219206   3.360   6.584   2.787
 6103SOL     OW19207   6.627   1.848   1.676
 6103SOL    HW119208   6.665   1.778   1.615
 6103SOL    HW219209   6.533   1.824   1.699
 6104SOL     OW19210   6.150   0.920   5.485
 6104SOL    HW119211   6.107   0.979   5.553
 6104SOL    HW219212   6.219   0.972   5.435
 6105SOL     OW19213   3.493   6.402   6.491
 6105SOL    HW119214   3.496   6.368   6.397
 6105SOL    HW219215   3.496   6.324   6.554
 6106SOL     OW19216   1.572   3.843   6.757
 6106SOL    HW119217   1.642   3.785   6.715
 6106SOL    HW219218   1.556   3.923   6.700
 6107SOL     OW19219   3.855   5.584   4.573
 6107SOL    HW119220   3.936   5.638   4.548
 6107SOL    HW219221   3.791   5.584   4.496
 6108SOL     OW19222   1.900   3.196   1.957
 6108SOL    HW119223   1.958   3.166   2.033
 6108SOL    HW219224   1.926   3.148   1.874
 6109SOL     OW19225   5.842   2.074   5.165
 6109SOL    HW119226   5.743   2.068   5.158
 6109SOL    HW219227   5.881   2.101   5.077
 6110SOL     OW19228   3.789   4.088   0.635
 6110SOL    HW119229   3.744   4.166   0.592
 6110SOL    HW219230   3.880   4.075   0.594
 6111SOL     OW19231   1.919   4.176   2.361
 6111SOL    HW119232   1.928   4.082   2.392
 6111SOL    HW219233   1.861   4.227   2.425
 6112SOL     OW19234   3.731   0.234   2.308
 6112SOL    HW119235   3.770   0.256   2.397
 6112SOL    HW219236   3.784   0.279   2.236
 6113SOL     OW19237   2.446   1.046   6.502
 6113SOL    HW119238   2.448   0.977   6.575
 6113SOL    HW219239   2.484   1.132   6.536
 6114SOL     OW19240   5.129   5.043   1.368
 6114SOL    HW119241   5.210   5.087   1.331
 6114SOL    HW219242   5.154   4.990   1.449
 6115SOL     OW19243   5.497   6.740   4.176
 6115SOL    HW119244   5.464   6.783   4.092
 6115SOL    HW219245   5.501   6.641   4.164
 6116SOL     OW19246   3.660   1.266   6.087
 6116SOL    HW119247   3.600   1.345   6.097
 6116SOL    HW219248   3.672   1.221   6.176
 6117SOL     OW19249   1.739   1.174   3.781
 6117SOL    HW119250   1.830   1.165   3.821
 6117SOL    HW219251   1.743   1.153   3.683
 6118SOL     OW19252   6.915   1.166   2.409
 6118SOL    HW119253   6.865   1.081   2.390
 6118SOL    HW219254   6.857   1.227   2.463
 6119SOL     OW19255   0.755   3.870   6.457
 6119SOL    HW119256   0.763   3.880   6.358
 6119SOL    HW219257   0.793   3.952   6.502
 6120SOL     OW19258   3.348   6.449   4.965
 6120SOL    HW119259   3.349   6.445   5.065
 6120SOL    HW219260   3.434   6.489   4.933
 6121SOL     OW19261   0.613   3.542   5.531
 6121SOL    HW119262   0.643   3.496   5.615
 6121SOL    HW219263   0.673   3.516   5.455
 6122SOL     OW19264   4.225   5.182   0.572
 6122SOL    HW119265   4.154   5.113   0.589
 6122SOL    HW219266   4.222   5.251   0.644
 6123SOL     OW19267   5.333   7.014   6.839
 6123SOL    HW119268   5.403   0.027   6.776
 6123SOL    HW219269   5.371   6.942   6.898
 6124SOL     OW19270   2.141   6.992   6.108
 6124SOL    HW119271   2.221   6.940   6.138
 6124SOL    HW219272   2.063   6.970   6.167
 6125SOL     OW19273   2.248   5.213   0.472
 6125SOL    HW119274   2.214   5.167   0.390
 6125SOL    HW219275   2.238   5.312   0.462
 6126SOL     OW19276   1.324   0.162   4.571
 6126SOL    HW119277   1.346   0.163   4.668
 6126SOL    HW219278   1.319   0.256   4.537
 6127SOL     OW19279   3.427   0.444   0.710
 6127SOL    HW119280   3.467   0.510   0.645
 6127SOL    HW219281   3.494   0.423   0.781
 6128SOL     OW19282   5.853   4.105   0.329
 6128SOL    HW119283   5.808   4.020   0.356
 6128SOL    HW219284   5.929   4.124   0.392
 6129SOL     OW19285   6.910   3.222   3.290
 6129SOL    HW119286   6.981   3.176   3.344
 6129SOL    HW219287   6.863   3.290   3.346
 6130SOL     OW19288   5.904   2.361   3.287
 6130SOL    HW119289   5.931   2.403   3.373
 6130SOL    HW219290   5.975   2.377   3.218
 6131SOL     OW19291   0.790   1.557   5.135
 6131SOL    HW119292   0.791   1.490   5.061
 6131SOL    HW219293   0.880   1.560   5.179
 6132SOL     OW19294   4.906   2.342   6.905
 6132SOL    HW119295   4.914   2.367   7.001
 6132SOL    HW219296   4.979   2.277   6.881
 6133SOL     OW19297   1.612   3.269   1.870
 6133SOL    HW119298   1.705   3.303   1.851
 6133SOL    HW219299   1.566   3.332   1.933
 6134SOL     OW19300   3.958   4.596   6.279
 6134SOL    HW119301   3.923   4.534   6.349
 6134SOL    HW219302   4.047   4.632   6.307
 6135SOL     OW19303   0.554   1.183   1.486
 6135SOL    HW119304   0.546   1.094   1.532
 6135SOL    HW219305   0.495   1.183   1.406
 6136SOL     OW19306   1.292   2.745   2.190
 6136SOL    HW119307   1.253   2.677   2.252
 6136SOL    HW219308   1.350   2.699   2.123
 6137SOL     OW19309   6.358   3.112   2.826
 6137SOL    HW119310   6.441   3.071   2.864
 6137SOL    HW219311   6.356   3.098   2.727
 6138SOL     OW19312   3.558   6.258   2.808
 6138SOL    HW119313   3.566   6.179   2.868
 6138SOL    HW219314   3.495   6.324   2.849
 6139SOL     OW19315   1.244   0.148   5.827
 6139SOL    HW119316   1.150   0.118   5.844
 6139SOL    HW219317   1.303   0.115   5.900
 6140SOL     OW19318   0.403   6.221   1.586
 6140SOL    HW119319   0.452   6.223   1.498
 6140SOL    HW219320   0.419   6.307   1.634
 6141SOL     OW19321   0.355   6.548   6.451
 6141SOL    HW119322   0.432   6.505   6.498
 6141SOL    HW219323   0.320   6.623   6.507
 6142SOL     OW19324   1.231   6.427   0.166
 6142SOL    HW119325   1.177   6.510   0.174
 6142SOL    HW219326   1.244   6.404   0.070
 6143SOL     OW19327   6.593   3.487   1.597
 6143SOL    HW119328   6.541   3.548   1.537
 6143SOL    HW219329   6.636   3.416   1.542
 6144SOL     OW19330   5.666   4.514   3.116
 6144SOL    HW119331   5.607   4.548   3.189
 6144SOL    HW219332   5.640   4.420   3.093
 6145SOL     OW19333   4.760   5.091   3.103
 6145SOL    HW119334   4.677   5.139   3.130
 6145SOL    HW219335   4.802   5.050   3.184
 6146SOL     OW19336   3.236   5.734   3.773
 6146SOL    HW119337   3.332   5.724   3.799
 6146SOL    HW219338   3.177   5.715   3.852
 6147SOL     OW19339   2.053   2.011   4.752
 6147SOL    HW119340   2.060   1.911   4.756
 6147SOL    HW219341   2.054   2.048   4.845
 6148SOL     OW19342   5.701   6.345   4.511
 6148SOL    HW119343   5.630   6.400   4.556
 6148SOL    HW219344   5.731   6.391   4.428
 6149SOL     OW19345   2.556   5.818   0.846
 6149SOL    HW119346   2.547   5.741   0.909
 6149SOL    HW219347   2.464   5.850   0.821
 6150SOL     OW19348   4.291   5.434   0.079
 6150SOL    HW119349   4.315   5.345   0.039
 6150SOL    HW219350   4.203   5.426   0.126
 6151SOL     OW19351   5.811   4.252   6.295
 6151SOL    HW119352   5.867   4.244   6.212
 6151SOL    HW219353   5.811   4.165   6.344
 6152SOL     OW19354   6.425   5.429   4.598
 6152SOL    HW119355   6.424   5.520   4.640
 6152SOL    HW219356   6.515   5.411   4.559
 6153SOL     OW19357   4.877   4.535   1.441
 6153SOL    HW119358   4.789   4.545   1.488
 6153SOL    HW219359   4.949   4.577   1.496
 6154SOL     OW19360   5.809   1.704   2.663
 6154SOL    HW119361   5.794   1.757   2.746
 6154SOL    HW219362   5.779   1.756   2.584
 6155SOL     OW19363   1.631   1.808   4.088
 6155SOL    HW119364   1.694   1.740   4.125
 6155SOL    HW219365   1.567   1.764   4.026
 6156SOL     OW19366   3.999   4.468   1.192
 6156SOL    HW119367   3.927   4.408   1.157
 6156SOL    HW219368   3.991   4.475   1.292
 6157SOL     OW19369   0.378   0.882   4.835
 6157SOL    HW119370   0.374   0.800   4.892
 6157SOL    HW219371   0.285   0.917   4.822
 6158SOL     OW19372   3.295   2.149   5.540
 6158SOL    HW119373   3.220   2.198   5.496
 6158SOL    HW219374   3.331   2.079   5.478
 6159SOL     OW19375   5.305   3.010   2.195
 6159SOL    HW119376   5.276   3.056   2.111
 6159SOL    HW219377   5.319   2.913   2.176
 6160SOL     OW19378   4.945   1.640   6.202
 6160SOL    HW119379   5.040   1.614   6.219
 6160SOL    HW219380   4.935   1.739   6.208
 6161SOL     OW19381   4.605   1.841   5.207
 6161SOL    HW119382   4.617   1.768   5.139
 6161SOL    HW219383   4.532   1.816   5.270
 6162SOL     OW19384   0.812   6.144   3.112
 6162SOL    HW119385   0.714   6.148   3.130
 6162SOL    HW219386   0.841   6.228   3.068
 6163SOL     OW19387   6.062   6.921   0.838
 6163SOL    HW119388   6.104   6.909   0.928
 6163SOL    HW219389   6.114   6.989   0.786
 6164SOL     OW19390   4.032   3.812   2.468
 6164SOL    HW119391   3.971   3.848   2.538
 6164SOL    HW219392   4.116   3.778   2.510
 6165SOL     OW19393   4.594   1.304   0.133
 6165SOL    HW119394   4.670   1.343   0.081
 6165SOL    HW219395   4.533   1.254   0.071
 6166SOL     OW19396   5.208   1.346   6.409
 6166SOL    HW119397   5.256   1.283   6.470
 6166SOL    HW219398   5.271   1.419   6.381
 6167SOL     OW19399   1.354   5.691   3.500
 6167SOL    HW119400   1.331   5.640   3.418
 6167SOL    HW219401   1.328   5.787   3.487
 6168SOL     OW19402   1.281   4.056   1.922
 6168SOL    HW119403   1.195   4.039   1.873
 6168SOL    HW219404   1.302   4.154   1.919
 6169SOL     OW19405   1.221   2.313   1.039
 6169SOL    HW119406   1.289   2.385   1.027
 6169SOL    HW219407   1.212   2.292   1.137
 6170SOL     OW19408   0.796   3.875   5.504
 6170SOL    HW119409   0.851   3.859   5.423
 6170SOL    HW219410   0.720   3.810   5.506
 6171SOL     OW19411   0.637   2.889   0.713
 6171SOL    HW119412   0.549   2.844   0.727
 6171SOL    HW219413   0.670   2.869   0.621
 6172SOL     OW19414   1.814   2.826   2.491
 6172SOL    HW119415   1.839   2.739   2.448
 6172SOL    HW219416   1.739   2.868   2.440
 6173SOL     OW19417   6.744   5.602   1.555
 6173SOL    HW119418   6.809   5.587   1.630
 6173SOL    HW219419   6.653   5.575   1.584
 6174SOL     OW19420   5.499   4.875   3.376
 6174SOL    HW119421   5.462   4.915   3.292
 6174SOL    HW219422   5.469   4.929   3.454
 6175SOL     OW19423   4.431   0.536   3.534
 6175SOL    HW119424   4.433   0.557   3.436
 6175SOL    HW219425   4.437   0.437   3.547
 6176SOL     OW19426   4.823   4.050   6.106
 6176SOL    HW119427   4.837   4.100   6.021
 6176SOL    HW219428   4.822   3.952   6.087
 6177SOL     OW19429   5.590   1.030   0.948
 6177SOL    HW119430   5.539   1.053   1.031
 6177SOL    HW219431   5.680   0.994   0.972
 6178SOL     OW19432   4.580   4.790   2.507
 6178SOL    HW119433   4.574   4.725   2.583
 6178SOL    HW219434   4.628   4.748   2.430
 6179SOL     OW19435   6.642   4.265   3.128
 6179SOL    HW119436   6.596   4.350   3.153
 6179SOL    HW219437   6.722   4.286   3.071
 6180SOL     OW19438   3.340   4.084   0.019
 6180SOL    HW119439   3.370   4.002   6.990
 6180SOL    HW219440   3.345   4.163   6.976
 6181SOL     OW19441   4.232   6.581   1.005
 6181SOL    HW119442   4.233   6.497   0.951
 6181SOL    HW219443   4.234   6.559   1.102
 6182SOL     OW19444   5.439   3.616   5.377
 6182SOL    HW119445   5.420   3.660   5.289
 6182SOL    HW219446   5.506   3.669   5.428
 6183SOL     OW19447   1.377   2.139   3.062
 6183SOL    HW119448   1.440   2.066   3.090
 6183SOL    HW219449   1.380   2.213   3.129
 6184SOL     OW19450   2.127   0.025   6.630
 6184SOL    HW119451   2.171   0.071   6.552
 6184SOL    HW219452   2.029   0.047   6.631
 6185SOL     OW19453   0.939   3.870   5.739
 6185SOL    HW119454   0.965   3.775   5.755
 6185SOL    HW219455   0.901   3.879   5.647
 6186SOL     OW19456   0.137   0.318   6.857
 6186SOL    HW119457   0.211   0.254   6.841
 6186SOL    HW219458   0.174   0.411   6.867
 6187SOL     OW19459   5.290   4.426   3.662
 6187SOL    HW119460   5.233   4.500   3.697
 6187SOL    HW219461   5.386   4.455   3.662
 6188SOL     OW19462   2.177   0.998   0.469
 6188SOL    HW119463   2.195   1.007   0.567
 6188SOL    HW219464   2.207   1.080   0.421
 6189SOL     OW19465   4.746   4.359   2.940
 6189SOL    HW119466   4.763   4.450   2.903
 6189SOL    HW219467   4.758   4.290   2.869
 6190SOL     OW19468   0.757   4.182   5.253
 6190SOL    HW119469   0.704   4.177   5.338
 6190SOL    HW219470   0.854   4.169   5.274
 6191SOL     OW19471   3.048   1.718   0.018
 6191SOL    HW119472   3.022   1.770   0.100
 6191SOL    HW219473   2.974   1.656   7.012
 6192SOL     OW19474   3.407   2.508   5.633
 6192SOL    HW119475   3.398   2.486   5.535
 6192SOL    HW219476   3.388   2.605   5.647
 6193SOL     OW19477   4.796   0.418   1.873
 6193SOL    HW119478   4.832   0.367   1.795
 6193SOL    HW219479   4.795   0.360   1.954
 6194SOL     OW19480   1.283   0.418   1.388
 6194SOL    HW119481   1.319   0.379   1.304
 6194SOL    HW219482   1.200   0.368   1.415
 6195SOL     OW19483   3.894   6.242   5.609
 6195SOL    HW119484   3.850   6.321   5.651
 6195SOL    HW219485   3.831   6.200   5.543
 6196SOL     OW19486   5.436   3.245   1.350
 6196SOL    HW119487   5.481   3.329   1.378
 6196SOL    HW219488   5.457   3.226   1.254
 6197SOL     OW19489   3.592   4.710   0.852
 6197SOL    HW119490   3.498   4.705   0.886
 6197SOL    HW219491   3.632   4.618   0.853
 6198SOL     OW19492   4.249   6.533   1.539
 6198SOL    HW119493   4.326   6.492   1.491
 6198SOL    HW219494   4.276   6.622   1.576
 6199SOL     OW19495   0.662   1.301   0.612
 6199SOL    HW119496   0.664   1.216   0.664
 6199SOL    HW219497   0.634   1.283   0.518
 6200SOL     OW19498   1.236   1.184   5.736
 6200SOL    HW119499   1.329   1.202   5.703
 6200SOL    HW219500   1.220   1.085   5.738
 6201SOL     OW19501   0.500   4.037   4.765
 6201SOL    HW119502   0.474   4.024   4.670
 6201SOL    HW219503   0.599   4.031   4.774
 6202SOL     OW19504   4.255   1.440   2.286
 6202SOL    HW119505   4.163   1.465   2.256
 6202SOL    HW219506   4.310   1.416   2.206
 6203SOL     OW19507   6.755   5.577   2.433
 6203SOL    HW119508   6.741   5.488   2.390
 6203SOL    HW219509   6.765   5.565   2.532
 6204SOL     OW19510   0.194   4.866   4.345
 6204SOL    HW119511   0.190   4.938   4.414
 6204SOL    HW219512   0.287   4.860   4.308
 6205SOL     OW19513   6.228   5.530   0.131
 6205SOL    HW119514   6.234   5.432   0.153
 6205SOL    HW219515   6.292   5.551   0.057
 6206SOL     OW19516   5.803   1.565   3.443
 6206SOL    HW119517   5.737   1.582   3.370
 6206SOL    HW219518   5.888   1.614   3.423
 6207SOL     OW19519   0.566   5.145   5.125
 6207SOL    HW119520   0.596   5.212   5.193
 6207SOL    HW219521   0.627   5.066   5.125
 6208SOL     OW19522   5.359   2.391   5.638
 6208SOL    HW119523   5.374   2.307   5.586
 6208SOL    HW219524   5.374   2.470   5.579
 6209SOL     OW19525   3.900   5.736   6.658
 6209SOL    HW119526   3.932   5.646   6.626
 6209SOL    HW219527   3.840   5.776   6.589
 6210SOL     OW19528   5.694   3.760   3.887
 6210SOL    HW119529   5.763   3.709   3.835
 6210SOL    HW219530   5.701   3.737   3.984
 6211SOL     OW19531   2.917   6.293   5.712
 6211SOL    HW119532   2.986   6.298   5.784
 6211SOL    HW219533   2.957   6.323   5.626
 6212SOL     OW19534   2.208   4.915   4.397
 6212SOL    HW119535   2.169   4.845   4.337
 6212SOL    HW219536   2.236   4.873   4.483
 6213SOL     OW19537   6.571   0.861   0.255
 6213SOL    HW119538   6.639   0.864   0.328
 6213SOL    HW219539   6.588   0.936   0.190
 6214SOL     OW19540   4.267   5.353   4.042
 6214SOL    HW119541   4.322   5.271   4.028
 6214SOL    HW219542   4.211   5.370   3.961
 6215SOL     OW19543   4.335   2.080   0.284
 6215SOL    HW119544   4.251   2.106   0.331
 6215SOL    HW219545   4.330   2.111   0.189
 6216SOL     OW19546   6.558   1.263   2.362
 6216SOL    HW119547   6.501   1.258   2.280
 6216SOL    HW219548   6.638   1.320   2.344
 6217SOL     OW19549   0.538   3.612   2.486
 6217SOL    HW119550   0.536   3.589   2.583
 6217SOL    HW219551   0.476   3.551   2.436
 6218SOL     OW19552   4.037   6.198   6.671
 6218SOL    HW119553   4.053   6.110   6.714
 6218SOL    HW219554   3.970   6.187   6.597
 6219SOL     OW19555   1.796   1.831   4.553
 6219SOL    HW119556   1.764   1.921   4.584
 6219SOL    HW219557   1.811   1.833   4.454
 6220SOL     OW19558   2.663   1.428   4.545
 6220SOL    HW119559   2.575   1.386   4.521
 6220SOL    HW219560   2.710   1.457   4.461
 6221SOL     OW19561   5.484   6.156   0.209
 6221SOL    HW119562   5.407   6.207   0.248
 6221SOL    HW219563   5.543   6.122   0.282
 6222SOL     OW19564   0.994   6.420   1.680
 6222SOL    HW119565   0.978   6.381   1.589
 6222SOL    HW219566   1.078   6.475   1.679
 6223SOL     OW19567   1.499   4.750   3.807
 6223SOL    HW119568   1.534   4.666   3.849
 6223SOL    HW219569   1.575   4.802   3.768
 6224SOL     OW19570   3.219   1.663   6.101
 6224SOL    HW119571   3.302   1.608   6.095
 6224SOL    HW219572   3.145   1.607   6.137
 6225SOL     OW19573   4.130   3.412   6.299
 6225SOL    HW119574   4.196   3.405   6.373
 6225SOL    HW219575   4.178   3.432   6.213
 6226SOL     OW19576   0.381   1.736   5.742
 6226SOL    HW119577   0.344   1.828   5.731
 6226SOL    HW219578   0.407   1.700   5.653
 6227SOL     OW19579   3.202   5.400   5.178
 6227SOL    HW119580   3.279   5.387   5.114
 6227SOL    HW219581   3.117   5.408   5.127
 6228SOL     OW19582   1.013   3.549   2.386
 6228SOL    HW119583   1.021   3.524   2.289
 6228SOL    HW219584   0.937   3.500   2.427
 6229SOL     OW19585   1.097   1.839   3.850
 6229SOL    HW119586   1.027   1.910   3.863
 6229SOL    HW219587   1.100   1.812   3.754
 6230SOL     OW19588   0.818   2.077   3.720
 6230SOL    HW119589   0.726   2.040   3.710
 6230SOL    HW219590   0.882   2.021   3.666
 6231SOL     OW19591   6.027   6.599   0.484
 6231SOL    HW119592   6.060   6.614   0.578
 6231SOL    HW219593   5.929   6.620   0.479
 6232SOL     OW19594   6.403   1.232   0.882
 6232SOL    HW119595   6.458   1.236   0.965
 6232SOL    HW219596   6.455   1.187   0.809
 6233SOL     OW19597   6.615   2.140   1.207
 6233SOL    HW119598   6.612   2.122   1.109
 6233SOL    HW219599   6.632   2.054   1.256
 6234SOL     OW19600   6.987   0.998   5.405
 6234SOL    HW119601   6.947   1.055   5.334
 6234SOL    HW219602   7.006   1.053   5.486
 6235SOL     OW19603   0.065   0.055   1.237
 6235SOL    HW119604   0.127   6.995   1.227
 6235SOL    HW219605   0.086   0.103   1.322
 6236SOL     OW19606   0.635   3.997   1.073
 6236SOL    HW119607   0.706   3.974   1.139
 6236SOL    HW219608   0.652   4.089   1.036
 6237SOL     OW19609   3.925   0.342   6.153
 6237SOL    HW119610   3.988   0.414   6.183
 6237SOL    HW219611   3.977   0.259   6.133
 6238SOL     OW19612   4.215   5.319   2.803
 6238SOL    HW119613   4.220   5.318   2.704
 6238SOL    HW219614   4.214   5.413   2.837
 6239SOL     OW19615   3.107   0.884   1.437
 6239SOL    HW119616   3.161   0.923   1.512
 6239SOL    HW219617   3.166   0.827   1.380
 6240SOL     OW19618   2.534   3.739   5.591
 6240SOL    HW119619   2.456   3.676   5.594
 6240SOL    HW219620   2.586   3.723   5.508
 6241SOL     OW19621   3.226   0.190   1.678
 6241SOL    HW119622   3.270   0.102   1.661
 6241SOL    HW219623   3.154   0.178   1.747
 6242SOL     OW19624   3.957   0.494   3.924
 6242SOL    HW119625   4.016   0.454   3.994
 6242SOL    HW219626   3.916   0.421   3.869
 6243SOL     OW19627   6.669   6.789   5.283
 6243SOL    HW119628   6.645   6.736   5.201
 6243SOL    HW219629   6.684   6.884   5.257
 6244SOL     OW19630   5.963   2.545   2.687
 6244SOL    HW119631   5.917   2.466   2.646
 6244SOL    HW219632   6.043   2.513   2.738
 6245SOL     OW19633   1.578   3.738   0.208
 6245SOL    HW119634   1.557   3.642   0.188
 6245SOL    HW219635   1.542   3.796   0.135
 6246SOL     OW19636   1.334   2.273   5.805
 6246SOL    HW119637   1.367   2.294   5.897
 6246SOL    HW219638   1.410   2.241   5.749
 6247SOL     OW19639   0.549   5.434   4.059
 6247SOL    HW119640   0.649   5.442   4.056
 6247SOL    HW219641   0.517   5.380   3.981
 6248SOL     OW19642   3.462   3.412   6.849
 6248SOL    HW119643   3.365   3.405   6.874
 6248SOL    HW219644   3.507   3.324   6.866
 6249SOL     OW19645   0.132   4.330   0.638
 6249SOL    HW119646   0.162   4.292   0.726
 6249SOL    HW219647   0.125   4.257   0.571
 6250SOL     OW19648   6.644   0.551   0.593
 6250SOL    HW119649   6.597   0.609   0.526
 6250SOL    HW219650   6.581   0.480   0.626
 6251SOL     OW19651   3.933   6.036   5.934
 6251SOL    HW119652   4.004   6.017   5.866
 6251SOL    HW219653   3.969   6.098   6.003
 6252SOL     OW19654   2.326   6.059   5.402
 6252SOL    HW119655   2.399   6.121   5.429
 6252SOL    HW219656   2.253   6.061   5.471
 6253SOL     OW19657   2.425   4.815   4.187
 6253SOL    HW119658   2.459   4.896   4.237
 6253SOL    HW219659   2.337   4.787   4.226
 6254SOL     OW19660   5.685   1.254   1.712
 6254SOL    HW119661   5.606   1.307   1.681
 6254SOL    HW219662   5.700   1.178   1.649
 6255SOL     OW19663   2.840   0.597   0.654
 6255SOL    HW119664   2.938   0.616   0.650
 6255SOL    HW219665   2.792   0.657   0.590
 6256SOL     OW19666   3.653   5.228   1.375
 6256SOL    HW119667   3.744   5.267   1.360
 6256SOL    HW219668   3.653   5.177   1.461
 6257SOL     OW19669   4.927   2.086   0.949
 6257SOL    HW119670   4.869   2.043   1.019
 6257SOL    HW219671   4.930   2.029   0.868
 6258SOL     OW19672   3.187   0.887   3.749
 6258SOL    HW119673   3.234   0.975   3.740
 6258SOL    HW219674   3.223   0.823   3.681
 6259SOL     OW19675   1.699   2.928   7.011
 6259SOL    HW119676   1.776   2.897   6.955
 6259SOL    HW219677   1.726   3.011   0.042
 6260SOL     OW19678   3.622   6.026   0.464
 6260SOL    HW119679   3.578   6.101   0.416
 6260SOL    HW219680   3.553   5.974   0.515
 6261SOL     OW19681   3.899   1.297   6.927
 6261SOL    HW119682   3.816   1.307   6.981
 6261SOL    HW219683   3.921   1.200   6.917
 6262SOL     OW19684   2.256   6.140   1.849
 6262SOL    HW119685   2.193   6.118   1.775
 6262SOL    HW219686   2.333   6.075   1.847
 6263SOL     OW19687   6.874   0.013   4.247
 6263SOL    HW119688   6.946   6.973   4.210
 6263SOL    HW219689   6.785   6.987   4.235
 6264SOL     OW19690   1.760   0.285   1.931
 6264SOL    HW119691   1.731   0.313   1.840
 6264SOL    HW219692   1.840   0.338   1.959
 6265SOL     OW19693   3.708   3.448   0.402
 6265SOL    HW119694   3.721   3.446   0.303
 6265SOL    HW219695   3.734   3.538   0.437
 6266SOL     OW19696   4.044   0.698   3.745
 6266SOL    HW119697   4.030   0.619   3.805
 6266SOL    HW219698   4.033   0.782   3.798
 6267SOL     OW19699   2.175   0.004   5.419
 6267SOL    HW119700   2.143   6.955   5.353
 6267SOL    HW219701   2.130   0.091   5.402
 6268SOL     OW19702   2.859   0.489   3.215
 6268SOL    HW119703   2.869   0.521   3.309
 6268SOL    HW219704   2.830   0.564   3.156
 6269SOL     OW19705   0.251   6.737   2.031
 6269SOL    HW119706   0.180   6.666   2.039
 6269SOL    HW219707   0.272   6.773   2.122
 6270SOL     OW19708   1.409   0.279   6.063
 6270SOL    HW119709   1.446   0.227   6.140
 6270SOL    HW219710   1.327   0.328   6.093
 6271SOL     OW19711   6.338   2.522   6.155
 6271SOL    HW119712   6.412   2.562   6.207
 6271SOL    HW219713   6.321   2.577   6.073
 6272SOL     OW19714   0.875   2.753   0.303
 6272SOL    HW119715   0.953   2.709   0.348
 6272SOL    HW219716   0.905   2.795   0.217
 6273SOL     OW19717   0.983   6.621   2.662
 6273SOL    HW119718   0.910   6.572   2.614
 6273SOL    HW219719   0.998   6.709   2.618
 6274SOL     OW19720   3.542   6.290   5.561
 6274SOL    HW119721   3.596   6.343   5.627
 6274SOL    HW219722   3.459   6.256   5.606
 6275SOL     OW19723   2.280   6.621   6.404
 6275SOL    HW119724   2.316   6.680   6.332
 6275SOL    HW219725   2.331   6.635   6.489
 6276SOL     OW19726   2.053   4.780   4.033
 6276SOL    HW119727   1.972   4.725   4.014
 6276SOL    HW219728   2.128   4.750   3.975
 6277SOL     OW19729   4.914   3.101   0.886
 6277SOL    HW119730   4.867   3.148   0.961
 6277SOL    HW219731   4.941   3.167   0.816
 6278SOL     OW19732   5.677   6.610   4.833
 6278SOL    HW119733   5.632   6.617   4.922
 6278SOL    HW219734   5.612   6.575   4.766
 6279SOL     OW19735   4.019   6.560   6.947
 6279SOL    HW119736   4.046   6.493   6.877
 6279SOL    HW219737   3.920   6.555   6.962
 6280SOL     OW19738   1.004   1.633   5.812
 6280SOL    HW119739   0.930   1.616   5.747
 6280SOL    HW219740   1.029   1.547   5.856
 6281SOL     OW19741   0.452   4.881   3.992
 6281SOL    HW119742   0.354   4.858   3.998
 6281SOL    HW219743   0.464   4.960   3.931
 6282SOL     OW19744   6.995   5.541   5.953
 6282SOL    HW119745   6.897   5.524   5.943
 6282SOL    HW219746   0.026   5.499   5.877
 6283SOL     OW19747   6.974   3.467   4.823
 6283SOL    HW119748   6.967   3.372   4.853
 6283SOL    HW219749   0.007   3.520   4.890
 6284SOL     OW19750   1.205   5.111   4.932
 6284SOL    HW119751   1.254   5.197   4.948
 6284SOL    HW219752   1.225   5.079   4.839
 6285SOL     OW19753   0.180   3.399   4.060
 6285SOL    HW119754   0.228   3.321   4.101
 6285SOL    HW219755   0.247   3.470   4.036
 6286SOL     OW19756   6.166   1.927   4.168
 6286SOL    HW119757   6.222   2.009   4.158
 6286SOL    HW219758   6.186   1.863   4.093
 6287SOL     OW19759   3.416   4.926   4.843
 6287SOL    HW119760   3.489   4.860   4.830
 6287SOL    HW219761   3.427   5.002   4.778
 6288SOL     OW19762   5.147   4.440   2.243
 6288SOL    HW119763   5.128   4.354   2.196
 6288SOL    HW219764   5.245   4.454   2.250
 6289SOL     OW19765   2.417   4.803   0.361
 6289SOL    HW119766   2.381   4.801   0.454
 6289SOL    HW219767   2.492   4.868   0.355
 6290SOL     OW19768   6.402   5.277   5.851
 6290SOL    HW119769   6.412   5.327   5.765
 6290SOL    HW219770   6.331   5.320   5.907
 6291SOL     OW19771   4.009   3.601   3.964
 6291SOL    HW119772   4.055   3.598   3.875
 6291SOL    HW219773   3.955   3.518   3.977
 6292SOL     OW19774   1.758   1.698   4.787
 6292SOL    HW119775   1.811   1.741   4.713
 6292SOL    HW219776   1.725   1.609   4.756
 6293SOL     OW19777   4.601   1.200   1.065
 6293SOL    HW119778   4.679   1.138   1.071
 6293SOL    HW219779   4.516   1.147   1.063
 6294SOL     OW19780   3.582   6.459   4.097
 6294SOL    HW119781   3.557   6.546   4.055
 6294SOL    HW219782   3.531   6.385   4.054
 6295SOL     OW19783   5.707   4.576   5.022
 6295SOL    HW119784   5.691   4.527   5.108
 6295SOL    HW219785   5.620   4.588   4.974
 6296SOL     OW19786   0.335   5.961   5.681
 6296SOL    HW119787   0.371   6.013   5.760
 6296SOL    HW219788   0.259   5.904   5.711
 6297SOL     OW19789   5.475   0.753   5.116
 6297SOL    HW119790   5.520   0.809   5.047
 6297SOL    HW219791   5.458   0.809   5.198
 6298SOL     OW19792   1.345   3.639   6.920
 6298SOL    HW119793   1.266   3.686   6.960
 6298SOL    HW219794   1.413   3.620   6.991
 6299SOL     OW19795   6.287   1.974   1.515
 6299SOL    HW119796   6.280   1.945   1.420
 6299SOL    HW219797   6.330   2.064   1.519
 6300SOL     OW19798   6.999   1.517   6.835
 6300SOL    HW119799   0.017   1.431   6.868
 6300SOL    HW219800   0.051   1.567   6.785
 6301SOL     OW19801   4.009   0.270   0.242
 6301SOL    HW119802   3.963   0.280   0.154
 6301SOL    HW219803   4.075   0.345   0.253
 6302SOL     OW19804   1.257   0.425   3.625
 6302SOL    HW119805   1.285   0.352   3.562
 6302SOL    HW219806   1.331   0.446   3.688
 6303SOL     OW19807   1.338   0.896   3.831
 6303SOL    HW119808   1.436   0.916   3.827
 6303SOL    HW219809   1.323   0.814   3.887
 6304SOL     OW19810   2.381   1.206   1.231
 6304SOL    HW119811   2.430   1.189   1.316
 6304SOL    HW219812   2.283   1.194   1.246
 6305SOL     OW19813   6.058   6.641   0.863
 6305SOL    HW119814   6.026   6.736   0.858
 6305SOL    HW219815   6.158   6.640   0.868
 6306SOL     OW19816   0.310   3.906   4.503
 6306SOL    HW119817   0.242   3.935   4.435
 6306SOL    HW219818   0.393   3.961   4.493
 6307SOL     OW19819   3.550   4.174   4.654
 6307SOL    HW119820   3.502   4.171   4.742
 6307SOL    HW219821   3.648   4.179   4.669
 6308SOL     OW19822   2.222   2.129   4.543
 6308SOL    HW119823   2.272   2.214   4.524
 6308SOL    HW219824   2.221   2.113   4.642
 6309SOL     OW19825   6.034   5.016   5.010
 6309SOL    HW119826   5.989   4.934   4.976
 6309SOL    HW219827   6.114   4.991   5.064
 6310SOL     OW19828   2.189   5.619   2.776
 6310SOL    HW119829   2.181   5.587   2.870
 6310SOL    HW219830   2.112   5.679   2.755
 6311SOL     OW19831   5.167   1.438   5.510
 6311SOL    HW119832   5.225   1.357   5.515
 6311SOL    HW219833   5.162   1.481   5.600
 6312SOL     OW19834   6.981   6.752   5.463
 6312SOL    HW119835   6.948   6.817   5.532
 6312SOL    HW219836   6.946   6.778   5.374
 6313SOL     OW19837   6.761   6.128   4.122
 6313SOL    HW119838   6.674   6.167   4.093
 6313SOL    HW219839   6.753   6.029   4.129
 6314SOL     OW19840   4.002   6.924   1.498
 6314SOL    HW119841   3.963   7.004   1.452
 6314SOL    HW219842   3.968   6.920   1.592
 6315SOL     OW19843   2.290   2.518   5.244
 6315SOL    HW119844   2.290   2.454   5.321
 6315SOL    HW219845   2.358   2.590   5.261
 6316SOL     OW19846   5.191   2.199   6.674
 6316SOL    HW119847   5.236   2.284   6.699
 6316SOL    HW219848   5.121   2.218   6.604
 6317SOL     OW19849   4.635   5.257   1.415
 6317SOL    HW119850   4.616   5.160   1.406
 6317SOL    HW219851   4.572   5.309   1.357
 6318SOL     OW19852   4.178   0.089   5.930
 6318SOL    HW119853   4.181   0.109   6.028
 6318SOL    HW219854   4.246   0.145   5.882
 6319SOL     OW19855   6.572   1.998   4.933
 6319SOL    HW119856   6.610   2.091   4.933
 6319SOL    HW219857   6.647   1.932   4.939
 6320SOL     OW19858   6.436   6.309   5.060
 6320SOL    HW119859   6.342   6.278   5.078
 6320SOL    HW219860   6.434   6.402   5.023
 6321SOL     OW19861   3.871   4.097   0.912
 6321SOL    HW119862   3.964   4.061   0.911
 6321SOL    HW219863   3.831   4.093   0.821
 6322SOL     OW19864   1.832   2.991   0.702
 6322SOL    HW119865   1.870   2.912   0.655
 6322SOL    HW219866   1.887   3.012   0.783
 6323SOL     OW19867   2.385   2.137   1.497
 6323SOL    HW119868   2.344   2.046   1.503
 6323SOL    HW219869   2.355   2.182   1.412
 6324SOL     OW19870   4.915   1.093   0.890
 6324SOL    HW119871   5.009   1.060   0.883
 6324SOL    HW219872   4.861   1.028   0.943
 6325SOL     OW19873   1.938   3.034   2.610
 6325SOL    HW119874   2.038   3.032   2.618
 6325SOL    HW219875   1.908   2.955   2.556
 6326SOL     OW19876   5.234   4.740   1.363
 6326SOL    HW119877   5.158   4.758   1.425
 6326SOL    HW219878   5.217   4.654   1.314
 6327SOL     OW19879   0.749   1.025   5.269
 6327SOL    HW119880   0.656   0.993   5.285
 6327SOL    HW219881   0.761   1.115   5.310
 6328SOL     OW19882   3.377   3.538   0.174
 6328SOL    HW119883   3.456   3.599   0.166
 6328SOL    HW219884   3.316   3.554   0.096
 6329SOL     OW19885   1.759   2.782   3.058
 6329SOL    HW119886   1.836   2.841   3.032
 6329SOL    HW219887   1.676   2.837   3.063
 6330SOL     OW19888   5.520   0.072   1.656
 6330SOL    HW119889   5.588   0.004   1.629
 6330SOL    HW219890   5.456   0.086   1.580
 6331SOL     OW19891   6.049   2.737   5.282
 6331SOL    HW119892   6.097   2.651   5.299
 6331SOL    HW219893   6.009   2.735   5.190
 6332SOL     OW19894   0.144   2.709   1.042
 6332SOL    HW119895   0.185   2.644   0.977
 6332SOL    HW219896   0.085   2.773   0.993
 6333SOL     OW19897   4.804   6.562   5.204
 6333SOL    HW119898   4.793   6.557   5.105
 6333SOL    HW219899   4.756   6.486   5.247
 6334SOL     OW19900   2.610   1.299   2.471
 6334SOL    HW119901   2.659   1.361   2.532
 6334SOL    HW219902   2.565   1.352   2.399
 6335SOL     OW19903   4.238   0.754   0.594
 6335SOL    HW119904   4.190   0.769   0.508
 6335SOL    HW219905   4.302   0.678   0.584
 6336SOL     OW19906   1.313   2.622   6.806
 6336SOL    HW119907   1.319   2.598   6.904
 6336SOL    HW219908   1.367   2.704   6.788
 6337SOL     OW19909   4.730   5.053   5.344
 6337SOL    HW119910   4.677   5.062   5.260
 6337SOL    HW219911   4.677   5.090   5.421
 6338SOL     OW19912   3.218   2.158   4.148
 6338SOL    HW119913   3.276   2.209   4.211
 6338SOL    HW219914   3.123   2.183   4.162
 6339SOL     OW19915   0.740   3.831   3.471
 6339SOL    HW119916   0.695   3.918   3.453
 6339SOL    HW219917   0.838   3.840   3.457
 6340SOL     OW19918   1.412   5.245   1.614
 6340SOL    HW119919   1.383   5.210   1.525
 6340SOL    HW219920   1.429   5.168   1.676
 6341SOL     OW19921   6.950   4.083   4.538
 6341SOL    HW119922   6.857   4.087   4.503
 6341SOL    HW219923   6.954   4.021   4.616
 6342SOL     OW19924   2.682   0.968   1.905
 6342SOL    HW119925   2.689   0.964   2.005
 6342SOL    HW219926   2.704   0.878   1.867
 6343SOL     OW19927   4.574   1.527   6.062
 6343SOL    HW119928   4.589   1.626   6.065
 6343SOL    HW219929   4.509   1.505   5.990
 6344SOL     OW19930   5.187   2.262   4.633
 6344SOL    HW119931   5.102   2.238   4.587
 6344SOL    HW219932   5.170   2.335   4.699
 6345SOL     OW19933   5.680   3.047   2.472
 6345SOL    HW119934   5.774   3.073   2.494
 6345SOL    HW219935   5.644   2.986   2.542
 6346SOL     OW19936   6.898   5.721   4.113
 6346SOL    HW119937   6.895   5.639   4.170
 6346SOL    HW219938   6.807   5.760   4.105
 6347SOL     OW19939   2.082   0.908   1.154
 6347SOL    HW119940   2.165   0.880   1.105
 6347SOL    HW219941   2.010   0.841   1.139
 6348SOL     OW19942   1.527   2.956   5.744
 6348SOL    HW119943   1.471   2.873   5.740
 6348SOL    HW219944   1.536   2.985   5.839
 6349SOL     OW19945   2.228   0.394   1.282
 6349SOL    HW119946   2.256   0.490   1.291
 6349SOL    HW219947   2.203   0.358   1.372
 6350SOL     OW19948   0.721   5.193   3.896
 6350SOL    HW119949   0.725   5.292   3.885
 6350SOL    HW219950   0.672   5.170   3.980
 6351SOL     OW19951   6.193   3.413   3.932
 6351SOL    HW119952   6.168   3.331   3.983
 6351SOL    HW219953   6.287   3.439   3.954
 6352SOL     OW19954   3.352   6.712   4.600
 6352SOL    HW119955   3.313   6.774   4.669
 6352SOL    HW219956   3.417   6.762   4.543
 6353SOL     OW19957   1.273   6.756   5.952
 6353SOL    HW119958   1.325   6.715   5.877
 6353SOL    HW219959   1.176   6.738   5.938
 6354SOL     OW19960   2.725   4.975   3.232
 6354SOL    HW119961   2.777   4.898   3.194
 6354SOL    HW219962   2.627   4.960   3.217
 6355SOL     OW19963   1.634   5.127   6.739
 6355SOL    HW119964   1.564   5.185   6.698
 6355SOL    HW219965   1.637   5.143   6.837
 6356SOL     OW19966   4.834   6.003   1.624
 6356SOL    HW119967   4.860   5.948   1.544
 6356SOL    HW219968   4.873   6.095   1.615
 6357SOL     OW19969   6.401   3.734   2.659
 6357SOL    HW119970   6.316   3.782   2.681
 6357SOL    HW219971   6.447   3.781   2.584
 6358SOL     OW19972   0.362   2.164   6.828
 6358SOL    HW119973   0.346   2.162   6.729
 6358SOL    HW219974   0.447   2.116   6.849
 6359SOL     OW19975   6.315   0.584   0.496
 6359SOL    HW119976   6.342   0.645   0.570
 6359SOL    HW219977   6.291   0.638   0.416
 6360SOL     OW19978   1.373   4.150   4.380
 6360SOL    HW119979   1.308   4.155   4.303
 6360SOL    HW219980   1.353   4.225   4.444
 6361SOL     OW19981   1.218   6.729   0.846
 6361SOL    HW119982   1.148   6.710   0.776
 6361SOL    HW219983   1.208   6.823   0.878
 6362SOL     OW19984   0.532   5.918   0.149
 6362SOL    HW119985   0.451   5.973   0.168
 6362SOL    HW219986   0.517   5.863   0.067
 6363SOL     OW19987   2.125   5.378   3.631
 6363SOL    HW119988   2.130   5.301   3.695
 6363SOL    HW219989   2.044   5.368   3.574
 6364SOL     OW19990   2.413   1.906   5.528
 6364SOL    HW119991   2.372   1.914   5.437
 6364SOL    HW219992   2.509   1.878   5.519
 6365SOL     OW19993   5.435   0.112   3.993
 6365SOL    HW119994   5.470   0.028   3.952
 6365SOL    HW219995   5.405   0.093   4.086
 6366SOL     OW19996   0.966   5.879   5.301
 6366SOL    HW119997   0.970   5.956   5.364
 6366SOL    HW219998   0.875   5.837   5.305
 6367SOL     OW19999   4.018   1.496   4.861
 6367SOL    HW120000   3.947   1.556   4.898
 6367SOL    HW220001   4.015   1.497   4.761
 6368SOL     OW20002   3.499   4.991   3.459
 6368SOL    HW120003   3.421   4.944   3.416
 6368SOL    HW220004   3.465   5.061   3.521
 6369SOL     OW20005   2.552   6.623   4.203
 6369SOL    HW120006   2.491   6.584   4.134
 6369SOL    HW220007   2.539   6.722   4.208
 6370SOL     OW20008   6.940   2.766   3.535
 6370SOL    HW120009   0.017   2.766   3.561
 6370SOL    HW220010   6.891   2.838   3.584
 6371SOL     OW20011   4.898   4.724   3.011
 6371SOL    HW120012   4.835   4.653   2.981
 6371SOL    HW220013   4.902   4.797   2.942
 6372SOL     OW20014   1.572   1.013   1.429
 6372SOL    HW120015   1.551   1.009   1.332
 6372SOL    HW220016   1.662   0.971   1.445
 6373SOL     OW20017   4.586   4.383   2.493
 6373SOL    HW120018   4.610   4.410   2.399
 6373SOL    HW220019   4.642   4.306   2.521
 6374SOL     OW20020   4.000   3.683   3.016
 6374SOL    HW120021   4.015   3.668   2.918
 6374SOL    HW220022   3.981   3.780   3.033
 6375SOL     OW20023   0.169   1.562   3.078
 6375SOL    HW120024   0.159   1.629   3.005
 6375SOL    HW220025   0.079   1.541   3.116
 6376SOL     OW20026   5.258   2.514   5.220
 6376SOL    HW120027   5.348   2.514   5.263
 6376SOL    HW220028   5.204   2.590   5.256
 6377SOL     OW20029   0.314   1.418   5.129
 6377SOL    HW120030   0.351   1.414   5.221
 6377SOL    HW220031   0.302   1.326   5.093
 6378SOL     OW20032   4.547   4.414   3.874
 6378SOL    HW120033   4.628   4.454   3.918
 6378SOL    HW220034   4.471   4.478   3.877
 6379SOL     OW20035   1.580   3.901   4.696
 6379SOL    HW120036   1.642   3.827   4.671
 6379SOL    HW220037   1.601   3.932   4.789
 6380SOL     OW20038   0.444   1.735   4.908
 6380SOL    HW120039   0.474   1.752   5.002
 6380SOL    HW220040   0.466   1.641   4.882
 6381SOL     OW20041   4.139   3.009   1.630
 6381SOL    HW120042   4.061   3.004   1.568
 6381SOL    HW220043   4.224   3.008   1.577
 6382SOL     OW20044   2.760   1.829   0.770
 6382SOL    HW120045   2.856   1.847   0.793
 6382SOL    HW220046   2.749   1.732   0.749
 6383SOL     OW20047   2.078   2.557   2.999
 6383SOL    HW120048   2.025   2.501   2.936
 6383SOL    HW220049   2.107   2.641   2.953
 6384SOL     OW20050   5.920   3.775   3.099
 6384SOL    HW120051   6.010   3.798   3.136
 6384SOL    HW220052   5.894   3.843   3.030
 6385SOL     OW20053   6.946   4.029   3.115
 6385SOL    HW120054   6.906   4.100   3.174
 6385SOL    HW220055   0.016   4.002   3.151
 6386SOL     OW20056   1.828   3.969   6.027
 6386SOL    HW120057   1.901   4.019   5.980
 6386SOL    HW220058   1.740   4.007   6.001
 6387SOL     OW20059   6.811   1.712   6.305
 6387SOL    HW120060   6.743   1.772   6.348
 6387SOL    HW220061   6.851   1.653   6.374
 6388SOL     OW20062   3.943   6.482   2.018
 6388SOL    HW120063   3.962   6.572   1.979
 6388SOL    HW220064   3.966   6.482   2.115
 6389SOL     OW20065   0.020   5.505   2.027
 6389SOL    HW120066   0.089   5.445   2.066
 6389SOL    HW220067   7.014   5.575   2.094
 6390SOL     OW20068   0.536   0.947   6.041
 6390SOL    HW120069   0.460   0.881   6.034
 6390SOL    HW220070   0.502   1.039   6.022
 6391SOL     OW20071   2.500   0.248   5.853
 6391SOL    HW120072   2.473   0.310   5.780
 6391SOL    HW220073   2.419   0.219   5.904
 6392SOL     OW20074   2.813   5.852   2.907
 6392SOL    HW120075   2.730   5.902   2.884
 6392SOL    HW220076   2.795   5.754   2.903
 6393SOL     OW20077   0.156   5.950   1.837
 6393SOL    HW120078   0.217   5.946   1.915
 6393SOL    HW220079   0.067   5.910   1.861
 6394SOL     OW20080   2.739   5.382   0.652
 6394SOL    HW120081   2.799   5.460   0.664
 6394SOL    HW220082   2.648   5.403   0.689
 6395SOL     OW20083   0.073   2.616   1.659
 6395SOL    HW120084   0.109   2.528   1.630
 6395SOL    HW220085   0.007   2.648   1.591
 6396SOL     OW20086   5.311   3.424   6.669
 6396SOL    HW120087   5.334   3.520   6.686
 6396SOL    HW220088   5.322   3.403   6.572
 6397SOL     OW20089   5.898   1.206   1.447
 6397SOL    HW120090   5.880   1.110   1.424
 6397SOL    HW220091   5.835   1.264   1.395
 6398SOL     OW20092   2.613   6.734   1.735
 6398SOL    HW120093   2.683   6.664   1.748
 6398SOL    HW220094   2.587   6.738   1.638
 6399SOL     OW20095   1.747   6.892   6.316
 6399SOL    HW120096   1.683   6.969   6.322
 6399SOL    HW220097   1.715   6.817   6.373
 6400SOL     OW20098   3.006   5.489   1.761
 6400SOL    HW120099   2.939   5.439   1.705
 6400SOL    HW220100   3.035   5.431   1.837
 6401SOL     OW20101   5.443   6.115   3.533
 6401SOL    HW120102   5.519   6.059   3.566
 6401SOL    HW220103   5.358   6.086   3.578
 6402SOL     OW20104   2.781   2.328   2.937
 6402SOL    HW120105   2.710   2.395   2.917
 6402SOL    HW220106   2.870   2.367   2.916
 6403SOL     OW20107   6.919   5.416   6.251
 6403SOL    HW120108   6.948   5.359   6.174
 6403SOL    HW220109   6.856   5.487   6.217
 6404SOL     OW20110   4.125   0.660   2.531
 6404SOL    HW120111   4.140   0.715   2.613
 6404SOL    HW220112   4.027   0.658   2.510
 6405SOL     OW20113   3.411   0.160   4.203
 6405SOL    HW120114   3.348   0.160   4.125
 6405SOL    HW220115   3.489   0.100   4.182
 6406SOL     OW20116   0.900   2.827   2.760
 6406SOL    HW120117   0.826   2.762   2.749
 6406SOL    HW220118   0.946   2.812   2.848
 6407SOL     OW20119   2.743   6.693   3.896
 6407SOL    HW120120   2.790   6.733   3.818
 6407SOL    HW220121   2.784   6.725   3.981
 6408SOL     OW20122   5.569   1.215   0.481
 6408SOL    HW120123   5.542   1.121   0.461
 6408SOL    HW220124   5.666   1.218   0.505
 6409SOL     OW20125   6.383   4.380   3.755
 6409SOL    HW120126   6.285   4.363   3.765
 6409SOL    HW220127   6.404   4.393   3.658
 6410SOL     OW20128   1.913   1.375   6.417
 6410SOL    HW120129   1.838   1.388   6.482
 6410SOL    HW220130   1.964   1.461   6.407
 6411SOL     OW20131   0.801   3.019   3.232
 6411SOL    HW120132   0.808   3.118   3.218
 6411SOL    HW220133   0.704   2.993   3.229
 6412SOL     OW20134   1.225   2.097   4.748
 6412SOL    HW120135   1.261   2.187   4.722
 6412SOL    HW220136   1.128   2.092   4.723
 6413SOL     OW20137   3.758   4.885   3.504
 6413SOL    HW120138   3.661   4.892   3.482
 6413SOL    HW220139   3.806   4.838   3.430
 6414SOL     OW20140   5.763   1.147   0.123
 6414SOL    HW120141   5.741   1.074   0.189
 6414SOL    HW220142   5.860   1.167   0.128
 6415SOL     OW20143   2.172   3.258   2.906
 6415SOL    HW120144   2.145   3.322   2.978
 6415SOL    HW220145   2.130   3.284   2.820
 6416SOL     OW20146   0.875   1.070   6.664
 6416SOL    HW120147   0.776   1.060   6.667
 6416SOL    HW220148   0.910   1.090   6.755
 6417SOL     OW20149   5.827   5.290   0.580
 6417SOL    HW120150   5.877   5.328   0.503
 6417SOL    HW220151   5.880   5.215   0.620
 6418SOL     OW20152   4.986   3.549   1.921
 6418SOL    HW120153   5.047   3.599   1.982
 6418SOL    HW220154   5.010   3.568   1.826
 6419SOL     OW20155   1.473   4.484   3.140
 6419SOL    HW120156   1.511   4.476   3.232
 6419SOL    HW220157   1.434   4.575   3.128
 6420SOL     OW20158   2.489   6.053   4.169
 6420SOL    HW120159   2.540   6.129   4.128
 6420SOL    HW220160   2.417   6.024   4.106
 6421SOL     OW20161   4.961   6.959   3.260
 6421SOL    HW120162   4.971   6.862   3.281
 6421SOL    HW220163   4.881   6.995   3.308
 6422SOL     OW20164   0.024   1.089   4.644
 6422SOL    HW120165   0.029   1.164   4.578
 6422SOL    HW220166   6.969   1.027   4.618
 6423SOL     OW20167   5.161   5.328   3.281
 6423SOL    HW120168   5.066   5.310   3.303
 6423SOL    HW220169   5.182   5.288   3.191
 6424SOL     OW20170   0.248   5.074   5.951
 6424SOL    HW120171   0.255   5.106   6.046
 6424SOL    HW220172   0.198   4.988   5.949
 6425SOL     OW20173   6.431   6.057   3.216
 6425SOL    HW120174   6.421   6.037   3.119
 6425SOL    HW220175   6.341   6.056   3.260
 6426SOL     OW20176   1.330   4.779   3.324
 6426SOL    HW120177   1.333   4.795   3.226
 6426SOL    HW220178   1.242   4.737   3.349
 6427SOL     OW20179   3.318   4.140   4.410
 6427SOL    HW120180   3.300   4.170   4.503
 6427SOL    HW220181   3.414   4.111   4.402
 6428SOL     OW20182   5.934   3.701   5.919
 6428SOL    HW120183   5.890   3.790   5.926
 6428SOL    HW220184   5.865   3.629   5.925
 6429SOL     OW20185   1.066   2.230   5.847
 6429SOL    HW120186   1.031   2.176   5.770
 6429SOL    HW220187   1.156   2.268   5.823
 6430SOL     OW20188   6.019   1.182   3.432
 6430SOL    HW120189   6.059   1.216   3.517
 6430SOL    HW220190   5.923   1.211   3.426
 6431SOL     OW20191   5.145   6.938   4.178
 6431SOL    HW120192   5.058   6.957   4.224
 6431SOL    HW220193   5.129   6.924   4.080
 6432SOL     OW20194   4.345   4.572   5.769
 6432SOL    HW120195   4.354   4.535   5.861
 6432SOL    HW220196   4.283   4.651   5.771
 6433SOL     OW20197   1.544   5.524   5.850
 6433SOL    HW120198   1.593   5.469   5.917
 6433SOL    HW220199   1.482   5.587   5.896
 6434SOL     OW20200   2.594   5.409   6.448
 6434SOL    HW120201   2.618   5.387   6.353
 6434SOL    HW220202   2.495   5.408   6.458
 6435SOL     OW20203   4.986   6.629   1.000
 6435SOL    HW120204   4.964   6.683   0.919
 6435SOL    HW220205   5.030   6.687   1.068
 6436SOL     OW20206   1.352   3.182   3.200
 6436SOL    HW120207   1.264   3.209   3.160
 6436SOL    HW220208   1.341   3.168   3.298
 6437SOL     OW20209   2.501   1.431   0.732
 6437SOL    HW120210   2.547   1.345   0.754
 6437SOL    HW220211   2.487   1.436   0.633
 6438SOL     OW20212   6.291   4.379   5.603
 6438SOL    HW120213   6.348   4.419   5.532
 6438SOL    HW220214   6.222   4.319   5.561
 6439SOL     OW20215   5.646   1.279   1.986
 6439SOL    HW120216   5.671   1.253   1.893
 6439SOL    HW220217   5.553   1.316   1.987
 6440SOL     OW20218   2.325   1.919   6.172
 6440SOL    HW120219   2.266   1.917   6.252
 6440SOL    HW220220   2.288   1.860   6.101
 6441SOL     OW20221   6.832   6.766   2.302
 6441SOL    HW120222   6.810   6.734   2.210
 6441SOL    HW220223   6.881   6.853   2.297
 6442SOL     OW20224   2.410   1.313   4.559
 6442SOL    HW120225   2.442   1.231   4.512
 6442SOL    HW220226   2.374   1.378   4.492
 6443SOL     OW20227   3.929   2.240   5.589
 6443SOL    HW120228   4.010   2.194   5.551
 6443SOL    HW220229   3.846   2.201   5.549
 6444SOL     OW20230   5.440   2.949   4.833
 6444SOL    HW120231   5.418   2.882   4.904
 6444SOL    HW220232   5.411   3.040   4.864
 6445SOL     OW20233   3.660   2.968   4.869
 6445SOL    HW120234   3.579   2.940   4.818
 6445SOL    HW220235   3.640   3.053   4.919
 6446SOL     OW20236   1.191   1.162   0.284
 6446SOL    HW120237   1.265   1.216   0.325
 6446SOL    HW220238   1.103   1.194   0.318
 6447SOL     OW20239   5.605   4.827   3.991
 6447SOL    HW120240   5.688   4.864   4.032
 6447SOL    HW220241   5.525   4.864   4.038
 6448SOL     OW20242   4.180   5.838   2.107
 6448SOL    HW120243   4.092   5.885   2.096
 6448SOL    HW220244   4.164   5.739   2.101
 6449SOL     OW20245   3.597   6.046   1.032
 6449SOL    HW120246   3.601   5.953   1.069
 6449SOL    HW220247   3.582   6.110   1.108
 6450SOL     OW20248   0.842   3.884   1.273
 6450SOL    HW120249   0.790   3.799   1.261
 6450SOL    HW220250   0.937   3.868   1.248
 6451SOL     OW20251   2.260   0.669   4.923
 6451SOL    HW120252   2.171   0.669   4.970
 6451SOL    HW220253   2.281   0.576   4.894
 6452SOL     OW20254   4.420   5.333   3.452
 6452SOL    HW120255   4.424   5.421   3.405
 6452SOL    HW220256   4.359   5.340   3.531
 6453SOL     OW20257   2.533   6.207   1.924
 6453SOL    HW120258   2.567   6.204   1.830
 6453SOL    HW220259   2.434   6.222   1.922
 6454SOL     OW20260   1.201   2.272   2.831
 6454SOL    HW120261   1.243   2.214   2.900
 6454SOL    HW220262   1.108   2.295   2.858
 6455SOL     OW20263   6.809   3.325   3.779
 6455SOL    HW120264   6.890   3.282   3.818
 6455SOL    HW220265   6.729   3.270   3.799
 6456SOL     OW20266   1.044   0.703   3.423
 6456SOL    HW120267   1.050   0.686   3.521
 6456SOL    HW220268   1.124   0.664   3.377
 6457SOL     OW20269   5.229   1.614   1.638
 6457SOL    HW120270   5.163   1.590   1.567
 6457SOL    HW220271   5.312   1.651   1.595
 6458SOL     OW20272   0.914   6.214   4.534
 6458SOL    HW120273   0.836   6.276   4.543
 6458SOL    HW220274   0.998   6.267   4.527
 6459SOL     OW20275   6.259   3.075   1.358
 6459SOL    HW120276   6.167   3.113   1.351
 6459SOL    HW220277   6.319   3.122   1.292
 6460SOL     OW20278   5.594   6.078   6.088
 6460SOL    HW120279   5.522   6.118   6.146
 6460SOL    HW220280   5.626   6.147   6.023
 6461SOL     OW20281   2.119   4.549   6.136
 6461SOL    HW120282   2.160   4.635   6.106
 6461SOL    HW220283   2.061   4.512   6.064
 6462SOL     OW20284   2.550   2.563   4.455
 6462SOL    HW120285   2.500   2.615   4.385
 6462SOL    HW220286   2.525   2.598   4.546
 6463SOL     OW20287   6.039   2.510   0.137
 6463SOL    HW120288   6.124   2.473   0.176
 6463SOL    HW220289   6.048   2.519   0.038
 6464SOL     OW20290   1.135   5.161   5.268
 6464SOL    HW120291   1.061   5.129   5.209
 6464SOL    HW220292   1.155   5.257   5.248
 6465SOL     OW20293   6.583   2.966   2.929
 6465SOL    HW120294   6.554   2.873   2.908
 6465SOL    HW220295   6.663   2.989   2.874
 6466SOL     OW20296   0.497   1.204   6.075
 6466SOL    HW120297   0.482   1.302   6.088
 6466SOL    HW220298   0.524   1.163   6.162
 6467SOL     OW20299   3.659   1.660   0.194
 6467SOL    HW120300   3.646   1.571   0.240
 6467SOL    HW220301   3.632   1.653   0.098
 6468SOL     OW20302   3.211   6.754   0.737
 6468SOL    HW120303   3.280   6.693   0.698
 6468SOL    HW220304   3.133   6.762   0.675
 6469SOL     OW20305   4.578   1.555   3.934
 6469SOL    HW120306   4.523   1.505   3.867
 6469SOL    HW220307   4.524   1.568   4.018
 6470SOL     OW20308   6.088   2.841   0.813
 6470SOL    HW120309   6.071   2.792   0.899
 6470SOL    HW220310   6.070   2.780   0.736
 6471SOL     OW20311   6.861   6.662   6.452
 6471SOL    HW120312   6.777   6.671   6.398
 6471SOL    HW220313   6.940   6.674   6.392
 6472SOL     OW20314   0.278   5.757   2.051
 6472SOL    HW120315   0.272   5.714   1.961
 6472SOL    HW220316   0.331   5.697   2.112
 6473SOL     OW20317   3.337   1.635   4.709
 6473SOL    HW120318   3.262   1.605   4.650
 6473SOL    HW220319   3.307   1.634   4.804
 6474SOL     OW20320   2.767   4.862   5.766
 6474SOL    HW120321   2.673   4.856   5.798
 6474SOL    HW220322   2.811   4.942   5.808
 6475SOL     OW20323   5.912   4.977   3.981
 6475SOL    HW120324   5.866   4.950   4.065
 6475SOL    HW220325   5.923   5.076   3.978
 6476SOL     OW20326   4.241   3.638   1.025
 6476SOL    HW120327   4.297   3.581   1.086
 6476SOL    HW220328   4.185   3.580   0.966
 6477SOL     OW20329   5.770   4.785   1.152
 6477SOL    HW120330   5.736   4.733   1.230
 6477SOL    HW220331   5.716   4.761   1.071
 6478SOL     OW20332   3.574   0.435   1.864
 6478SOL    HW120333   3.538   0.457   1.773
 6478SOL    HW220334   3.506   0.383   1.915
 6479SOL     OW20335   4.229   5.083   3.528
 6479SOL    HW120336   4.155   5.139   3.493
 6479SOL    HW220337   4.260   5.021   3.456
 6480SOL     OW20338   3.062   1.387   6.668
 6480SOL    HW120339   3.096   1.338   6.587
 6480SOL    HW220340   3.140   1.426   6.717
 6481SOL     OW20341   3.517   2.041   2.061
 6481SOL    HW120342   3.422   2.070   2.068
 6481SOL    HW220343   3.576   2.120   2.043
 6482SOL     OW20344   6.791   0.884   5.860
 6482SOL    HW120345   6.724   0.959   5.859
 6482SOL    HW220346   6.883   0.922   5.851
 6483SOL     OW20347   1.170   6.436   2.834
 6483SOL    HW120348   1.206   6.353   2.792
 6483SOL    HW220349   1.117   6.488   2.767
 6484SOL     OW20350   2.873   0.151   0.994
 6484SOL    HW120351   2.960   0.137   0.947
 6484SOL    HW220352   2.868   0.245   1.027
 6485SOL     OW20353   2.146   5.137   3.777
 6485SOL    HW120354   2.090   5.127   3.860
 6485SOL    HW220355   2.243   5.132   3.801
 6486SOL     OW20356   1.929   4.572   3.268
 6486SOL    HW120357   1.936   4.650   3.330
 6486SOL    HW220358   2.006   4.574   3.204
 6487SOL     OW20359   0.465   6.618   5.276
 6487SOL    HW120360   0.484   6.679   5.353
 6487SOL    HW220361   0.457   6.524   5.308
 6488SOL     OW20362   3.424   5.744   4.394
 6488SOL    HW120363   3.440   5.832   4.349
 6488SOL    HW220364   3.335   5.746   4.441
 6489SOL     OW20365   3.144   2.765   6.085
 6489SOL    HW120366   3.218   2.724   6.138
 6489SOL    HW220367   3.059   2.714   6.102
 6490SOL     OW20368   3.800   0.689   6.927
 6490SOL    HW120369   3.891   0.693   6.886
 6490SOL    HW220370   3.766   0.595   6.923
 6491SOL     OW20371   4.208   1.064   0.742
 6491SOL    HW120372   4.213   0.972   0.703
 6491SOL    HW220373   4.156   1.124   0.681
 6492SOL     OW20374   3.945   4.443   6.523
 6492SOL    HW120375   3.885   4.511   6.565
 6492SOL    HW220376   3.927   4.353   6.562
 6493SOL     OW20377   1.532   4.267   4.936
 6493SOL    HW120378   1.624   4.267   4.974
 6493SOL    HW220379   1.477   4.337   4.982
 6494SOL     OW20380   6.897   0.534   3.763
 6494SOL    HW120381   6.871   0.440   3.782
 6494SOL    HW220382   6.951   0.538   3.680
 6495SOL     OW20383   6.165   0.276   4.521
 6495SOL    HW120384   6.231   0.233   4.459
 6495SOL    HW220385   6.132   0.208   4.587
 6496SOL     OW20386   6.376   0.754   3.051
 6496SOL    HW120387   6.457   0.791   3.096
 6496SOL    HW220388   6.313   0.717   3.120
 6497SOL     OW20389   1.055   1.473   0.953
 6497SOL    HW120390   1.022   1.384   0.985
 6497SOL    HW220391   1.090   1.525   1.031
 6498SOL     OW20392   1.816   3.328   4.085
 6498SOL    HW120393   1.906   3.311   4.044
 6498SOL    HW220394   1.797   3.426   4.085
 6499SOL     OW20395   5.449   3.352   5.300
 6499SOL    HW120396   5.447   3.449   5.326
 6499SOL    HW220397   5.538   3.331   5.258
 6500SOL     OW20398   6.918   3.726   4.456
 6500SOL    HW120399   6.919   3.740   4.555
 6500SOL    HW220400   6.966   3.642   4.434
 6501SOL     OW20401   6.942   1.768   6.624
 6501SOL    HW120402   0.012   1.764   6.671
 6501SOL    HW220403   6.934   1.691   6.561
 6502SOL     OW20404   6.593   1.912   2.163
 6502SOL    HW120405   6.558   1.968   2.087
 6502SOL    HW220406   6.566   1.953   2.250
 6503SOL     OW20407   5.356   0.619   3.551
 6503SOL    HW120408   5.272   0.593   3.503
 6503SOL    HW220409   5.337   0.628   3.648
 6504SOL     OW20410   4.298   6.329   5.479
 6504SOL    HW120411   4.232   6.381   5.425
 6504SOL    HW220412   4.387   6.330   5.433
 6505SOL     OW20413   5.281   6.071   6.875
 6505SOL    HW120414   5.330   6.023   6.947
 6505SOL    HW220415   5.260   6.008   6.800
 6506SOL     OW20416   6.641   2.485   2.970
 6506SOL    HW120417   6.574   2.557   2.992
 6506SOL    HW220418   6.707   2.521   2.904
 6507SOL     OW20419   1.303   5.257   5.767
 6507SOL    HW120420   1.352   5.305   5.840
 6507SOL    HW220421   1.275   5.167   5.800
 6508SOL     OW20422   1.851   0.639   2.467
 6508SOL    HW120423   1.846   0.692   2.382
 6508SOL    HW220424   1.759   0.632   2.507
 6509SOL     OW20425   3.537   1.778   4.465
 6509SOL    HW120426   3.566   1.684   4.481
 6509SOL    HW220427   3.481   1.809   4.542
 6510SOL     OW20428   6.188   5.245   0.097
 6510SOL    HW120429   6.179   5.224   7.019
 6510SOL    HW220430   6.238   5.171   0.142
 6511SOL     OW20431   3.959   1.679   4.355
 6511SOL    HW120432   3.991   1.769   4.382
 6511SOL    HW220433   3.931   1.628   4.436
 6512SOL     OW20434   4.024   6.697   2.447
 6512SOL    HW120435   4.122   6.708   2.465
 6512SOL    HW220436   4.002   6.599   2.446
 6513SOL     OW20437   2.515   4.950   2.946
 6513SOL    HW120438   2.464   4.939   3.031
 6513SOL    HW220439   2.516   5.046   2.919
 6514SOL     OW20440   6.611   1.046   3.699
 6514SOL    HW120441   6.534   1.100   3.664
 6514SOL    HW220442   6.579   0.954   3.721
 6515SOL     OW20443   0.283   4.676   3.880
 6515SOL    HW120444   0.240   4.624   3.806
 6515SOL    HW220445   0.374   4.706   3.851
 6516SOL     OW20446   0.383   3.449   1.419
 6516SOL    HW120447   0.406   3.427   1.514
 6516SOL    HW220448   0.334   3.535   1.415
 6517SOL     OW20449   6.249   0.773   1.396
 6517SOL    HW120450   6.270   0.842   1.326
 6517SOL    HW220451   6.207   0.817   1.475
 6518SOL     OW20452   0.059   0.734   0.059
 6518SOL    HW120453   7.011   0.663   0.035
 6518SOL    HW220454   0.039   0.770   0.150
 6519SOL     OW20455   1.153   2.435   3.402
 6519SOL    HW120456   1.117   2.484   3.481
 6519SOL    HW220457   1.242   2.474   3.377
 6520SOL     OW20458   5.771   5.544   1.697
 6520SOL    HW120459   5.825   5.512   1.774
 6520SOL    HW220460   5.814   5.515   1.611
 6521SOL     OW20461   1.818   2.613   3.745
 6521SOL    HW120462   1.758   2.560   3.685
 6521SOL    HW220463   1.865   2.551   3.808
 6522SOL     OW20464   2.887   5.211   6.325
 6522SOL    HW120465   2.830   5.161   6.390
 6522SOL    HW220466   2.983   5.193   6.344
 6523SOL     OW20467   3.768   1.182   6.356
 6523SOL    HW120468   3.842   1.215   6.297
 6523SOL    HW220469   3.804   1.112   6.418
 6524SOL     OW20470   3.711   3.536   1.545
 6524SOL    HW120471   3.801   3.572   1.522
 6524SOL    HW220472   3.641   3.582   1.489
 6525SOL     OW20473   2.815   5.081   2.707
 6525SOL    HW120474   2.873   5.066   2.628
 6525SOL    HW220475   2.748   5.152   2.686
 6526SOL     OW20476   2.119   0.307   6.717
 6526SOL    HW120477   2.174   0.245   6.661
 6526SOL    HW220478   2.158   0.314   6.809
 6527SOL     OW20479   0.430   1.808   4.648
 6527SOL    HW120480   0.442   1.808   4.747
 6527SOL    HW220481   0.478   1.886   4.608
 6528SOL     OW20482   0.053   0.700   5.965
 6528SOL    HW120483   0.008   0.613   5.986
 6528SOL    HW220484   0.051   0.715   5.866
 6529SOL     OW20485   1.628   0.839   2.806
 6529SOL    HW120486   1.583   0.784   2.876
 6529SOL    HW220487   1.581   0.926   2.797
 6530SOL     OW20488   6.842   3.063   0.510
 6530SOL    HW120489   6.837   2.983   0.449
 6530SOL    HW220490   6.752   3.104   0.518
 6531SOL     OW20491   5.350   3.127   5.154
 6531SOL    HW120492   5.391   3.206   5.200
 6531SOL    HW220493   5.308   3.156   5.068
 6532SOL     OW20494   6.853   1.381   1.145
 6532SOL    HW120495   6.908   1.307   1.183
 6532SOL    HW220496   6.774   1.398   1.204
 6533SOL     OW20497   4.612   6.837   1.039
 6533SOL    HW120498   4.620   6.928   0.997
 6533SOL    HW220499   4.665   6.835   1.123
 6534SOL     OW20500   4.289   4.808   1.484
 6534SOL    HW120501   4.220   4.792   1.414
 6534SOL    HW220502   4.339   4.723   1.501
 6535SOL     OW20503   6.102   3.811   4.181
 6535SOL    HW120504   6.111   3.714   4.156
 6535SOL    HW220505   6.006   3.838   4.174
 6536SOL     OW20506   0.952   0.854   5.795
 6536SOL    HW120507   0.876   0.917   5.780
 6536SOL    HW220508   1.026   0.902   5.843
 6537SOL     OW20509   6.778   5.427   7.013
 6537SOL    HW120510   6.750   5.419   0.090
 6537SOL    HW220511   6.802   5.522   6.993
 6538SOL     OW20512   2.485   3.801   6.394
 6538SOL    HW120513   2.439   3.886   6.420
 6538SOL    HW220514   2.471   3.785   6.296
 6539SOL     OW20515   4.086   0.592   6.277
 6539SOL    HW120516   4.095   0.661   6.350
 6539SOL    HW220517   4.030   0.630   6.203
 6540SOL     OW20518   4.670   2.227   5.851
 6540SOL    HW120519   4.693   2.213   5.947
 6540SOL    HW220520   4.731   2.171   5.794
 6541SOL     OW20521   4.435   2.428   4.887
 6541SOL    HW120522   4.460   2.513   4.934
 6541SOL    HW220523   4.341   2.404   4.912
 6542SOL     OW20524   6.462   3.544   3.985
 6542SOL    HW120525   6.448   3.604   4.063
 6542SOL    HW220526   6.555   3.555   3.951
 6543SOL     OW20527   5.094   2.684   5.825
 6543SOL    HW120528   5.055   2.662   5.736
 6543SOL    HW220529   5.148   2.768   5.818
 6544SOL     OW20530   1.159   6.273   3.377
 6544SOL    HW120531   1.195   6.180   3.371
 6544SOL    HW220532   1.157   6.315   3.286
 6545SOL     OW20533   4.066   2.108   0.356
 6545SOL    HW120534   4.043   2.042   0.284
 6545SOL    HW220535   3.984   2.130   0.408
 6546SOL     OW20536   2.574   4.458   0.014
 6546SOL    HW120537   2.596   4.552   0.043
 6546SOL    HW220538   2.483   4.456   6.993
 6547SOL     OW20539   4.810   1.207   5.731
 6547SOL    HW120540   4.747   1.216   5.808
 6547SOL    HW220541   4.818   1.111   5.705
 6548SOL     OW20542   0.664   3.930   0.573
 6548SOL    HW120543   0.598   3.893   0.638
 6548SOL    HW220544   0.641   4.025   0.553
 6549SOL     OW20545   5.059   0.986   1.626
 6549SOL    HW120546   5.097   1.076   1.649
 6549SOL    HW220547   5.123   0.937   1.566
 6550SOL     OW20548   0.137   6.417   4.121
 6550SOL    HW120549   0.040   6.393   4.125
 6550SOL    HW220550   0.156   6.467   4.037
 6551SOL     OW20551   1.865   4.670   2.040
 6551SOL    HW120552   1.937   4.713   2.096
 6551SOL    HW220553   1.804   4.618   2.099
 6552SOL     OW20554   1.662   0.087   6.675
 6552SOL    HW120555   1.714   0.053   6.596
 6552SOL    HW220556   1.718   0.153   6.726
 6553SOL     OW20557   0.269   1.962   3.309
 6553SOL    HW120558   0.215   1.880   3.322
 6553SOL    HW220559   0.296   1.969   3.212
 6554SOL     OW20560   0.525   0.560   4.533
 6554SOL    HW120561   0.553   0.530   4.624
 6554SOL    HW220562   0.577   0.512   4.464
 6555SOL     OW20563   6.046   1.923   2.891
 6555SOL    HW120564   6.066   1.979   2.971
 6555SOL    HW220565   5.949   1.902   2.888
 6556SOL     OW20566   5.461   4.486   4.895
 6556SOL    HW120567   5.505   4.564   4.850
 6556SOL    HW220568   5.369   4.474   4.858
 6557SOL     OW20569   3.147   6.760   2.466
 6557SOL    HW120570   3.135   6.851   2.426
 6557SOL    HW220571   3.245   6.740   2.474
 6558SOL     OW20572   6.995   5.266   0.118
 6558SOL    HW120573   6.951   5.189   0.164
 6558SOL    HW220574   6.926   5.331   0.087
 6559SOL     OW20575   0.521   3.216   6.399
 6559SOL    HW120576   0.574   3.217   6.483
 6559SOL    HW220577   0.531   3.128   6.353
 6560SOL     OW20578   4.338   5.358   1.528
 6560SOL    HW120579   4.355   5.362   1.429
 6560SOL    HW220580   4.381   5.277   1.566
 6561SOL     OW20581   3.288   3.919   1.219
 6561SOL    HW120582   3.201   3.963   1.199
 6561SOL    HW220583   3.289   3.827   1.180
 6562SOL     OW20584   5.805   3.363   0.779
 6562SOL    HW120585   5.804   3.370   0.878
 6562SOL    HW220586   5.873   3.294   0.751
 6563SOL     OW20587   5.445   6.495   6.659
 6563SOL    HW120588   5.380   6.550   6.710
 6563SOL    HW220589   5.529   6.484   6.713
 6564SOL     OW20590   6.806   4.513   3.113
 6564SOL    HW120591   6.890   4.506   3.167
 6564SOL    HW220592   6.820   4.473   3.023
 6565SOL     OW20593   5.541   1.581   3.555
 6565SOL    HW120594   5.531   1.482   3.562
 6565SOL    HW220595   5.635   1.604   3.528
 6566SOL     OW20596   3.528   6.204   2.516
 6566SOL    HW120597   3.610   6.162   2.476
 6566SOL    HW220598   3.533   6.199   2.615
 6567SOL     OW20599   4.301   0.987   2.560
 6567SOL    HW120600   4.372   0.940   2.508
 6567SOL    HW220601   4.259   0.924   2.625
 6568SOL     OW20602   3.531   0.932   3.642
 6568SOL    HW120603   3.537   0.832   3.647
 6568SOL    HW220604   3.501   0.959   3.551
 6569SOL     OW20605   3.174   3.767   6.029
 6569SOL    HW120606   3.129   3.802   6.110
 6569SOL    HW220607   3.118   3.695   5.988
 6570SOL     OW20608   4.047   0.678   2.065
 6570SOL    HW120609   4.108   0.692   2.144
 6570SOL    HW220610   3.959   0.722   2.084
 6571SOL     OW20611   2.939   5.740   1.688
 6571SOL    HW120612   2.967   5.646   1.710
 6571SOL    HW220613   2.839   5.746   1.692
 6572SOL     OW20614   6.194   5.095   5.859
 6572SOL    HW120615   6.251   5.166   5.819
 6572SOL    HW220616   6.107   5.089   5.809
 6573SOL     OW20617   1.837   1.653   1.960
 6573SOL    HW120618   1.766   1.661   1.889
 6573SOL    HW220619   1.800   1.600   2.037
 6574SOL     OW20620   3.182   5.372   2.321
 6574SOL    HW120621   3.084   5.389   2.307
 6574SOL    HW220622   3.230   5.459   2.332
 6575SOL     OW20623   1.180   6.776   3.003
 6575SOL    HW120624   1.100   6.719   3.022
 6575SOL    HW220625   1.262   6.718   2.999
 6576SOL     OW20626   2.187   5.839   6.261
 6576SOL    HW120627   2.174   5.927   6.306
 6576SOL    HW220628   2.099   5.803   6.230
 6577SOL     OW20629   0.756   0.983   4.605
 6577SOL    HW120630   0.802   0.923   4.670
 6577SOL    HW220631   0.819   1.006   4.530
 6578SOL     OW20632   1.195   5.104   3.225
 6578SOL    HW120633   1.204   5.191   3.176
 6578SOL    HW220634   1.099   5.074   3.221
 6579SOL     OW20635   6.690   3.489   4.756
 6579SOL    HW120636   6.664   3.512   4.662
 6579SOL    HW220637   6.763   3.550   4.786
 6580SOL     OW20638   0.803   2.573   1.137
 6580SOL    HW120639   0.783   2.577   1.235
 6580SOL    HW220640   0.895   2.608   1.121
 6581SOL     OW20641   2.619   0.734   6.912
 6581SOL    HW120642   2.647   0.786   6.993
 6581SOL    HW220643   2.683   0.658   6.898
 6582SOL     OW20644   0.917   1.549   1.858
 6582SOL    HW120645   0.960   1.462   1.882
 6582SOL    HW220646   0.823   1.533   1.830
 6583SOL     OW20647   4.474   0.871   4.969
 6583SOL    HW120648   4.385   0.903   5.002
 6583SOL    HW220649   4.461   0.789   4.913
 6584SOL     OW20650   4.396   2.818   1.318
 6584SOL    HW120651   4.490   2.784   1.321
 6584SOL    HW220652   4.341   2.770   1.385
 6585SOL     OW20653   5.442   6.933   0.097
 6585SOL    HW120654   5.514   6.972   0.154
 6585SOL    HW220655   5.466   6.838   0.074
 6586SOL     OW20656   0.261   1.923   4.932
 6586SOL    HW120657   0.196   1.877   4.993
 6586SOL    HW220658   0.323   1.855   4.893
 6587SOL     OW20659   1.879   6.718   4.737
 6587SOL    HW120660   1.950   6.650   4.720
 6587SOL    HW220661   1.795   6.691   4.691
 6588SOL     OW20662   0.828   3.489   1.539
 6588SOL    HW120663   0.910   3.466   1.592
 6588SOL    HW220664   0.767   3.410   1.536
 6589SOL     OW20665   5.479   1.506   0.007
 6589SOL    HW120666   5.505   1.454   0.087
 6589SOL    HW220667   5.519   1.465   6.944
 6590SOL     OW20668   0.916   1.020   6.275
 6590SOL    HW120669   0.939   0.938   6.327
 6590SOL    HW220670   0.858   1.079   6.331
 6591SOL     OW20671   5.237   5.202   2.730
 6591SOL    HW120672   5.328   5.206   2.687
 6591SOL    HW220673   5.177   5.145   2.676
 6592SOL     OW20674   5.680   0.297   3.730
 6592SOL    HW120675   5.755   0.231   3.743
 6592SOL    HW220676   5.659   0.342   3.817
 6593SOL     OW20677   2.235   2.224   2.315
 6593SOL    HW120678   2.297   2.235   2.237
 6593SOL    HW220679   2.289   2.213   2.398
 6594SOL     OW20680   3.517   1.787   7.005
 6594SOL    HW120681   3.437   1.776   0.045
 6594SOL    HW220682   3.489   1.834   6.921
 6595SOL     OW20683   0.570   3.805   6.673
 6595SOL    HW120684   0.608   3.832   6.584
 6595SOL    HW220685   0.607   3.716   6.699
 6596SOL     OW20686   3.324   6.211   4.192
 6596SOL    HW120687   3.300   6.236   4.286
 6596SOL    HW220688   3.324   6.293   4.135
 6597SOL     OW20689   1.839   5.192   1.465
 6597SOL    HW120690   1.803   5.173   1.556
 6597SOL    HW220691   1.892   5.113   1.433
 6598SOL     OW20692   1.694   6.133   4.554
 6598SOL    HW120693   1.745   6.114   4.470
 6598SOL    HW220694   1.714   6.061   4.621
 6599SOL     OW20695   4.500   6.899   6.282
 6599SOL    HW120696   4.504   6.911   6.381
 6599SOL    HW220697   4.589   6.869   6.248
 6600SOL     OW20698   5.011   4.996   4.957
 6600SOL    HW120699   5.033   5.019   5.053
 6600SOL    HW220700   5.041   4.903   4.938
 6601SOL     OW20701   1.233   2.002   5.417
 6601SOL    HW120702   1.195   1.951   5.494
 6601SOL    HW220703   1.277   1.938   5.354
 6602SOL     OW20704   1.235   1.128   2.359
 6602SOL    HW120705   1.192   1.211   2.395
 6602SOL    HW220706   1.216   1.120   2.261
 6603SOL     OW20707   6.794   2.640   3.797
 6603SOL    HW120708   6.707   2.688   3.799
 6603SOL    HW220709   6.864   2.695   3.843
 6604SOL     OW20710   2.116   0.022   0.771
 6604SOL    HW120711   2.062   6.967   0.731
 6604SOL    HW220712   2.056   0.099   0.794
 6605SOL     OW20713   5.300   4.026   1.575
 6605SOL    HW120714   5.312   4.088   1.653
 6605SOL    HW220715   5.361   3.948   1.585
 6606SOL     OW20716   6.839   6.395   1.651
 6606SOL    HW120717   6.828   6.301   1.618
 6606SOL    HW220718   6.895   6.394   1.734
 6607SOL     OW20719   1.828   3.493   2.475
 6607SOL    HW120720   1.865   3.403   2.450
 6607SOL    HW220721   1.899   3.545   2.522
 6608SOL     OW20722   5.803   6.365   1.170
 6608SOL    HW120723   5.814   6.282   1.224
 6608SOL    HW220724   5.727   6.419   1.207
 6609SOL     OW20725   4.840   0.913   5.617
 6609SOL    HW120726   4.769   0.888   5.551
 6609SOL    HW220727   4.870   0.832   5.667
 6610SOL     OW20728   2.959   0.050   6.809
 6610SOL    HW120729   2.876   0.009   6.772
 6610SOL    HW220730   2.964   0.034   6.907
 6611SOL     OW20731   4.842   2.552   3.801
 6611SOL    HW120732   4.893   2.562   3.887
 6611SOL    HW220733   4.747   2.580   3.815
 6612SOL     OW20734   6.052   2.325   5.950
 6612SOL    HW120735   6.139   2.331   5.998
 6612SOL    HW220736   6.032   2.229   5.930
 6613SOL     OW20737   6.639   6.149   4.953
 6613SOL    HW120738   6.559   6.202   4.982
 6613SOL    HW220739   6.672   6.183   4.865
 6614SOL     OW20740   5.546   6.462   0.687
 6614SOL    HW120741   5.630   6.472   0.741
 6614SOL    HW220742   5.507   6.552   0.670
 6615SOL     OW20743   1.478   4.965   2.525
 6615SOL    HW120744   1.432   4.946   2.439
 6615SOL    HW220745   1.438   5.048   2.566
 6616SOL     OW20746   4.139   0.906   6.017
 6616SOL    HW120747   4.137   0.911   5.918
 6616SOL    HW220748   4.075   0.835   6.048
 6617SOL     OW20749   4.321   4.938   3.291
 6617SOL    HW120750   4.408   4.905   3.256
 6617SOL    HW220751   4.253   4.938   3.218
 6618SOL     OW20752   1.545   2.309   2.372
 6618SOL    HW120753   1.557   2.395   2.323
 6618SOL    HW220754   1.608   2.241   2.336
 6619SOL     OW20755   6.124   6.895   3.778
 6619SOL    HW120756   6.202   6.957   3.774
 6619SOL    HW220757   6.044   6.940   3.737
 6620SOL     OW20758   1.884   3.053   5.149
 6620SOL    HW120759   1.973   3.014   5.125
 6620SOL    HW220760   1.814   3.017   5.086
 6621SOL     OW20761   3.116   3.046   6.081
 6621SOL    HW120762   3.138   2.948   6.086
 6621SOL    HW220763   3.192   3.094   6.036
 6622SOL     OW20764   5.626   6.969   1.099
 6622SOL    HW120765   5.537   6.924   1.106
 6622SOL    HW220766   5.699   6.901   1.106
 6623SOL     OW20767   3.306   2.939   5.684
 6623SOL    HW120768   3.250   3.016   5.654
 6623SOL    HW220769   3.382   2.926   5.620
 6624SOL     OW20770   0.247   5.161   6.201
 6624SOL    HW120771   0.276   5.153   6.296
 6624SOL    HW220772   0.305   5.227   6.154
 6625SOL     OW20773   5.108   1.898   5.404
 6625SOL    HW120774   5.011   1.917   5.388
 6625SOL    HW220775   5.135   1.933   5.493
 6626SOL     OW20776   4.357   5.153   5.461
 6626SOL    HW120777   4.389   5.223   5.524
 6626SOL    HW220778   4.394   5.064   5.488
 6627SOL     OW20779   2.074   6.162   4.820
 6627SOL    HW120780   2.066   6.175   4.721
 6627SOL    HW220781   2.068   6.251   4.866
 6628SOL     OW20782   4.718   4.710   4.888
 6628SOL    HW120783   4.790   4.655   4.931
 6628SOL    HW220784   4.691   4.784   4.950
 6629SOL     OW20785   4.528   6.182   6.829
 6629SOL    HW120786   4.547   6.177   6.731
 6629SOL    HW220787   4.437   6.144   6.847
 6630SOL     OW20788   4.083   1.266   1.641
 6630SOL    HW120789   4.118   1.354   1.672
 6630SOL    HW220790   3.985   1.261   1.660
 6631SOL     OW20791   2.645   5.453   3.430
 6631SOL    HW120792   2.712   5.501   3.486
 6631SOL    HW220793   2.683   5.366   3.399
 6632SOL     OW20794   0.319   6.966   1.471
 6632SOL    HW120795   0.413   6.945   1.499
 6632SOL    HW220796   0.256   6.927   1.538
 6633SOL     OW20797   1.061   4.564   6.055
 6633SOL    HW120798   0.987   4.564   6.122
 6633SOL    HW220799   1.059   4.478   6.004
 6634SOL     OW20800   5.217   2.111   4.238
 6634SOL    HW120801   5.284   2.078   4.171
 6634SOL    HW220802   5.142   2.156   4.190
 6635SOL     OW20803   4.559   4.824   3.205
 6635SOL    HW120804   4.649   4.842   3.243
 6635SOL    HW220805   4.555   4.730   3.172
 6636SOL     OW20806   5.011   2.170   6.046
 6636SOL    HW120807   4.956   2.253   6.046
 6636SOL    HW220808   5.092   2.183   6.103
 6637SOL     OW20809   1.475   0.254   6.632
 6637SOL    HW120810   1.394   0.233   6.688
 6637SOL    HW220811   1.543   0.182   6.644
 6638SOL     OW20812   3.120   3.647   3.774
 6638SOL    HW120813   3.201   3.595   3.801
 6638SOL    HW220814   3.149   3.735   3.736
 6639SOL     OW20815   5.237   4.665   6.584
 6639SOL    HW120816   5.281   4.590   6.633
 6639SOL    HW220817   5.185   4.629   6.507
 6640SOL     OW20818   1.703   1.606   5.047
 6640SOL    HW120819   1.754   1.640   4.968
 6640SOL    HW220820   1.665   1.516   5.027
 6641SOL     OW20821   1.724   2.228   6.570
 6641SOL    HW120822   1.702   2.315   6.613
 6641SOL    HW220823   1.823   2.213   6.572
 6642SOL     OW20824   2.240   5.654   6.618
 6642SOL    HW120825   2.335   5.683   6.615
 6642SOL    HW220826   2.230   5.575   6.678
 6643SOL     OW20827   5.998   5.088   0.471
 6643SOL    HW120828   5.913   5.043   0.444
 6643SOL    HW220829   6.065   5.020   0.500
 6644SOL     OW20830   2.319   5.309   1.807
 6644SOL    HW120831   2.410   5.278   1.834
 6644SOL    HW220832   2.312   5.408   1.820
 6645SOL     OW20833   6.445   5.007   0.542
 6645SOL    HW120834   6.370   4.953   0.579
 6645SOL    HW220835   6.470   5.079   0.607
 6646SOL     OW20836   4.575   0.542   4.498
 6646SOL    HW120837   4.583   0.601   4.417
 6646SOL    HW220838   4.666   0.514   4.527
 6647SOL     OW20839   5.193   1.230   1.636
 6647SOL    HW120840   5.249   1.290   1.579
 6647SOL    HW220841   5.121   1.283   1.680
 6648SOL     OW20842   4.529   6.386   3.637
 6648SOL    HW120843   4.490   6.310   3.689
 6648SOL    HW220844   4.457   6.449   3.611
 6649SOL     OW20845   4.703   0.951   6.452
 6649SOL    HW120846   4.731   0.997   6.537
 6649SOL    HW220847   4.775   0.888   6.423
 6650SOL     OW20848   3.973   1.544   5.169
 6650SOL    HW120849   3.904   1.488   5.214
 6650SOL    HW220850   3.933   1.591   5.091
 6651SOL     OW20851   2.097   2.044   5.469
 6651SOL    HW120852   2.007   2.001   5.455
 6651SOL    HW220853   2.126   2.089   5.385
 6652SOL     OW20854   0.921   4.231   0.880
 6652SOL    HW120855   0.974   4.306   0.918
 6652SOL    HW220856   0.980   4.171   0.827
 6653SOL     OW20857   2.972   3.746   2.495
 6653SOL    HW120858   3.032   3.825   2.482
 6653SOL    HW220859   2.946   3.710   2.405
 6654SOL     OW20860   1.304   4.896   1.231
 6654SOL    HW120861   1.292   4.798   1.217
 6654SOL    HW220862   1.313   4.914   1.329
 6655SOL     OW20863   0.866   6.708   3.843
 6655SOL    HW120864   0.947   6.664   3.804
 6655SOL    HW220865   0.827   6.771   3.776
 6656SOL     OW20866   5.775   1.965   4.294
 6656SOL    HW120867   5.846   1.894   4.282
 6656SOL    HW220868   5.797   2.043   4.236
 6657SOL     OW20869   5.831   5.434   6.544
 6657SOL    HW120870   5.899   5.417   6.473
 6657SOL    HW220871   5.751   5.376   6.528
 6658SOL     OW20872   6.899   1.409   4.269
 6658SOL    HW120873   6.807   1.369   4.257
 6658SOL    HW220874   6.912   1.482   4.202
 6659SOL     OW20875   2.004   2.552   0.382
 6659SOL    HW120876   1.926   2.544   0.319
 6659SOL    HW220877   2.015   2.467   0.433
 6660SOL     OW20878   0.934   4.715   1.406
 6660SOL    HW120879   0.946   4.797   1.463
 6660SOL    HW220880   0.869   4.653   1.451
 6661SOL     OW20881   0.847   6.373   5.041
 6661SOL    HW120882   0.902   6.339   5.117
 6661SOL    HW220883   0.784   6.301   5.010
 6662SOL     OW20884   1.109   0.521   6.912
 6662SOL    HW120885   1.173   0.446   6.921
 6662SOL    HW220886   1.157   0.603   6.879
 6663SOL     OW20887   6.662   4.634   4.047
 6663SOL    HW120888   6.755   4.658   4.073
 6663SOL    HW220889   6.663   4.547   3.998
 6664SOL     OW20890   1.953   6.351   0.604
 6664SOL    HW120891   1.882   6.406   0.648
 6664SOL    HW220892   1.954   6.259   0.643
 6665SOL     OW20893   1.770   6.126   4.275
 6665SOL    HW120894   1.767   6.172   4.187
 6665SOL    HW220895   1.835   6.050   4.272
 6666SOL     OW20896   6.386   0.112   5.377
 6666SOL    HW120897   6.479   0.138   5.349
 6666SOL    HW220898   6.321   0.141   5.307
 6667SOL     OW20899   6.572   5.916   6.687
 6667SOL    HW120900   6.552   5.973   6.607
 6667SOL    HW220901   6.654   5.862   6.669
 6668SOL     OW20902   6.928   5.163   1.274
 6668SOL    HW120903   6.998   5.093   1.260
 6668SOL    HW220904   6.945   5.210   1.360
 6669SOL     OW20905   1.803   2.613   3.270
 6669SOL    HW120906   1.782   2.658   3.184
 6669SOL    HW220907   1.722   2.616   3.329
 6670SOL     OW20908   3.259   1.707   5.477
 6670SOL    HW120909   3.219   1.741   5.562
 6670SOL    HW220910   3.300   1.783   5.426
 6671SOL     OW20911   6.049   6.217   0.665
 6671SOL    HW120912   6.134   6.186   0.708
 6671SOL    HW220913   6.002   6.140   0.623
 6672SOL     OW20914   6.466   2.116   6.429
 6672SOL    HW120915   6.416   2.067   6.500
 6672SOL    HW220916   6.444   2.213   6.433
 6673SOL     OW20917   4.677   5.356   4.198
 6673SOL    HW120918   4.669   5.274   4.255
 6673SOL    HW220919   4.698   5.435   4.256
 6674SOL     OW20920   0.662   4.436   6.226
 6674SOL    HW120921   0.603   4.492   6.167
 6674SOL    HW220922   0.755   4.471   6.223
 6675SOL     OW20923   4.649   3.425   1.299
 6675SOL    HW120924   4.614   3.370   1.375
 6675SOL    HW220925   4.721   3.486   1.331
 6676SOL     OW20926   0.208   3.465   5.343
 6676SOL    HW120927   0.233   3.421   5.257
 6676SOL    HW220928   0.117   3.435   5.370
 6677SOL     OW20929   1.629   1.185   6.330
 6677SOL    HW120930   1.599   1.269   6.376
 6677SOL    HW220931   1.691   1.208   6.255
 6678SOL     OW20932   3.514   3.338   6.454
 6678SOL    HW120933   3.427   3.294   6.475
 6678SOL    HW220934   3.571   3.340   6.537
 6679SOL     OW20935   3.184   1.017   4.208
 6679SOL    HW120936   3.199   1.088   4.139
 6679SOL    HW220937   3.228   1.045   4.294
 6680SOL     OW20938   4.789   6.635   6.819
 6680SOL    HW120939   4.828   6.691   6.891
 6680SOL    HW220940   4.689   6.636   6.827
 6681SOL     OW20941   3.783   6.357   1.379
 6681SOL    HW120942   3.879   6.379   1.364
 6681SOL    HW220943   3.726   6.409   1.316
 6682SOL     OW20944   0.374   4.841   2.514
 6682SOL    HW120945   0.326   4.924   2.543
 6682SOL    HW220946   0.463   4.837   2.559
 6683SOL     OW20947   5.687   3.337   5.158
 6683SOL    HW120948   5.682   3.278   5.077
 6683SOL    HW220949   5.770   3.317   5.209
 6684SOL     OW20950   2.885   0.532   1.301
 6684SOL    HW120951   2.969   0.584   1.285
 6684SOL    HW220952   2.901   0.464   1.372
 6685SOL     OW20953   6.915   3.611   5.514
 6685SOL    HW120954   6.985   3.591   5.583
 6685SOL    HW220955   6.848   3.674   5.552
 6686SOL     OW20956   5.434   5.853   4.719
 6686SOL    HW120957   5.423   5.756   4.741
 6686SOL    HW220958   5.361   5.882   4.657
 6687SOL     OW20959   1.060   3.422   0.280
 6687SOL    HW120960   0.975   3.473   0.275
 6687SOL    HW220961   1.135   3.483   0.307
 6688SOL     OW20962   6.812   4.005   2.409
 6688SOL    HW120963   6.773   4.085   2.454
 6688SOL    HW220964   6.857   3.947   2.477
 6689SOL     OW20965   4.551   2.967   0.402
 6689SOL    HW120966   4.604   3.051   0.415
 6689SOL    HW220967   4.600   2.906   0.340
 6690SOL     OW20968   2.080   1.283   0.502
 6690SOL    HW120969   2.117   1.286   0.594
 6690SOL    HW220970   2.155   1.289   0.435
 6691SOL     OW20971   2.738   6.331   2.071
 6691SOL    HW120972   2.745   6.286   2.160
 6691SOL    HW220973   2.667   6.286   2.017
 6692SOL     OW20974   3.946   3.845   5.085
 6692SOL    HW120975   3.869   3.846   5.021
 6692SOL    HW220976   4.029   3.820   5.037
 6693SOL     OW20977   4.033   3.605   4.808
 6693SOL    HW120978   4.095   3.603   4.886
 6693SOL    HW220979   4.031   3.514   4.765
 6694SOL     OW20980   3.591   5.799   1.159
 6694SOL    HW120981   3.594   5.813   1.258
 6694SOL    HW220982   3.497   5.783   1.131
 6695SOL     OW20983   3.115   1.846   0.463
 6695SOL    HW120984   3.184   1.918   0.458
 6695SOL    HW220985   3.159   1.758   0.481
 6696SOL     OW20986   2.350   3.238   5.632
 6696SOL    HW120987   2.312   3.185   5.556
 6696SOL    HW220988   2.441   3.204   5.654
 6697SOL     OW20989   4.483   2.373   2.606
 6697SOL    HW120990   4.533   2.294   2.641
 6697SOL    HW220991   4.519   2.456   2.646
 6698SOL     OW20992   2.665   2.694   1.641
 6698SOL    HW120993   2.630   2.630   1.710
 6698SOL    HW220994   2.592   2.755   1.613
 6699SOL     OW20995   2.516   5.936   6.082
 6699SOL    HW120996   2.505   5.961   6.178
 6699SOL    HW220997   2.438   5.881   6.052
 6700SOL     OW20998   6.915   6.563   1.349
 6700SOL    HW120999   6.978   6.632   1.384
 6700SOL    HW221000   6.824   6.578   1.388
 6701SOL     OW21001   5.649   3.360   1.777
 6701SOL    HW121002   5.584   3.298   1.732
 6701SOL    HW221003   5.724   3.306   1.817
 6702SOL     OW21004   3.386   1.602   1.804
 6702SOL    HW121005   3.420   1.639   1.891
 6702SOL    HW221006   3.286   1.601   1.805
 6703SOL     OW21007   6.173   2.014   6.589
 6703SOL    HW121008   6.079   2.034   6.562
 6703SOL    HW221009   6.174   1.934   6.649
 6704SOL     OW21010   2.990   1.665   3.525
 6704SOL    HW121011   3.029   1.586   3.574
 6704SOL    HW221012   3.058   1.701   3.462
 6705SOL     OW21013   6.642   3.016   1.770
 6705SOL    HW121014   6.638   3.072   1.688
 6705SOL    HW221015   6.558   2.962   1.778
 6706SOL     OW21016   1.251   3.686   2.132
 6706SOL    HW121017   1.297   3.604   2.167
 6706SOL    HW221018   1.317   3.760   2.121
 6707SOL     OW21019   6.816   5.867   3.267
 6707SOL    HW121020   6.887   5.827   3.325
 6707SOL    HW221021   6.726   5.844   3.304
 6708SOL     OW21022   6.055   5.566   1.861
 6708SOL    HW121023   6.056   5.508   1.780
 6708SOL    HW221024   6.120   5.530   1.928
 6709SOL     OW21025   2.645   6.187   3.178
 6709SOL    HW121026   2.716   6.117   3.170
 6709SOL    HW221027   2.567   6.162   3.121
 6710SOL     OW21028   3.541   1.029   5.827
 6710SOL    HW121029   3.625   1.080   5.815
 6710SOL    HW221030   3.494   1.058   5.910
 6711SOL     OW21031   4.642   5.396   6.315
 6711SOL    HW121032   4.556   5.346   6.313
 6711SOL    HW221033   4.704   5.358   6.247
 6712SOL     OW21034   5.642   4.175   6.964
 6712SOL    HW121035   5.730   4.184   7.010
 6712SOL    HW221036   5.605   4.266   6.944
 6713SOL     OW21037   2.154   0.183   2.434
 6713SOL    HW121038   2.244   0.218   2.407
 6713SOL    HW221039   2.162   0.137   2.522
 6714SOL     OW21040   6.025   0.960   6.177
 6714SOL    HW121041   6.063   1.005   6.258
 6714SOL    HW221042   6.071   0.995   6.095
 6715SOL     OW21043   0.360   0.039   0.062
 6715SOL    HW121044   0.382   0.111   0.128
 6715SOL    HW221045   0.354   6.970   0.109
 6716SOL     OW21046   0.402   5.836   1.396
 6716SOL    HW121047   0.332   5.902   1.369
 6716SOL    HW221048   0.382   5.803   1.488
 6717SOL     OW21049   4.206   3.136   6.687
 6717SOL    HW121050   4.166   3.159   6.776
 6717SOL    HW221051   4.229   3.039   6.685
 6718SOL     OW21052   4.676   0.660   0.304
 6718SOL    HW121053   4.582   0.636   0.279
 6718SOL    HW221054   4.715   0.590   0.363
 6719SOL     OW21055   2.484   0.381   6.597
 6719SOL    HW121056   2.418   0.454   6.617
 6719SOL    HW221057   2.514   0.339   6.683
 6720SOL     OW21058   1.234   6.785   4.271
 6720SOL    HW121059   1.330   6.801   4.246
 6720SOL    HW221060   1.226   6.697   4.319
 6721SOL     OW21061   6.691   0.214   6.387
 6721SOL    HW121062   6.748   0.278   6.335
 6721SOL    HW221063   6.628   0.266   6.445
 6722SOL     OW21064   6.601   2.778   1.388
 6722SOL    HW121065   6.572   2.740   1.300
 6722SOL    HW221066   6.623   2.703   1.450
 6723SOL     OW21067   2.534   6.627   3.295
 6723SOL    HW121068   2.490   6.637   3.206
 6723SOL    HW221069   2.608   6.561   3.289
 6724SOL     OW21070   1.360   3.451   5.615
 6724SOL    HW121071   1.269   3.451   5.572
 6724SOL    HW221072   1.424   3.403   5.556
 6725SOL     OW21073   0.260   3.944   1.577
 6725SOL    HW121074   0.271   4.015   1.647
 6725SOL    HW221075   0.344   3.938   1.524
 6726SOL     OW21076   0.732   1.924   5.087
 6726SOL    HW121077   0.656   1.977   5.050
 6726SOL    HW221078   0.699   1.834   5.115
 6727SOL     OW21079   6.865   4.373   5.518
 6727SOL    HW121080   6.782   4.330   5.481
 6727SOL    HW221081   6.867   4.469   5.493
 6728SOL     OW21082   3.765   1.509   3.303
 6728SOL    HW121083   3.772   1.463   3.392
 6728SOL    HW221084   3.710   1.592   3.312
 6729SOL     OW21085   6.967   1.049   2.952
 6729SOL    HW121086   6.868   1.049   2.967
 6729SOL    HW221087   7.013   1.095   3.028
 6730SOL     OW21088   2.538   6.769   0.083
 6730SOL    HW121089   2.605   6.744   0.013
 6730SOL    HW221090   2.486   6.849   0.052
 6731SOL     OW21091   0.664   6.040   2.035
 6731SOL    HW121092   0.591   6.045   1.966
 6731SOL    HW221093   0.636   5.978   2.108
 6732SOL     OW21094   5.697   5.111   5.434
 6732SOL    HW121095   5.693   5.067   5.344
 6732SOL    HW221096   5.653   5.052   5.502
 6733SOL     OW21097   4.190   5.050   0.200
 6733SOL    HW121098   4.240   4.966   0.178
 6733SOL    HW221099   4.229   5.127   0.150
 6734SOL     OW21100   6.221   1.974   4.934
 6734SOL    HW121101   6.310   1.952   4.895
 6734SOL    HW221102   6.157   1.899   4.917
 6735SOL     OW21103   6.696   4.259   4.903
 6735SOL    HW121104   6.695   4.224   4.809
 6735SOL    HW221105   6.715   4.183   4.966
 6736SOL     OW21106   3.322   3.643   6.707
 6736SOL    HW121107   3.364   3.568   6.757
 6736SOL    HW221108   3.342   3.635   6.610
 6737SOL     OW21109   2.354   2.423   0.664
 6737SOL    HW121110   2.264   2.402   0.702
 6737SOL    HW221111   2.361   2.386   0.572
 6738SOL     OW21112   1.628   5.142   2.203
 6738SOL    HW121113   1.610   5.184   2.292
 6738SOL    HW221114   1.542   5.129   2.154
 6739SOL     OW21115   3.701   6.144   5.413
 6739SOL    HW121116   3.650   6.112   5.333
 6739SOL    HW221117   3.651   6.218   5.457
 6740SOL     OW21118   1.967   0.719   4.221
 6740SOL    HW121119   1.979   0.799   4.162
 6740SOL    HW221120   1.938   0.749   4.312
 6741SOL     OW21121   4.284   1.120   5.570
 6741SOL    HW121122   4.376   1.091   5.597
 6741SOL    HW221123   4.291   1.188   5.497
 6742SOL     OW21124   6.508   5.808   3.066
 6742SOL    HW121125   6.432   5.746   3.083
 6742SOL    HW221126   6.492   5.859   2.981
 6743SOL     OW21127   3.738   4.830   0.407
 6743SOL    HW121128   3.802   4.901   0.378
 6743SOL    HW221129   3.783   4.771   0.475
 6744SOL     OW21130   5.682   4.256   6.610
 6744SOL    HW121131   5.716   4.330   6.668
 6744SOL    HW221132   5.630   4.295   6.534
 6745SOL     OW21133   6.929   0.382   2.787
 6745SOL    HW121134   7.005   0.376   2.852
 6745SOL    HW221135   6.947   0.453   2.720
 6746SOL     OW21136   1.183   1.135   3.197
 6746SOL    HW121137   1.243   1.060   3.170
 6746SOL    HW221138   1.207   1.165   3.290
 6747SOL     OW21139   5.936   1.111   4.895
 6747SOL    HW121140   6.012   1.138   4.836
 6747SOL    HW221141   5.966   1.037   4.955
 6748SOL     OW21142   1.389   0.632   3.342
 6748SOL    HW121143   1.394   0.711   3.404
 6748SOL    HW221144   1.479   0.591   3.333
 6749SOL     OW21145   2.386   6.558   0.149
 6749SOL    HW121146   2.444   6.638   0.139
 6749SOL    HW221147   2.404   6.494   0.075
 6750SOL     OW21148   4.021   2.223   5.161
 6750SOL    HW121149   3.925   2.197   5.169
 6750SOL    HW221150   4.028   2.315   5.122
 6751SOL     OW21151   4.408   0.277   3.532
 6751SOL    HW121152   4.479   0.230   3.585
 6751SOL    HW221153   4.393   0.228   3.446
 6752SOL     OW21154   0.515   2.418   2.829
 6752SOL    HW121155   0.462   2.405   2.912
 6752SOL    HW221156   0.466   2.480   2.767
 6753SOL     OW21157   4.104   1.084   6.507
 6753SOL    HW121158   4.065   1.160   6.559
 6753SOL    HW221159   4.202   1.099   6.494
 6754SOL     OW21160   0.468   1.707   0.321
 6754SOL    HW121161   0.441   1.617   0.355
 6754SOL    HW221162   0.411   1.732   0.243
 6755SOL     OW21163   3.671   0.534   3.521
 6755SOL    HW121164   3.664   0.488   3.433
 6755SOL    HW221165   3.592   0.511   3.577
 6756SOL     OW21166   3.668   5.464   5.663
 6756SOL    HW121167   3.698   5.478   5.569
 6756SOL    HW221168   3.577   5.424   5.664
 6757SOL     OW21169   4.111   0.413   1.880
 6757SOL    HW121170   4.163   0.379   1.959
 6757SOL    HW221171   4.047   0.483   1.911
 6758SOL     OW21172   6.782   2.300   1.567
 6758SOL    HW121173   6.751   2.374   1.627
 6758SOL    HW221174   6.716   2.225   1.569
 6759SOL     OW21175   0.972   4.526   3.974
 6759SOL    HW121176   0.889   4.523   4.030
 6759SOL    HW221177   0.981   4.441   3.923
 6760SOL     OW21178   6.676   4.505   3.353
 6760SOL    HW121179   6.699   4.582   3.413
 6760SOL    HW221180   6.712   4.522   3.262
 6761SOL     OW21181   6.337   2.193   5.966
 6761SOL    HW121182   6.431   2.200   5.998
 6761SOL    HW221183   6.279   2.156   6.040
 6762SOL     OW21184   0.308   5.391   3.384
 6762SOL    HW121185   0.294   5.313   3.323
 6762SOL    HW221186   0.397   5.431   3.366
 6763SOL     OW21187   0.292   4.724   2.986
 6763SOL    HW121188   0.244   4.643   2.953
 6763SOL    HW221189   0.264   4.744   3.080
 6764SOL     OW21190   2.403   5.230   6.672
 6764SOL    HW121191   2.440   5.153   6.619
 6764SOL    HW221192   2.472   5.302   6.678
 6765SOL     OW21193   5.131   4.677   3.732
 6765SOL    HW121194   5.111   4.771   3.704
 6765SOL    HW221195   5.226   4.672   3.765
 6766SOL     OW21196   4.739   6.811   6.194
 6766SOL    HW121197   4.774   6.852   6.110
 6766SOL    HW221198   4.793   6.844   6.272
 6767SOL     OW21199   1.506   2.069   0.663
 6767SOL    HW121200   1.554   2.019   0.591
 6767SOL    HW221201   1.448   2.006   0.714
 6768SOL     OW21202   1.095   6.191   3.625
 6768SOL    HW121203   0.997   6.189   3.605
 6768SOL    HW221204   1.139   6.261   3.568
 6769SOL     OW21205   2.672   0.066   5.748
 6769SOL    HW121206   2.658   0.068   5.649
 6769SOL    HW221207   2.608   0.130   5.792
 6770SOL     OW21208   5.448   1.819   3.691
 6770SOL    HW121209   5.494   1.815   3.780
 6770SOL    HW221210   5.468   1.735   3.639
 6771SOL     OW21211   4.165   1.260   1.953
 6771SOL    HW121212   4.115   1.331   1.904
 6771SOL    HW221213   4.121   1.172   1.939
 6772SOL     OW21214   4.705   2.242   2.710
 6772SOL    HW121215   4.717   2.186   2.628
 6772SOL    HW221216   4.718   2.186   2.792
 6773SOL     OW21217   6.982   6.595   2.010
 6773SOL    HW121218   7.006   6.568   2.103
 6773SOL    HW221219   6.883   6.609   2.004
 6774SOL     OW21220   1.196   3.227   4.690
 6774SOL    HW121221   1.296   3.219   4.695
 6774SOL    HW221222   1.159   3.152   4.636
 6775SOL     OW21223   0.964   2.303   3.218
 6775SOL    HW121224   1.032   2.355   3.269
 6775SOL    HW221225   0.975   2.205   3.238
 6776SOL     OW21226   4.291   4.089   1.078
 6776SOL    HW121227   4.265   4.026   1.151
 6776SOL    HW221228   4.350   4.042   1.013
 6777SOL     OW21229   4.190   5.603   0.885
 6777SOL    HW121230   4.152   5.686   0.844
 6777SOL    HW221231   4.154   5.591   0.978
 6778SOL     OW21232   6.032   3.731   2.090
 6778SOL    HW121233   6.053   3.641   2.053
 6778SOL    HW221234   6.103   3.796   2.061
 6779SOL     OW21235   5.188   4.343   6.040
 6779SOL    HW121236   5.108   4.398   6.018
 6779SOL    HW221237   5.194   4.331   6.139
 6780SOL     OW21238   0.737   3.290   3.161
 6780SOL    HW121239   0.780   3.378   3.138
 6780SOL    HW221240   0.641   3.305   3.183
 6781SOL     OW21241   0.001   2.049   4.212
 6781SOL    HW121242   6.954   2.106   4.261
 6781SOL    HW221243   6.970   1.985   4.153
 6782SOL     OW21244   0.877   1.149   3.376
 6782SOL    HW121245   0.914   1.223   3.319
 6782SOL    HW221246   0.934   1.138   3.457
 6783SOL     OW21247   0.987   2.814   6.281
 6783SOL    HW121248   0.918   2.803   6.210
 6783SOL    HW221249   1.005   2.912   6.295
 6784SOL     OW21250   2.301   3.680   0.895
 6784SOL    HW121251   2.251   3.680   0.809
 6784SOL    HW221252   2.399   3.673   0.876
 6785SOL     OW21253   5.734   5.056   5.154
 6785SOL    HW121254   5.682   5.006   5.086
 6785SOL    HW221255   5.823   5.081   5.117
 6786SOL     OW21256   0.846   2.935   0.033
 6786SOL    HW121257   0.869   2.848   7.008
 6786SOL    HW221258   0.891   3.010   7.003
 6787SOL     OW21259   3.351   2.232   1.132
 6787SOL    HW121260   3.355   2.332   1.136
 6787SOL    HW221261   3.314   2.196   1.218
 6788SOL     OW21262   0.027   4.558   1.872
 6788SOL    HW121263   0.121   4.545   1.904
 6788SOL    HW221264   7.007   4.469   1.848
 6789SOL     OW21265   0.341   4.274   3.871
 6789SOL    HW121266   0.391   4.321   3.944
 6789SOL    HW221267   0.252   4.318   3.859
 6790SOL     OW21268   0.687   4.030   6.943
 6790SOL    HW121269   0.740   3.946   6.957
 6790SOL    HW221270   0.748   4.106   6.921
 6791SOL     OW21271   4.177   2.114   2.533
 6791SOL    HW121272   4.254   2.154   2.582
 6791SOL    HW221273   4.135   2.184   2.474
 6792SOL     OW21274   5.451   0.188   5.702
 6792SOL    HW121275   5.402   0.137   5.631
 6792SOL    HW221276   5.386   0.216   5.773
 6793SOL     OW21277   3.612   0.523   6.715
 6793SOL    HW121278   3.599   0.510   6.813
 6793SOL    HW221279   3.590   0.618   6.691
 6794SOL     OW21280   5.709   1.075   5.055
 6794SOL    HW121281   5.787   1.108   5.002
 6794SOL    HW221282   5.653   1.015   4.998
 6795SOL     OW21283   1.091   6.062   0.521
 6795SOL    HW121284   1.088   6.131   0.449
 6795SOL    HW221285   1.095   5.971   0.479
 6796SOL     OW21286   6.047   6.964   2.300
 6796SOL    HW121287   6.098   0.022   2.338
 6796SOL    HW221288   5.959   6.996   2.266
 6797SOL     OW21289   6.231   1.375   1.218
 6797SOL    HW121290   6.260   1.461   1.259
 6797SOL    HW221291   6.210   1.309   1.291
 6798SOL     OW21292   6.428   0.355   1.744
 6798SOL    HW121293   6.411   0.339   1.841
 6798SOL    HW221294   6.495   0.289   1.710
 6799SOL     OW21295   6.140   6.810   2.518
 6799SOL    HW121296   6.059   6.752   2.529
 6799SOL    HW221297   6.140   6.851   2.427
 6800SOL     OW21298   2.434   2.582   2.004
 6800SOL    HW121299   2.435   2.569   1.905
 6800SOL    HW221300   2.510   2.532   2.045
 6801SOL     OW21301   0.799   6.773   4.095
 6801SOL    HW121302   0.737   6.849   4.078
 6801SOL    HW221303   0.846   6.748   4.010
 6802SOL     OW21304   3.534   6.263   1.192
 6802SOL    HW121305   3.440   6.228   1.192
 6802SOL    HW221306   3.533   6.362   1.210
 6803SOL     OW21307   3.842   4.215   6.652
 6803SOL    HW121308   3.919   4.154   6.673
 6803SOL    HW221309   3.787   4.229   6.735
 6804SOL     OW21310   4.051   5.162   3.055
 6804SOL    HW121311   4.144   5.196   3.067
 6804SOL    HW221312   4.044   5.070   3.092
 6805SOL     OW21313   0.540   5.347   6.551
 6805SOL    HW121314   0.608   5.396   6.496
 6805SOL    HW221315   0.576   5.333   6.643
 6806SOL     OW21316   6.845   0.848   4.283
 6806SOL    HW121317   6.867   0.881   4.192
 6806SOL    HW221318   6.858   0.922   4.350
 6807SOL     OW21319   3.618   3.700   2.743
 6807SOL    HW121320   3.673   3.707   2.826
 6807SOL    HW221321   3.523   3.721   2.764
 6808SOL     OW21322   6.979   1.371   5.359
 6808SOL    HW121323   6.916   1.436   5.401
 6808SOL    HW221324   7.002   1.402   5.267
 6809SOL     OW21325   6.422   3.215   0.773
 6809SOL    HW121326   6.507   3.176   0.809
 6809SOL    HW221327   6.363   3.141   0.740
 6810SOL     OW21328   2.724   0.973   2.194
 6810SOL    HW121329   2.797   1.001   2.256
 6810SOL    HW221330   2.653   1.044   2.192
 6811SOL     OW21331   6.157   3.243   2.445
 6811SOL    HW121332   6.111   3.248   2.356
 6811SOL    HW221333   6.253   3.221   2.432
 6812SOL     OW21334   3.791   4.072   4.910
 6812SOL    HW121335   3.845   4.103   4.988
 6812SOL    HW221336   3.835   3.994   4.867
 6813SOL     OW21337   5.876   3.395   2.501
 6813SOL    HW121338   5.813   3.444   2.561
 6813SOL    HW221339   5.967   3.393   2.541
 6814SOL     OW21340   4.624   1.905   6.407
 6814SOL    HW121341   4.604   1.996   6.444
 6814SOL    HW221342   4.619   1.837   6.480
 6815SOL     OW21343   2.524   6.611   6.562
 6815SOL    HW121344   2.464   6.565   6.628
 6815SOL    HW221345   2.567   6.543   6.504
 6816SOL     OW21346   0.184   1.421   5.548
 6816SOL    HW121347   0.209   1.389   5.640
 6816SOL    HW221348   0.126   1.353   5.504
 6817SOL     OW21349   2.242   2.691   3.887
 6817SOL    HW121350   2.184   2.612   3.865
 6817SOL    HW221351   2.229   2.717   3.982
 6818SOL     OW21352   1.913   6.690   0.176
 6818SOL    HW121353   1.867   6.779   0.186
 6818SOL    HW221354   1.891   6.633   0.255
 6819SOL     OW21355   4.351   1.453   3.067
 6819SOL    HW121356   4.399   1.410   3.143
 6819SOL    HW221357   4.400   1.436   2.981
 6820SOL     OW21358   1.531   6.012   1.644
 6820SOL    HW121359   1.525   5.943   1.717
 6820SOL    HW221360   1.548   5.966   1.557
 6821SOL     OW21361   4.279   2.637   5.367
 6821SOL    HW121362   4.286   2.574   5.445
 6821SOL    HW221363   4.225   2.594   5.294
 6822SOL     OW21364   5.661   2.363   5.742
 6822SOL    HW121365   5.710   2.321   5.665
 6822SOL    HW221366   5.572   2.396   5.710
 6823SOL     OW21367   5.733   4.298   5.969
 6823SOL    HW121368   5.682   4.374   5.928
 6823SOL    HW221369   5.813   4.334   6.017
 6824SOL     OW21370   1.355   1.428   0.646
 6824SOL    HW121371   1.350   1.417   0.745
 6824SOL    HW221372   1.292   1.501   0.618
 6825SOL     OW21373   6.040   0.147   0.219
 6825SOL    HW121374   6.009   0.154   0.124
 6825SOL    HW221375   6.083   0.058   0.233
 6826SOL     OW21376   1.782   3.898   3.435
 6826SOL    HW121377   1.852   3.970   3.435
 6826SOL    HW221378   1.698   3.934   3.477
 6827SOL     OW21379   5.315   5.323   6.581
 6827SOL    HW121380   5.345   5.345   6.674
 6827SOL    HW221381   5.215   5.328   6.576
 6828SOL     OW21382   4.007   1.624   2.527
 6828SOL    HW121383   3.952   1.594   2.605
 6828SOL    HW221384   4.059   1.706   2.553
 6829SOL     OW21385   5.601   6.502   5.087
 6829SOL    HW121386   5.670   6.430   5.088
 6829SOL    HW221387   5.618   6.567   5.161
 6830SOL     OW21388   5.008   0.583   3.836
 6830SOL    HW121389   5.070   0.517   3.795
 6830SOL    HW221390   4.943   0.535   3.895
 6831SOL     OW21391   1.966   1.062   5.792
 6831SOL    HW121392   1.869   1.058   5.815
 6831SOL    HW221393   2.008   1.140   5.839
 6832SOL     OW21394   2.440   3.971   0.584
 6832SOL    HW121395   2.435   4.060   0.628
 6832SOL    HW221396   2.504   3.913   0.634
 6833SOL     OW21397   2.306   4.762   6.360
 6833SOL    HW121398   2.378   4.716   6.310
 6833SOL    HW221399   2.303   4.859   6.335
 6834SOL     OW21400   6.335   6.858   0.568
 6834SOL    HW121401   6.286   6.805   0.499
 6834SOL    HW221402   6.280   6.938   0.593
 6835SOL     OW21403   3.780   1.390   4.587
 6835SOL    HW121404   3.879   1.387   4.600
 6835SOL    HW221405   3.735   1.398   4.675
 6836SOL     OW21406   2.532   4.218   6.354
 6836SOL    HW121407   2.516   4.196   6.450
 6836SOL    HW221408   2.631   4.226   6.337
 6837SOL     OW21409   0.896   2.028   3.040
 6837SOL    HW121410   0.942   2.058   3.124
 6837SOL    HW221411   0.882   1.929   3.043
 6838SOL     OW21412   2.679   4.551   6.407
 6838SOL    HW121413   2.714   4.637   6.370
 6838SOL    HW221414   2.601   4.569   6.467
 6839SOL     OW21415   5.294   1.081   5.090
 6839SOL    HW121416   5.225   1.009   5.074
 6839SOL    HW221417   5.250   1.159   5.134
 6840SOL     OW21418   3.101   6.580   5.345
 6840SOL    HW121419   3.047   6.538   5.417
 6840SOL    HW221420   3.196   6.590   5.376
 6841SOL     OW21421   3.764   4.913   0.785
 6841SOL    HW121422   3.715   4.827   0.794
 6841SOL    HW221423   3.739   4.975   0.860
 6842SOL     OW21424   2.461   2.716   0.164
 6842SOL    HW121425   2.385   2.687   0.224
 6842SOL    HW221426   2.431   2.792   0.107
 6843SOL     OW21427   5.483   0.131   2.154
 6843SOL    HW121428   5.522   0.208   2.104
 6843SOL    HW221429   5.544   0.052   2.146
 6844SOL     OW21430   6.089   6.620   3.863
 6844SOL    HW121431   6.081   6.705   3.810
 6844SOL    HW221432   6.121   6.641   3.955
 6845SOL     OW21433   5.388   4.108   2.340
 6845SOL    HW121434   5.293   4.091   2.316
 6845SOL    HW221435   5.446   4.084   2.262
 6846SOL     OW21436   4.227   3.284   1.445
 6846SOL    HW121437   4.242   3.244   1.355
 6846SOL    HW221438   4.315   3.294   1.492
 6847SOL     OW21439   6.828   4.476   2.398
 6847SOL    HW121440   6.849   4.403   2.333
 6847SOL    HW221441   6.913   4.518   2.429
 6848SOL     OW21442   2.978   6.452   3.296
 6848SOL    HW121443   3.055   6.494   3.345
 6848SOL    HW221444   3.013   6.388   3.227
 6849SOL     OW21445   2.988   5.641   4.979
 6849SOL    HW121446   2.903   5.678   4.941
 6849SOL    HW221447   2.969   5.556   5.027
 6850SOL     OW21448   5.232   3.430   2.394
 6850SOL    HW121449   5.320   3.472   2.373
 6850SOL    HW221450   5.244   3.359   2.464
 6851SOL     OW21451   1.134   3.046   3.719
 6851SOL    HW121452   1.109   3.100   3.799
 6851SOL    HW221453   1.212   2.987   3.742
 6852SOL     OW21454   1.731   4.915   0.741
 6852SOL    HW121455   1.762   4.851   0.811
 6852SOL    HW221456   1.716   5.005   0.782
 6853SOL     OW21457   0.002   3.786   6.871
 6853SOL    HW121458   6.964   3.868   6.880
 6853SOL    HW221459   0.046   3.785   6.781
 6854SOL     OW21460   6.202   1.822   5.860
 6854SOL    HW121461   6.161   1.766   5.788
 6854SOL    HW221462   6.227   1.763   5.937
 6855SOL     OW21463   3.294   5.958   2.676
 6855SOL    HW121464   3.275   6.033   2.612
 6855SOL    HW221465   3.284   5.870   2.628
 6856SOL     OW21466   5.310   4.869   5.533
 6856SOL    HW121467   5.310   4.921   5.448
 6856SOL    HW221468   5.277   4.776   5.515
 6857SOL     OW21469   3.325   1.621   0.178
 6857SOL    HW121470   3.327   1.601   0.276
 6857SOL    HW221471   3.231   1.617   0.145
 6858SOL     OW21472   3.848   3.366   4.017
 6858SOL    HW121473   3.768   3.401   3.969
 6858SOL    HW221474   3.828   3.361   4.115
 6859SOL     OW21475   1.442   7.014   1.212
 6859SOL    HW121476   1.435   6.916   1.196
 6859SOL    HW221477   1.351   0.037   1.208
 6860SOL     OW21478   5.861   5.489   1.444
 6860SOL    HW121479   5.878   5.399   1.402
 6860SOL    HW221480   5.860   5.559   1.373
 6861SOL     OW21481   5.973   4.692   0.927
 6861SOL    HW121482   5.986   4.593   0.914
 6861SOL    HW221483   5.926   4.708   1.014
 6862SOL     OW21484   2.114   4.961   5.046
 6862SOL    HW121485   2.028   4.909   5.046
 6862SOL    HW221486   2.147   4.971   5.140
 6863SOL     OW21487   6.187   1.490   4.977
 6863SOL    HW121488   6.163   1.577   4.935
 6863SOL    HW221489   6.249   1.507   5.055
 6864SOL     OW21490   3.503   5.887   3.969
 6864SOL    HW121491   3.471   5.911   3.877
 6864SOL    HW221492   3.542   5.795   3.966
 6865SOL     OW21493   6.980   5.524   2.632
 6865SOL    HW121494   6.961   5.620   2.650
 6865SOL    HW221495   6.935   5.468   2.702
 6866SOL     OW21496   6.563   4.639   2.236
 6866SOL    HW121497   6.572   4.584   2.319
 6866SOL    HW221498   6.642   4.620   2.176
 6867SOL     OW21499   1.685   4.976   1.313
 6867SOL    HW121500   1.628   5.059   1.314
 6867SOL    HW221501   1.769   4.994   1.262
 6868SOL     OW21502   0.904   5.561   5.925
 6868SOL    HW121503   0.972   5.631   5.904
 6868SOL    HW221504   0.944   5.470   5.912
 6869SOL     OW21505   6.149   1.097   5.087
 6869SOL    HW121506   6.191   1.132   5.004
 6869SOL    HW221507   6.112   1.006   5.069
 6870SOL     OW21508   6.837   5.206   2.053
 6870SOL    HW121509   6.787   5.280   2.006
 6870SOL    HW221510   6.830   5.219   2.152
 6871SOL     OW21511   5.921   4.351   2.522
 6871SOL    HW121512   5.991   4.281   2.515
 6871SOL    HW221513   5.831   4.309   2.513
 6872SOL     OW21514   0.984   3.301   0.991
 6872SOL    HW121515   0.981   3.231   1.062
 6872SOL    HW221516   1.040   3.268   0.914
 6873SOL     OW21517   6.439   3.979   4.940
 6873SOL    HW121518   6.410   3.883   4.941
 6873SOL    HW221519   6.489   3.999   5.024
 6874SOL     OW21520   0.948   4.838   2.526
 6874SOL    HW121521   1.017   4.804   2.589
 6874SOL    HW221522   0.897   4.761   2.487
 6875SOL     OW21523   1.104   2.596   3.607
 6875SOL    HW121524   1.100   2.543   3.692
 6875SOL    HW221525   1.029   2.661   3.604
 6876SOL     OW21526   4.100   6.362   5.043
 6876SOL    HW121527   4.112   6.264   5.057
 6876SOL    HW221528   4.153   6.391   4.963
 6877SOL     OW21529   2.488   4.764   6.688
 6877SOL    HW121530   2.487   4.668   6.660
 6877SOL    HW221531   2.568   4.780   6.747
 6878SOL     OW21532   2.763   2.428   5.402
 6878SOL    HW121533   2.856   2.451   5.374
 6878SOL    HW221534   2.725   2.361   5.338
 6879SOL     OW21535   1.030   2.159   0.418
 6879SOL    HW121536   1.012   2.243   0.366
 6879SOL    HW221537   1.087   2.180   0.497
 6880SOL     OW21538   1.913   3.369   5.038
 6880SOL    HW121539   1.960   3.316   5.109
 6880SOL    HW221540   1.960   3.456   5.025
 6881SOL     OW21541   0.881   4.036   2.394
 6881SOL    HW121542   0.837   4.002   2.477
 6881SOL    HW221543   0.952   3.972   2.365
 6882SOL     OW21544   3.216   0.377   6.143
 6882SOL    HW121545   3.141   0.358   6.079
 6882SOL    HW221546   3.274   0.449   6.106
 6883SOL     OW21547   3.922   2.140   0.594
 6883SOL    HW121548   3.836   2.190   0.596
 6883SOL    HW221549   3.963   2.140   0.685
 6884SOL     OW21550   1.897   3.891   4.420
 6884SOL    HW121551   1.814   3.946   4.434
 6884SOL    HW221552   1.976   3.940   4.456
 6885SOL     OW21553   4.157   6.224   4.653
 6885SOL    HW121554   4.078   6.238   4.712
 6885SOL    HW221555   4.187   6.129   4.659
 6886SOL     OW21556   6.844   0.626   4.076
 6886SOL    HW121557   6.771   0.640   4.144
 6886SOL    HW221558   6.812   0.561   4.007
 6887SOL     OW21559   5.529   6.849   5.352
 6887SOL    HW121560   5.440   6.832   5.309
 6887SOL    HW221561   5.585   6.767   5.346
 6888SOL     OW21562   5.075   6.534   6.913
 6888SOL    HW121563   4.978   6.511   6.903
 6888SOL    HW221564   5.131   6.459   6.877
 6889SOL     OW21565   1.721   2.664   5.035
 6889SOL    HW121566   1.672   2.595   5.088
 6889SOL    HW221567   1.819   2.645   5.038
 6890SOL     OW21568   3.765   0.045   0.821
 6890SOL    HW121569   3.812   0.113   0.764
 6890SOL    HW221570   3.732   0.089   0.904
 6891SOL     OW21571   2.370   4.367   4.341
 6891SOL    HW121572   2.295   4.387   4.278
 6891SOL    HW221573   2.338   4.304   4.413
 6892SOL     OW21574   3.358   1.524   3.159
 6892SOL    HW121575   3.399   1.467   3.229
 6892SOL    HW221576   3.353   1.619   3.191
 6893SOL     OW21577   5.428   5.181   0.043
 6893SOL    HW121578   5.450   5.174   0.140
 6893SOL    HW221579   5.374   5.101   0.015
 6894SOL     OW21580   6.305   4.688   0.479
 6894SOL    HW121581   6.272   4.689   0.385
 6894SOL    HW221582   6.403   4.668   0.480
 6895SOL     OW21583   2.396   5.635   6.328
 6895SOL    HW121584   2.357   5.543   6.331
 6895SOL    HW221585   2.323   5.703   6.341
 6896SOL     OW21586   1.631   6.794   3.776
 6896SOL    HW121587   1.612   6.733   3.853
 6896SOL    HW221588   1.719   6.839   3.791
 6897SOL     OW21589   2.708   3.449   0.203
 6897SOL    HW121590   2.626   3.405   0.239
 6897SOL    HW221591   2.789   3.396   0.229
 6898SOL     OW21592   3.980   1.502   2.286
 6898SOL    HW121593   3.992   1.563   2.364
 6898SOL    HW221594   3.888   1.463   2.288
 6899SOL     OW21595   5.067   6.638   1.276
 6899SOL    HW121596   4.998   6.575   1.242
 6899SOL    HW221597   5.125   6.591   1.343
 6900SOL     OW21598   6.465   0.439   5.453
 6900SOL    HW121599   6.409   0.382   5.392
 6900SOL    HW221600   6.409   0.512   5.491
 6901SOL     OW21601   0.290   6.965   5.798
 6901SOL    HW121602   0.263   6.879   5.755
 6901SOL    HW221603   0.385   6.957   5.829
 6902SOL     OW21604   5.750   6.763   0.559
 6902SOL    HW121605   5.739   6.737   0.463
 6902SOL    HW221606   5.798   6.851   0.565
 6903SOL     OW21607   4.169   5.601   4.858
 6903SOL    HW121608   4.217   5.552   4.786
 6903SOL    HW221609   4.073   5.613   4.833
 6904SOL     OW21610   5.925   1.992   4.032
 6904SOL    HW121611   5.935   2.090   4.013
 6904SOL    HW221612   5.996   1.963   4.096
 6905SOL     OW21613   5.973   6.549   6.800
 6905SOL    HW121614   6.052   6.489   6.791
 6905SOL    HW221615   6.003   6.640   6.829
 6906SOL     OW21616   4.511   1.024   4.148
 6906SOL    HW121617   4.502   1.026   4.048
 6906SOL    HW221618   4.479   0.936   4.183
 6907SOL     OW21619   5.234   2.060   1.051
 6907SOL    HW121620   5.284   2.008   0.982
 6907SOL    HW221621   5.159   2.109   1.008
 6908SOL     OW21622   1.276   6.353   6.046
 6908SOL    HW121623   1.369   6.350   6.011
 6908SOL    HW221624   1.232   6.264   6.033
 6909SOL     OW21625   5.909   4.288   1.540
 6909SOL    HW121626   5.999   4.310   1.501
 6909SOL    HW221627   5.911   4.302   1.638
 6910SOL     OW21628   0.294   2.186   3.907
 6910SOL    HW121629   0.340   2.098   3.922
 6910SOL    HW221630   0.341   2.235   3.834
 6911SOL     OW21631   4.972   6.338   3.820
 6911SOL    HW121632   4.920   6.264   3.778
 6911SOL    HW221633   4.991   6.409   3.752
 6912SOL     OW21634   3.949   5.097   0.592
 6912SOL    HW121635   3.863   5.147   0.584
 6912SOL    HW221636   3.943   5.031   0.667
 6913SOL     OW21637   5.218   4.903   5.231
 6913SOL    HW121638   5.206   5.000   5.251
 6913SOL    HW221639   5.157   4.849   5.289
 6914SOL     OW21640   5.530   4.421   6.950
 6914SOL    HW121641   5.613   4.456   6.906
 6914SOL    HW221642   5.473   4.497   6.980
 6915SOL     OW21643   6.129   3.926   1.726
 6915SOL    HW121644   6.169   4.005   1.680
 6915SOL    HW221645   6.046   3.898   1.677
 6916SOL     OW21646   6.317   3.771   6.866
 6916SOL    HW121647   6.296   3.867   6.848
 6916SOL    HW221648   6.277   3.713   6.795
 6917SOL     OW21649   3.356   5.757   1.022
 6917SOL    HW121650   3.321   5.811   0.945
 6917SOL    HW221651   3.286   5.752   1.094
 6918SOL     OW21652   0.696   3.079   4.146
 6918SOL    HW121653   0.708   3.176   4.125
 6918SOL    HW221654   0.715   3.063   4.243
 6919SOL     OW21655   0.584   6.392   2.786
 6919SOL    HW121656   0.538   6.411   2.873
 6919SOL    HW221657   0.551   6.456   2.717
 6920SOL     OW21658   4.364   5.665   5.700
 6920SOL    HW121659   4.328   5.720   5.775
 6920SOL    HW221660   4.376   5.570   5.730
 6921SOL     OW21661   5.356   6.346   3.463
 6921SOL    HW121662   5.409   6.407   3.404
 6921SOL    HW221663   5.401   6.257   3.467
 6922SOL     OW21664   2.024   5.623   6.486
 6922SOL    HW121665   2.117   5.619   6.524
 6922SOL    HW221666   2.027   5.667   6.396
 6923SOL     OW21667   4.917   5.216   3.351
 6923SOL    HW121668   4.926   5.127   3.396
 6923SOL    HW221669   4.837   5.264   3.386
 6924SOL     OW21670   1.169   4.444   6.542
 6924SOL    HW121671   1.114   4.470   6.621
 6924SOL    HW221672   1.210   4.354   6.559
 6925SOL     OW21673   3.908   6.186   4.775
 6925SOL    HW121674   3.891   6.182   4.874
 6925SOL    HW221675   3.841   6.245   4.732
 6926SOL     OW21676   2.792   3.464   1.884
 6926SOL    HW121677   2.851   3.542   1.907
 6926SOL    HW221678   2.729   3.490   1.812
 6927SOL     OW21679   5.607   3.161   6.434
 6927SOL    HW121680   5.514   3.138   6.405
 6927SOL    HW221681   5.647   3.227   6.370
 6928SOL     OW21682   6.208   6.367   0.481
 6928SOL    HW121683   6.205   6.465   0.464
 6928SOL    HW221684   6.138   6.342   0.548
 6929SOL     OW21685   4.856   5.378   1.267
 6929SOL    HW121686   4.786   5.394   1.336
 6929SOL    HW221687   4.927   5.449   1.274
 6930SOL     OW21688   6.666   0.313   2.640
 6930SOL    HW121689   6.723   0.347   2.714
 6930SOL    HW221690   6.724   0.263   2.574
 6931SOL     OW21691   2.231   0.732   2.417
 6931SOL    HW121692   2.318   0.730   2.368
 6931SOL    HW221693   2.231   0.663   2.489
 6932SOL     OW21694   3.906   6.851   0.844
 6932SOL    HW121695   3.856   6.936   0.828
 6932SOL    HW221696   3.992   6.871   0.892
 6933SOL     OW21697   3.237   6.035   5.018
 6933SOL    HW121698   3.306   6.088   4.968
 6933SOL    HW221699   3.229   6.070   5.112
 6934SOL     OW21700   4.873   4.272   5.920
 6934SOL    HW121701   4.888   4.357   5.970
 6934SOL    HW221702   4.932   4.269   5.839
 6935SOL     OW21703   4.439   6.128   3.491
 6935SOL    HW121704   4.523   6.181   3.500
 6935SOL    HW221705   4.383   6.140   3.573
 6936SOL     OW21706   6.559   2.334   3.270
 6936SOL    HW121707   6.625   2.401   3.303
 6936SOL    HW221708   6.469   2.377   3.261
 6937SOL     OW21709   0.043   6.056   0.479
 6937SOL    HW121710   0.029   5.966   0.522
 6937SOL    HW221711   6.980   6.111   0.489
 6938SOL     OW21712   5.328   3.643   5.836
 6938SOL    HW121713   5.350   3.556   5.881
 6938SOL    HW221714   5.303   3.711   5.904
 6939SOL     OW21715   6.991   4.289   1.250
 6939SOL    HW121716   0.027   4.302   1.167
 6939SOL    HW221717   6.921   4.360   1.255
 6940SOL     OW21718   4.575   1.446   0.935
 6940SOL    HW121719   4.492   1.432   0.880
 6940SOL    HW221720   4.640   1.372   0.917
 6941SOL     OW21721   3.375   3.172   3.071
 6941SOL    HW121722   3.369   3.151   3.169
 6941SOL    HW221723   3.321   3.105   3.019
 6942SOL     OW21724   6.176   2.484   1.228
 6942SOL    HW121725   6.141   2.546   1.298
 6942SOL    HW221726   6.142   2.391   1.246
 6943SOL     OW21727   5.006   6.039   6.438
 6943SOL    HW121728   5.012   5.953   6.388
 6943SOL    HW221729   4.949   6.104   6.386
 6944SOL     OW21730   1.810   3.931   6.299
 6944SOL    HW121731   1.819   3.931   6.200
 6944SOL    HW221732   1.891   3.889   6.340
 6945SOL     OW21733   6.107   3.175   6.043
 6945SOL    HW121734   6.127   3.126   6.127
 6945SOL    HW221735   6.114   3.273   6.058
 6946SOL     OW21736   5.936   6.438   1.443
 6946SOL    HW121737   5.988   6.449   1.359
 6946SOL    HW221738   5.962   6.511   1.507
 6947SOL     OW21739   3.706   6.438   5.725
 6947SOL    HW121740   3.722   6.423   5.822
 6947SOL    HW221741   3.630   6.501   5.712
 6948SOL     OW21742   6.040   0.200   6.371
 6948SOL    HW121743   5.989   0.130   6.322
 6948SOL    HW221744   6.012   0.291   6.338
 6949SOL     OW21745   5.020   6.921   3.659
 6949SOL    HW121746   5.109   6.943   3.618
 6949SOL    HW221747   4.948   6.974   3.613
 6950SOL     OW21748   2.356   0.039   3.731
 6950SOL    HW121749   2.413   6.976   3.723
 6950SOL    HW221750   2.383   0.091   3.811
 6951SOL     OW21751   6.316   6.540   5.826
 6951SOL    HW121752   6.338   6.632   5.794
 6951SOL    HW221753   6.344   6.474   5.757
 6952SOL     OW21754   7.003   5.836   3.869
 6952SOL    HW121755   6.957   5.789   3.944
 6952SOL    HW221756   0.075   5.797   3.856
 6953SOL     OW21757   4.662   0.428   6.729
 6953SOL    HW121758   4.566   0.443   6.749
 6953SOL    HW221759   4.701   0.364   6.797
 6954SOL     OW21760   0.068   3.794   3.998
 6954SOL    HW121761   0.055   3.737   4.078
 6954SOL    HW221762   0.064   3.738   3.915
 6955SOL     OW21763   6.159   0.565   1.523
 6955SOL    HW121764   6.164   0.484   1.464
 6955SOL    HW221765   6.198   0.643   1.474
 6956SOL     OW21766   4.851   6.198   3.633
 6956SOL    HW121767   4.793   6.229   3.558
 6956SOL    HW221768   4.946   6.192   3.601
 6957SOL     OW21769   5.971   5.128   0.787
 6957SOL    HW121770   5.931   5.037   0.795
 6957SOL    HW221771   6.069   5.121   0.770
 6958SOL     OW21772   2.955   4.038   5.102
 6958SOL    HW121773   2.887   4.042   5.030
 6958SOL    HW221774   3.046   4.055   5.063
 6959SOL     OW21775   2.456   1.291   4.823
 6959SOL    HW121776   2.438   1.300   4.726
 6959SOL    HW221777   2.510   1.370   4.854
 6960SOL     OW21778   1.543   5.807   1.470
 6960SOL    HW121779   1.510   5.860   1.392
 6960SOL    HW221780   1.506   5.715   1.466
 6961SOL     OW21781   6.371   2.666   4.129
 6961SOL    HW121782   6.407   2.610   4.203
 6961SOL    HW221783   6.310   2.611   4.072
 6962SOL     OW21784   5.651   5.881   2.149
 6962SOL    HW121785   5.707   5.888   2.066
 6962SOL    HW221786   5.707   5.902   2.229
 6963SOL     OW21787   6.188   5.532   1.057
 6963SOL    HW121788   6.225   5.520   0.965
 6963SOL    HW221789   6.257   5.574   1.116
 6964SOL     OW21790   3.544   6.564   4.803
 6964SOL    HW121791   3.555   6.663   4.816
 6964SOL    HW221792   3.487   6.547   4.722
 6965SOL     OW21793   0.314   3.180   6.647
 6965SOL    HW121794   0.358   3.265   6.620
 6965SOL    HW221795   0.296   3.182   6.746
 6966SOL     OW21796   0.044   1.775   3.482
 6966SOL    HW121797   0.005   1.800   3.394
 6966SOL    HW221798   0.059   1.857   3.537
 6967SOL     OW21799   1.595   0.297   5.647
 6967SOL    HW121800   1.608   0.361   5.572
 6967SOL    HW221801   1.582   0.205   5.610
 6968SOL     OW21802   4.732   6.606   2.659
 6968SOL    HW121803   4.700   6.632   2.750
 6968SOL    HW221804   4.757   6.509   2.659
 6969SOL     OW21805   2.441   2.498   1.275
 6969SOL    HW121806   2.487   2.423   1.322
 6969SOL    HW221807   2.344   2.476   1.263
 6970SOL     OW21808   3.166   3.934   6.717
 6970SOL    HW121809   3.116   4.017   6.739
 6970SOL    HW221810   3.265   3.952   6.716
 6971SOL     OW21811   6.394   4.774   1.237
 6971SOL    HW121812   6.428   4.860   1.200
 6971SOL    HW221813   6.353   4.719   1.163
 6972SOL     OW21814   5.726   4.734   3.432
 6972SOL    HW121815   5.673   4.814   3.403
 6972SOL    HW221816   5.668   4.673   3.485
 6973SOL     OW21817   0.531   3.223   5.471
 6973SOL    HW121818   0.462   3.152   5.455
 6973SOL    HW221819   0.543   3.277   5.388
 6974SOL     OW21820   3.242   2.930   2.929
 6974SOL    HW121821   3.243   2.916   2.830
 6974SOL    HW221822   3.329   2.900   2.968
 6975SOL     OW21823   1.771   5.939   6.352
 6975SOL    HW121824   1.782   5.948   6.451
 6975SOL    HW221825   1.775   6.030   6.310
 6976SOL     OW21826   4.539   5.623   4.910
 6976SOL    HW121827   4.533   5.661   4.818
 6976SOL    HW221828   4.462   5.656   4.964
 6977SOL     OW21829   4.397   2.498   1.743
 6977SOL    HW121830   4.493   2.512   1.719
 6977SOL    HW221831   4.346   2.583   1.728
 6978SOL     OW21832   4.458   2.011   2.676
 6978SOL    HW121833   4.384   1.958   2.633
 6978SOL    HW221834   4.517   2.049   2.605
 6979SOL     OW21835   1.242   4.115   1.029
 6979SOL    HW121836   1.186   4.123   1.111
 6979SOL    HW221837   1.234   4.022   0.992
 6980SOL     OW21838   1.475   1.358   3.523
 6980SOL    HW121839   1.523   1.439   3.555
 6980SOL    HW221840   1.542   1.293   3.485
 6981SOL     OW21841   4.062   3.232   5.826
 6981SOL    HW121842   4.025   3.175   5.900
 6981SOL    HW221843   4.036   3.193   5.738
 6982SOL     OW21844   1.478   0.557   4.466
 6982SOL    HW121845   1.450   0.586   4.374
 6982SOL    HW221846   1.558   0.609   4.495
 6983SOL     OW21847   4.211   1.893   4.136
 6983SOL    HW121848   4.151   1.900   4.057
 6983SOL    HW221849   4.306   1.908   4.107
 6984SOL     OW21850   2.348   1.650   3.894
 6984SOL    HW121851   2.309   1.719   3.833
 6984SOL    HW221852   2.447   1.660   3.897
 6985SOL     OW21853   4.262   5.849   1.651
 6985SOL    HW121854   4.275   5.913   1.575
 6985SOL    HW221855   4.179   5.874   1.701
 6986SOL     OW21856   2.312   6.389   6.201
 6986SOL    HW121857   2.334   6.474   6.249
 6986SOL    HW221858   2.230   6.403   6.144
 6987SOL     OW21859   0.698   1.705   6.544
 6987SOL    HW121860   0.687   1.653   6.460
 6987SOL    HW221861   0.690   1.803   6.525
 6988SOL     OW21862   6.937   1.186   5.736
 6988SOL    HW121863   6.988   1.128   5.800
 6988SOL    HW221864   6.953   1.282   5.758
 6989SOL     OW21865   0.472   3.734   3.804
 6989SOL    HW121866   0.494   3.714   3.709
 6989SOL    HW221867   0.382   3.779   3.809
 6990SOL     OW21868   5.028   2.431   1.627
 6990SOL    HW121869   5.101   2.377   1.586
 6990SOL    HW221870   4.939   2.391   1.605
 6991SOL     OW21871   3.206   4.990   4.012
 6991SOL    HW121872   3.108   4.973   3.997
 6991SOL    HW221873   3.255   4.980   3.925
 6992SOL     OW21874   5.316   6.613   5.553
 6992SOL    HW121875   5.348   6.667   5.631
 6992SOL    HW221876   5.391   6.556   5.519
 6993SOL     OW21877   6.596   0.826   3.191
 6993SOL    HW121878   6.672   0.770   3.160
 6993SOL    HW221879   6.630   0.906   3.241
 6994SOL     OW21880   0.482   2.590   4.795
 6994SOL    HW121881   0.406   2.654   4.793
 6994SOL    HW221882   0.503   2.560   4.702
 6995SOL     OW21883   6.874   4.797   5.779
 6995SOL    HW121884   6.933   4.853   5.722
 6995SOL    HW221885   6.925   4.719   5.814
 6996SOL     OW21886   2.328   0.745   6.968
 6996SOL    HW121887   2.423   0.734   6.939
 6996SOL    HW221888   2.281   0.657   6.962
 6997SOL     OW21889   6.212   6.108   5.367
 6997SOL    HW121890   6.153   6.136   5.443
 6997SOL    HW221891   6.211   6.180   5.297
 6998SOL     OW21892   1.567   1.812   1.313
 6998SOL    HW121893   1.611   1.886   1.262
 6998SOL    HW221894   1.635   1.742   1.335
 6999SOL     OW21895   2.524   2.944   5.956
 6999SOL    HW121896   2.502   3.041   5.954
 6999SOL    HW221897   2.452   2.892   5.910
 7000SOL     OW21898   6.434   5.975   1.890
 7000SOL    HW121899   6.398   5.887   1.923
 7000SOL    HW221900   6.385   6.003   1.808
 7001SOL     OW21901   2.291   3.127   5.348
 7001SOL    HW121902   2.351   3.094   5.276
 7001SOL    HW221903   2.216   3.062   5.362
 7002SOL     OW21904   2.571   4.867   3.535
 7002SOL    HW121905   2.669   4.864   3.515
 7002SOL    HW221906   2.532   4.950   3.496
 7003SOL     OW21907   3.593   5.606   0.171
 7003SOL    HW121908   3.532   5.582   0.094
 7003SOL    HW221909   3.652   5.528   0.192
 7004SOL     OW21910   1.424   4.823   2.083
 7004SOL    HW121911   1.490   4.806   2.010
 7004SOL    HW221912   1.391   4.736   2.120
 7005SOL     OW21913   1.311   6.713   0.224
 7005SOL    HW121914   1.341   6.764   0.305
 7005SOL    HW221915   1.212   6.722   0.213
 7006SOL     OW21916   4.633   4.813   4.200
 7006SOL    HW121917   4.546   4.819   4.149
 7006SOL    HW221918   4.631   4.732   4.258
 7007SOL     OW21919   4.587   0.125   4.042
 7007SOL    HW121920   4.534   0.092   4.120
 7007SOL    HW221921   4.611   0.048   3.983
 7008SOL     OW21922   1.114   4.314   4.772
 7008SOL    HW121923   1.163   4.231   4.796
 7008SOL    HW221924   1.159   4.393   4.816
 7009SOL     OW21925   6.436   6.132   2.279
 7009SOL    HW121926   6.351   6.087   2.251
 7009SOL    HW221927   6.513   6.068   2.267
 7010SOL     OW21928   5.446   4.768   5.205
 7010SOL    HW121929   5.427   4.672   5.185
 7010SOL    HW221930   5.359   4.817   5.217
 7011SOL     OW21931   3.667   6.793   6.247
 7011SOL    HW121932   3.626   6.874   6.204
 7011SOL    HW221933   3.752   6.820   6.292
 7012SOL     OW21934   1.689   1.801   1.760
 7012SOL    HW121935   1.624   1.854   1.706
 7012SOL    HW221936   1.780   1.841   1.752
 7013SOL     OW21937   0.488   0.484   0.896
 7013SOL    HW121938   0.471   0.543   0.975
 7013SOL    HW221939   0.549   0.531   0.832
 7014SOL     OW21940   4.248   3.195   1.160
 7014SOL    HW121941   4.164   3.229   1.119
 7014SOL    HW221942   4.246   3.095   1.163
 7015SOL     OW21943   5.537   4.371   2.008
 7015SOL    HW121944   5.612   4.351   2.071
 7015SOL    HW221945   5.503   4.285   1.969
 7016SOL     OW21946   3.476   4.756   1.636
 7016SOL    HW121947   3.522   4.700   1.704
 7016SOL    HW221948   3.526   4.842   1.623
 7017SOL     OW21949   2.757   5.690   2.268
 7017SOL    HW121950   2.672   5.690   2.216
 7017SOL    HW221951   2.816   5.764   2.236
 7018SOL     OW21952   6.056   4.457   3.922
 7018SOL    HW121953   6.063   4.470   3.823
 7018SOL    HW221954   6.125   4.513   3.968
 7019SOL     OW21955   2.302   4.000   6.518
 7019SOL    HW121956   2.314   4.008   6.617
 7019SOL    HW221957   2.205   4.008   6.496
 7020SOL     OW21958   5.639   6.835   6.704
 7020SOL    HW121959   5.581   6.841   6.623
 7020SOL    HW221960   5.726   6.881   6.687
 7021SOL     OW21961   1.372   1.167   6.165
 7021SOL    HW121962   1.323   1.081   6.152
 7021SOL    HW221963   1.451   1.151   6.225
 7022SOL     OW21964   4.588   6.393   0.282
 7022SOL    HW121965   4.534   6.315   0.313
 7022SOL    HW221966   4.532   6.475   0.281
 7023SOL     OW21967   0.615   1.850   3.285
 7023SOL    HW121968   0.541   1.822   3.345
 7023SOL    HW221969   0.618   1.950   3.279
 7024SOL     OW21970   1.751   4.167   5.233
 7024SOL    HW121971   1.842   4.208   5.224
 7024SOL    HW221972   1.685   4.237   5.258
 7025SOL     OW21973   2.533   0.826   6.673
 7025SOL    HW121974   2.446   0.779   6.657
 7025SOL    HW221975   2.572   0.796   6.760
 7026SOL     OW21976   3.458   2.020   1.770
 7026SOL    HW121977   3.451   2.038   1.868
 7026SOL    HW221978   3.417   1.931   1.749
 7027SOL     OW21979   2.584   5.012   4.287
 7027SOL    HW121980   2.646   4.949   4.335
 7027SOL    HW221981   2.572   5.095   4.340
 7028SOL     OW21982   4.389   0.334   4.044
 7028SOL    HW121983   4.481   0.296   4.056
 7028SOL    HW221984   4.366   0.389   4.124
 7029SOL     OW21985   5.195   4.943   6.174
 7029SOL    HW121986   5.191   4.988   6.263
 7029SOL    HW221987   5.272   4.979   6.121
 7030SOL     OW21988   1.218   1.592   5.029
 7030SOL    HW121989   1.275   1.622   4.951
 7030SOL    HW221990   1.163   1.670   5.061
 7031SOL     OW21991   2.284   6.646   5.029
 7031SOL    HW121992   2.339   6.626   5.109
 7031SOL    HW221993   2.325   6.721   4.978
 7032SOL     OW21994   3.464   0.844   2.785
 7032SOL    HW121995   3.385   0.795   2.749
 7032SOL    HW221996   3.496   0.910   2.717
 7033SOL     OW21997   1.638   2.584   3.476
 7033SOL    HW121998   1.540   2.563   3.484
 7033SOL    HW221999   1.691   2.504   3.502
 7034SOL     OW22000   5.974   0.439   2.864
 7034SOL    HW122001   5.893   0.486   2.830
 7034SOL    HW222002   6.031   0.503   2.915
 7035SOL     OW22003   1.969   6.708   1.586
 7035SOL    HW122004   2.022   6.728   1.503
 7035SOL    HW222005   2.030   6.674   1.657
 7036SOL     OW22006   0.568   0.326   2.832
 7036SOL    HW122007   0.505   0.392   2.791
 7036SOL    HW222008   0.610   0.366   2.913
 7037SOL     OW22009   1.848   0.733   6.227
 7037SOL    HW122010   1.823   0.637   6.211
 7037SOL    HW222011   1.829   0.787   6.145
 7038SOL     OW22012   1.645   3.486   4.482
 7038SOL    HW122013   1.682   3.405   4.527
 7038SOL    HW222014   1.572   3.525   4.538
 7039SOL     OW22015   2.959   4.725   1.470
 7039SOL    HW122016   3.035   4.790   1.466
 7039SOL    HW222017   2.891   4.756   1.537
 7040SOL     OW22018   6.441   1.837   4.784
 7040SOL    HW122019   6.482   1.914   4.834
 7040SOL    HW222020   6.496   1.819   4.702
 7041SOL     OW22021   0.295   2.301   1.866
 7041SOL    HW122022   0.254   2.263   1.949
 7041SOL    HW222023   0.364   2.238   1.830
 7042SOL     OW22024   5.552   4.973   5.627
 7042SOL    HW122025   5.455   4.956   5.608
 7042SOL    HW222026   5.560   5.049   5.691
 7043SOL     OW22027   2.107   3.365   2.378
 7043SOL    HW122028   2.133   3.400   2.468
 7043SOL    HW222029   2.023   3.311   2.387
 7044SOL     OW22030   4.567   4.926   3.497
 7044SOL    HW122031   4.569   4.827   3.481
 7044SOL    HW222032   4.489   4.966   3.449
 7045SOL     OW22033   5.467   5.485   3.164
 7045SOL    HW122034   5.381   5.531   3.186
 7045SOL    HW222035   5.452   5.419   3.091
 7046SOL     OW22036   3.429   1.789   2.919
 7046SOL    HW122037   3.440   1.751   3.011
 7046SOL    HW222038   3.396   1.884   2.926
 7047SOL     OW22039   0.715   2.636   2.790
 7047SOL    HW122040   0.767   2.566   2.739
 7047SOL    HW222041   0.617   2.620   2.778
 7048SOL     OW22042   6.395   6.071   2.906
 7048SOL    HW122043   6.389   6.047   2.809
 7048SOL    HW222044   6.324   6.138   2.929
 7049SOL     OW22045   3.508   1.558   0.934
 7049SOL    HW122046   3.454   1.634   0.897
 7049SOL    HW222047   3.480   1.540   1.028
 7050SOL     OW22048   3.949   4.087   1.817
 7050SOL    HW122049   3.866   4.141   1.831
 7050SOL    HW222050   3.926   3.990   1.822
 7051SOL     OW22051   6.794   0.627   1.872
 7051SOL    HW122052   6.801   0.587   1.781
 7051SOL    HW222053   6.706   0.672   1.882
 7052SOL     OW22054   5.257   2.527   4.064
 7052SOL    HW122055   5.323   2.588   4.109
 7052SOL    HW222056   5.297   2.490   3.980
 7053SOL     OW22057   0.553   3.242   4.682
 7053SOL    HW122058   0.646   3.252   4.716
 7053SOL    HW222059   0.508   3.164   4.725
 7054SOL     OW22060   0.397   0.007   0.570
 7054SOL    HW122061   0.309   6.992   0.603
 7054SOL    HW222062   0.415   0.097   0.608
 7055SOL     OW22063   3.382   6.575   5.450
 7055SOL    HW122064   3.397   6.561   5.548
 7055SOL    HW222065   3.469   6.601   5.407
 7056SOL     OW22066   6.689   5.771   2.256
 7056SOL    HW122067   6.715   5.865   2.275
 7056SOL    HW222068   6.732   5.709   2.322
 7057SOL     OW22069   1.333   5.686   4.089
 7057SOL    HW122070   1.353   5.694   3.991
 7057SOL    HW222071   1.402   5.627   4.132
 7058SOL     OW22072   6.240   5.417   6.299
 7058SOL    HW122073   6.236   5.505   6.347
 7058SOL    HW222074   6.225   5.432   6.201
 7059SOL     OW22075   6.737   1.183   3.901
 7059SOL    HW122076   6.699   1.125   3.828
 7059SOL    HW222077   6.799   1.250   3.861
 7060SOL     OW22078   4.026   6.760   1.902
 7060SOL    HW122079   4.072   6.768   1.990
 7060SOL    HW222080   4.063   6.827   1.838
 7061SOL     OW22081   1.526   3.080   3.871
 7061SOL    HW122082   1.522   3.148   3.944
 7061SOL    HW222083   1.433   3.051   3.847
 7062SOL     OW22084   4.585   1.131   5.109
 7062SOL    HW122085   4.634   1.085   5.183
 7062SOL    HW222086   4.533   1.063   5.057
 7063SOL     OW22087   1.020   0.399   2.058
 7063SOL    HW122088   0.986   0.477   2.110
 7063SOL    HW222089   1.023   0.318   2.117
 7064SOL     OW22090   3.845   2.379   1.406
 7064SOL    HW122091   3.879   2.297   1.452
 7064SOL    HW222092   3.808   2.356   1.317
 7065SOL     OW22093   3.858   3.895   6.086
 7065SOL    HW122094   3.918   3.909   6.165
 7065SOL    HW222095   3.914   3.878   6.004
 7066SOL     OW22096   4.575   0.329   0.438
 7066SOL    HW122097   4.623   0.300   0.521
 7066SOL    HW222098   4.641   0.360   0.370
 7067SOL     OW22099   2.162   1.778   5.060
 7067SOL    HW122100   2.102   1.857   5.074
 7067SOL    HW222101   2.202   1.752   5.148
 7068SOL     OW22102   0.555   4.073   4.070
 7068SOL    HW122103   0.500   3.991   4.057
 7068SOL    HW222104   0.644   4.048   4.108
 7069SOL     OW22105   5.823   1.537   4.750
 7069SOL    HW122106   5.755   1.476   4.792
 7069SOL    HW222107   5.898   1.552   4.813
 7070SOL     OW22108   6.930   6.101   5.043
 7070SOL    HW122109   6.842   6.100   4.994
 7070SOL    HW222110   6.967   6.009   5.046
 7071SOL     OW22111   2.350   6.187   6.669
 7071SOL    HW122112   2.318   6.110   6.614
 7071SOL    HW222113   2.450   6.186   6.672
 7072SOL     OW22114   1.528   6.116   6.828
 7072SOL    HW122115   1.593   6.146   6.898
 7072SOL    HW222116   1.437   6.149   6.851
 7073SOL     OW22117   5.347   6.865   4.720
 7073SOL    HW122118   5.268   6.914   4.756
 7073SOL    HW222119   5.420   6.930   4.699
 7074SOL     OW22120   4.461   2.364   2.317
 7074SOL    HW122121   4.457   2.367   2.417
 7074SOL    HW222122   4.502   2.448   2.282
 7075SOL     OW22123   1.903   4.749   4.944
 7075SOL    HW122124   1.918   4.818   4.873
 7075SOL    HW222125   1.841   4.679   4.910
 7076SOL     OW22126   5.470   1.809   6.508
 7076SOL    HW122127   5.529   1.863   6.448
 7076SOL    HW222128   5.386   1.860   6.527
 7077SOL     OW22129   2.463   4.450   4.097
 7077SOL    HW122130   2.467   4.410   4.188
 7077SOL    HW222131   2.429   4.382   4.032
 7078SOL     OW22132   7.017   0.240   1.883
 7078SOL    HW122133   0.011   0.141   1.879
 7078SOL    HW222134   0.087   0.286   1.886
 7079SOL     OW22135   6.829   6.236   4.770
 7079SOL    HW122136   6.895   6.311   4.782
 7079SOL    HW222137   6.832   6.204   4.676
 7080SOL     OW22138   2.781   2.036   4.432
 7080SOL    HW122139   2.798   1.938   4.419
 7080SOL    HW222140   2.685   2.051   4.454
 7081SOL     OW22141   3.174   0.310   0.048
 7081SOL    HW122142   3.097   0.370   0.027
 7081SOL    HW222143   3.216   0.279   6.982
 7082SOL     OW22144   6.578   4.437   6.663
 7082SOL    HW122145   6.597   4.457   6.759
 7082SOL    HW222146   6.530   4.350   6.656
 7083SOL     OW22147   2.737   0.145   0.594
 7083SOL    HW122148   2.698   0.229   0.556
 7083SOL    HW222149   2.835   0.156   0.604
 7084SOL     OW22150   0.311   6.232   5.996
 7084SOL    HW122151   0.258   6.150   6.018
 7084SOL    HW222152   0.271   6.278   5.918
 7085SOL     OW22153   0.659   1.910   1.937
 7085SOL    HW122154   0.634   1.877   2.029
 7085SOL    HW222155   0.757   1.928   1.935
 7086SOL     OW22156   5.504   0.754   5.575
 7086SOL    HW122157   5.508   0.827   5.507
 7086SOL    HW222158   5.503   0.665   5.530
 7087SOL     OW22159   6.040   2.880   4.043
 7087SOL    HW122160   6.071   2.975   4.046
 7087SOL    HW222161   6.086   2.827   4.114
 7088SOL     OW22162   5.608   3.034   3.695
 7088SOL    HW122163   5.586   3.043   3.598
 7088SOL    HW222164   5.689   3.088   3.716
 7089SOL     OW22165   2.925   2.142   4.995
 7089SOL    HW122166   3.005   2.177   5.043
 7089SOL    HW222167   2.948   2.128   4.898
 7090SOL     OW22168   2.542   0.462   0.050
 7090SOL    HW122169   2.604   0.413   0.110
 7090SOL    HW222170   2.450   0.461   0.089
 7091SOL     OW22171   0.591   1.569   6.966
 7091SOL    HW122172   0.608   1.590   6.870
 7091SOL    HW222173   0.674   1.533   7.008
 7092SOL     OW22174   4.719   2.795   5.872
 7092SOL    HW122175   4.705   2.833   5.781
 7092SOL    HW222176   4.748   2.868   5.935
 7093SOL     OW22177   3.058   3.680   3.219
 7093SOL    HW122178   3.052   3.653   3.315
 7093SOL    HW222179   3.055   3.780   3.213
 7094SOL     OW22180   6.726   6.266   5.980
 7094SOL    HW122181   6.795   6.196   5.997
 7094SOL    HW222182   6.745   6.345   6.038
 7095SOL     OW22183   3.511   3.951   5.735
 7095SOL    HW122184   3.513   4.034   5.679
 7095SOL    HW222185   3.504   3.977   5.832
 7096SOL     OW22186   6.379   0.859   3.802
 7096SOL    HW122187   6.371   0.759   3.795
 7096SOL    HW222188   6.460   0.883   3.854
 7097SOL     OW22189   5.888   1.502   1.067
 7097SOL    HW122190   5.865   1.588   1.022
 7097SOL    HW222191   5.985   1.482   1.052
 7098SOL     OW22192   1.629   6.891   5.125
 7098SOL    HW122193   1.707   6.874   5.065
 7098SOL    HW222194   1.660   6.897   5.219
 7099SOL     OW22195   3.510   1.076   5.462
 7099SOL    HW122196   3.462   1.101   5.546
 7099SOL    HW222197   3.597   1.124   5.457
 7100SOL     OW22198   5.113   2.576   1.155
 7100SOL    HW122199   5.112   2.481   1.184
 7100SOL    HW222200   5.170   2.585   1.073
 7101SOL     OW22201   2.087   0.726   4.645
 7101SOL    HW122202   2.134   0.780   4.714
 7101SOL    HW222203   2.142   0.723   4.562
 7102SOL     OW22204   5.380   6.901   0.829
 7102SOL    HW122205   5.417   6.823   0.778
 7102SOL    HW222206   5.445   6.977   0.823
 7103SOL     OW22207   4.633   4.590   1.555
 7103SOL    HW122208   4.622   4.499   1.514
 7103SOL    HW222209   4.566   4.602   1.628
 7104SOL     OW22210   0.347   2.589   3.765
 7104SOL    HW122211   0.386   2.498   3.749
 7104SOL    HW222212   0.249   2.587   3.743
 7105SOL     OW22213   2.794   2.860   5.471
 7105SOL    HW122214   2.784   2.883   5.568
 7105SOL    HW222215   2.891   2.851   5.448
 7106SOL     OW22216   3.832   3.979   2.715
 7106SOL    HW122217   3.778   4.057   2.747
 7106SOL    HW222218   3.776   3.922   2.655
 7107SOL     OW22219   3.940   1.822   0.616
 7107SOL    HW122220   3.950   1.910   0.569
 7107SOL    HW222221   3.868   1.768   0.570
 7108SOL     OW22222   4.715   5.826   3.017
 7108SOL    HW122223   4.615   5.821   3.020
 7108SOL    HW222224   4.754   5.760   3.081
 7109SOL     OW22225   3.102   0.668   6.177
 7109SOL    HW122226   3.088   0.651   6.274
 7109SOL    HW222227   3.031   0.730   6.143
 7110SOL     OW22228   3.040   5.713   4.453
 7110SOL    HW122229   3.016   5.789   4.514
 7110SOL    HW222230   2.957   5.664   4.426
 7111SOL     OW22231   1.659   2.441   4.622
 7111SOL    HW122232   1.751   2.444   4.584
 7111SOL    HW222233   1.638   2.347   4.652
 7112SOL     OW22234   1.370   5.280   4.781
 7112SOL    HW122235   1.456   5.255   4.737
 7112SOL    HW222236   1.302   5.300   4.711
 7113SOL     OW22237   4.027   3.720   4.507
 7113SOL    HW122238   4.055   3.680   4.420
 7113SOL    HW222239   4.079   3.678   4.581
 7114SOL     OW22240   3.787   6.842   1.802
 7114SOL    HW122241   3.868   6.806   1.846
 7114SOL    HW222242   3.753   6.921   1.854
 7115SOL     OW22243   5.435   2.978   1.443
 7115SOL    HW122244   5.343   2.938   1.446
 7115SOL    HW222245   5.429   3.071   1.406
 7116SOL     OW22246   6.667   4.200   3.412
 7116SOL    HW122247   6.663   4.207   3.313
 7116SOL    HW222248   6.582   4.233   3.452
 7117SOL     OW22249   0.434   6.279   5.142
 7117SOL    HW122250   0.350   6.253   5.093
 7117SOL    HW222251   0.514   6.254   5.087
 7118SOL     OW22252   2.388   3.836   1.186
 7118SOL    HW122253   2.384   3.756   1.127
 7118SOL    HW222254   2.385   3.807   1.282
 7119SOL     OW22255   4.969   2.230   3.102
 7119SOL    HW122256   4.894   2.295   3.095
 7119SOL    HW222257   5.016   2.223   3.014
 7120SOL     OW22258   3.520   1.577   2.298
 7120SOL    HW122259   3.443   1.528   2.339
 7120SOL    HW222260   3.531   1.666   2.343
 7121SOL     OW22261   1.221   6.969   3.463
 7121SOL    HW122262   1.245   6.946   3.369
 7121SOL    HW222263   1.281   6.919   3.526
 7122SOL     OW22264   0.624   0.258   5.998
 7122SOL    HW122265   0.604   0.350   5.964
 7122SOL    HW222266   0.645   0.198   5.921
 7123SOL     OW22267   1.764   4.814   3.415
 7123SOL    HW122268   1.746   4.736   3.475
 7123SOL    HW222269   1.742   4.790   3.321
 7124SOL     OW22270   6.913   2.211   1.312
 7124SOL    HW122271   6.824   2.182   1.347
 7124SOL    HW222272   6.900   2.266   1.230
 7125SOL     OW22273   6.804   6.998   1.519
 7125SOL    HW122274   6.785   6.912   1.471
 7125SOL    HW222275   6.719   0.027   1.537
 7126SOL     OW22276   3.322   5.105   6.892
 7126SOL    HW122277   3.249   5.172   6.881
 7126SOL    HW222278   3.393   5.144   6.951
 7127SOL     OW22279   1.381   5.307   5.500
 7127SOL    HW122280   1.386   5.254   5.584
 7127SOL    HW222281   1.306   5.274   5.443
 7128SOL     OW22282   3.231   4.756   0.294
 7128SOL    HW122283   3.211   4.738   0.197
 7128SOL    HW222284   3.221   4.671   0.346
 7129SOL     OW22285   2.009   1.877   6.673
 7129SOL    HW122286   1.953   1.919   6.745
 7129SOL    HW222287   2.054   1.795   6.708
 7130SOL     OW22288   4.138   5.861   5.419
 7130SOL    HW122289   4.132   5.957   5.447
 7130SOL    HW222290   4.048   5.818   5.427
 7131SOL     OW22291   2.615   0.577   1.317
 7131SOL    HW122292   2.713   0.560   1.320
 7131SOL    HW222293   2.579   0.586   1.409
 7132SOL     OW22294   3.326   4.312   6.845
 7132SOL    HW122295   3.271   4.308   6.762
 7132SOL    HW222296   3.401   4.377   6.832
 7133SOL     OW22297   5.195   5.589   5.968
 7133SOL    HW122298   5.248   5.571   6.050
 7133SOL    HW222299   5.253   5.574   5.887
 7134SOL     OW22300   5.475   6.812   2.440
 7134SOL    HW122301   5.429   6.769   2.518
 7134SOL    HW222302   5.410   6.867   2.388
 7135SOL     OW22303   1.625   3.409   3.347
 7135SOL    HW122304   1.545   3.435   3.401
 7135SOL    HW222305   1.700   3.383   3.408
 7136SOL     OW22306   2.455   2.941   1.099
 7136SOL    HW122307   2.384   2.993   1.052
 7136SOL    HW222308   2.518   3.004   1.146
 7137SOL     OW22309   3.498   7.000   6.692
 7137SOL    HW122310   3.511   6.918   6.638
 7137SOL    HW222311   3.402   0.009   6.689
 7138SOL     OW22312   1.476   2.372   7.009
 7138SOL    HW122313   1.485   2.352   6.912
 7138SOL    HW222314   1.408   2.445   0.003
 7139SOL     OW22315   5.686   4.032   1.243
 7139SOL    HW122316   5.687   4.124   1.283
 7139SOL    HW222317   5.609   3.980   1.280
 7140SOL     OW22318   5.937   4.077   3.470
 7140SOL    HW122319   5.910   3.981   3.475
 7140SOL    HW222320   5.870   4.128   3.416
 7141SOL     OW22321   3.301   5.913   1.551
 7141SOL    HW122322   3.272   5.860   1.631
 7141SOL    HW222323   3.319   6.008   1.578
 7142SOL     OW22324   3.924   0.501   3.567
 7142SOL    HW122325   3.963   0.570   3.628
 7142SOL    HW222326   3.829   0.524   3.547
 7143SOL     OW22327   1.574   2.588   5.727
 7143SOL    HW122328   1.509   2.661   5.748
 7143SOL    HW222329   1.534   2.527   5.659
 7144SOL     OW22330   1.886   2.316   2.035
 7144SOL    HW122331   1.871   2.352   1.943
 7144SOL    HW222332   1.905   2.391   2.098
 7145SOL     OW22333   4.738   0.318   0.645
 7145SOL    HW122334   4.799   0.239   0.648
 7145SOL    HW222335   4.792   0.401   0.635
 7146SOL     OW22336   1.943   0.208   0.828
 7146SOL    HW122337   1.850   0.188   0.798
 7146SOL    HW222338   1.939   0.259   0.914
 7147SOL     OW22339   0.469   0.265   3.284
 7147SOL    HW122340   0.481   0.269   3.384
 7147SOL    HW222341   0.541   0.209   3.244
 7148SOL     OW22342   0.652   5.719   0.963
 7148SOL    HW122343   0.695   5.717   0.873
 7148SOL    HW222344   0.718   5.753   1.030
 7149SOL     OW22345   6.139   6.444   2.700
 7149SOL    HW122346   6.203   6.408   2.768
 7149SOL    HW222347   6.073   6.504   2.745
 7150SOL     OW22348   3.006   2.036   2.036
 7150SOL    HW122349   2.981   2.008   1.943
 7150SOL    HW222350   2.980   2.132   2.050
 7151SOL     OW22351   2.317   6.215   0.887
 7151SOL    HW122352   2.247   6.286   0.876
 7151SOL    HW222353   2.388   6.248   0.949
 7152SOL     OW22354   0.964   0.552   5.235
 7152SOL    HW122355   1.044   0.583   5.286
 7152SOL    HW222356   0.909   0.631   5.207
 7153SOL     OW22357   3.567   5.720   1.906
 7153SOL    HW122358   3.644   5.713   1.969
 7153SOL    HW222359   3.595   5.689   1.815
 7154SOL     OW22360   3.490   0.214   3.271
 7154SOL    HW122361   3.466   0.219   3.174
 7154SOL    HW222362   3.512   0.306   3.304
 7155SOL     OW22363   1.683   3.679   1.098
 7155SOL    HW122364   1.777   3.682   1.132
 7155SOL    HW222365   1.640   3.769   1.110
 7156SOL     OW22366   0.088   3.270   3.766
 7156SOL    HW122367   0.182   3.236   3.762
 7156SOL    HW222368   0.088   3.361   3.807
 7157SOL     OW22369   6.988   3.601   1.798
 7157SOL    HW122370   6.945   3.512   1.809
 7157SOL    HW222371   6.921   3.673   1.814
 7158SOL     OW22372   1.085   6.921   4.082
 7158SOL    HW122373   1.174   6.967   4.080
 7158SOL    HW222374   1.082   6.856   4.158
 7159SOL     OW22375   0.650   5.055   2.670
 7159SOL    HW122376   0.654   4.964   2.627
 7159SOL    HW222377   0.651   5.044   2.769
 7160SOL     OW22378   5.614   6.861   2.860
 7160SOL    HW122379   5.633   6.779   2.914
 7160SOL    HW222380   5.684   6.871   2.789
 7161SOL     OW22381   3.099   3.851   4.117
 7161SOL    HW122382   3.088   3.891   4.208
 7161SOL    HW222383   3.049   3.765   4.112
 7162SOL     OW22384   1.116   5.626   6.166
 7162SOL    HW122385   1.126   5.527   6.169
 7162SOL    HW222386   1.057   5.657   6.240
 7163SOL     OW22387   2.884   6.439   2.971
 7163SOL    HW122388   2.815   6.452   3.042
 7163SOL    HW222389   2.945   6.365   2.998
 7164SOL     OW22390   2.002   0.392   3.747
 7164SOL    HW122391   1.904   0.377   3.732
 7164SOL    HW222392   2.044   0.420   3.661
 7165SOL     OW22393   6.672   1.027   2.501
 7165SOL    HW122394   6.646   1.105   2.444
 7165SOL    HW222395   6.658   1.049   2.597
 7166SOL     OW22396   6.089   2.331   0.684
 7166SOL    HW122397   6.143   2.343   0.601
 7166SOL    HW222398   6.133   2.379   0.760
 7167SOL     OW22399   5.199   3.232   3.989
 7167SOL    HW122400   5.139   3.303   4.028
 7167SOL    HW222401   5.210   3.158   4.056
 7168SOL     OW22402   1.357   2.616   3.326
 7168SOL    HW122403   1.291   2.656   3.262
 7168SOL    HW222404   1.388   2.687   3.389
 7169SOL     OW22405   0.193   2.326   4.952
 7169SOL    HW122406   0.292   2.312   4.955
 7169SOL    HW222407   0.173   2.424   4.955
 7170SOL     OW22408   4.849   7.003   4.187
 7170SOL    HW122409   4.828   6.905   4.185
 7170SOL    HW222410   4.821   0.026   4.101
 7171SOL     OW22411   5.552   3.730   0.015
 7171SOL    HW122412   5.545   3.785   6.951
 7171SOL    HW222413   5.528   3.635   7.014
 7172SOL     OW22414   1.581   0.383   5.259
 7172SOL    HW122415   1.646   0.423   5.195
 7172SOL    HW222416   1.493   0.371   5.213
 7173SOL     OW22417   6.717   4.735   6.036
 7173SOL    HW122418   6.744   4.737   5.939
 7173SOL    HW222419   6.618   4.729   6.043
 7174SOL     OW22420   0.687   4.366   0.176
 7174SOL    HW122421   0.742   4.432   0.124
 7174SOL    HW222422   0.605   4.342   0.123
 7175SOL     OW22423   5.626   2.420   6.640
 7175SOL    HW122424   5.632   2.364   6.723
 7175SOL    HW222425   5.717   2.430   6.600
 7176SOL     OW22426   0.423   0.104   2.941
 7176SOL    HW122427   0.400   0.036   2.872
 7176SOL    HW222428   0.464   0.184   2.895
 7177SOL     OW22429   1.551   5.133   4.598
 7177SOL    HW122430   1.610   5.102   4.523
 7177SOL    HW222431   1.608   5.169   4.672
 7178SOL     OW22432   2.091   2.157   6.302
 7178SOL    HW122433   2.188   2.138   6.316
 7178SOL    HW222434   2.075   2.173   6.204
 7179SOL     OW22435   2.104   3.616   4.796
 7179SOL    HW122436   2.172   3.574   4.737
 7179SOL    HW222437   2.115   3.582   4.889
 7180SOL     OW22438   2.457   5.482   0.284
 7180SOL    HW122439   2.489   5.567   0.244
 7180SOL    HW222440   2.532   5.439   0.335
 7181SOL     OW22441   2.102   6.597   0.004
 7181SOL    HW122442   2.048   6.632   0.081
 7181SOL    HW222443   2.199   6.615   0.021
 7182SOL     OW22444   1.067   2.656   4.742
 7182SOL    HW122445   1.037   2.723   4.810
 7182SOL    HW222446   1.163   2.674   4.719
 7183SOL     OW22447   2.212   6.078   6.901
 7183SOL    HW122448   2.211   6.117   6.993
 7183SOL    HW222449   2.278   6.127   6.845
 7184SOL     OW22450   6.864   0.952   3.649
 7184SOL    HW122451   6.774   0.994   3.635
 7184SOL    HW222452   6.852   0.862   3.692
 7185SOL     OW22453   6.150   0.155   5.236
 7185SOL    HW122454   6.141   0.127   5.332
 7185SOL    HW222455   6.140   0.254   5.229
 7186SOL     OW22456   6.748   1.801   0.370
 7186SOL    HW122457   6.769   1.880   0.428
 7186SOL    HW222458   6.812   1.727   0.389
 7187SOL     OW22459   3.718   4.766   6.352
 7187SOL    HW122460   3.743   4.860   6.371
 7187SOL    HW222461   3.788   4.724   6.292
 7188SOL     OW22462   6.206   1.043   0.847
 7188SOL    HW122463   6.279   1.110   0.860
 7188SOL    HW222464   6.126   1.087   0.807
 7189SOL     OW22465   0.602   1.796   6.123
 7189SOL    HW122466   0.505   1.774   6.127
 7189SOL    HW222467   0.655   1.718   6.156
 7190SOL     OW22468   0.405   3.543   2.740
 7190SOL    HW122469   0.328   3.595   2.704
 7190SOL    HW222470   0.377   3.447   2.753
 7191SOL     OW22471   0.851   4.368   2.543
 7191SOL    HW122472   0.752   4.357   2.533
 7191SOL    HW222473   0.886   4.298   2.605
 7192SOL     OW22474   3.147   4.850   5.899
 7192SOL    HW122475   3.185   4.881   5.812
 7192SOL    HW222476   3.204   4.776   5.935
 7193SOL     OW22477   0.980   2.411   1.973
 7193SOL    HW122478   0.970   2.510   1.980
 7193SOL    HW222479   1.063   2.390   1.922
 7194SOL     OW22480   2.745   2.037   0.302
 7194SOL    HW122481   2.771   2.037   0.398
 7194SOL    HW222482   2.761   2.128   0.263
 7195SOL     OW22483   0.108   4.441   6.856
 7195SOL    HW122484   0.075   4.347   6.866
 7195SOL    HW222485   0.033   4.505   6.874
 7196SOL     OW22486   3.407   4.236   0.653
 7196SOL    HW122487   3.360   4.304   0.596
 7196SOL    HW222488   3.496   4.216   0.613
 7197SOL     OW22489   0.593   2.667   5.987
 7197SOL    HW122490   0.584   2.627   5.896
 7197SOL    HW222491   0.523   2.737   6.000
 7198SOL     OW22492   6.908   0.506   0.506
 7198SOL    HW122493   6.875   0.550   0.423
 7198SOL    HW222494   6.979   0.562   0.548
 7199SOL     OW22495   1.851   1.072   2.497
 7199SOL    HW122496   1.947   1.059   2.472
 7199SOL    HW222497   1.793   1.025   2.430
 7200SOL     OW22498   2.474   2.427   0.160
 7200SOL    HW122499   2.510   2.409   0.068
 7200SOL    HW222500   2.446   2.523   0.166
 7201SOL     OW22501   0.785   5.426   4.853
 7201SOL    HW122502   0.700   5.421   4.906
 7201SOL    HW222503   0.847   5.354   4.885
 7202SOL     OW22504   4.938   0.338   6.357
 7202SOL    HW122505   4.848   0.316   6.319
 7202SOL    HW222506   4.936   0.324   6.456
 7203SOL     OW22507   0.763   1.811   1.224
 7203SOL    HW122508   0.802   1.781   1.137
 7203SOL    HW222509   0.676   1.766   1.239
 7204SOL     OW22510   0.958   0.264   5.540
 7204SOL    HW122511   0.941   0.166   5.529
 7204SOL    HW222512   1.048   0.287   5.503
 7205SOL     OW22513   1.288   5.218   4.299
 7205SOL    HW122514   1.215   5.235   4.365
 7205SOL    HW222515   1.249   5.201   4.209
 7206SOL     OW22516   1.318   6.952   1.591
 7206SOL    HW122517   1.341   6.982   1.499
 7206SOL    HW222518   1.219   6.961   1.606
 7207SOL     OW22519   3.620   0.261   2.765
 7207SOL    HW122520   3.712   0.291   2.793
 7207SOL    HW222521   3.623   0.163   2.745
 7208SOL     OW22522   3.867   0.331   2.884
 7208SOL    HW122523   3.964   0.323   2.859
 7208SOL    HW222524   3.849   0.423   2.919
 7209SOL     OW22525   2.882   4.017   1.703
 7209SOL    HW122526   2.931   3.935   1.674
 7209SOL    HW222527   2.803   4.032   1.644
 7210SOL     OW22528   4.707   0.771   3.908
 7210SOL    HW122529   4.748   0.775   3.817
 7210SOL    HW222530   4.641   0.846   3.918
 7211SOL     OW22531   3.250   6.439   4.089
 7211SOL    HW122532   3.154   6.458   4.070
 7211SOL    HW222533   3.301   6.442   4.003
 7212SOL     OW22534   0.513   5.995   4.660
 7212SOL    HW122535   0.602   6.036   4.678
 7212SOL    HW222536   0.467   5.975   4.746
 7213SOL     OW22537   5.125   6.220   0.308
 7213SOL    HW122538   5.089   6.244   0.218
 7213SOL    HW222539   5.182   6.294   0.342
 7214SOL     OW22540   6.862   6.131   5.593
 7214SOL    HW122541   6.772   6.089   5.609
 7214SOL    HW222542   6.933   6.072   5.630
 7215SOL     OW22543   6.892   3.975   5.064
 7215SOL    HW122544   6.984   4.011   5.048
 7215SOL    HW222545   6.897   3.896   5.125
 7216SOL     OW22546   3.778   6.417   6.795
 7216SOL    HW122547   3.831   6.379   6.720
 7216SOL    HW222548   3.776   6.517   6.787
 7217SOL     OW22549   2.768   4.790   2.577
 7217SOL    HW122550   2.708   4.715   2.604
 7217SOL    HW222551   2.720   4.877   2.585
 7218SOL     OW22552   5.064   3.022   5.291
 7218SOL    HW122553   4.999   3.039   5.217
 7218SOL    HW222554   5.149   3.070   5.272
 7219SOL     OW22555   4.569   0.224   3.762
 7219SOL    HW122556   4.567   0.210   3.861
 7219SOL    HW222557   4.653   0.273   3.737
 7220SOL     OW22558   0.677   5.076   4.831
 7220SOL    HW122559   0.726   5.060   4.917
 7220SOL    HW222560   0.608   5.147   4.845
 7221SOL     OW22561   3.635   6.123   4.573
 7221SOL    HW122562   3.684   6.198   4.527
 7221SOL    HW222563   3.574   6.079   4.508
 7222SOL     OW22564   5.744   0.556   3.250
 7222SOL    HW122565   5.769   0.515   3.338
 7222SOL    HW222566   5.731   0.484   3.182
 7223SOL     OW22567   2.746   1.530   1.333
 7223SOL    HW122568   2.806   1.604   1.364
 7223SOL    HW222569   2.796   1.444   1.333
 7224SOL     OW22570   5.454   2.091   4.095
 7224SOL    HW122571   5.500   2.002   4.098
 7224SOL    HW222572   5.488   2.143   4.016
 7225SOL     OW22573   0.781   5.701   0.263
 7225SOL    HW122574   0.776   5.799   0.281
 7225SOL    HW222575   0.827   5.656   0.340
 7226SOL     OW22576   6.504   1.054   0.724
 7226SOL    HW122577   6.604   1.050   0.725
 7226SOL    HW222578   6.469   1.006   0.644
 7227SOL     OW22579   1.621   1.306   0.689
 7227SOL    HW122580   1.523   1.322   0.682
 7227SOL    HW222581   1.638   1.223   0.743
 7228SOL     OW22582   0.759   1.467   2.528
 7228SOL    HW122583   0.800   1.422   2.449
 7228SOL    HW222584   0.736   1.562   2.505
 7229SOL     OW22585   1.516   6.184   5.984
 7229SOL    HW122586   1.536   6.170   5.887
 7229SOL    HW222587   1.426   6.146   6.005
 7230SOL     OW22588   4.341   5.429   4.346
 7230SOL    HW122589   4.350   5.383   4.258
 7230SOL    HW222590   4.381   5.521   4.339
 7231SOL     OW22591   4.507   1.011   0.745
 7231SOL    HW122592   4.513   0.918   0.782
 7231SOL    HW222593   4.431   1.059   0.788
 7232SOL     OW22594   5.205   5.158   3.037
 7232SOL    HW122595   5.269   5.170   2.961
 7232SOL    HW222596   5.112   5.148   3.001
 7233SOL     OW22597   0.059   1.682   3.884
 7233SOL    HW122598   0.131   1.674   3.815
 7233SOL    HW222599   0.097   1.721   3.968
 7234SOL     OW22600   5.550   3.635   3.578
 7234SOL    HW122601   5.627   3.613   3.518
 7234SOL    HW222602   5.582   3.693   3.654
 7235SOL     OW22603   6.455   4.033   2.076
 7235SOL    HW122604   6.523   4.035   2.002
 7235SOL    HW222605   6.474   4.106   2.141
 7236SOL     OW22606   2.286   2.057   1.856
 7236SOL    HW122607   2.193   2.057   1.893
 7236SOL    HW222608   2.349   2.021   1.925
 7237SOL     OW22609   4.923   1.185   4.561
 7237SOL    HW122610   4.830   1.153   4.546
 7237SOL    HW222611   4.965   1.130   4.633
 7238SOL     OW22612   3.338   1.458   0.688
 7238SOL    HW122613   3.355   1.368   0.648
 7238SOL    HW222614   3.392   1.468   0.772
 7239SOL     OW22615   1.496   2.822   2.425
 7239SOL    HW122616   1.487   2.746   2.490
 7239SOL    HW222617   1.454   2.796   2.338
 7240SOL     OW22618   2.326   5.744   6.049
 7240SOL    HW122619   2.348   5.648   6.067
 7240SOL    HW222620   2.278   5.783   6.128
 7241SOL     OW22621   1.932   1.052   0.771
 7241SOL    HW122622   1.914   0.956   0.796
 7241SOL    HW222623   1.891   1.071   0.683
 7242SOL     OW22624   6.617   6.116   0.348
 7242SOL    HW122625   6.590   6.054   0.422
 7242SOL    HW222626   6.600   6.210   0.376
 7243SOL     OW22627   6.442   4.767   6.107
 7243SOL    HW122628   6.375   4.840   6.109
 7243SOL    HW222629   6.450   4.727   6.199
 7244SOL     OW22630   5.697   0.701   1.663
 7244SOL    HW122631   5.783   0.658   1.689
 7244SOL    HW222632   5.631   0.691   1.737
 7245SOL     OW22633   0.905   2.102   4.671
 7245SOL    HW122634   0.844   2.041   4.621
 7245SOL    HW222635   0.907   2.076   4.767
 7246SOL     OW22636   6.413   0.698   4.092
 7246SOL    HW122637   6.448   0.741   4.175
 7246SOL    HW222638   6.453   0.742   4.012
 7247SOL     OW22639   3.107   6.739   4.082
 7247SOL    HW122640   3.079   6.663   4.141
 7247SOL    HW222641   3.059   6.822   4.111
 7248SOL     OW22642   2.786   1.658   3.865
 7248SOL    HW122643   2.841   1.722   3.811
 7248SOL    HW222644   2.729   1.604   3.804
 7249SOL     OW22645   6.459   4.263   2.281
 7249SOL    HW122646   6.552   4.293   2.301
 7249SOL    HW222647   6.416   4.327   2.218
 7250SOL     OW22648   4.115   0.149   6.190
 7250SOL    HW122649   4.196   0.199   6.220
 7250SOL    HW222650   4.109   0.062   6.240
 7251SOL     OW22651   0.732   0.096   5.793
 7251SOL    HW122652   0.715   0.112   5.696
 7251SOL    HW222653   0.709   0.001   5.816
 7252SOL     OW22654   2.971   3.323   2.709
 7252SOL    HW122655   2.933   3.251   2.767
 7252SOL    HW222656   3.001   3.283   2.622
 7253SOL     OW22657   2.691   6.518   6.257
 7253SOL    HW122658   2.691   6.433   6.310
 7253SOL    HW222659   2.675   6.498   6.161
 7254SOL     OW22660   4.063   5.121   4.077
 7254SOL    HW122661   4.139   5.181   4.055
 7254SOL    HW222662   4.089   5.026   4.060
 7255SOL     OW22663   3.208   3.540   0.403
 7255SOL    HW122664   3.278   3.540   0.331
 7255SOL    HW222665   3.252   3.523   0.491
 7256SOL     OW22666   4.036   4.858   4.317
 7256SOL    HW122667   3.944   4.847   4.354
 7256SOL    HW222668   4.069   4.950   4.336
 7257SOL     OW22669   5.085   2.775   4.011
 7257SOL    HW122670   5.097   2.806   3.917
 7257SOL    HW222671   5.083   2.675   4.013
 7258SOL     OW22672   4.163   1.126   3.213
 7258SOL    HW122673   4.215   1.060   3.159
 7258SOL    HW222674   4.173   1.217   3.174
 7259SOL     OW22675   2.995   3.268   1.095
 7259SOL    HW122676   2.960   3.262   1.002
 7259SOL    HW222677   2.962   3.191   1.149
 7260SOL     OW22678   3.198   1.735   2.431
 7260SOL    HW122679   3.204   1.794   2.350
 7260SOL    HW222680   3.230   1.643   2.408
 7261SOL     OW22681   1.460   3.226   1.442
 7261SOL    HW122682   1.360   3.232   1.439
 7261SOL    HW222683   1.497   3.314   1.471
 7262SOL     OW22684   5.132   1.640   5.323
 7262SOL    HW122685   5.115   1.731   5.360
 7262SOL    HW222686   5.148   1.576   5.398
 7263SOL     OW22687   0.619   6.320   1.366
 7263SOL    HW122688   0.652   6.377   1.441
 7263SOL    HW222689   0.617   6.373   1.281
 7264SOL     OW22690   5.375   1.473   5.865
 7264SOL    HW122691   5.279   1.446   5.854
 7264SOL    HW222692   5.421   1.470   5.777
 7265SOL     OW22693   5.376   5.209   6.233
 7265SOL    HW122694   5.287   5.212   6.278
 7265SOL    HW222695   5.440   5.269   6.280
 7266SOL     OW22696   5.394   0.098   1.416
 7266SOL    HW122697   5.421   0.167   1.349
 7266SOL    HW222698   5.359   0.017   1.370
 7267SOL     OW22699   6.825   6.218   5.334
 7267SOL    HW122700   6.825   6.142   5.268
 7267SOL    HW222701   6.831   6.181   5.427
 7268SOL     OW22702   5.129   4.897   3.259
 7268SOL    HW122703   5.202   4.937   3.314
 7268SOL    HW222704   5.124   4.943   3.170
 7269SOL     OW22705   6.754   6.151   1.130
 7269SOL    HW122706   6.769   6.248   1.152
 7269SOL    HW222707   6.766   6.097   1.213
 7270SOL     OW22708   0.623   3.117   5.210
 7270SOL    HW122709   0.711   3.107   5.256
 7270SOL    HW222710   0.558   3.050   5.247
 7271SOL     OW22711   0.485   5.670   3.915
 7271SOL    HW122712   0.467   5.741   3.983
 7271SOL    HW222713   0.515   5.587   3.961
 7272SOL     OW22714   5.578   5.120   2.237
 7272SOL    HW122715   5.526   5.051   2.287
 7272SOL    HW222716   5.674   5.119   2.267
 7273SOL     OW22717   5.415   4.587   1.747
 7273SOL    HW122718   5.495   4.553   1.798
 7273SOL    HW222719   5.340   4.522   1.757
 7274SOL     OW22720   1.072   6.069   6.959
 7274SOL    HW122721   0.996   6.121   6.998
 7274SOL    HW222722   1.135   6.132   6.913
 7275SOL     OW22723   6.794   0.717   2.913
 7275SOL    HW122724   6.871   0.681   2.861
 7275SOL    HW222725   6.799   0.684   3.007
 7276SOL     OW22726   3.617   1.573   2.888
 7276SOL    HW122727   3.576   1.505   2.950
 7276SOL    HW222728   3.553   1.649   2.876
 7277SOL     OW22729   4.403   0.778   4.202
 7277SOL    HW122730   4.376   0.780   4.106
 7277SOL    HW222731   4.326   0.805   4.259
 7278SOL     OW22732   3.436   2.291   1.694
 7278SOL    HW122733   3.516   2.328   1.741
 7278SOL    HW222734   3.442   2.191   1.691
 7279SOL     OW22735   4.315   3.316   6.515
 7279SOL    HW122736   4.342   3.250   6.445
 7279SOL    HW222737   4.262   3.270   6.586
 7280SOL     OW22738   0.172   1.829   4.076
 7280SOL    HW122739   0.269   1.855   4.074
 7280SOL    HW222740   0.122   1.892   4.136
 7281SOL     OW22741   1.523   0.484   0.312
 7281SOL    HW122742   1.566   0.477   0.402
 7281SOL    HW222743   1.425   0.468   0.320
 7282SOL     OW22744   5.847   6.789   1.201
 7282SOL    HW122745   5.886   6.699   1.183
 7282SOL    HW222746   5.913   6.843   1.255
 7283SOL     OW22747   3.386   0.264   1.957
 7283SOL    HW122748   3.417   0.169   1.954
 7283SOL    HW222749   3.313   0.273   2.025
 7284SOL     OW22750   6.986   2.178   5.035
 7284SOL    HW122751   0.043   2.232   4.999
 7284SOL    HW222752   7.014   2.135   5.121
 7285SOL     OW22753   5.670   3.515   1.384
 7285SOL    HW122754   5.587   3.570   1.372
 7285SOL    HW222755   5.730   3.526   1.305
 7286SOL     OW22756   0.652   0.381   1.309
 7286SOL    HW122757   0.716   0.408   1.381
 7286SOL    HW222758   0.687   0.301   1.262
 7287SOL     OW22759   6.636   2.921   4.405
 7287SOL    HW122760   6.648   2.922   4.504
 7287SOL    HW222761   6.703   2.859   4.364
 7288SOL     OW22762   1.385   1.992   1.879
 7288SOL    HW122763   1.371   2.016   1.975
 7288SOL    HW222764   1.449   1.916   1.873
 7289SOL     OW22765   6.037   1.730   3.372
 7289SOL    HW122766   6.057   1.778   3.458
 7289SOL    HW222767   6.099   1.762   3.301
 7290SOL     OW22768   2.798   0.757   4.940
 7290SOL    HW122769   2.845   0.765   4.852
 7290SOL    HW222770   2.863   0.768   5.014
 7291SOL     OW22771   2.352   0.273   0.913
 7291SOL    HW122772   2.385   0.280   1.007
 7291SOL    HW222773   2.319   0.180   0.897
 7292SOL     OW22774   2.896   6.663   2.453
 7292SOL    HW122775   2.831   6.679   2.378
 7292SOL    HW222776   2.988   6.655   2.415
 7293SOL     OW22777   1.626   1.633   6.185
 7293SOL    HW122778   1.614   1.571   6.107
 7293SOL    HW222779   1.543   1.632   6.241
 7294SOL     OW22780   3.344   4.475   0.469
 7294SOL    HW122781   3.367   4.502   0.375
 7294SOL    HW222782   3.271   4.534   0.503
 7295SOL     OW22783   6.877   4.571   1.207
 7295SOL    HW122784   6.835   4.504   1.146
 7295SOL    HW222785   6.970   4.590   1.177
 7296SOL     OW22786   4.479   5.034   2.641
 7296SOL    HW122787   4.464   4.962   2.574
 7296SOL    HW222788   4.523   5.112   2.596
 7297SOL     OW22789   2.328   6.967   1.452
 7297SOL    HW122790   2.300   6.970   1.548
 7297SOL    HW222791   2.427   6.984   1.446
 7298SOL     OW22792   5.327   4.816   6.781
 7298SOL    HW122793   5.289   4.758   6.709
 7298SOL    HW222794   5.366   4.898   6.740
 7299SOL     OW22795   0.647   1.958   0.955
 7299SOL    HW122796   0.729   1.903   0.943
 7299SOL    HW222797   0.589   1.917   1.026
 7300SOL     OW22798   0.514   6.591   2.592
 7300SOL    HW122799   0.541   6.632   2.505
 7300SOL    HW222800   0.416   6.603   2.606
 7301SOL     OW22801   6.438   2.237   5.492
 7301SOL    HW122802   6.475   2.193   5.573
 7301SOL    HW222803   6.361   2.296   5.518
 7302SOL     OW22804   0.287   2.579   6.194
 7302SOL    HW122805   0.281   2.609   6.099
 7302SOL    HW222806   0.196   2.579   6.234
 7303SOL     OW22807   3.427   0.720   6.193
 7303SOL    HW122808   3.370   0.802   6.200
 7303SOL    HW222809   3.522   0.745   6.212
 7304SOL     OW22810   3.119   5.681   1.943
 7304SOL    HW122811   3.090   5.605   1.884
 7304SOL    HW222812   3.202   5.655   1.992
 7305SOL     OW22813   5.472   2.010   1.486
 7305SOL    HW122814   5.442   1.939   1.550
 7305SOL    HW222815   5.546   1.974   1.429
 7306SOL     OW22816   3.726   1.947   1.714
 7306SOL    HW122817   3.633   1.984   1.724
 7306SOL    HW222818   3.738   1.912   1.622
 7307SOL     OW22819   4.337   6.773   2.512
 7307SOL    HW122820   4.420   6.828   2.501
 7307SOL    HW222821   4.348   6.686   2.464
 7308SOL     OW22822   6.519   1.660   4.235
 7308SOL    HW122823   6.580   1.614   4.171
 7308SOL    HW222824   6.457   1.593   4.275
 7309SOL     OW22825   3.519   6.965   1.191
 7309SOL    HW122826   3.589   6.896   1.171
 7309SOL    HW222827   3.442   6.923   1.239
 7310SOL     OW22828   2.258   3.915   0.128
 7310SOL    HW122829   2.170   3.888   0.089
 7310SOL    HW222830   2.325   3.843   0.114
 7311SOL     OW22831   1.243   0.467   0.387
 7311SOL    HW122832   1.211   0.556   0.354
 7311SOL    HW222833   1.165   0.412   0.416
 7312SOL     OW22834   1.385   1.673   4.782
 7312SOL    HW122835   1.450   1.743   4.812
 7312SOL    HW222836   1.358   1.692   4.687
 7313SOL     OW22837   2.271   1.468   0.869
 7313SOL    HW122838   2.359   1.478   0.823
 7313SOL    HW222839   2.233   1.377   0.850
 7314SOL     OW22840   0.018   4.116   6.075
 7314SOL    HW122841   6.998   4.204   6.048
 7314SOL    HW222842   0.048   4.067   5.993
 7315SOL     OW22843   4.743   5.663   1.886
 7315SOL    HW122844   4.809   5.737   1.899
 7315SOL    HW222845   4.655   5.702   1.857
 7316SOL     OW22846   3.157   3.024   6.415
 7316SOL    HW122847   3.062   3.023   6.445
 7316SOL    HW222848   3.216   2.992   6.489
 7317SOL     OW22849   4.081   1.744   1.992
 7317SOL    HW122850   4.083   1.802   1.911
 7317SOL    HW222851   3.990   1.744   2.032
 7318SOL     OW22852   3.200   0.145   2.850
 7318SOL    HW122853   3.148   0.061   2.840
 7318SOL    HW222854   3.152   0.207   2.913
 7319SOL     OW22855   5.762   2.930   6.742
 7319SOL    HW122856   5.697   3.003   6.718
 7319SOL    HW222857   5.796   2.887   6.658
 7320SOL     OW22858   0.421   3.180   1.076
 7320SOL    HW122859   0.468   3.259   1.116
 7320SOL    HW222860   0.364   3.211   1.000
 7321SOL     OW22861   2.459   6.650   6.129
 7321SOL    HW122862   2.516   6.642   6.211
 7321SOL    HW222863   2.497   6.590   6.057
 7322SOL     OW22864   0.145   2.204   3.094
 7322SOL    HW122865   0.061   2.178   3.047
 7322SOL    HW222866   0.187   2.123   3.135
 7323SOL     OW22867   2.631   3.038   1.492
 7323SOL    HW122868   2.580   3.077   1.416
 7323SOL    HW222869   2.593   2.948   1.515
 7324SOL     OW22870   5.461   4.526   2.478
 7324SOL    HW122871   5.458   4.532   2.378
 7324SOL    HW222872   5.516   4.601   2.514
 7325SOL     OW22873   2.942   0.251   5.439
 7325SOL    HW122874   3.034   0.290   5.451
 7325SOL    HW222875   2.891   0.307   5.373
 7326SOL     OW22876   3.497   6.169   5.952
 7326SOL    HW122877   3.586   6.163   5.905
 7326SOL    HW222878   3.449   6.082   5.943
 7327SOL     OW22879   6.083   2.587   4.573
 7327SOL    HW122880   6.029   2.540   4.503
 7327SOL    HW222881   6.027   2.603   4.654
 7328SOL     OW22882   4.749   6.750   5.539
 7328SOL    HW122883   4.738   6.839   5.495
 7328SOL    HW222884   4.692   6.683   5.493
 7329SOL     OW22885   0.896   3.850   0.471
 7329SOL    HW122886   0.921   3.761   0.509
 7329SOL    HW222887   0.813   3.884   0.517
 7330SOL     OW22888   2.482   3.255   0.988
 7330SOL    HW122889   2.548   3.221   1.054
 7330SOL    HW222890   2.417   3.316   1.033
 7331SOL     OW22891   5.753   6.531   1.733
 7331SOL    HW122892   5.740   6.453   1.671
 7331SOL    HW222893   5.791   6.498   1.819
 7332SOL     OW22894   2.767   3.811   6.554
 7332SOL    HW122895   2.694   3.784   6.491
 7332SOL    HW222896   2.732   3.879   6.619
 7333SOL     OW22897   6.204   3.319   2.855
 7333SOL    HW122898   6.268   3.242   2.850
 7333SOL    HW222899   6.201   3.365   2.767
 7334SOL     OW22900   2.498   5.967   6.369
 7334SOL    HW122901   2.428   6.037   6.357
 7334SOL    HW222902   2.457   5.885   6.408
 7335SOL     OW22903   6.884   2.749   3.258
 7335SOL    HW122904   6.886   2.788   3.350
 7335SOL    HW222905   6.927   2.812   3.194
 7336SOL     OW22906   2.382   6.551   1.708
 7336SOL    HW122907   2.466   6.575   1.757
 7336SOL    HW222908   2.404   6.486   1.634
 7337SOL     OW22909   2.360   3.185   1.482
 7337SOL    HW122910   2.299   3.107   1.472
 7337SOL    HW222911   2.322   3.248   1.550
 7338SOL     OW22912   5.477   1.790   1.696
 7338SOL    HW122913   5.548   1.843   1.744
 7338SOL    HW222914   5.388   1.834   1.710
 7339SOL     OW22915   6.974   0.508   5.171
 7339SOL    HW122916   6.960   0.450   5.251
 7339SOL    HW222917   6.903   0.578   5.167
 7340SOL     OW22918   3.653   1.331   0.084
 7340SOL    HW122919   3.607   1.380   0.010
 7340SOL    HW222920   3.630   1.373   0.172
 7341SOL     OW22921   1.151   4.640   4.650
 7341SOL    HW122922   1.076   4.653   4.585
 7341SOL    HW222923   1.237   4.632   4.600
 7342SOL     OW22924   6.410   6.256   6.925
 7342SOL    HW122925   6.410   6.264   6.825
 7342SOL    HW222926   6.327   6.299   6.962
 7343SOL     OW22927   5.091   3.732   1.257
 7343SOL    HW122928   5.127   3.825   1.249
 7343SOL    HW222929   5.131   3.689   1.338
 7344SOL     OW22930   2.506   0.673   6.110
 7344SOL    HW122931   2.427   0.612   6.114
 7344SOL    HW222932   2.481   0.763   6.145
 7345SOL     OW22933   4.820   6.584   5.960
 7345SOL    HW122934   4.729   6.621   5.940
 7345SOL    HW222935   4.890   6.647   5.927
 7346SOL     OW22936   3.715   4.563   1.281
 7346SOL    HW122937   3.736   4.623   1.359
 7346SOL    HW222938   3.733   4.468   1.307
 7347SOL     OW22939   0.027   3.010   0.717
 7347SOL    HW122940   6.998   2.938   0.767
 7347SOL    HW222941   6.994   3.035   0.636
 7348SOL     OW22942   1.614   3.419   3.821
 7348SOL    HW122943   1.621   3.319   3.811
 7348SOL    HW222944   1.706   3.458   3.825
 7349SOL     OW22945   4.230   1.999   0.987
 7349SOL    HW122946   4.200   1.907   1.015
 7349SOL    HW222947   4.303   2.030   1.047
 7350SOL     OW22948   1.668   3.724   4.345
 7350SOL    HW122949   1.763   3.752   4.337
 7350SOL    HW222950   1.658   3.660   4.421
 7351SOL     OW22951   4.581   5.861   5.274
 7351SOL    HW122952   4.623   5.950   5.292
 7351SOL    HW222953   4.509   5.844   5.341
 7352SOL     OW22954   1.671   3.188   2.578
 7352SOL    HW122955   1.722   3.237   2.649
 7352SOL    HW222956   1.717   3.198   2.490
 7353SOL     OW22957   7.000   0.314   5.924
 7353SOL    HW122958   0.070   0.299   5.881
 7353SOL    HW222959   6.996   0.265   6.011
 7354SOL     OW22960   1.060   1.729   0.111
 7354SOL    HW122961   0.985   1.772   0.059
 7354SOL    HW222962   1.027   1.703   0.201
 7355SOL     OW22963   1.817   1.106   0.519
 7355SOL    HW122964   1.738   1.127   0.462
 7355SOL    HW222965   1.893   1.166   0.493
 7356SOL     OW22966   4.959   2.915   6.339
 7356SOL    HW122967   5.057   2.924   6.354
 7356SOL    HW222968   4.941   2.907   6.241
 7357SOL     OW22969   4.328   0.826   1.594
 7357SOL    HW122970   4.291   0.831   1.687
 7357SOL    HW222971   4.428   0.815   1.598
 7358SOL     OW22972   1.322   3.005   2.123
 7358SOL    HW122973   1.243   3.054   2.161
 7358SOL    HW222974   1.313   2.907   2.143
 7359SOL     OW22975   2.913   2.763   0.297
 7359SOL    HW122976   2.869   2.695   0.237
 7359SOL    HW222977   2.908   2.731   0.391
 7360SOL     OW22978   3.340   3.426   5.783
 7360SOL    HW122979   3.350   3.396   5.689
 7360SOL    HW222980   3.242   3.431   5.806
 7361SOL     OW22981   3.897   0.287   2.523
 7361SOL    HW122982   3.898   0.387   2.534
 7361SOL    HW222983   3.988   0.256   2.497
 7362SOL     OW22984   0.680   6.366   4.567
 7362SOL    HW122985   0.583   6.347   4.552
 7362SOL    HW222986   0.690   6.449   4.623
 7363SOL     OW22987   3.953   1.354   1.044
 7363SOL    HW122988   3.854   1.336   1.041
 7363SOL    HW222989   3.970   1.432   1.105
 7364SOL     OW22990   4.379   0.319   1.443
 7364SOL    HW122991   4.419   0.288   1.530
 7364SOL    HW222992   4.293   0.270   1.428
 7365SOL     OW22993   1.538   6.434   1.447
 7365SOL    HW122994   1.509   6.447   1.541
 7365SOL    HW222995   1.556   6.523   1.405
 7366SOL     OW22996   2.047   5.682   0.499
 7366SOL    HW122997   1.973   5.698   0.433
 7366SOL    HW222998   2.114   5.756   0.492
 7367SOL     OW22999   4.936   4.202   0.992
 7367SOL    HW123000   4.950   4.282   0.934
 7367SOL    HW223001   4.960   4.224   1.087
 7368SOL     OW23002   3.790   2.976   3.763
 7368SOL    HW123003   3.767   2.952   3.857
 7368SOL    HW223004   3.851   3.055   3.763
 7369SOL     OW23005   4.826   3.075   0.382
 7369SOL    HW123006   4.865   2.991   0.419
 7369SOL    HW223007   4.837   3.149   0.449
 7370SOL     OW23008   2.923   0.431   5.248
 7370SOL    HW123009   2.906   0.475   5.336
 7370SOL    HW223010   2.847   0.449   5.186
 7371SOL     OW23011   1.944   5.839   4.142
 7371SOL    HW123012   1.949   5.838   4.042
 7371SOL    HW223013   1.858   5.798   4.172
 7372SOL     OW23014   3.080   1.197   5.555
 7372SOL    HW123015   3.157   1.136   5.573
 7372SOL    HW223016   3.110   1.292   5.568
 7373SOL     OW23017   5.644   0.929   4.306
 7373SOL    HW123018   5.710   0.953   4.377
 7373SOL    HW223019   5.601   0.842   4.328
 7374SOL     OW23020   2.562   2.319   5.561
 7374SOL    HW123021   2.506   2.335   5.643
 7374SOL    HW223022   2.642   2.379   5.563
 7375SOL     OW23023   2.131   2.862   2.854
 7375SOL    HW123024   2.038   2.834   2.831
 7375SOL    HW223025   2.130   2.909   2.943
 7376SOL     OW23026   3.850   1.583   6.639
 7376SOL    HW123027   3.822   1.642   6.563
 7376SOL    HW223028   3.941   1.610   6.670
 7377SOL     OW23029   5.326   5.235   1.318
 7377SOL    HW123030   5.266   5.271   1.390
 7377SOL    HW223031   5.418   5.271   1.332
 7378SOL     OW23032   0.404   1.394   5.392
 7378SOL    HW123033   0.314   1.420   5.428
 7378SOL    HW223034   0.457   1.350   5.465
 7379SOL     OW23035   3.517   2.111   2.810
 7379SOL    HW123036   3.616   2.125   2.815
 7379SOL    HW223037   3.487   2.051   2.884
 7380SOL     OW23038   6.676   3.127   5.239
 7380SOL    HW123039   6.729   3.134   5.324
 7380SOL    HW223040   6.715   3.190   5.171
 7381SOL     OW23041   5.106   4.036   1.920
 7381SOL    HW123042   5.015   4.000   1.898
 7381SOL    HW223043   5.136   3.998   2.008
 7382SOL     OW23044   0.104   6.025   6.050
 7382SOL    HW123045   0.110   5.933   6.012
 7382SOL    HW223046   0.120   6.021   6.149
 7383SOL     OW23047   0.795   6.462   1.129
 7383SOL    HW123048   0.798   6.546   1.183
 7383SOL    HW223049   0.741   6.477   1.046
 7384SOL     OW23050   5.782   0.374   2.592
 7384SOL    HW123051   5.771   0.469   2.565
 7384SOL    HW223052   5.872   0.341   2.564
 7385SOL     OW23053   4.045   6.047   1.990
 7385SOL    HW123054   4.132   6.095   1.990
 7385SOL    HW223055   3.984   6.088   2.058
 7386SOL     OW23056   0.173   1.777   5.323
 7386SOL    HW123057   0.118   1.749   5.401
 7386SOL    HW223058   0.191   1.875   5.328
 7387SOL     OW23059   4.327   6.429   4.190
 7387SOL    HW123060   4.292   6.411   4.283
 7387SOL    HW223061   4.426   6.442   4.194
 7388SOL     OW23062   0.225   5.002   2.731
 7388SOL    HW123063   0.276   5.015   2.816
 7388SOL    HW223064   0.128   4.989   2.753
 7389SOL     OW23065   0.492   3.903   6.050
 7389SOL    HW123066   0.532   3.973   6.109
 7389SOL    HW223067   0.525   3.813   6.079
 7390SOL     OW23068   2.328   1.442   6.849
 7390SOL    HW123069   2.289   1.436   6.941
 7390SOL    HW223070   2.290   1.521   6.802
 7391SOL     OW23071   4.940   4.151   4.969
 7391SOL    HW123072   4.982   4.210   5.038
 7391SOL    HW223073   5.011   4.116   4.908
 7392SOL     OW23074   2.557   6.073   0.024
 7392SOL    HW123075   2.657   6.076   0.016
 7392SOL    HW223076   2.521   6.002   6.983
 7393SOL     OW23077   5.477   4.912   1.414
 7393SOL    HW123078   5.488   4.981   1.486
 7393SOL    HW223079   5.386   4.872   1.420
 7394SOL     OW23080   3.232   2.687   5.801
 7394SOL    HW123081   3.276   2.771   5.770
 7394SOL    HW223082   3.171   2.708   5.878
 7395SOL     OW23083   2.678   1.606   0.116
 7395SOL    HW123084   2.606   1.556   0.069
 7395SOL    HW223085   2.656   1.703   0.117
 7396SOL     OW23086   0.679   6.708   0.147
 7396SOL    HW123087   0.596   6.719   0.200
 7396SOL    HW223088   0.657   6.666   0.059
 7397SOL     OW23089   4.404   5.047   4.850
 7397SOL    HW123090   4.358   4.966   4.813
 7397SOL    HW223091   4.422   5.112   4.776
 7398SOL     OW23092   2.899   5.243   4.679
 7398SOL    HW123093   2.804   5.230   4.709
 7398SOL    HW223094   2.930   5.162   4.629
 7399SOL     OW23095   0.897   2.936   5.623
 7399SOL    HW123096   0.992   2.936   5.591
 7399SOL    HW223097   0.860   2.844   5.615
 7400SOL     OW23098   3.789   3.238   5.757
 7400SOL    HW123099   3.881   3.268   5.782
 7400SOL    HW223100   3.739   3.314   5.716
 7401SOL     OW23101   1.441   0.682   4.240
 7401SOL    HW123102   1.436   0.781   4.254
 7401SOL    HW223103   1.530   0.658   4.202
 7402SOL     OW23104   2.807   5.704   5.701
 7402SOL    HW123105   2.735   5.691   5.633
 7402SOL    HW223106   2.767   5.704   5.793
 7403SOL     OW23107   1.809   4.077   2.647
 7403SOL    HW123108   1.853   4.162   2.675
 7403SOL    HW223109   1.833   4.004   2.712
 7404SOL     OW23110   2.868   5.048   1.198
 7404SOL    HW123111   2.956   5.023   1.157
 7404SOL    HW223112   2.822   4.965   1.231
 7405SOL     OW23113   3.291   4.996   4.295
 7405SOL    HW123114   3.225   4.959   4.360
 7405SOL    HW223115   3.263   4.973   4.202
 7406SOL     OW23116   0.470   2.912   3.656
 7406SOL    HW123117   0.520   2.988   3.616
 7406SOL    HW223118   0.514   2.882   3.740
 7407SOL     OW23119   0.123   6.080   4.765
 7407SOL    HW123120   0.044   6.064   4.824
 7407SOL    HW223121   0.112   6.028   4.680
 7408SOL     OW23122   1.386   3.029   6.418
 7408SOL    HW123123   1.353   2.952   6.365
 7408SOL    HW223124   1.433   3.094   6.358
 7409SOL     OW23125   0.656   1.453   6.036
 7409SOL    HW123126   0.581   1.461   6.101
 7409SOL    HW223127   0.621   1.426   5.947
 7410SOL     OW23128   0.293   5.172   1.231
 7410SOL    HW123129   0.195   5.158   1.214
 7410SOL    HW223130   0.344   5.093   1.198
 7411SOL     OW23131   2.531   6.881   4.231
 7411SOL    HW123132   2.571   6.937   4.303
 7411SOL    HW223133   2.482   6.939   4.166
 7412SOL     OW23134   4.121   0.272   2.801
 7412SOL    HW123135   4.178   0.299   2.879
 7412SOL    HW223136   4.138   0.332   2.724
 7413SOL     OW23137   4.918   5.425   5.187
 7413SOL    HW123138   4.857   5.415   5.108
 7413SOL    HW223139   4.899   5.511   5.234
 7414SOL     OW23140   0.099   6.880   4.168
 7414SOL    HW123141   0.169   6.946   4.143
 7414SOL    HW223142   0.142   6.796   4.202
 7415SOL     OW23143   1.096   3.392   3.314
 7415SOL    HW123144   1.092   3.341   3.229
 7415SOL    HW223145   1.179   3.368   3.364
 7416SOL     OW23146   3.177   1.457   3.979
 7416SOL    HW123147   3.240   1.380   3.990
 7416SOL    HW223148   3.087   1.423   3.951
 7417SOL     OW23149   2.531   0.964   6.249
 7417SOL    HW123150   2.449   0.953   6.192
 7417SOL    HW223151   2.506   1.007   6.336
 7418SOL     OW23152   3.904   5.561   0.871
 7418SOL    HW123153   3.925   5.656   0.844
 7418SOL    HW223154   3.846   5.520   0.801
 7419SOL     OW23155   5.924   2.505   5.056
 7419SOL    HW123156   5.950   2.432   5.119
 7419SOL    HW223157   5.832   2.536   5.077
 7420SOL     OW23158   0.074   7.009   1.874
 7420SOL    HW123159   0.076   6.958   1.960
 7420SOL    HW223160   0.109   6.951   1.800
 7421SOL     OW23161   3.477   3.595   0.870
 7421SOL    HW123162   3.555   3.657   0.857
 7421SOL    HW223163   3.510   3.500   0.870
 7422SOL     OW23164   7.013   2.887   2.620
 7422SOL    HW123165   0.006   2.959   2.552
 7422SOL    HW223166   0.055   2.810   2.599
 7423SOL     OW23167   6.690   4.620   5.540
 7423SOL    HW123168   6.781   4.660   5.535
 7423SOL    HW223169   6.622   4.694   5.539
 7424SOL     OW23170   0.405   0.649   5.015
 7424SOL    HW123171   0.357   0.664   5.101
 7424SOL    HW223172   0.382   0.559   4.979
 7425SOL     OW23173   4.836   5.705   6.376
 7425SOL    HW123174   4.917   5.762   6.364
 7425SOL    HW223175   4.783   5.705   6.291
 7426SOL     OW23176   1.825   1.311   6.140
 7426SOL    HW123177   1.842   1.386   6.077
 7426SOL    HW223178   1.862   1.335   6.231
 7427SOL     OW23179   3.482   6.299   3.925
 7427SOL    HW123180   3.575   6.290   3.888
 7427SOL    HW223181   3.427   6.356   3.864
 7428SOL     OW23182   3.852   1.404   5.929
 7428SOL    HW123183   3.818   1.355   6.009
 7428SOL    HW223184   3.790   1.387   5.851
 7429SOL     OW23185   6.527   6.649   3.196
 7429SOL    HW123186   6.611   6.691   3.160
 7429SOL    HW223187   6.540   6.551   3.206
 7430SOL     OW23188   0.081   3.820   6.590
 7430SOL    HW123189   0.039   3.850   6.505
 7430SOL    HW223190   0.145   3.746   6.572
 7431SOL     OW23191   0.388   2.918   2.928
 7431SOL    HW123192   0.445   2.835   2.927
 7431SOL    HW223193   0.295   2.895   2.902
 7432SOL     OW23194   7.018   0.347   3.446
 7432SOL    HW123195   7.007   0.343   3.347
 7432SOL    HW223196   0.084   0.395   3.469
 7433SOL     OW23197   5.380   4.676   7.011
 7433SOL    HW123198   5.432   4.738   0.051
 7433SOL    HW223199   5.349   4.725   6.930
 7434SOL     OW23200   5.054   0.364   5.990
 7434SOL    HW123201   5.039   0.388   6.086
 7434SOL    HW223202   5.048   0.446   5.934
 7435SOL     OW23203   4.024   5.802   0.798
 7435SOL    HW123204   4.062   5.813   0.706
 7435SOL    HW223205   3.963   5.878   0.819
 7436SOL     OW23206   5.865   2.792   6.519
 7436SOL    HW123207   5.956   2.818   6.488
 7436SOL    HW223208   5.798   2.816   6.449
 7437SOL     OW23209   0.389   5.809   0.601
 7437SOL    HW123210   0.397   5.732   0.664
 7437SOL    HW223211   0.423   5.892   0.646
 7438SOL     OW23212   0.732   5.124   0.236
 7438SOL    HW123213   0.695   5.176   0.313
 7438SOL    HW223214   0.736   5.027   0.261
 7439SOL     OW23215   1.417   6.177   4.752
 7439SOL    HW123216   1.457   6.174   4.844
 7439SOL    HW223217   1.490   6.191   4.685
 7440SOL     OW23218   0.419   3.129   4.414
 7440SOL    HW123219   0.500   3.180   4.386
 7440SOL    HW223220   0.342   3.192   4.426
 7441SOL     OW23221   4.688   5.850   4.536
 7441SOL    HW123222   4.672   5.933   4.483
 7441SOL    HW223223   4.724   5.874   4.626
 7442SOL     OW23224   0.637   1.150   6.306
 7442SOL    HW123225   0.626   1.242   6.345
 7442SOL    HW223226   0.570   1.089   6.348
 7443SOL     OW23227   0.359   0.523   2.451
 7443SOL    HW123228   0.331   0.577   2.371
 7443SOL    HW223229   0.439   0.467   2.426
 7444SOL     OW23230   6.212   3.046   4.486
 7444SOL    HW123231   6.146   3.022   4.557
 7444SOL    HW223232   6.239   2.964   4.436
 7445SOL     OW23233   3.054   1.110   1.050
 7445SOL    HW123234   2.958   1.086   1.038
 7445SOL    HW223235   3.104   1.031   1.085
 7446SOL     OW23236   5.544   4.013   0.762
 7446SOL    HW123237   5.449   4.019   0.732
 7446SOL    HW223238   5.597   4.087   0.721
 7447SOL     OW23239   0.702   3.148   5.700
 7447SOL    HW123240   0.752   3.063   5.687
 7447SOL    HW223241   0.659   3.175   5.613
 7448SOL     OW23242   6.474   6.792   5.455
 7448SOL    HW123243   6.555   6.785   5.397
 7448SOL    HW223244   6.402   6.842   5.406
 7449SOL     OW23245   6.697   2.605   2.372
 7449SOL    HW123246   6.660   2.518   2.404
 7449SOL    HW223247   6.767   2.589   2.303
 7450SOL     OW23248   5.623   1.893   4.659
 7450SOL    HW123249   5.606   1.983   4.619
 7450SOL    HW223250   5.664   1.833   4.590
 7451SOL     OW23251   0.904   6.544   3.576
 7451SOL    HW123252   0.860   6.628   3.542
 7451SOL    HW223253   0.835   6.485   3.617
 7452SOL     OW23254   0.663   6.172   4.992
 7452SOL    HW123255   0.689   6.141   4.900
 7452SOL    HW223256   0.677   6.098   5.057
 7453SOL     OW23257   4.976   5.959   5.752
 7453SOL    HW123258   5.022   5.954   5.663
 7453SOL    HW223259   4.897   6.020   5.745
 7454SOL     OW23260   1.253   2.308   1.888
 7454SOL    HW123261   1.310   2.389   1.881
 7454SOL    HW223262   1.185   2.308   1.815
 7455SOL     OW23263   6.884   1.892   2.262
 7455SOL    HW123264   6.796   1.864   2.226
 7455SOL    HW223265   6.891   1.992   2.259
 7456SOL     OW23266   0.425   2.018   4.428
 7456SOL    HW123267   0.501   1.976   4.377
 7456SOL    HW223268   0.344   1.961   4.419
 7457SOL     OW23269   4.213   0.852   5.332
 7457SOL    HW123270   4.279   0.873   5.260
 7457SOL    HW223271   4.129   0.903   5.316
 7458SOL     OW23272   2.318   6.843   6.228
 7458SOL    HW123273   2.361   6.771   6.174
 7458SOL    HW223274   2.386   6.884   6.288
 7459SOL     OW23275   4.968   0.620   1.869
 7459SOL    HW123276   4.889   0.558   1.870
 7459SOL    HW223277   5.037   0.586   1.806
 7460SOL     OW23278   2.027   5.324   1.073
 7460SOL    HW123279   2.034   5.386   0.995
 7460SOL    HW223280   1.957   5.357   1.136
 7461SOL     OW23281   6.410   1.472   5.816
 7461SOL    HW123282   6.469   1.524   5.753
 7461SOL    HW223283   6.346   1.416   5.763
 7462SOL     OW23284   1.500   4.133   2.805
 7462SOL    HW123285   1.544   4.045   2.787
 7462SOL    HW223286   1.563   4.207   2.783
 7463SOL     OW23287   3.266   4.874   0.554
 7463SOL    HW123288   3.249   4.855   0.457
 7463SOL    HW223289   3.351   4.829   0.582
 7464SOL     OW23290   4.685   0.295   6.244
 7464SOL    HW123291   4.642   0.279   6.333
 7464SOL    HW223292   4.663   0.220   6.182
 7465SOL     OW23293   1.036   6.645   0.095
 7465SOL    HW123294   1.061   6.622   0.001
 7465SOL    HW223295   1.015   6.742   0.102
 7466SOL     OW23296   0.323   0.502   6.102
 7466SOL    HW123297   0.396   0.516   6.035
 7466SOL    HW223298   0.260   0.432   6.069
 7467SOL     OW23299   6.815   2.033   0.484
 7467SOL    HW123300   6.885   2.002   0.548
 7467SOL    HW223301   6.843   2.119   0.443
 7468SOL     OW23302   6.753   2.264   3.086
 7468SOL    HW123303   6.698   2.252   3.169
 7468SOL    HW223304   6.712   2.335   3.029
 7469SOL     OW23305   0.146   1.045   0.658
 7469SOL    HW123306   0.065   1.022   0.712
 7469SOL    HW223307   0.216   1.084   0.718
 7470SOL     OW23308   0.157   2.957   3.788
 7470SOL    HW123309   0.206   3.043   3.775
 7470SOL    HW223310   0.162   2.903   3.704
 7471SOL     OW23311   6.744   6.548   6.093
 7471SOL    HW123312   6.774   6.624   6.036
 7471SOL    HW223313   6.644   6.551   6.102
 7472SOL     OW23314   6.476   6.971   4.158
 7472SOL    HW123315   6.530   6.967   4.242
 7472SOL    HW223316   6.532   7.010   4.085
 7473SOL     OW23317   6.362   4.515   2.691
 7473SOL    HW123318   6.313   4.550   2.611
 7473SOL    HW223319   6.322   4.555   2.774
 7474SOL     OW23320   2.080   1.444   5.552
 7474SOL    HW123321   2.093   1.440   5.452
 7474SOL    HW223322   2.066   1.539   5.579
 7475SOL     OW23323   3.905   1.269   2.675
 7475SOL    HW123324   3.954   1.277   2.762
 7475SOL    HW223325   3.969   1.240   2.604
 7476SOL     OW23326   3.440   5.556   3.743
 7476SOL    HW123327   3.407   5.604   3.662
 7476SOL    HW223328   3.379   5.480   3.765
 7477SOL     OW23329   0.024   1.445   5.116
 7477SOL    HW123330   0.124   1.450   5.106
 7477SOL    HW223331   7.002   1.429   5.026
 7478SOL     OW23332   4.557   4.855   6.377
 7478SOL    HW123333   4.514   4.874   6.465
 7478SOL    HW223334   4.646   4.812   6.392
 7479SOL     OW23335   4.115   2.314   1.599
 7479SOL    HW123336   4.093   2.291   1.504
 7479SOL    HW223337   4.047   2.379   1.632
 7480SOL     OW23338   6.813   3.819   1.876
 7480SOL    HW123339   6.762   3.875   1.811
 7480SOL    HW223340   6.844   3.876   1.952
 7481SOL     OW23341   6.050   5.392   1.626
 7481SOL    HW123342   6.070   5.454   1.550
 7481SOL    HW223343   6.079   5.299   1.600
 7482SOL     OW23344   4.202   1.889   3.673
 7482SOL    HW123345   4.182   1.959   3.741
 7482SOL    HW223346   4.224   1.932   3.585
 7483SOL     OW23347   4.870   2.833   4.945
 7483SOL    HW123348   4.944   2.836   4.879
 7483SOL    HW223349   4.855   2.738   4.974
 7484SOL     OW23350   1.056   1.118   3.571
 7484SOL    HW123351   1.078   1.031   3.616
 7484SOL    HW223352   1.059   1.192   3.638
 7485SOL     OW23353   3.504   0.694   4.841
 7485SOL    HW123354   3.478   0.598   4.843
 7485SOL    HW223355   3.472   0.735   4.756
 7486SOL     OW23356   2.724   0.488   5.736
 7486SOL    HW123357   2.643   0.513   5.788
 7486SOL    HW223358   2.788   0.439   5.795
 7487SOL     OW23359   2.110   6.005   2.319
 7487SOL    HW123360   2.209   6.015   2.322
 7487SOL    HW223361   2.072   6.028   2.409
 7488SOL     OW23362   1.621   6.413   4.151
 7488SOL    HW123363   1.668   6.339   4.104
 7488SOL    HW223364   1.527   6.385   4.171
 7489SOL     OW23365   5.514   2.525   4.974
 7489SOL    HW123366   5.571   2.543   4.894
 7489SOL    HW223367   5.572   2.511   5.055
 7490SOL     OW23368   0.511   0.923   1.604
 7490SOL    HW123369   0.411   0.929   1.608
 7490SOL    HW223370   0.544   0.875   1.685
 7491SOL     OW23371   6.112   3.278   5.660
 7491SOL    HW123372   6.131   3.255   5.755
 7491SOL    HW223373   6.016   3.308   5.652
 7492SOL     OW23374   2.119   0.650   3.841
 7492SOL    HW123375   2.132   0.552   3.854
 7492SOL    HW223376   2.023   0.673   3.858
 7493SOL     OW23377   6.620   3.828   0.373
 7493SOL    HW123378   6.541   3.866   0.325
 7493SOL    HW223379   6.655   3.749   0.323
 7494SOL     OW23380   5.189   0.938   2.442
 7494SOL    HW123381   5.091   0.930   2.458
 7494SOL    HW223382   5.239   0.904   2.521
 7495SOL     OW23383   1.826   0.897   0.297
 7495SOL    HW123384   1.744   0.839   0.292
 7495SOL    HW223385   1.846   0.918   0.393
 7496SOL     OW23386   0.063   3.527   5.726
 7496SOL    HW123387   0.141   3.571   5.770
 7496SOL    HW223388   7.005   3.522   5.789
 7497SOL     OW23389   2.495   5.151   0.609
 7497SOL    HW123390   2.413   5.166   0.556
 7497SOL    HW223391   2.520   5.234   0.659
 7498SOL     OW23392   2.366   1.522   5.450
 7498SOL    HW123393   2.323   1.509   5.540
 7498SOL    HW223394   2.395   1.433   5.414
 7499SOL     OW23395   3.868   2.158   3.005
 7499SOL    HW123396   3.900   2.239   2.956
 7499SOL    HW223397   3.847   2.183   3.100
 7500SOL     OW23398   3.253   5.364   3.809
 7500SOL    HW123399   3.221   5.394   3.898
 7500SOL    HW223400   3.318   5.288   3.820
 7501SOL     OW23401   5.654   4.003   3.768
 7501SOL    HW123402   5.631   3.917   3.814
 7501SOL    HW223403   5.638   3.994   3.670
 7502SOL     OW23404   1.718   6.954   4.600
 7502SOL    HW123405   1.769   6.891   4.542
 7502SOL    HW223406   1.623   6.961   4.567
 7503SOL     OW23407   3.023   1.860   0.846
 7503SOL    HW123408   3.062   1.773   0.814
 7503SOL    HW223409   3.092   1.932   0.837
 7504SOL     OW23410   1.883   0.159   2.744
 7504SOL    HW123411   1.948   0.086   2.720
 7504SOL    HW223412   1.851   0.204   2.661
 7505SOL     OW23413   1.872   2.104   5.872
 7505SOL    HW123414   1.799   2.039   5.895
 7505SOL    HW223415   1.833   2.184   5.827
 7506SOL     OW23416   5.270   0.131   2.954
 7506SOL    HW123417   5.309   0.164   3.039
 7506SOL    HW223418   5.344   0.111   2.889
 7507SOL     OW23419   0.792   0.530   2.304
 7507SOL    HW123420   0.817   0.627   2.304
 7507SOL    HW223421   0.870   0.476   2.338
 7508SOL     OW23422   0.310   6.338   2.071
 7508SOL    HW123423   0.279   6.391   1.992
 7508SOL    HW223424   0.347   6.250   2.039
 7509SOL     OW23425   5.677   4.616   0.202
 7509SOL    HW123426   5.678   4.707   0.162
 7509SOL    HW223427   5.588   4.599   0.245
 7510SOL     OW23428   3.760   4.271   5.186
 7510SOL    HW123429   3.841   4.249   5.131
 7510SOL    HW223430   3.767   4.366   5.218
 7511SOL     OW23431   2.209   6.712   3.773
 7511SOL    HW123432   2.171   6.653   3.701
 7511SOL    HW223433   2.163   6.801   3.771
 7512SOL     OW23434   2.936   5.941   6.710
 7512SOL    HW123435   2.971   5.919   6.801
 7512SOL    HW223436   3.013   5.948   6.646
 7513SOL     OW23437   2.205   0.911   1.891
 7513SOL    HW123438   2.164   0.892   1.802
 7513SOL    HW223439   2.224   0.826   1.939
 7514SOL     OW23440   2.400   5.529   1.019
 7514SOL    HW123441   2.389   5.432   1.001
 7514SOL    HW223442   2.312   5.576   1.009
 7515SOL     OW23443   6.865   4.950   1.992
 7515SOL    HW123444   6.887   4.907   2.080
 7515SOL    HW223445   6.865   5.049   2.002
 7516SOL     OW23446   6.790   5.891   5.705
 7516SOL    HW123447   6.758   5.899   5.799
 7516SOL    HW223448   6.713   5.867   5.646
 7517SOL     OW23449   6.888   3.223   0.846
 7517SOL    HW123450   6.934   3.266   0.924
 7517SOL    HW223451   6.946   3.150   0.809
 7518SOL     OW23452   4.285   5.268   3.197
 7518SOL    HW123453   4.319   5.362   3.201
 7518SOL    HW223454   4.274   5.234   3.290
 7519SOL     OW23455   6.629   6.768   3.950
 7519SOL    HW123456   6.726   6.760   3.974
 7519SOL    HW223457   6.596   6.679   3.916
 7520SOL     OW23458   3.694   0.667   2.302
 7520SOL    HW123459   3.731   0.632   2.215
 7520SOL    HW223460   3.715   0.764   2.310
 7521SOL     OW23461   4.958   4.469   6.081
 7521SOL    HW123462   4.981   4.566   6.070
 7521SOL    HW223463   4.885   4.460   6.149
 7522SOL     OW23464   2.299   0.691   6.613
 7522SOL    HW123465   2.220   0.688   6.674
 7522SOL    HW223466   2.268   0.688   6.518
 7523SOL     OW23467   6.036   0.231   5.727
 7523SOL    HW123468   6.129   0.231   5.764
 7523SOL    HW223469   5.971   0.258   5.799
 7524SOL     OW23470   2.040   2.233   6.044
 7524SOL    HW123471   2.119   2.278   6.001
 7524SOL    HW223472   1.983   2.193   5.973
 7525SOL     OW23473   3.300   0.608   5.989
 7525SOL    HW123474   3.216   0.626   6.041
 7525SOL    HW223475   3.378   0.648   6.037
 7526SOL     OW23476   2.955   3.315   1.560
 7526SOL    HW123477   3.039   3.290   1.608
 7526SOL    HW223478   2.876   3.298   1.620
 7527SOL     OW23479   3.899   5.977   3.125
 7527SOL    HW123480   3.859   5.903   3.070
 7527SOL    HW223481   3.909   6.059   3.068
 7528SOL     OW23482   5.450   1.787   6.959
 7528SOL    HW123483   5.493   1.697   6.974
 7528SOL    HW223484   5.365   1.775   6.908
 7529SOL     OW23485   5.521   0.449   4.782
 7529SOL    HW123486   5.519   0.376   4.714
 7529SOL    HW223487   5.473   0.529   4.747
 7530SOL     OW23488   0.794   3.885   2.623
 7530SOL    HW123489   0.883   3.851   2.593
 7530SOL    HW223490   0.753   3.820   2.687
 7531SOL     OW23491   4.556   2.628   4.285
 7531SOL    HW123492   4.612   2.686   4.225
 7531SOL    HW223493   4.505   2.562   4.230
 7532SOL     OW23494   5.567   4.858   0.759
 7532SOL    HW123495   5.611   4.859   0.669
 7532SOL    HW223496   5.532   4.949   0.780
 7533SOL     OW23497   2.396   1.740   2.186
 7533SOL    HW123498   2.393   1.681   2.104
 7533SOL    HW223499   2.393   1.683   2.268
 7534SOL     OW23500   4.778   6.103   5.628
 7534SOL    HW123501   4.761   6.201   5.631
 7534SOL    HW223502   4.692   6.054   5.645
 7535SOL     OW23503   2.303   0.078   5.651
 7535SOL    HW123504   2.283   0.010   5.580
 7535SOL    HW223505   2.346   0.158   5.610
 7536SOL     OW23506   4.889   4.376   4.739
 7536SOL    HW123507   4.947   4.456   4.720
 7536SOL    HW223508   4.919   4.333   4.824
 7537SOL     OW23509   3.442   5.405   2.680
 7537SOL    HW123510   3.366   5.344   2.657
 7537SOL    HW223511   3.433   5.435   2.775
 7538SOL     OW23512   2.872   2.914   1.577
 7538SOL    HW123513   2.819   2.984   1.528
 7538SOL    HW223514   2.810   2.843   1.610
 7539SOL     OW23515   0.968   2.941   4.153
 7539SOL    HW123516   0.953   2.886   4.071
 7539SOL    HW223517   0.932   3.033   4.139
 7540SOL     OW23518   4.592   0.186   5.200
 7540SOL    HW123519   4.689   0.163   5.202
 7540SOL    HW223520   4.541   0.117   5.251
 7541SOL     OW23521   0.113   4.532   4.076
 7541SOL    HW123522   0.166   4.500   4.155
 7541SOL    HW223523   0.175   4.572   4.008
 7542SOL     OW23524   1.146   5.437   0.158
 7542SOL    HW123525   1.060   5.425   0.209
 7542SOL    HW223526   1.133   5.404   0.064
 7543SOL     OW23527   3.269   2.280   6.982
 7543SOL    HW123528   3.328   2.333   0.024
 7543SOL    HW223529   3.243   2.194   0.008
 7544SOL     OW23530   0.382   1.877   2.779
 7544SOL    HW123531   0.408   1.951   2.841
 7544SOL    HW223532   0.415   1.790   2.815
 7545SOL     OW23533   6.578   5.837   1.447
 7545SOL    HW123534   6.503   5.873   1.502
 7545SOL    HW223535   6.633   5.774   1.503
 7546SOL     OW23536   3.168   1.597   2.100
 7546SOL    HW123537   3.194   1.686   2.139
 7546SOL    HW223538   3.078   1.571   2.133
 7547SOL     OW23539   4.937   1.240   0.477
 7547SOL    HW123540   4.902   1.147   0.487
 7547SOL    HW223541   4.866   1.305   0.504
 7548SOL     OW23542   3.971   1.958   0.134
 7548SOL    HW123543   3.879   1.951   0.096
 7548SOL    HW223544   4.006   1.866   0.154
 7549SOL     OW23545   5.719   2.172   1.014
 7549SOL    HW123546   5.649   2.237   1.042
 7549SOL    HW223547   5.801   2.185   1.068
 7550SOL     OW23548   2.550   4.496   2.404
 7550SOL    HW123549   2.517   4.556   2.476
 7550SOL    HW223550   2.556   4.548   2.318
 7551SOL     OW23551   5.253   3.826   6.162
 7551SOL    HW123552   5.246   3.844   6.260
 7551SOL    HW223553   5.214   3.903   6.111
 7552SOL     OW23554   1.118   5.265   2.797
 7552SOL    HW123555   1.085   5.358   2.812
 7552SOL    HW223556   1.053   5.214   2.740
 7553SOL     OW23557   4.429   6.169   5.065
 7553SOL    HW123558   4.334   6.168   5.096
 7553SOL    HW223559   4.454   6.261   5.035
 7554SOL     OW23560   4.411   1.579   1.336
 7554SOL    HW123561   4.391   1.495   1.286
 7554SOL    HW223562   4.505   1.607   1.319
 7555SOL     OW23563   1.989   5.140   5.571
 7555SOL    HW123564   1.983   5.092   5.483
 7555SOL    HW223565   1.934   5.224   5.566
 7556SOL     OW23566   1.115   2.776   0.145
 7556SOL    HW123567   1.106   2.726   0.058
 7556SOL    HW223568   1.149   2.868   0.127
 7557SOL     OW23569   5.289   2.239   5.984
 7557SOL    HW123570   5.387   2.238   6.003
 7557SOL    HW223571   5.266   2.320   5.931
 7558SOL     OW23572   1.638   2.719   4.274
 7558SOL    HW123573   1.586   2.648   4.226
 7558SOL    HW223574   1.716   2.747   4.217
 7559SOL     OW23575   5.400   4.456   6.687
 7559SOL    HW123576   5.370   4.389   6.754
 7559SOL    HW223577   5.434   4.409   6.605
 7560SOL     OW23578   4.777   6.362   0.990
 7560SOL    HW123579   4.777   6.436   1.057
 7560SOL    HW223580   4.818   6.395   0.905
 7561SOL     OW23581   1.187   3.381   6.823
 7561SOL    HW123582   1.267   3.432   6.856
 7561SOL    HW223583   1.215   3.313   6.757
 7562SOL     OW23584   6.509   6.170   4.050
 7562SOL    HW123585   6.468   6.097   3.997
 7562SOL    HW223586   6.446   6.248   4.055
 7563SOL     OW23587   2.284   6.676   0.775
 7563SOL    HW123588   2.325   6.689   0.684
 7563SOL    HW223589   2.335   6.729   0.842
 7564SOL     OW23590   4.719   0.664   2.997
 7564SOL    HW123591   4.718   0.670   2.898
 7564SOL    HW223592   4.791   0.724   3.034
 7565SOL     OW23593   6.058   3.128   0.435
 7565SOL    HW123594   6.037   3.220   0.468
 7565SOL    HW223595   6.134   3.133   0.370
 7566SOL     OW23596   6.472   4.505   3.072
 7566SOL    HW123597   6.519   4.465   2.993
 7566SOL    HW223598   6.392   4.557   3.041
 7567SOL     OW23599   1.527   2.150   5.146
 7567SOL    HW123600   1.486   2.069   5.105
 7567SOL    HW223601   1.471   2.180   5.223
 7568SOL     OW23602   5.617   6.222   2.697
 7568SOL    HW123603   5.521   6.214   2.671
 7568SOL    HW223604   5.640   6.148   2.761
 7569SOL     OW23605   4.062   6.202   6.104
 7569SOL    HW123606   4.086   6.286   6.055
 7569SOL    HW223607   4.145   6.153   6.129
 7570SOL     OW23608   5.637   4.295   4.837
 7570SOL    HW123609   5.572   4.366   4.864
 7570SOL    HW223610   5.730   4.331   4.844
 7571SOL     OW23611   5.235   5.475   3.500
 7571SOL    HW123612   5.208   5.428   3.415
 7571SOL    HW223613   5.325   5.517   3.487
 7572SOL     OW23614   4.455   1.094   1.810
 7572SOL    HW123615   4.362   1.086   1.775
 7572SOL    HW223616   4.469   1.186   1.845
 7573SOL     OW23617   0.180   6.771   5.015
 7573SOL    HW123618   0.253   6.782   4.948
 7573SOL    HW223619   0.168   6.674   5.036
 7574SOL     OW23620   6.557   0.636   4.733
 7574SOL    HW123621   6.503   0.552   4.726
 7574SOL    HW223622   6.625   0.639   4.660
 7575SOL     OW23623   4.351   0.325   6.119
 7575SOL    HW123624   4.372   0.399   6.183
 7575SOL    HW223625   4.419   0.252   6.129
 7576SOL     OW23626   4.804   4.734   6.426
 7576SOL    HW123627   4.867   4.806   6.398
 7576SOL    HW223628   4.784   4.675   6.348
 7577SOL     OW23629   0.207   6.868   6.836
 7577SOL    HW123630   0.129   6.928   6.851
 7577SOL    HW223631   0.276   6.916   6.781
 7578SOL     OW23632   2.408   5.463   2.082
 7578SOL    HW123633   2.456   5.538   2.126
 7578SOL    HW223634   2.474   5.394   2.052
 7579SOL     OW23635   6.208   1.193   1.796
 7579SOL    HW123636   6.167   1.260   1.735
 7579SOL    HW223637   6.290   1.232   1.838
 7580SOL     OW23638   1.072   3.756   3.644
 7580SOL    HW123639   1.074   3.671   3.592
 7580SOL    HW223640   1.000   3.815   3.607
 7581SOL     OW23641   6.760   0.875   1.037
 7581SOL    HW123642   6.741   0.834   0.947
 7581SOL    HW223643   6.763   0.803   1.106
 7582SOL     OW23644   3.418   1.218   1.009
 7582SOL    HW123645   3.338   1.272   0.983
 7582SOL    HW223646   3.416   1.130   0.962
 7583SOL     OW23647   6.060   2.864   1.293
 7583SOL    HW123648   6.100   2.944   1.338
 7583SOL    HW223649   6.090   2.781   1.339
 7584SOL     OW23650   2.577   0.035   1.634
 7584SOL    HW123651   2.601   0.022   1.538
 7584SOL    HW223652   2.660   0.028   1.690
 7585SOL     OW23653   1.639   2.658   6.528
 7585SOL    HW123654   1.713   2.724   6.516
 7585SOL    HW223655   1.669   2.584   6.587
 7586SOL     OW23656   2.947   0.896   3.881
 7586SOL    HW123657   2.898   0.808   3.881
 7586SOL    HW223658   3.038   0.883   3.843
 7587SOL     OW23659   2.200   2.000   0.174
 7587SOL    HW123660   2.104   2.028   0.180
 7587SOL    HW223661   2.251   2.069   0.122
 7588SOL     OW23662   1.640   2.977   2.751
 7588SOL    HW123663   1.616   3.059   2.698
 7588SOL    HW223664   1.738   2.978   2.770
 7589SOL     OW23665   0.761   0.100   2.114
 7589SOL    HW123666   0.779   0.121   2.017
 7589SOL    HW223667   0.764   0.001   2.127
 7590SOL     OW23668   4.828   1.935   6.217
 7590SOL    HW123669   4.812   2.020   6.167
 7590SOL    HW223670   4.744   1.909   6.265
 7591SOL     OW23671   6.919   3.668   0.382
 7591SOL    HW123672   6.836   3.614   0.393
 7591SOL    HW223673   6.939   3.680   0.285
 7592SOL     OW23674   6.863   4.281   5.798
 7592SOL    HW123675   6.879   4.306   5.703
 7592SOL    HW223676   6.850   4.182   5.805
 7593SOL     OW23677   6.001   3.175   1.378
 7593SOL    HW123678   5.964   3.135   1.461
 7593SOL    HW223679   5.939   3.157   1.301
 7594SOL     OW23680   1.015   5.166   2.175
 7594SOL    HW123681   1.014   5.095   2.245
 7594SOL    HW223682   1.047   5.128   2.089
 7595SOL     OW23683   0.265   1.994   5.719
 7595SOL    HW123684   0.272   2.086   5.758
 7595SOL    HW223685   0.187   1.946   5.760
 7596SOL     OW23686   4.281   5.624   4.089
 7596SOL    HW123687   4.262   5.527   4.073
 7596SOL    HW223688   4.223   5.657   4.164
 7597SOL     OW23689   3.609   6.048   3.014
 7597SOL    HW123690   3.630   5.952   3.034
 7597SOL    HW223691   3.639   6.105   3.090
 7598SOL     OW23692   6.459   1.259   3.041
 7598SOL    HW123693   6.424   1.347   3.073
 7598SOL    HW223694   6.557   1.253   3.063
 7599SOL     OW23695   5.261   1.829   2.471
 7599SOL    HW123696   5.223   1.921   2.483
 7599SOL    HW223697   5.225   1.769   2.543
 7600SOL     OW23698   2.332   1.582   2.766
 7600SOL    HW123699   2.249   1.634   2.789
 7600SOL    HW223700   2.306   1.499   2.717
 7601SOL     OW23701   1.981   5.215   3.003
 7601SOL    HW123702   1.907   5.184   3.062
 7601SOL    HW223703   2.062   5.235   3.059
 7602SOL     OW23704   1.185   4.409   5.830
 7602SOL    HW123705   1.138   4.406   5.741
 7602SOL    HW223706   1.150   4.336   5.888
 7603SOL     OW23707   1.350   5.651   6.018
 7603SOL    HW123708   1.258   5.642   6.056
 7603SOL    HW223709   1.416   5.659   6.093
 7604SOL     OW23710   1.444   4.462   4.514
 7604SOL    HW123711   1.461   4.368   4.543
 7604SOL    HW223712   1.458   4.524   4.592
 7605SOL     OW23713   0.422   0.093   1.268
 7605SOL    HW123714   0.512   0.051   1.268
 7605SOL    HW223715   0.366   0.053   1.340
 7606SOL     OW23716   5.888   3.723   4.482
 7606SOL    HW123717   5.840   3.811   4.492
 7606SOL    HW223718   5.967   3.735   4.423
 7607SOL     OW23719   3.540   4.515   6.785
 7607SOL    HW123720   3.554   4.598   6.839
 7607SOL    HW223721   3.473   4.533   6.712
 7608SOL     OW23722   4.141   3.481   2.574
 7608SOL    HW123723   4.065   3.498   2.512
 7608SOL    HW223724   4.119   3.404   2.635
 7609SOL     OW23725   0.957   3.321   4.099
 7609SOL    HW123726   1.027   3.392   4.097
 7609SOL    HW223727   0.868   3.362   4.122
 7610SOL     OW23728   5.017   6.366   6.513
 7610SOL    HW123729   5.066   6.310   6.579
 7610SOL    HW223730   5.083   6.421   6.461
 7611SOL     OW23731   7.016   2.493   0.671
 7611SOL    HW123732   0.059   2.458   0.601
 7611SOL    HW223733   6.966   2.572   0.635
 7612SOL     OW23734   4.870   3.125   3.524
 7612SOL    HW123735   4.814   3.042   3.527
 7612SOL    HW223736   4.966   3.101   3.539
 7613SOL     OW23737   6.317   3.236   1.112
 7613SOL    HW123738   6.244   3.192   1.060
 7613SOL    HW223739   6.297   3.333   1.121
 7614SOL     OW23740   5.037   3.196   0.652
 7614SOL    HW123741   5.117   3.203   0.713
 7614SOL    HW223742   5.068   3.195   0.557
 7615SOL     OW23743   3.619   4.953   6.633
 7615SOL    HW123744   3.650   4.972   6.540
 7615SOL    HW223745   3.691   4.978   6.699
 7616SOL     OW23746   6.111   5.250   4.927
 7616SOL    HW123747   6.169   5.238   4.847
 7616SOL    HW223748   6.065   5.163   4.948
 7617SOL     OW23749   3.950   5.015   2.591
 7617SOL    HW123750   3.937   5.081   2.664
 7617SOL    HW223751   3.962   5.063   2.503
 7618SOL     OW23752   0.563   1.397   5.785
 7618SOL    HW123753   0.504   1.343   5.845
 7618SOL    HW223754   0.562   1.358   5.693
 7619SOL     OW23755   5.942   3.290   5.252
 7619SOL    HW123756   5.973   3.195   5.245
 7619SOL    HW223757   6.021   3.349   5.268
 7620SOL     OW23758   4.056   5.708   1.290
 7620SOL    HW123759   4.098   5.772   1.225
 7620SOL    HW223760   3.983   5.658   1.244
 7621SOL     OW23761   6.830   1.947   1.071
 7621SOL    HW123762   6.860   1.875   1.134
 7621SOL    HW223763   6.748   1.991   1.108
 7622SOL     OW23764   4.119   5.891   1.119
 7622SOL    HW123765   4.026   5.926   1.125
 7622SOL    HW223766   4.166   5.933   1.042
 7623SOL     OW23767   4.692   4.693   6.671
 7623SOL    HW123768   4.633   4.614   6.653
 7623SOL    HW223769   4.753   4.707   6.593
 7624SOL     OW23770   6.766   3.786   5.294
 7624SOL    HW123771   6.821   3.721   5.347
 7624SOL    HW223772   6.761   3.873   5.344
 7625SOL     OW23773   4.555   0.504   1.719
 7625SOL    HW123774   4.637   0.486   1.773
 7625SOL    HW223775   4.567   0.591   1.670
 7626SOL     OW23776   5.492   0.063   4.602
 7626SOL    HW123777   5.567   0.089   4.664
 7626SOL    HW223778   5.530   0.037   4.513
 7627SOL     OW23779   4.935   2.659   0.275
 7627SOL    HW123780   4.991   2.577   0.290
 7627SOL    HW223781   4.937   2.683   0.178
 7628SOL     OW23782   3.622   1.237   2.694
 7628SOL    HW123783   3.717   1.238   2.665
 7628SOL    HW223784   3.600   1.322   2.741
 7629SOL     OW23785   0.062   6.076   3.295
 7629SOL    HW123786   0.031   6.075   3.391
 7629SOL    HW223787   7.001   6.075   3.235
 7630SOL     OW23788   6.854   6.837   1.231
 7630SOL    HW123789   6.918   6.914   1.231
 7630SOL    HW223790   6.895   6.759   1.183
 7631SOL     OW23791   1.126   1.287   6.267
 7631SOL    HW123792   1.209   1.246   6.228
 7631SOL    HW223793   1.046   1.245   6.224
 7632SOL     OW23794   3.055   2.838   1.766
 7632SOL    HW123795   3.033   2.745   1.797
 7632SOL    HW223796   2.979   2.874   1.712
 7633SOL     OW23797   5.029   0.437   1.302
 7633SOL    HW123798   5.031   0.337   1.313
 7633SOL    HW223799   4.993   0.460   1.212
 7634SOL     OW23800   1.610   2.262   2.663
 7634SOL    HW123801   1.565   2.272   2.574
 7634SOL    HW223802   1.561   2.194   2.718
 7635SOL     OW23803   3.464   5.418   5.035
 7635SOL    HW123804   3.563   5.423   5.026
 7635SOL    HW223805   3.427   5.507   5.060
 7636SOL     OW23806   1.491   2.528   3.874
 7636SOL    HW123807   1.557   2.597   3.902
 7636SOL    HW223808   1.445   2.557   3.791
 7637SOL     OW23809   2.195   5.060   2.378
 7637SOL    HW123810   2.118   5.125   2.373
 7637SOL    HW223811   2.260   5.081   2.304
 7638SOL     OW23812   3.391   6.093   0.860
 7638SOL    HW123813   3.314   6.032   0.878
 7638SOL    HW223814   3.467   6.071   0.922
 7639SOL     OW23815   1.578   2.687   0.943
 7639SOL    HW123816   1.650   2.666   1.009
 7639SOL    HW223817   1.566   2.786   0.937
 7640SOL     OW23818   2.963   2.005   6.013
 7640SOL    HW123819   2.984   2.091   5.966
 7640SOL    HW223820   2.919   2.025   6.101
 7641SOL     OW23821   1.353   5.011   2.274
 7641SOL    HW123822   1.386   4.941   2.212
 7641SOL    HW223823   1.254   5.003   2.284
 7642SOL     OW23824   3.724   0.724   2.687
 7642SOL    HW123825   3.754   0.819   2.691
 7642SOL    HW223826   3.629   0.717   2.719
 7643SOL     OW23827   5.104   3.054   4.289
 7643SOL    HW123828   5.132   3.003   4.371
 7643SOL    HW223829   5.173   3.042   4.218
 7644SOL     OW23830   5.874   2.257   2.567
 7644SOL    HW123831   5.783   2.291   2.545
 7644SOL    HW223832   5.877   2.230   2.664
 7645SOL     OW23833   4.259   3.788   5.269
 7645SOL    HW123834   4.260   3.846   5.188
 7645SOL    HW223835   4.349   3.747   5.282
 7646SOL     OW23836   1.083   3.724   2.958
 7646SOL    HW123837   1.182   3.715   2.947
 7646SOL    HW223838   1.036   3.665   2.892
 7647SOL     OW23839   6.561   3.569   3.164
 7647SOL    HW123840   6.535   3.588   3.069
 7647SOL    HW223841   6.660   3.579   3.174
 7648SOL     OW23842   2.689   1.417   2.714
 7648SOL    HW123843   2.771   1.374   2.752
 7648SOL    HW223844   2.612   1.404   2.778
 7649SOL     OW23845   1.093   0.706   2.610
 7649SOL    HW123846   1.075   0.616   2.569
 7649SOL    HW223847   1.092   0.698   2.709
 7650SOL     OW23848   4.682   1.931   0.991
 7650SOL    HW123849   4.742   1.910   0.914
 7650SOL    HW223850   4.603   1.982   0.958
 7651SOL     OW23851   2.322   0.679   4.098
 7651SOL    HW123852   2.285   0.590   4.123
 7651SOL    HW223853   2.353   0.678   4.003
 7652SOL     OW23854   5.952   3.821   4.833
 7652SOL    HW123855   5.891   3.742   4.828
 7652SOL    HW223856   5.914   3.888   4.897
 7653SOL     OW23857   0.837   2.162   0.050
 7653SOL    HW123858   0.793   2.185   0.136
 7653SOL    HW223859   0.888   2.241   0.017
 7654SOL     OW23860   4.591   2.664   3.822
 7654SOL    HW123861   4.518   2.668   3.891
 7654SOL    HW223862   4.634   2.754   3.814
 7655SOL     OW23863   4.441   0.163   2.941
 7655SOL    HW123864   4.494   0.167   3.025
 7655SOL    HW223865   4.501   0.180   2.863
 7656SOL     OW23866   2.753   4.224   6.217
 7656SOL    HW123867   2.773   4.315   6.183
 7656SOL    HW223868   2.693   4.176   6.153
 7657SOL     OW23869   1.544   3.024   4.244
 7657SOL    HW123870   1.640   3.031   4.268
 7657SOL    HW223871   1.494   2.982   4.320
 7658SOL     OW23872   4.007   6.923   6.028
 7658SOL    HW123873   4.078   6.983   5.993
 7658SOL    HW223874   3.930   6.921   5.964
 7659SOL     OW23875   5.404   5.639   6.741
 7659SOL    HW123876   5.489   5.635   6.687
 7659SOL    HW223877   5.340   5.571   6.706
 7660SOL     OW23878   0.502   5.862   4.136
 7660SOL    HW123879   0.601   5.867   4.149
 7660SOL    HW223880   0.460   5.817   4.215
 7661SOL     OW23881   6.305   2.407   4.513
 7661SOL    HW123882   6.264   2.495   4.539
 7661SOL    HW223883   6.238   2.353   4.463
 7662SOL     OW23884   1.420   3.361   2.991
 7662SOL    HW123885   1.453   3.447   3.030
 7662SOL    HW223886   1.391   3.300   3.065
 7663SOL     OW23887   0.857   5.636   5.594
 7663SOL    HW123888   0.855   5.536   5.587
 7663SOL    HW223889   0.766   5.672   5.574
 7664SOL     OW23890   3.682   0.196   1.552
 7664SOL    HW123891   3.663   0.153   1.641
 7664SOL    HW223892   3.597   0.228   1.512
 7665SOL     OW23893   5.653   6.904   4.863
 7665SOL    HW123894   5.746   6.937   4.876
 7665SOL    HW223895   5.655   6.812   4.825
 7666SOL     OW23896   0.333   5.788   1.685
 7666SOL    HW123897   0.294   5.706   1.727
 7666SOL    HW223898   0.273   5.866   1.703
 7667SOL     OW23899   5.200   6.160   2.379
 7667SOL    HW123900   5.201   6.201   2.288
 7667SOL    HW223901   5.283   6.184   2.428
 7668SOL     OW23902   2.819   4.462   6.852
 7668SOL    HW123903   2.801   4.437   6.757
 7668SOL    HW223904   2.733   4.463   6.903
 7669SOL     OW23905   4.832   2.095   5.687
 7669SOL    HW123906   4.774   2.042   5.624
 7669SOL    HW223907   4.893   2.154   5.635
 7670SOL     OW23908   0.945   5.128   6.364
 7670SOL    HW123909   0.958   5.227   6.367
 7670SOL    HW223910   0.858   5.107   6.319
 7671SOL     OW23911   4.415   1.095   2.807
 7671SOL    HW123912   4.360   1.084   2.724
 7671SOL    HW223913   4.511   1.073   2.786
 7672SOL     OW23914   0.454   6.833   3.246
 7672SOL    HW123915   0.487   6.921   3.280
 7672SOL    HW223916   0.366   6.846   3.199
 7673SOL     OW23917   1.598   5.604   0.095
 7673SOL    HW123918   1.651   5.575   0.015
 7673SOL    HW223919   1.656   5.600   0.176
 7674SOL     OW23920   5.294   0.959   3.609
 7674SOL    HW123921   5.382   0.927   3.644
 7674SOL    HW223922   5.300   0.971   3.510
 7675SOL     OW23923   6.564   6.825   2.353
 7675SOL    HW123924   6.663   6.825   2.358
 7675SOL    HW223925   6.535   6.877   2.272
 7676SOL     OW23926   2.365   1.938   0.376
 7676SOL    HW123927   2.311   1.958   0.294
 7676SOL    HW223928   2.406   2.022   0.411
 7677SOL     OW23929   0.319   4.640   1.793
 7677SOL    HW123930   0.310   4.736   1.822
 7677SOL    HW223931   0.390   4.632   1.724
 7678SOL     OW23932   2.197   2.507   4.278
 7678SOL    HW123933   2.276   2.549   4.235
 7678SOL    HW223934   2.166   2.565   4.354
 7679SOL     OW23935   2.948   5.458   6.225
 7679SOL    HW123936   2.858   5.495   6.201
 7679SOL    HW223937   2.935   5.376   6.282
 7680SOL     OW23938   1.365   0.940   0.610
 7680SOL    HW123939   1.414   0.938   0.523
 7680SOL    HW223940   1.272   0.975   0.595
 7681SOL     OW23941   2.119   0.626   0.923
 7681SOL    HW123942   2.197   0.680   0.953
 7681SOL    HW223943   2.146   0.571   0.844
 7682SOL     OW23944   3.464   0.290   2.264
 7682SOL    HW123945   3.564   0.288   2.265
 7682SOL    HW223946   3.430   0.286   2.358
 7683SOL     OW23947   5.109   1.734   4.272
 7683SOL    HW123948   5.089   1.786   4.189
 7683SOL    HW223949   5.125   1.638   4.249
 7684SOL     OW23950   3.566   2.286   1.462
 7684SOL    HW123951   3.628   2.267   1.539
 7684SOL    HW223952   3.479   2.321   1.497
 7685SOL     OW23953   2.815   2.072   6.279
 7685SOL    HW123954   2.756   2.088   6.200
 7685SOL    HW223955   2.816   2.154   6.337
 7686SOL     OW23956   0.198   6.878   3.159
 7686SOL    HW123957   0.140   6.954   3.128
 7686SOL    HW223958   0.143   6.816   3.215
 7687SOL     OW23959   5.467   5.331   3.948
 7687SOL    HW123960   5.522   5.290   4.020
 7687SOL    HW223961   5.527   5.371   3.879
 7688SOL     OW23962   1.256   6.071   6.016
 7688SOL    HW123963   1.164   6.034   6.006
 7688SOL    HW223964   1.321   6.012   5.967
 7689SOL     OW23965   6.186   6.345   2.438
 7689SOL    HW123966   6.181   6.247   2.455
 7689SOL    HW223967   6.153   6.395   2.518
 7690SOL     OW23968   5.285   5.412   0.480
 7690SOL    HW123969   5.342   5.393   0.560
 7690SOL    HW223970   5.257   5.508   0.481
 7691SOL     OW23971   5.185   3.616   4.774
 7691SOL    HW123972   5.207   3.545   4.840
 7691SOL    HW223973   5.086   3.629   4.772
 7692SOL     OW23974   0.299   6.039   2.080
 7692SOL    HW123975   0.337   5.992   2.160
 7692SOL    HW223976   0.220   6.093   2.107
 7693SOL     OW23977   4.103   6.804   1.049
 7693SOL    HW123978   4.126   6.715   1.011
 7693SOL    HW223979   4.187   6.858   1.063
 7694SOL     OW23980   0.172   4.702   5.038
 7694SOL    HW123981   0.175   4.692   4.939
 7694SOL    HW223982   0.108   4.775   5.062
 7695SOL     OW23983   4.390   0.045   1.293
 7695SOL    HW123984   4.374   0.003   1.203
 7695SOL    HW223985   4.324   0.119   1.307
 7696SOL     OW23986   6.957   0.797   5.025
 7696SOL    HW123987   6.874   0.850   5.046
 7696SOL    HW223988   7.015   0.850   4.963
 7697SOL     OW23989   2.839   6.591   2.118
 7697SOL    HW123990   2.744   6.603   2.147
 7697SOL    HW223991   2.860   6.493   2.113
 7698SOL     OW23992   6.497   1.456   3.652
 7698SOL    HW123993   6.406   1.469   3.690
 7698SOL    HW223994   6.519   1.358   3.652
 7699SOL     OW23995   3.763   5.952   6.927
 7699SOL    HW123996   3.856   5.917   6.937
 7699SOL    HW223997   3.737   5.952   6.830
 7700SOL     OW23998   5.052   5.959   3.801
 7700SOL    HW123999   5.095   5.872   3.825
 7700SOL    HW224000   5.066   6.025   3.875
 7701SOL     OW24001   6.998   1.899   6.879
 7701SOL    HW124002   6.963   1.907   6.785
 7701SOL    HW224003   6.963   1.974   6.934
 7702SOL     OW24004   3.366   6.823   5.267
 7702SOL    HW124005   3.388   6.732   5.301
 7702SOL    HW224006   3.312   6.815   5.183
 7703SOL     OW24007   6.280   6.984   6.383
 7703SOL    HW124008   6.204   0.027   6.407
 7703SOL    HW224009   6.318   6.945   6.466
 7704SOL     OW24010   5.685   5.659   4.681
 7704SOL    HW124011   5.599   5.676   4.632
 7704SOL    HW224012   5.673   5.580   4.741
 7705SOL     OW24013   3.813   5.637   6.875
 7705SOL    HW124014   3.854   5.679   6.794
 7705SOL    HW224015   3.735   5.693   6.905
 7706SOL     OW24016   4.716   3.157   5.331
 7706SOL    HW124017   4.758   3.095   5.397
 7706SOL    HW224018   4.617   3.149   5.336
 7707SOL     OW24019   6.845   5.228   5.860
 7707SOL    HW124020   6.909   5.225   5.937
 7707SOL    HW224021   6.760   5.183   5.885
 7708SOL     OW24022   0.229   0.211   5.877
 7708SOL    HW124023   0.260   0.129   5.828
 7708SOL    HW224024   0.275   0.216   5.965
 7709SOL     OW24025   5.841   5.140   2.061
 7709SOL    HW124026   5.760   5.177   2.016
 7709SOL    HW224027   5.885   5.072   2.001
 7710SOL     OW24028   2.857   0.963   0.112
 7710SOL    HW124029   2.784   1.032   0.117
 7710SOL    HW224030   2.905   0.973   0.025
 7711SOL     OW24031   6.261   6.680   6.102
 7711SOL    HW124032   6.223   6.673   6.194
 7711SOL    HW224033   6.315   6.764   6.094
 7712SOL     OW24034   5.834   5.178   2.331
 7712SOL    HW124035   5.922   5.156   2.372
 7712SOL    HW224036   5.845   5.195   2.233
 7713SOL     OW24037   1.736   3.908   0.695
 7713SOL    HW124038   1.729   3.973   0.770
 7713SOL    HW224039   1.644   3.878   0.668
 7714SOL     OW24040   5.866   4.240   5.643
 7714SOL    HW124041   5.867   4.322   5.700
 7714SOL    HW224042   5.893   4.161   5.698
 7715SOL     OW24043   4.096   2.438   0.083
 7715SOL    HW124044   4.074   2.408   7.009
 7715SOL    HW224045   4.174   2.500   0.080
 7716SOL     OW24046   6.047   4.367   2.916
 7716SOL    HW124047   6.025   4.282   2.964
 7716SOL    HW224048   6.055   4.348   2.818
 7717SOL     OW24049   1.966   0.979   4.959
 7717SOL    HW124050   1.974   0.880   4.970
 7717SOL    HW224051   1.905   1.017   5.028
 7718SOL     OW24052   1.213   3.088   3.431
 7718SOL    HW124053   1.167   3.103   3.518
 7718SOL    HW224054   1.149   3.048   3.365
 7719SOL     OW24055   6.963   4.554   5.184
 7719SOL    HW124056   7.014   4.631   5.145
 7719SOL    HW224057   6.894   4.524   5.118
 7720SOL     OW24058   6.879   1.645   0.551
 7720SOL    HW124059   6.834   1.695   0.625
 7720SOL    HW224060   6.974   1.675   0.544
 7721SOL     OW24061   0.478   5.656   2.641
 7721SOL    HW124062   0.434   5.633   2.727
 7721SOL    HW224063   0.418   5.715   2.587
 7722SOL     OW24064   1.534   4.648   3.540
 7722SOL    HW124065   1.506   4.703   3.618
 7722SOL    HW224066   1.456   4.633   3.479
 7723SOL     OW24067   4.616   3.423   6.900
 7723SOL    HW124068   4.559   3.396   6.822
 7723SOL    HW224069   4.584   3.377   6.983
 7724SOL     OW24070   3.376   3.850   0.641
 7724SOL    HW124071   3.345   3.915   0.710
 7724SOL    HW224072   3.475   3.843   0.643
 7725SOL     OW24073   6.737   1.236   3.131
 7725SOL    HW124074   6.826   1.280   3.135
 7725SOL    HW224075   6.734   1.159   3.195
 7726SOL     OW24076   1.619   5.771   5.449
 7726SOL    HW124077   1.548   5.702   5.456
 7726SOL    HW224078   1.579   5.857   5.417
 7727SOL     OW24079   0.543   0.713   2.827
 7727SOL    HW124080   0.542   0.813   2.835
 7727SOL    HW224081   0.531   0.672   2.918
 7728SOL     OW24082   1.205   4.442   3.791
 7728SOL    HW124083   1.181   4.364   3.733
 7728SOL    HW224084   1.148   4.521   3.768
 7729SOL     OW24085   5.397   3.134   0.451
 7729SOL    HW124086   5.436   3.099   0.536
 7729SOL    HW224087   5.315   3.082   0.428
 7730SOL     OW24088   6.001   5.997   0.518
 7730SOL    HW124089   5.933   5.929   0.492
 7730SOL    HW224090   6.035   6.044   0.436
 7731SOL     OW24091   6.852   1.159   0.423
 7731SOL    HW124092   6.760   1.124   0.442
 7731SOL    HW224093   6.874   1.143   0.327
 7732SOL     OW24094   4.599   6.611   0.694
 7732SOL    HW124095   4.536   6.544   0.653
 7732SOL    HW224096   4.600   6.600   0.793
 7733SOL     OW24097   4.900   6.264   2.891
 7733SOL    HW124098   4.831   6.275   2.963
 7733SOL    HW224099   4.855   6.272   2.802
 7734SOL     OW24100   2.400   4.658   2.948
 7734SOL    HW124101   2.443   4.740   2.986
 7734SOL    HW224102   2.381   4.593   3.021
 7735SOL     OW24103   4.691   6.987   6.736
 7735SOL    HW124104   4.686   6.935   6.821
 7735SOL    HW224105   4.606   6.975   6.685
 7736SOL     OW24106   3.767   3.678   6.191
 7736SOL    HW124107   3.722   3.602   6.144
 7736SOL    HW224108   3.802   3.742   6.123
 7737SOL     OW24109   2.996   6.645   2.763
 7737SOL    HW124110   3.009   6.646   2.664
 7737SOL    HW224111   2.963   6.554   2.791
 7738SOL     OW24112   3.207   5.975   6.879
 7738SOL    HW124113   3.157   6.000   6.962
 7738SOL    HW224114   3.303   6.002   6.888
 7739SOL     OW24115   0.501   2.538   1.478
 7739SOL    HW124116   0.482   2.482   1.559
 7739SOL    HW224117   0.451   2.624   1.484
 7740SOL     OW24118   2.108   1.505   2.416
 7740SOL    HW124119   2.014   1.540   2.419
 7740SOL    HW224120   2.139   1.500   2.322
 7741SOL     OW24121   0.688   4.883   5.683
 7741SOL    HW124122   0.670   4.799   5.632
 7741SOL    HW224123   0.719   4.954   5.620
 7742SOL     OW24124   4.258   2.329   3.685
 7742SOL    HW124125   4.342   2.356   3.638
 7742SOL    HW224126   4.196   2.286   3.619
 7743SOL     OW24127   5.630   1.289   6.393
 7743SOL    HW124128   5.662   1.304   6.299
 7743SOL    HW224129   5.705   1.252   6.448
 7744SOL     OW24130   0.802   6.117   4.125
 7744SOL    HW124131   0.759   6.190   4.177
 7744SOL    HW224132   0.842   6.154   4.041
 7745SOL     OW24133   3.539   1.047   6.851
 7745SOL    HW124134   3.458   1.016   6.901
 7745SOL    HW224135   3.511   1.098   6.770
 7746SOL     OW24136   1.367   0.112   0.416
 7746SOL    HW124137   1.435   0.076   0.353
 7746SOL    HW224138   1.373   0.063   0.503
 7747SOL     OW24139   5.342   5.628   0.768
 7747SOL    HW124140   5.389   5.542   0.749
 7747SOL    HW224141   5.293   5.658   0.687
 7748SOL     OW24142   3.220   4.101   4.678
 7748SOL    HW124143   3.153   4.171   4.703
 7748SOL    HW224144   3.172   4.016   4.658
 7749SOL     OW24145   2.938   3.233   6.202
 7749SOL    HW124146   3.004   3.181   6.148
 7749SOL    HW224147   2.879   3.285   6.140
 7750SOL     OW24148   0.098   6.127   1.527
 7750SOL    HW124149   0.195   6.129   1.550
 7750SOL    HW224150   0.085   6.079   1.440
 7751SOL     OW24151   1.577   2.548   2.236
 7751SOL    HW124152   1.662   2.563   2.285
 7751SOL    HW224153   1.584   2.589   2.145
 7752SOL     OW24154   5.731   6.513   5.715
 7752SOL    HW124155   5.816   6.522   5.661
 7752SOL    HW224156   5.705   6.603   5.750
 7753SOL     OW24157   2.665   0.675   3.862
 7753SOL    HW124158   2.587   0.613   3.852
 7753SOL    HW224159   2.748   0.623   3.880
 7754SOL     OW24160   3.210   6.226   2.151
 7754SOL    HW124161   3.144   6.232   2.076
 7754SOL    HW224162   3.225   6.131   2.175
 7755SOL     OW24163   1.954   2.572   5.156
 7755SOL    HW124164   2.036   2.623   5.184
 7755SOL    HW224165   1.894   2.559   5.235
 7756SOL     OW24166   2.402   6.056   2.605
 7756SOL    HW124167   2.303   6.046   2.603
 7756SOL    HW224168   2.428   6.119   2.678
 7757SOL     OW24169   5.262   4.890   0.256
 7757SOL    HW124170   5.195   4.865   0.186
 7757SOL    HW224171   5.242   4.982   0.290
 7758SOL     OW24172   2.467   0.963   5.506
 7758SOL    HW124173   2.438   1.041   5.562
 7758SOL    HW224174   2.552   0.986   5.459
 7759SOL     OW24175   1.878   2.406   5.606
 7759SOL    HW124176   1.821   2.418   5.687
 7759SOL    HW224177   1.967   2.449   5.621
 7760SOL     OW24178   5.850   3.561   2.734
 7760SOL    HW124179   5.759   3.569   2.774
 7760SOL    HW224180   5.918   3.597   2.798
 7761SOL     OW24181   0.036   0.154   4.428
 7761SOL    HW124182   0.032   0.254   4.429
 7761SOL    HW224183   6.997   0.119   4.355
 7762SOL     OW24184   2.489   0.243   3.878
 7762SOL    HW124185   2.399   0.282   3.900
 7762SOL    HW224186   2.524   0.286   3.795
 7763SOL     OW24187   2.240   0.320   6.958
 7763SOL    HW124188   2.312   0.306   0.008
 7763SOL    HW224189   2.182   0.396   6.986
 7764SOL     OW24190   3.597   3.556   4.755
 7764SOL    HW124191   3.660   3.592   4.686
 7764SOL    HW224192   3.503   3.562   4.720
 7765SOL     OW24193   5.949   4.549   5.317
 7765SOL    HW124194   5.977   4.568   5.411
 7765SOL    HW224195   6.001   4.472   5.281
 7766SOL     OW24196   6.833   4.153   0.024
 7766SOL    HW124197   6.775   4.117   6.970
 7766SOL    HW224198   6.929   4.150   7.014
 7767SOL     OW24199   5.065   6.066   2.756
 7767SOL    HW124200   5.012   6.078   2.672
 7767SOL    HW224201   5.025   6.121   2.829
 7768SOL     OW24202   4.528   4.550   3.091
 7768SOL    HW124203   4.558   4.522   3.000
 7768SOL    HW224204   4.585   4.506   3.161
 7769SOL     OW24205   4.474   1.458   3.701
 7769SOL    HW124206   4.450   1.501   3.614
 7769SOL    HW224207   4.483   1.359   3.688
 7770SOL     OW24208   1.831   4.358   4.271
 7770SOL    HW124209   1.736   4.368   4.241
 7770SOL    HW224210   1.834   4.361   4.371
 7771SOL     OW24211   3.616   1.843   5.260
 7771SOL    HW124212   3.713   1.830   5.283
 7771SOL    HW224213   3.594   1.792   5.177
 7772SOL     OW24214   4.298   0.020   2.230
 7772SOL    HW124215   4.217   0.078   2.218
 7772SOL    HW224216   4.329   0.027   2.325
 7773SOL     OW24217   2.275   5.839   5.021
 7773SOL    HW124218   2.331   5.791   5.088
 7773SOL    HW224219   2.306   5.933   5.012
 7774SOL     OW24220   5.388   1.764   4.398
 7774SOL    HW124221   5.302   1.721   4.371
 7774SOL    HW224222   5.370   1.854   4.438
 7775SOL     OW24223   4.598   5.967   0.637
 7775SOL    HW124224   4.509   6.007   0.613
 7775SOL    HW224225   4.609   5.880   0.589
 7776SOL     OW24226   0.259   5.897   6.758
 7776SOL    HW124227   0.226   5.984   6.722
 7776SOL    HW224228   0.250   5.826   6.688
 7777SOL     OW24229   5.720   5.479   4.063
 7777SOL    HW124230   5.640   5.495   4.121
 7777SOL    HW224231   5.717   5.542   3.985
 7778SOL     OW24232   5.782   3.867   0.441
 7778SOL    HW124233   5.703   3.866   0.380
 7778SOL    HW224234   5.762   3.814   0.524
 7779SOL     OW24235   2.616   1.992   1.369
 7779SOL    HW124236   2.522   1.957   1.364
 7779SOL    HW224237   2.624   2.074   1.312
 7780SOL     OW24238   0.719   4.930   5.091
 7780SOL    HW124239   0.679   4.847   5.051
 7780SOL    HW224240   0.739   4.913   5.188
 7781SOL     OW24241   2.583   4.311   1.248
 7781SOL    HW124242   2.498   4.297   1.196
 7781SOL    HW224243   2.659   4.273   1.197
 7782SOL     OW24244   5.174   5.097   4.710
 7782SOL    HW124245   5.114   5.071   4.786
 7782SOL    HW224246   5.185   5.019   4.649
 7783SOL     OW24247   0.830   6.627   5.550
 7783SOL    HW124248   0.805   6.695   5.481
 7783SOL    HW224249   0.747   6.594   5.596
 7784SOL     OW24250   3.752   2.838   1.840
 7784SOL    HW124251   3.841   2.799   1.818
 7784SOL    HW224252   3.757   2.888   1.927
 7785SOL     OW24253   1.828   6.250   5.091
 7785SOL    HW124254   1.921   6.284   5.108
 7785SOL    HW224255   1.828   6.150   5.094
 7786SOL     OW24256   3.525   6.829   0.907
 7786SOL    HW124257   3.534   6.731   0.890
 7786SOL    HW224258   3.614   6.866   0.934
 7787SOL     OW24259   2.445   2.923   6.975
 7787SOL    HW124260   2.398   2.872   6.902
 7787SOL    HW224261   2.517   2.980   6.935
 7788SOL     OW24262   1.993   4.997   1.308
 7788SOL    HW124263   2.079   5.016   1.356
 7788SOL    HW224264   1.967   4.901   1.323
 7789SOL     OW24265   2.536   6.858   6.404
 7789SOL    HW124266   2.521   6.933   6.468
 7789SOL    HW224267   2.553   6.774   6.455
 7790SOL     OW24268   5.486   5.325   2.910
 7790SOL    HW124269   5.518   5.419   2.899
 7790SOL    HW224270   5.391   5.318   2.881
 7791SOL     OW24271   2.246   5.111   2.661
 7791SOL    HW124272   2.230   5.209   2.667
 7791SOL    HW224273   2.238   5.082   2.565
 7792SOL     OW24274   2.284   5.891   4.743
 7792SOL    HW124275   2.250   5.817   4.685
 7792SOL    HW224276   2.281   5.862   4.839
 7793SOL     OW24277   4.062   1.181   0.519
 7793SOL    HW124278   4.054   1.259   0.581
 7793SOL    HW224279   4.052   1.212   0.424
 7794SOL     OW24280   6.062   4.119   2.507
 7794SOL    HW124281   6.159   4.096   2.507
 7794SOL    HW224282   6.014   4.066   2.437
 7795SOL     OW24283   1.972   4.350   5.109
 7795SOL    HW124284   2.059   4.326   5.065
 7795SOL    HW224285   1.983   4.437   5.158
 7796SOL     OW24286   3.258   2.930   4.988
 7796SOL    HW124287   3.306   3.016   4.972
 7796SOL    HW224288   3.297   2.859   4.930
 7797SOL     OW24289   1.442   6.749   1.128
 7797SOL    HW124290   1.460   6.772   1.032
 7797SOL    HW224291   1.528   6.720   1.171
 7798SOL     OW24292   1.095   3.397   3.816
 7798SOL    HW124293   1.101   3.322   3.882
 7798SOL    HW224294   1.161   3.469   3.840
 7799SOL     OW24295   1.540   5.296   2.428
 7799SOL    HW124296   1.481   5.293   2.508
 7799SOL    HW224297   1.504   5.361   2.361
 7800SOL     OW24298   1.075   5.651   2.453
 7800SOL    HW124299   1.024   5.570   2.423
 7800SOL    HW224300   1.017   5.732   2.444
 7801SOL     OW24301   2.159   1.818   1.589
 7801SOL    HW124302   2.094   1.867   1.647
 7801SOL    HW224303   2.217   1.760   1.647
 7802SOL     OW24304   6.140   2.660   1.435
 7802SOL    HW124305   6.086   2.602   1.496
 7802SOL    HW224306   6.218   2.697   1.485
 7803SOL     OW24307   4.193   2.396   6.031
 7803SOL    HW124308   4.167   2.382   5.935
 7803SOL    HW224309   4.252   2.321   6.060
 7804SOL     OW24310   4.469   2.115   4.934
 7804SOL    HW124311   4.490   2.205   4.894
 7804SOL    HW224312   4.433   2.055   4.863
 7805SOL     OW24313   5.175   3.237   1.336
 7805SOL    HW124314   5.267   3.237   1.373
 7805SOL    HW224315   5.110   3.207   1.406
 7806SOL     OW24316   5.867   1.646   6.320
 7806SOL    HW124317   5.885   1.548   6.314
 7806SOL    HW224318   5.865   1.674   6.417
 7807SOL     OW24319   1.175   4.150   6.303
 7807SOL    HW124320   1.087   4.166   6.258
 7807SOL    HW224321   1.235   4.099   6.241
 7808SOL     OW24322   6.107   3.147   4.077
 7808SOL    HW124323   6.011   3.168   4.056
 7808SOL    HW224324   6.134   3.195   4.161
 7809SOL     OW24325   4.404   5.221   4.641
 7809SOL    HW124326   4.364   5.312   4.640
 7809SOL    HW224327   4.356   5.163   4.574
 7810SOL     OW24328   3.822   6.830   4.990
 7810SOL    HW124329   3.878   6.818   4.908
 7810SOL    HW224330   3.728   6.850   4.962
 7811SOL     OW24331   1.090   5.137   1.645
 7811SOL    HW124332   1.140   5.215   1.681
 7811SOL    HW224333   1.040   5.164   1.562
 7812SOL     OW24334   0.669   2.652   4.355
 7812SOL    HW124335   0.700   2.599   4.276
 7812SOL    HW224336   0.742   2.658   4.423
 7813SOL     OW24337   4.185   2.269   0.585
 7813SOL    HW124338   4.115   2.208   0.547
 7813SOL    HW224339   4.163   2.288   0.681
 7814SOL     OW24340   6.993   3.339   3.036
 7814SOL    HW124341   6.989   3.438   3.024
 7814SOL    HW224342   6.959   3.315   3.127
 7815SOL     OW24343   6.028   1.811   4.354
 7815SOL    HW124344   6.089   1.857   4.290
 7815SOL    HW224345   6.070   1.810   4.445
 7816SOL     OW24346   1.556   2.220   6.374
 7816SOL    HW124347   1.624   2.205   6.446
 7816SOL    HW224348   1.536   2.318   6.367
 7817SOL     OW24349   4.645   4.263   4.314
 7817SOL    HW124350   4.670   4.221   4.401
 7817SOL    HW224351   4.666   4.199   4.239
 7818SOL     OW24352   5.320   0.078   2.527
 7818SOL    HW124353   5.310   0.003   2.462
 7818SOL    HW224354   5.382   0.147   2.489
 7819SOL     OW24355   7.006   4.073   3.973
 7819SOL    HW124356   6.926   4.046   4.027
 7819SOL    HW224357   0.046   3.993   3.958
 7820SOL     OW24358   1.146   1.402   5.576
 7820SOL    HW124359   1.177   1.314   5.612
 7820SOL    HW224360   1.215   1.472   5.597
 7821SOL     OW24361   5.567   5.551   0.039
 7821SOL    HW124362   5.468   5.548   0.025
 7821SOL    HW224363   5.611   5.484   6.998
 7822SOL     OW24364   0.707   1.308   0.129
 7822SOL    HW124365   0.679   1.267   0.216
 7822SOL    HW224366   0.643   1.282   0.057
 7823SOL     OW24367   2.978   3.683   5.829
 7823SOL    HW124368   3.009   3.592   5.804
 7823SOL    HW224369   3.008   3.749   5.760
 7824SOL     OW24370   5.614   1.086   3.864
 7824SOL    HW124371   5.584   0.998   3.829
 7824SOL    HW224372   5.705   1.107   3.828
 7825SOL     OW24373   1.171   3.161   0.864
 7825SOL    HW124374   1.253   3.162   0.921
 7825SOL    HW224375   1.177   3.235   0.797
 7826SOL     OW24376   6.195   1.766   6.396
 7826SOL    HW124377   6.118   1.705   6.412
 7826SOL    HW224378   6.180   1.853   6.443
 7827SOL     OW24379   3.015   4.372   0.876
 7827SOL    HW124380   3.037   4.468   0.862
 7827SOL    HW224381   2.969   4.336   0.795
 7828SOL     OW24382   0.992   5.336   0.385
 7828SOL    HW124383   1.048   5.262   0.348
 7828SOL    HW224384   0.895   5.315   0.371
 7829SOL     OW24385   2.176   2.994   6.971
 7829SOL    HW124386   2.178   3.090   6.942
 7829SOL    HW224387   2.264   2.970   7.013
 7830SOL     OW24388   4.241   3.698   5.717
 7830SOL    HW124389   4.202   3.665   5.631
 7830SOL    HW224390   4.182   3.670   5.793
 7831SOL     OW24391   1.935   5.581   0.945
 7831SOL    HW124392   1.925   5.595   1.044
 7831SOL    HW224393   1.870   5.511   0.916
 7832SOL     OW24394   3.979   1.336   4.315
 7832SOL    HW124395   3.883   1.320   4.291
 7832SOL    HW224396   4.025   1.384   4.241
 7833SOL     OW24397   0.326   1.119   0.060
 7833SOL    HW124398   0.236   1.155   0.085
 7833SOL    HW224399   0.346   1.040   0.118
 7834SOL     OW24400   0.404   1.115   3.956
 7834SOL    HW124401   0.428   1.019   3.971
 7834SOL    HW224402   0.317   1.120   3.907
 7835SOL     OW24403   2.206   2.383   4.991
 7835SOL    HW124404   2.243   2.458   5.045
 7835SOL    HW224405   2.117   2.411   4.953
 7836SOL     OW24406   3.076   2.836   5.434
 7836SOL    HW124407   3.144   2.832   5.361
 7836SOL    HW224408   3.121   2.853   5.521
 7837SOL     OW24409   6.815   5.737   1.062
 7837SOL    HW124410   6.866   5.821   1.044
 7837SOL    HW224411   6.801   5.728   1.161
 7838SOL     OW24412   4.194   6.248   0.295
 7838SOL    HW124413   4.111   6.192   0.293
 7838SOL    HW224414   4.171   6.341   0.267
 7839SOL     OW24415   6.128   4.497   5.032
 7839SOL    HW124416   6.141   4.473   4.936
 7839SOL    HW224417   6.208   4.548   5.065
 7840SOL     OW24418   5.076   3.000   4.753
 7840SOL    HW124419   5.153   3.062   4.766
 7840SOL    HW224420   5.002   3.047   4.705
 7841SOL     OW24421   4.462   1.482   6.626
 7841SOL    HW124422   4.538   1.422   6.650
 7841SOL    HW224423   4.463   1.501   6.528
 7842SOL     OW24424   1.845   1.663   2.699
 7842SOL    HW124425   1.797   1.751   2.696
 7842SOL    HW224426   1.831   1.614   2.613
 7843SOL     OW24427   4.969   4.571   2.003
 7843SOL    HW124428   4.898   4.508   1.974
 7843SOL    HW224429   5.058   4.540   1.967
 7844SOL     OW24430   4.559   6.715   3.390
 7844SOL    HW124431   4.544   6.807   3.354
 7844SOL    HW224432   4.495   6.696   3.464
 7845SOL     OW24433   5.988   1.543   4.374
 7845SOL    HW124434   5.894   1.514   4.389
 7845SOL    HW224435   5.989   1.640   4.348
 7846SOL     OW24436   1.209   1.330   2.126
 7846SOL    HW124437   1.263   1.329   2.042
 7846SOL    HW224438   1.130   1.390   2.114
 7847SOL     OW24439   6.493   1.659   2.448
 7847SOL    HW124440   6.463   1.611   2.530
 7847SOL    HW224441   6.592   1.651   2.439
 7848SOL     OW24442   2.885   2.785   0.811
 7848SOL    HW124443   2.802   2.802   0.864
 7848SOL    HW224444   2.913   2.690   0.823
 7849SOL     OW24445   4.845   3.763   3.330
 7849SOL    HW124446   4.836   3.700   3.252
 7849SOL    HW224447   4.849   3.711   3.415
 7850SOL     OW24448   1.015   1.947   4.190
 7850SOL    HW124449   0.979   1.982   4.104
 7850SOL    HW224450   1.106   1.985   4.206
 7851SOL     OW24451   6.366   0.390   1.139
 7851SOL    HW124452   6.324   0.480   1.126
 7851SOL    HW224453   6.465   0.399   1.129
 7852SOL     OW24454   3.047   0.964   5.757
 7852SOL    HW124455   3.038   0.869   5.726
 7852SOL    HW224456   2.962   1.013   5.738
 7853SOL     OW24457   4.384   1.382   2.064
 7853SOL    HW124458   4.301   1.339   2.027
 7853SOL    HW224459   4.463   1.350   2.012
 7854SOL     OW24460   2.933   3.285   0.164
 7854SOL    HW124461   2.914   3.192   0.193
 7854SOL    HW224462   3.032   3.302   0.167
 7855SOL     OW24463   3.210   5.803   5.743
 7855SOL    HW124464   3.231   5.745   5.664
 7855SOL    HW224465   3.129   5.859   5.723
 7856SOL     OW24466   5.500   5.188   5.224
 7856SOL    HW124467   5.587   5.160   5.184
 7856SOL    HW224468   5.506   5.183   5.324
 7857SOL     OW24469   6.238   2.747   5.566
 7857SOL    HW124470   6.203   2.825   5.515
 7857SOL    HW224471   6.304   2.697   5.510
 7858SOL     OW24472   5.329   5.145   3.697
 7858SOL    HW124473   5.260   5.081   3.665
 7858SOL    HW224474   5.287   5.235   3.712
 7859SOL     OW24475   5.918   2.972   5.972
 7859SOL    HW124476   5.972   3.044   6.015
 7859SOL    HW224477   5.906   2.992   5.875
 7860SOL     OW24478   4.296   0.378   3.001
 7860SOL    HW124479   4.373   0.442   2.997
 7860SOL    HW224480   4.330   0.285   2.996
 7861SOL     OW24481   4.039   5.208   1.806
 7861SOL    HW124482   4.126   5.254   1.790
 7861SOL    HW224483   3.970   5.277   1.829
 7862SOL     OW24484   3.055   4.261   1.713
 7862SOL    HW124485   2.995   4.182   1.728
 7862SOL    HW224486   3.013   4.343   1.751
 7863SOL     OW24487   6.716   6.194   3.825
 7863SOL    HW124488   6.648   6.159   3.889
 7863SOL    HW224489   6.683   6.180   3.731
 7864SOL     OW24490   0.229   6.462   5.549
 7864SOL    HW124491   0.317   6.452   5.503
 7864SOL    HW224492   0.156   6.430   5.489
 7865SOL     OW24493   5.616   0.014   4.363
 7865SOL    HW124494   5.539   0.029   4.300
 7865SOL    HW224495   5.685   0.085   4.347
 7866SOL     OW24496   2.026   2.456   6.795
 7866SOL    HW124497   1.998   2.519   6.867
 7866SOL    HW224498   2.017   2.362   6.828
 7867SOL     OW24499   5.378   6.683   2.666
 7867SOL    HW124500   5.462   6.662   2.715
 7867SOL    HW224501   5.299   6.655   2.721
 7868SOL     OW24502   5.954   6.678   2.289
 7868SOL    HW124503   5.873   6.728   2.320
 7868SOL    HW224504   6.003   6.733   2.222
 7869SOL     OW24505   5.618   3.163   6.715
 7869SOL    HW124506   5.522   3.140   6.732
 7869SOL    HW224507   5.633   3.174   6.617
 7870SOL     OW24508   4.439   5.127   4.038
 7870SOL    HW124509   4.412   5.031   4.031
 7870SOL    HW224510   4.489   5.141   4.124
 7871SOL     OW24511   5.549   3.150   2.814
 7871SOL    HW124512   5.535   3.228   2.753
 7871SOL    HW224513   5.647   3.140   2.833
 7872SOL     OW24514   2.347   4.324   2.694
 7872SOL    HW124515   2.373   4.415   2.661
 7872SOL    HW224516   2.328   4.329   2.792
 7873SOL     OW24517   5.922   0.698   5.523
 7873SOL    HW124518   5.939   0.728   5.429
 7873SOL    HW224519   5.906   0.778   5.581
 7874SOL     OW24520   5.126   1.752   0.866
 7874SOL    HW124521   5.115   1.668   0.813
 7874SOL    HW224522   5.135   1.730   0.963
 7875SOL     OW24523   4.831   2.673   6.591
 7875SOL    HW124524   4.798   2.761   6.557
 7875SOL    HW224525   4.867   2.619   6.514
 7876SOL     OW24526   0.103   0.039   5.595
 7876SOL    HW124527   0.036   0.079   5.658
 7876SOL    HW224528   0.183   0.008   5.648
 7877SOL     OW24529   0.129   2.848   2.891
 7877SOL    HW124530   0.086   2.908   2.824
 7877SOL    HW224531   0.122   2.753   2.860
 7878SOL     OW24532   4.824   4.891   4.006
 7878SOL    HW124533   4.874   4.807   4.026
 7878SOL    HW224534   4.735   4.888   4.051
 7879SOL     OW24535   4.153   5.575   3.286
 7879SOL    HW124536   4.245   5.588   3.249
 7879SOL    HW224537   4.101   5.515   3.225
 7880SOL     OW24538   2.424   5.431   1.306
 7880SOL    HW124539   2.368   5.379   1.242
 7880SOL    HW224540   2.520   5.425   1.279
 7881SOL     OW24541   5.926   4.386   4.623
 7881SOL    HW124542   5.924   4.388   4.723
 7881SOL    HW224543   5.904   4.294   4.591
 7882SOL     OW24544   1.191   3.397   2.807
 7882SOL    HW124545   1.264   3.353   2.857
 7882SOL    HW224546   1.227   3.475   2.756
 7883SOL     OW24547   1.483   7.010   0.926
 7883SOL    HW124548   1.503   0.012   1.022
 7883SOL    HW224549   1.538   6.932   0.897
 7884SOL     OW24550   1.896   3.933   4.110
 7884SOL    HW124551   1.959   3.857   4.095
 7884SOL    HW224552   1.936   3.998   4.173
 7885SOL     OW24553   5.687   6.307   1.510
 7885SOL    HW124554   5.768   6.357   1.478
 7885SOL    HW224555   5.704   6.209   1.504
 7886SOL     OW24556   3.824   5.599   1.129
 7886SOL    HW124557   3.881   5.576   1.050
 7886SOL    HW224558   3.728   5.600   1.102
 7887SOL     OW24559   3.419   2.456   5.357
 7887SOL    HW124560   3.466   2.528   5.306
 7887SOL    HW224561   3.328   2.441   5.318
 7888SOL     OW24562   6.929   0.571   4.874
 7888SOL    HW124563   6.961   0.659   4.907
 7888SOL    HW224564   6.937   0.503   4.947
 7889SOL     OW24565   0.821   4.805   6.982
 7889SOL    HW124566   0.781   4.864   6.912
 7889SOL    HW224567   0.920   4.802   6.970
 7890SOL     OW24568   0.546   2.958   3.202
 7890SOL    HW124569   0.454   2.995   3.190
 7890SOL    HW224570   0.543   2.882   3.268
 7891SOL     OW24571   2.023   4.176   4.687
 7891SOL    HW124572   2.056   4.103   4.746
 7891SOL    HW224573   2.100   4.216   4.636
 7892SOL     OW24574   1.867   1.886   4.285
 7892SOL    HW124575   1.953   1.937   4.296
 7892SOL    HW224576   1.818   1.921   4.205
 7893SOL     OW24577   6.225   6.456   1.825
 7893SOL    HW124578   6.282   6.464   1.906
 7893SOL    HW224579   6.201   6.360   1.810
 7894SOL     OW24580   3.104   0.452   0.879
 7894SOL    HW124581   3.014   0.487   0.905
 7894SOL    HW224582   3.160   0.527   0.842
 7895SOL     OW24583   4.901   0.698   4.937
 7895SOL    HW124584   4.952   0.695   5.023
 7895SOL    HW224585   4.886   0.793   4.910
 7896SOL     OW24586   4.186   2.821   0.930
 7896SOL    HW124587   4.164   2.726   0.908
 7896SOL    HW224588   4.235   2.863   0.854
 7897SOL     OW24589   3.327   2.495   1.217
 7897SOL    HW124590   3.387   2.575   1.230
 7897SOL    HW224591   3.233   2.519   1.241
 7898SOL     OW24592   3.944   0.081   3.718
 7898SOL    HW124593   3.872   0.151   3.718
 7898SOL    HW224594   4.031   0.124   3.694
 7899SOL     OW24595   5.803   0.163   1.137
 7899SOL    HW124596   5.814   0.249   1.087
 7899SOL    HW224597   5.715   0.122   1.114
 7900SOL     OW24598   1.028   5.431   1.494
 7900SOL    HW124599   1.019   5.521   1.453
 7900SOL    HW224600   0.997   5.434   1.589
 7901SOL     OW24601   3.845   0.919   6.514
 7901SOL    HW124602   3.925   0.945   6.461
 7901SOL    HW224603   3.841   0.974   6.597
 7902SOL     OW24604   6.421   6.509   2.034
 7902SOL    HW124605   6.363   6.511   2.116
 7902SOL    HW224606   6.509   6.467   2.056
 7903SOL     OW24607   4.717   1.750   3.359
 7903SOL    HW124608   4.629   1.793   3.336
 7903SOL    HW224609   4.710   1.651   3.346
 7904SOL     OW24610   5.884   6.421   2.424
 7904SOL    HW124611   5.799   6.415   2.372
 7904SOL    HW224612   5.960   6.439   2.361
 7905SOL     OW24613   5.721   2.357   0.765
 7905SOL    HW124614   5.777   2.431   0.803
 7905SOL    HW224615   5.744   2.271   0.811
 7906SOL     OW24616   0.895   5.033   0.544
 7906SOL    HW124617   0.967   5.031   0.613
 7906SOL    HW224618   0.933   5.065   0.457
 7907SOL     OW24619   5.742   2.068   3.724
 7907SOL    HW124620   5.773   1.976   3.749
 7907SOL    HW224621   5.678   2.063   3.648
 7908SOL     OW24622   1.796   0.611   5.861
 7908SOL    HW124623   1.739   0.683   5.821
 7908SOL    HW224624   1.738   0.540   5.901
 7909SOL     OW24625   5.110   4.395   4.200
 7909SOL    HW124626   5.183   4.349   4.149
 7909SOL    HW224627   5.025   4.391   4.148
 7910SOL     OW24628   2.500   3.235   0.276
 7910SOL    HW124629   2.410   3.263   0.242
 7910SOL    HW224630   2.519   3.283   0.362
 7911SOL     OW24631   0.672   4.146   0.335
 7911SOL    HW124632   0.680   4.231   0.283
 7911SOL    HW224633   0.651   4.167   0.431
 7912SOL     OW24634   6.511   4.650   0.963
 7912SOL    HW124635   6.414   4.674   0.975
 7912SOL    HW224636   6.543   4.602   1.045
 7913SOL     OW24637   1.414   4.437   1.750
 7913SOL    HW124638   1.372   4.415   1.838
 7913SOL    HW224639   1.463   4.357   1.716
 7914SOL     OW24640   0.401   4.821   0.657
 7914SOL    HW124641   0.362   4.897   0.605
 7914SOL    HW224642   0.485   4.850   0.702
 7915SOL     OW24643   4.797   2.282   1.606
 7915SOL    HW124644   4.779   2.289   1.704
 7915SOL    HW224645   4.732   2.218   1.565
 7916SOL     OW24646   0.186   6.412   5.814
 7916SOL    HW124647   0.222   6.416   5.722
 7916SOL    HW224648   0.093   6.374   5.812
 7917SOL     OW24649   3.289   2.850   5.243
 7917SOL    HW124650   3.383   2.821   5.224
 7917SOL    HW224651   3.245   2.876   5.157
 7918SOL     OW24652   0.280   1.211   4.725
 7918SOL    HW124653   0.213   1.154   4.678
 7918SOL    HW224654   0.371   1.192   4.689
 7919SOL     OW24655   1.066   4.269   3.031
 7919SOL    HW124656   1.049   4.176   2.998
 7919SOL    HW224657   1.150   4.304   2.991
 7920SOL     OW24658   6.847   0.367   0.174
 7920SOL    HW124659   6.819   0.342   0.267
 7920SOL    HW224660   6.898   0.291   0.134
 7921SOL     OW24661   5.613   6.171   1.819
 7921SOL    HW124662   5.542   6.150   1.886
 7921SOL    HW224663   5.688   6.220   1.864
 7922SOL     OW24664   7.003   6.339   0.911
 7922SOL    HW124665   6.966   6.374   0.824
 7922SOL    HW224666   0.083   6.352   0.913
 7923SOL     OW24667   4.193   0.769   6.472
 7923SOL    HW124668   4.172   0.824   6.552
 7923SOL    HW224669   4.209   0.829   6.394
 7924SOL     OW24670   5.563   0.209   2.483
 7924SOL    HW124671   5.485   0.262   2.518
 7924SOL    HW224672   5.647   0.260   2.496
 7925SOL     OW24673   0.726   0.341   0.308
 7925SOL    HW124674   0.722   0.439   0.293
 7925SOL    HW224675   0.729   0.294   0.219
 7926SOL     OW24676   4.211   1.657   6.471
 7926SOL    HW124677   4.174   1.646   6.563
 7926SOL    HW224678   4.229   1.753   6.454
 7927SOL     OW24679   4.341   6.036   3.013
 7927SOL    HW124680   4.393   6.120   2.997
 7927SOL    HW224681   4.306   6.036   3.107
 7928SOL     OW24682   1.518   1.807   4.342
 7928SOL    HW124683   1.561   1.828   4.255
 7928SOL    HW224684   1.505   1.892   4.394
 7929SOL     OW24685   4.487   4.049   5.308
 7929SOL    HW124686   4.501   3.989   5.387
 7929SOL    HW224687   4.573   4.061   5.260
 7930SOL     OW24688   4.224   5.409   5.064
 7930SOL    HW124689   4.194   5.475   4.995
 7930SOL    HW224690   4.173   5.424   5.149
 7931SOL     OW24691   3.248   2.976   6.978
 7931SOL    HW124692   3.278   2.979   0.055
 7931SOL    HW224693   3.172   3.040   6.965
 7932SOL     OW24694   1.016   6.896   6.435
 7932SOL    HW124695   1.028   6.802   6.404
 7932SOL    HW224696   1.105   6.935   6.461
 7933SOL     OW24697   0.117   6.463   0.036
 7933SOL    HW124698   0.134   6.443   6.959
 7933SOL    HW224699   0.088   6.558   0.046
 7934SOL     OW24700   1.358   5.076   6.494
 7934SOL    HW124701   1.379   5.173   6.487
 7934SOL    HW224702   1.272   5.056   6.447
 7935SOL     OW24703   5.827   6.065   1.357
 7935SOL    HW124704   5.794   6.011   1.435
 7935SOL    HW224705   5.757   6.067   1.286
 7936SOL     OW24706   3.429   5.887   2.028
 7936SOL    HW124707   3.359   5.926   1.968
 7936SOL    HW224708   3.473   5.810   1.982
 7937SOL     OW24709   6.481   5.715   3.899
 7937SOL    HW124710   6.411   5.722   3.970
 7937SOL    HW224711   6.537   5.634   3.915
 7938SOL     OW24712   6.354   6.013   3.864
 7938SOL    HW124713   6.396   6.097   3.828
 7938SOL    HW224714   6.263   6.003   3.825
 7939SOL     OW24715   1.904   2.485   4.495
 7939SOL    HW124716   1.910   2.573   4.448
 7939SOL    HW224717   1.990   2.467   4.544
 7940SOL     OW24718   1.417   3.859   2.047
 7940SOL    HW124719   1.510   3.890   2.065
 7940SOL    HW224720   1.360   3.938   2.023
 7941SOL     OW24721   6.152   6.876   1.126
 7941SOL    HW124722   6.205   6.793   1.108
 7941SOL    HW224723   6.123   6.877   1.222
 7942SOL     OW24724   6.570   4.892   2.310
 7942SOL    HW124725   6.588   4.812   2.253
 7942SOL    HW224726   6.650   4.951   2.312
 7943SOL     OW24727   0.305   3.817   6.325
 7943SOL    HW124728   0.349   3.883   6.387
 7943SOL    HW224729   0.370   3.744   6.304
 7944SOL     OW24730   1.083   2.591   0.960
 7944SOL    HW124731   1.147   2.515   0.949
 7944SOL    HW224732   1.027   2.599   0.877
 7945SOL     OW24733   6.311   5.287   1.395
 7945SOL    HW124734   6.308   5.195   1.434
 7945SOL    HW224735   6.246   5.292   1.319
 7946SOL     OW24736   3.931   0.362   5.694
 7946SOL    HW124737   3.969   0.449   5.724
 7946SOL    HW224738   3.930   0.358   5.594
 7947SOL     OW24739   3.710   1.213   5.734
 7947SOL    HW124740   3.805   1.191   5.711
 7947SOL    HW224741   3.671   1.270   5.660
 7948SOL     OW24742   1.351   6.423   1.189
 7948SOL    HW124743   1.372   6.458   1.098
 7948SOL    HW224744   1.373   6.492   1.258
 7949SOL     OW24745   5.044   4.508   5.658
 7949SOL    HW124746   5.044   4.435   5.590
 7949SOL    HW224747   5.108   4.580   5.629
 7950SOL     OW24748   4.793   5.381   3.717
 7950SOL    HW124749   4.732   5.314   3.760
 7950SOL    HW224750   4.775   5.472   3.754
 7951SOL     OW24751   2.058   4.601   2.265
 7951SOL    HW124752   2.033   4.506   2.246
 7951SOL    HW224753   1.989   4.643   2.323
 7952SOL     OW24754   6.953   3.535   6.264
 7952SOL    HW124755   0.002   3.509   6.196
 7952SOL    HW224756   6.866   3.491   6.243
 7953SOL     OW24757   3.162   2.075   3.281
 7953SOL    HW124758   3.144   2.094   3.184
 7953SOL    HW224759   3.245   2.123   3.309
 7954SOL     OW24760   3.296   4.216   5.974
 7954SOL    HW124761   3.338   4.277   5.907
 7954SOL    HW224762   3.219   4.263   6.017
 7955SOL     OW24763   2.856   1.068   6.670
 7955SOL    HW124764   2.771   1.079   6.722
 7955SOL    HW224765   2.894   0.977   6.688
 7956SOL     OW24766   4.525   6.207   2.003
 7956SOL    HW124767   4.568   6.133   1.951
 7956SOL    HW224768   4.426   6.189   2.010
 7957SOL     OW24769   0.981   0.555   1.241
 7957SOL    HW124770   1.023   0.644   1.220
 7957SOL    HW224771   0.949   0.555   1.336
 7958SOL     OW24772   3.932   4.826   5.479
 7958SOL    HW124773   3.894   4.744   5.523
 7958SOL    HW224774   3.864   4.863   5.415
 7959SOL     OW24775   4.867   5.602   0.464
 7959SOL    HW124776   4.930   5.553   0.403
 7959SOL    HW224777   4.779   5.554   0.467
 7960SOL     OW24778   2.221   1.691   6.001
 7960SOL    HW124779   2.237   1.716   5.906
 7960SOL    HW224780   2.128   1.719   6.028
 7961SOL     OW24781   6.901   1.567   0.934
 7961SOL    HW124782   6.835   1.622   0.882
 7961SOL    HW224783   6.853   1.513   1.003
 7962SOL     OW24784   1.612   0.397   5.912
 7962SOL    HW124785   1.594   0.341   5.830
 7962SOL    HW224786   1.541   0.379   5.980
 7963SOL     OW24787   6.474   6.628   4.408
 7963SOL    HW124788   6.489   6.725   4.424
 7963SOL    HW224789   6.389   6.600   4.452
 7964SOL     OW24790   6.775   4.223   2.580
 7964SOL    HW124791   6.720   4.184   2.655
 7964SOL    HW224792   6.835   4.294   2.617
 7965SOL     OW24793   3.857   2.723   5.832
 7965SOL    HW124794   3.862   2.626   5.811
 7965SOL    HW224795   3.773   2.743   5.882
 7966SOL     OW24796   2.318   2.801   5.866
 7966SOL    HW124797   2.240   2.742   5.888
 7966SOL    HW224798   2.285   2.891   5.840
 7967SOL     OW24799   3.692   6.501   2.427
 7967SOL    HW124800   3.680   6.593   2.389
 7967SOL    HW224801   3.688   6.433   2.354
 7968SOL     OW24802   1.211   2.695   3.954
 7968SOL    HW124803   1.246   2.734   4.039
 7968SOL    HW224804   1.216   2.595   3.959
 7969SOL     OW24805   4.385   5.753   0.763
 7969SOL    HW124806   4.321   5.706   0.824
 7969SOL    HW224807   4.447   5.809   0.817
 7970SOL     OW24808   6.551   2.749   2.696
 7970SOL    HW124809   6.622   2.684   2.723
 7970SOL    HW224810   6.572   2.786   2.606
 7971SOL     OW24811   3.210   2.118   0.899
 7971SOL    HW124812   3.275   2.174   0.950
 7971SOL    HW224813   3.119   2.159   0.906
 7972SOL     OW24814   2.072   3.229   0.280
 7972SOL    HW124815   2.052   3.306   0.339
 7972SOL    HW224816   2.003   3.223   0.207
 7973SOL     OW24817   4.324   4.702   4.530
 7973SOL    HW124818   4.419   4.672   4.522
 7973SOL    HW224819   4.295   4.699   4.625
 7974SOL     OW24820   5.715   0.733   5.257
 7974SOL    HW124821   5.724   0.828   5.288
 7974SOL    HW224822   5.620   0.717   5.229
 7975SOL     OW24823   6.231   1.493   2.080
 7975SOL    HW124824   6.141   1.485   2.123
 7975SOL    HW224825   6.222   1.540   1.993
 7976SOL     OW24826   0.406   0.494   6.486
 7976SOL    HW124827   0.321   0.448   6.463
 7976SOL    HW224828   0.464   0.434   6.540
 7977SOL     OW24829   4.975   5.699   2.546
 7977SOL    HW124830   4.934   5.712   2.636
 7977SOL    HW224831   4.939   5.769   2.483
 7978SOL     OW24832   5.945   3.042   6.318
 7978SOL    HW124833   5.857   3.029   6.273
 7978SOL    HW224834   5.955   3.138   6.345
 7979SOL     OW24835   4.146   6.111   5.554
 7979SOL    HW124836   4.221   6.168   5.520
 7979SOL    HW224837   4.073   6.170   5.591
 7980SOL     OW24838   3.079   5.680   0.006
 7980SOL    HW124839   3.129   5.766   0.013
 7980SOL    HW224840   3.138   5.610   6.986
 7981SOL     OW24841   0.560   4.979   2.102
 7981SOL    HW124842   0.627   5.046   2.071
 7981SOL    HW224843   0.606   4.908   2.155
 7982SOL     OW24844   1.741   1.219   6.794
 7982SOL    HW124845   1.643   1.220   6.810
 7982SOL    HW224846   1.781   1.135   6.831
 7983SOL     OW24847   6.510   2.015   1.915
 7983SOL    HW124848   6.490   1.922   1.882
 7983SOL    HW224849   6.606   2.037   1.895
 7984SOL     OW24850   1.022   1.199   0.941
 7984SOL    HW124851   1.085   1.168   1.011
 7984SOL    HW224852   0.932   1.159   0.957
 7985SOL     OW24853   3.348   0.873   4.597
 7985SOL    HW124854   3.287   0.803   4.635
 7985SOL    HW224855   3.386   0.839   4.510
 7986SOL     OW24856   3.174   1.281   6.414
 7986SOL    HW124857   3.102   1.228   6.368
 7986SOL    HW224858   3.211   1.349   6.350
 7987SOL     OW24859   1.753   2.365   0.053
 7987SOL    HW124860   1.773   2.334   0.146
 7987SOL    HW224861   1.654   2.368   0.039
 7988SOL     OW24862   0.409   2.138   3.457
 7988SOL    HW124863   0.338   2.200   3.490
 7988SOL    HW224864   0.367   2.062   3.406
 7989SOL     OW24865   2.945   3.197   6.679
 7989SOL    HW124866   3.043   3.204   6.701
 7989SOL    HW224867   2.928   3.244   6.592
 7990SOL     OW24868   0.872   4.538   4.443
 7990SOL    HW124869   0.826   4.504   4.525
 7990SOL    HW224870   0.928   4.465   4.403
 7991SOL     OW24871   5.403   6.891   3.682
 7991SOL    HW124872   5.401   6.991   3.675
 7991SOL    HW224873   5.446   6.853   3.600
 7992SOL     OW24874   0.625   6.927   0.806
 7992SOL    HW124875   0.544   6.980   0.780
 7992SOL    HW224876   0.707   6.975   0.775
 7993SOL     OW24877   0.412   0.339   0.531
 7993SOL    HW124878   0.367   0.313   0.616
 7993SOL    HW224879   0.368   0.420   0.492
 7994SOL     OW24880   4.041   6.794   3.357
 7994SOL    HW124881   4.139   6.782   3.376
 7994SOL    HW224882   4.030   6.850   3.275
 7995SOL     OW24883   5.568   6.073   3.979
 7995SOL    HW124884   5.581   6.170   3.957
 7995SOL    HW224885   5.584   6.018   3.898
 7996SOL     OW24886   2.865   6.947   4.902
 7996SOL    HW124887   2.768   6.944   4.922
 7996SOL    HW224888   2.917   6.957   4.987
 7997SOL     OW24889   0.475   1.707   1.340
 7997SOL    HW124890   0.389   1.757   1.355
 7997SOL    HW224891   0.513   1.679   1.428
 7998SOL     OW24892   2.817   6.918   0.445
 7998SOL    HW124893   2.837   6.983   0.518
 7998SOL    HW224894   2.881   6.931   0.369
 7999SOL     OW24895   0.747   0.702   6.066
 7999SOL    HW124896   0.754   0.728   6.162
 7999SOL    HW224897   0.669   0.749   6.023
 8000SOL     OW24898   4.795   0.402   0.318
 8000SOL    HW124899   4.842   0.420   0.232
 8000SOL    HW224900   4.862   0.375   0.388
 8001SOL     OW24901   4.477   6.419   1.451
 8001SOL    HW124902   4.513   6.373   1.532
 8001SOL    HW224903   4.476   6.356   1.374
 8002SOL     OW24904   1.728   0.892   6.043
 8002SOL    HW124905   1.794   0.953   6.087
 8002SOL    HW224906   1.669   0.944   5.982
 8003SOL     OW24907   2.908   5.021   2.078
 8003SOL    HW124908   2.849   4.968   2.138
 8003SOL    HW224909   2.989   4.967   2.054
 8004SOL     OW24910   2.152   3.041   2.390
 8004SOL    HW124911   2.232   2.996   2.349
 8004SOL    HW224912   2.180   3.087   2.474
 8005SOL     OW24913   2.810   1.123   2.483
 8005SOL    HW124914   2.739   1.186   2.454
 8005SOL    HW224915   2.888   1.130   2.420
 8006SOL     OW24916   2.214   6.604   5.801
 8006SOL    HW124917   2.133   6.606   5.859
 8006SOL    HW224918   2.271   6.525   5.824
 8007SOL     OW24919   6.292   0.753   4.702
 8007SOL    HW124920   6.385   0.732   4.732
 8007SOL    HW224921   6.296   0.793   4.610
 8008SOL     OW24922   4.549   5.646   6.434
 8008SOL    HW124923   4.453   5.628   6.456
 8008SOL    HW224924   4.600   5.561   6.436
 8009SOL     OW24925   5.647   0.401   1.546
 8009SOL    HW124926   5.733   0.349   1.550
 8009SOL    HW224927   5.662   0.492   1.586
 8010SOL     OW24928   1.758   1.574   5.698
 8010SOL    HW124929   1.796   1.652   5.649
 8010SOL    HW224930   1.682   1.534   5.646
 8011SOL     OW24931   3.201   2.629   0.629
 8011SOL    HW124932   3.191   2.604   0.532
 8011SOL    HW224933   3.120   2.600   0.679
 8012SOL     OW24934   1.901   3.961   0.461
 8012SOL    HW124935   1.948   4.046   0.487
 8012SOL    HW224936   1.828   3.942   0.526
 8013SOL     OW24937   1.515   4.939   3.459
 8013SOL    HW124938   1.581   4.901   3.395
 8013SOL    HW224939   1.423   4.907   3.436
 8014SOL     OW24940   1.349   6.370   5.075
 8014SOL    HW124941   1.293   6.291   5.049
 8014SOL    HW224942   1.289   6.447   5.097
 8015SOL     OW24943   3.299   0.518   6.406
 8015SOL    HW124944   3.243   0.482   6.332
 8015SOL    HW224945   3.363   0.586   6.370
 8016SOL     OW24946   5.117   0.418   5.698
 8016SOL    HW124947   5.150   0.465   5.616
 8016SOL    HW224948   5.020   0.396   5.688
 8017SOL     OW24949   5.886   0.177   0.491
 8017SOL    HW124950   5.883   0.104   0.559
 8017SOL    HW224951   5.963   0.162   0.429
 8018SOL     OW24952   3.126   2.191   6.532
 8018SOL    HW124953   3.088   2.280   6.511
 8018SOL    HW224954   3.101   2.165   6.626
 8019SOL     OW24955   2.148   4.797   0.013
 8019SOL    HW124956   2.061   4.845   0.004
 8019SOL    HW224957   2.146   4.740   0.096
 8020SOL     OW24958   6.067   0.438   0.320
 8020SOL    HW124959   6.082   0.369   0.249
 8020SOL    HW224960   6.123   0.415   0.400
 8021SOL     OW24961   1.597   3.191   1.208
 8021SOL    HW124962   1.683   3.153   1.241
 8021SOL    HW224963   1.536   3.206   1.286
 8022SOL     OW24964   6.025   6.878   2.880
 8022SOL    HW124965   6.051   6.965   2.921
 8022SOL    HW224966   5.959   6.895   2.806
 8023SOL     OW24967   5.728   5.046   2.893
 8023SOL    HW124968   5.813   5.085   2.856
 8023SOL    HW224969   5.702   5.096   2.975
 8024SOL     OW24970   1.570   4.412   6.009
 8024SOL    HW124971   1.508   4.418   5.930
 8024SOL    HW224972   1.563   4.496   6.062
 8025SOL     OW24973   2.166   5.928   6.637
 8025SOL    HW124974   2.166   5.828   6.646
 8025SOL    HW224975   2.165   5.969   6.728
 8026SOL     OW24976   6.973   4.049   0.252
 8026SOL    HW124977   0.003   3.966   0.228
 8026SOL    HW224978   6.924   4.083   0.171
 8027SOL     OW24979   4.734   0.506   4.839
 8027SOL    HW124980   4.814   0.557   4.868
 8027SOL    HW224981   4.653   0.539   4.888
 8028SOL     OW24982   4.084   5.921   5.743
 8028SOL    HW124983   3.995   5.928   5.700
 8028SOL    HW224984   4.156   5.940   5.676
 8029SOL     OW24985   4.648   2.928   0.785
 8029SOL    HW124986   4.740   2.960   0.808
 8029SOL    HW224987   4.654   2.854   0.719
 8030SOL     OW24988   3.873   4.722   0.609
 8030SOL    HW124989   3.826   4.786   0.669
 8030SOL    HW224990   3.869   4.630   0.647
 8031SOL     OW24991   6.604   6.295   2.727
 8031SOL    HW124992   6.691   6.342   2.710
 8031SOL    HW224993   6.535   6.362   2.754
 8032SOL     OW24994   6.051   4.248   1.201
 8032SOL    HW124995   6.078   4.272   1.294
 8032SOL    HW224996   6.022   4.152   1.199
 8033SOL     OW24997   5.378   1.698   6.027
 8033SOL    HW124998   5.390   1.614   5.974
 8033SOL    HW224999   5.466   1.730   6.060
 8034SOL     OW25000   5.090   0.347   4.336
 8034SOL    HW125001   5.108   0.430   4.388
 8034SOL    HW225002   5.127   0.268   4.385
 8035SOL     OW25003   5.006   1.771   4.530
 8035SOL    HW125004   4.923   1.825   4.539
 8035SOL    HW225005   5.046   1.785   4.439
 8036SOL     OW25006   6.931   3.932   3.544
 8036SOL    HW125007   6.921   4.031   3.534
 8036SOL    HW225008   6.846   3.893   3.578
 8037SOL     OW25009   1.562   3.394   0.397
 8037SOL    HW125010   1.628   3.469   0.409
 8037SOL    HW225011   1.583   3.320   0.461
 8038SOL     OW25012   4.558   6.872   2.179
 8038SOL    HW125013   4.637   6.914   2.134
 8038SOL    HW225014   4.477   6.882   2.122
 8039SOL     OW25015   1.040   1.760   5.174
 8039SOL    HW125016   0.993   1.815   5.243
 8039SOL    HW225017   0.999   1.777   5.084
 8040SOL     OW25018   1.345   5.584   0.243
 8040SOL    HW125019   1.427   5.562   0.190
 8040SOL    HW225020   1.271   5.523   0.217
 8041SOL     OW25021   2.952   1.515   2.935
 8041SOL    HW125022   2.958   1.603   2.888
 8041SOL    HW225023   2.874   1.515   2.996
 8042SOL     OW25024   3.204   3.091   4.077
 8042SOL    HW125025   3.148   3.141   4.011
 8042SOL    HW225026   3.150   3.074   4.160
 8043SOL     OW25027   3.680   6.542   1.218
 8043SOL    HW125028   3.640   6.557   1.128
 8043SOL    HW225029   3.761   6.599   1.229
 8044SOL     OW25030   4.044   2.152   1.353
 8044SOL    HW125031   4.130   2.100   1.351
 8044SOL    HW225032   4.022   2.183   1.261
 8045SOL     OW25033   5.625   2.103   3.456
 8045SOL    HW125034   5.560   2.027   3.453
 8045SOL    HW225035   5.586   2.184   3.413
 8046SOL     OW25036   0.471   4.705   1.512
 8046SOL    HW125037   0.378   4.718   1.477
 8046SOL    HW225038   0.531   4.680   1.437
 8047SOL     OW25039   4.394   5.821   5.464
 8047SOL    HW125040   4.392   5.751   5.535
 8047SOL    HW225041   4.301   5.847   5.440
 8048SOL     OW25042   5.099   1.505   5.781
 8048SOL    HW125043   5.006   1.493   5.746
 8048SOL    HW225044   5.106   1.593   5.827
 8049SOL     OW25045   0.290   0.531   0.372
 8049SOL    HW125046   0.294   0.624   0.409
 8049SOL    HW225047   0.198   0.513   0.336
 8050SOL     OW25048   1.836   3.236   3.704
 8050SOL    HW125049   1.834   3.139   3.678
 8050SOL    HW225050   1.921   3.256   3.752
 8051SOL     OW25051   4.435   5.718   3.871
 8051SOL    HW125052   4.392   5.694   3.957
 8051SOL    HW225053   4.364   5.741   3.803
 8052SOL     OW25054   3.689   1.270   0.992
 8052SOL    HW125055   3.590   1.261   1.006
 8052SOL    HW225056   3.720   1.198   0.929
 8053SOL     OW25057   2.926   3.329   3.942
 8053SOL    HW125058   2.907   3.340   4.040
 8053SOL    HW225059   2.893   3.409   3.893
 8054SOL     OW25060   6.352   5.160   5.074
 8054SOL    HW125061   6.371   5.168   5.172
 8054SOL    HW225062   6.256   5.183   5.057
 8055SOL     OW25063   0.536   0.420   5.369
 8055SOL    HW125064   0.592   0.362   5.429
 8055SOL    HW225065   0.519   0.372   5.283
 8056SOL     OW25066   2.197   1.052   3.532
 8056SOL    HW125067   2.291   1.027   3.506
 8056SOL    HW225068   2.138   0.972   3.520
 8057SOL     OW25069   3.178   1.920   2.773
 8057SOL    HW125070   3.273   1.928   2.743
 8057SOL    HW225071   3.126   1.999   2.740
 8058SOL     OW25072   3.744   6.995   3.233
 8058SOL    HW125073   3.674   6.942   3.185
 8058SOL    HW225074   3.748   6.966   3.329
 8059SOL     OW25075   2.826   1.872   5.042
 8059SOL    HW125076   2.855   1.861   5.137
 8059SOL    HW225077   2.871   1.951   5.002
 8060SOL     OW25078   6.474   1.997   5.702
 8060SOL    HW125079   6.419   1.932   5.650
 8060SOL    HW225080   6.417   2.041   5.771
 8061SOL     OW25081   0.126   0.824   2.963
 8061SOL    HW125082   0.190   0.894   2.995
 8061SOL    HW225083   0.041   0.868   2.932
 8062SOL     OW25084   3.570   4.979   4.321
 8062SOL    HW125085   3.594   4.967   4.225
 8062SOL    HW225086   3.471   4.968   4.332
 8063SOL     OW25087   2.037   2.076   1.950
 8063SOL    HW125088   1.971   2.152   1.952
 8063SOL    HW225089   2.064   2.054   2.044
 8064SOL     OW25090   6.399   3.317   1.758
 8064SOL    HW125091   6.434   3.400   1.800
 8064SOL    HW225092   6.386   3.247   1.828
 8065SOL     OW25093   2.306   5.543   4.239
 8065SOL    HW125094   2.216   5.552   4.197
 8065SOL    HW225095   2.350   5.459   4.206
 8066SOL     OW25096   0.933   1.553   5.418
 8066SOL    HW125097   0.916   1.459   5.448
 8066SOL    HW225098   1.017   1.555   5.364
 8067SOL     OW25099   5.077   2.683   2.380
 8067SOL    HW125100   5.065   2.778   2.406
 8067SOL    HW225101   5.146   2.676   2.308
 8068SOL     OW25102   6.815   4.153   1.610
 8068SOL    HW125103   6.742   4.086   1.623
 8068SOL    HW225104   6.885   4.115   1.550
 8069SOL     OW25105   2.940   5.889   0.983
 8069SOL    HW125106   2.928   5.828   0.904
 8069SOL    HW225107   2.850   5.921   1.014
 8070SOL     OW25108   4.135   3.553   0.766
 8070SOL    HW125109   4.228   3.587   0.779
 8070SOL    HW225110   4.128   3.504   0.680
 8071SOL     OW25111   3.366   6.315   4.451
 8071SOL    HW125112   3.459   6.338   4.421
 8071SOL    HW225113   3.337   6.379   4.521
 8072SOL     OW25114   3.736   1.789   1.032
 8072SOL    HW125115   3.719   1.700   0.989
 8072SOL    HW225116   3.740   1.860   0.961
 8073SOL     OW25117   2.954   5.348   5.039
 8073SOL    HW125118   2.982   5.366   4.944
 8073SOL    HW225119   2.965   5.251   5.059
 8074SOL     OW25120   3.355   2.715   0.337
 8074SOL    HW125121   3.433   2.677   0.287
 8074SOL    HW225122   3.385   2.744   0.428
 8075SOL     OW25123   0.110   0.324   0.545
 8075SOL    HW125124   0.158   0.396   0.595
 8075SOL    HW225125   0.013   0.347   0.538
 8076SOL     OW25126   6.337   1.016   5.278
 8076SOL    HW125127   6.412   0.977   5.225
 8076SOL    HW225128   6.273   1.063   5.216
 8077SOL     OW25129   3.049   6.303   2.565
 8077SOL    HW125130   3.138   6.262   2.582
 8077SOL    HW225131   3.052   6.356   2.480
 8078SOL     OW25132   6.983   1.956   0.701
 8078SOL    HW125133   6.897   1.983   0.745
 8078SOL    HW225134   0.040   1.972   0.763
 8079SOL     OW25135   5.844   1.826   3.829
 8079SOL    HW125136   5.864   1.891   3.902
 8079SOL    HW225137   5.825   1.736   3.868
 8080SOL     OW25138   1.370   2.650   1.293
 8080SOL    HW125139   1.432   2.725   1.316
 8080SOL    HW225140   1.276   2.680   1.303
 8081SOL     OW25141   6.318   5.641   5.810
 8081SOL    HW125142   6.389   5.609   5.746
 8081SOL    HW225143   6.362   5.672   5.894
 8082SOL     OW25144   4.560   6.875   2.826
 8082SOL    HW125145   4.634   6.942   2.830
 8082SOL    HW225146   4.590   6.790   2.869
 8083SOL     OW25147   4.909   2.584   3.165
 8083SOL    HW125148   4.904   2.656   3.096
 8083SOL    HW225149   4.840   2.514   3.145
 8084SOL     OW25150   3.983   6.238   6.976
 8084SOL    HW125151   3.975   6.161   6.913
 8084SOL    HW225152   3.895   6.286   6.982
 8085SOL     OW25153   6.884   6.270   2.255
 8085SOL    HW125154   6.924   6.186   2.219
 8085SOL    HW225155   6.801   6.249   2.306
 8086SOL     OW25156   5.624   0.293   2.806
 8086SOL    HW125157   5.591   0.201   2.783
 8086SOL    HW225158   5.667   0.334   2.725
 8087SOL     OW25159   2.514   0.963   0.094
 8087SOL    HW125160   2.443   1.000   0.033
 8087SOL    HW225161   2.563   1.038   0.138
 8088SOL     OW25162   5.839   1.755   1.552
 8088SOL    HW125163   5.918   1.811   1.575
 8088SOL    HW225164   5.755   1.809   1.561
 8089SOL     OW25165   5.841   2.945   0.727
 8089SOL    HW125166   5.907   2.888   0.776
 8089SOL    HW225167   5.862   2.945   0.629
 8090SOL     OW25168   4.362   2.253   0.043
 8090SOL    HW125169   4.383   2.292   6.972
 8090SOL    HW225170   4.387   2.319   0.114
 8091SOL     OW25171   2.147   3.547   5.061
 8091SOL    HW125172   2.200   3.478   5.110
 8091SOL    HW225173   2.143   3.631   5.115
 8092SOL     OW25174   5.583   2.172   5.099
 8092SOL    HW125175   5.580   2.144   5.003
 8092SOL    HW225176   5.523   2.112   5.153
 8093SOL     OW25177   3.929   5.202   2.796
 8093SOL    HW125178   3.944   5.289   2.750
 8093SOL    HW225179   4.006   5.183   2.858
 8094SOL     OW25180   0.811   3.248   4.760
 8094SOL    HW125181   0.888   3.248   4.823
 8094SOL    HW225182   0.833   3.193   4.680
 8095SOL     OW25183   0.708   4.785   4.001
 8095SOL    HW125184   0.779   4.854   4.013
 8095SOL    HW225185   0.619   4.824   4.024
 8096SOL     OW25186   2.009   6.570   3.550
 8096SOL    HW125187   2.006   6.653   3.494
 8096SOL    HW225188   1.925   6.563   3.603
 8097SOL     OW25189   3.890   0.198   4.056
 8097SOL    HW125190   3.818   0.136   4.023
 8097SOL    HW225191   3.965   0.200   3.990
 8098SOL     OW25192   1.554   6.663   3.384
 8098SOL    HW125193   1.471   6.616   3.355
 8098SOL    HW225194   1.536   6.714   3.469
 8099SOL     OW25195   3.800   6.494   4.783
 8099SOL    HW125196   3.712   6.541   4.771
 8099SOL    HW225197   3.820   6.486   4.880
 8100SOL     OW25198   6.642   1.123   0.998
 8100SOL    HW125199   6.684   1.210   1.022
 8100SOL    HW225200   6.699   1.048   1.031
 8101SOL     OW25201   1.921   6.284   2.416
 8101SOL    HW125202   1.901   6.380   2.432
 8101SOL    HW225203   1.899   6.261   2.321
 8102SOL     OW25204   1.424   4.324   3.672
 8102SOL    HW125205   1.361   4.384   3.721
 8102SOL    HW225206   1.518   4.340   3.705
 8103SOL     OW25207   2.609   6.729   1.456
 8103SOL    HW125208   2.637   6.815   1.413
 8103SOL    HW225209   2.544   6.681   1.397
 8104SOL     OW25210   2.912   0.685   6.436
 8104SOL    HW125211   2.820   0.701   6.401
 8104SOL    HW225212   2.973   0.758   6.405
 8105SOL     OW25213   0.898   2.847   3.466
 8105SOL    HW125214   0.956   2.925   3.442
 8105SOL    HW225215   0.821   2.842   3.402
 8106SOL     OW25216   2.401   5.800   2.880
 8106SOL    HW125217   2.486   5.831   2.836
 8106SOL    HW225218   2.356   5.734   2.820
 8107SOL     OW25219   0.903   4.840   4.392
 8107SOL    HW125220   0.897   4.741   4.378
 8107SOL    HW225221   0.851   4.865   4.474
 8108SOL     OW25222   6.014   2.994   5.712
 8108SOL    HW125223   6.104   2.983   5.755
 8108SOL    HW225224   6.025   3.005   5.614
 8109SOL     OW25225   0.775   3.863   4.598
 8109SOL    HW125226   0.861   3.815   4.582
 8109SOL    HW225227   0.750   3.856   4.695
 8110SOL     OW25228   3.197   5.923   0.868
 8110SOL    HW125229   3.195   5.877   0.779
 8110SOL    HW225230   3.104   5.939   0.900
 8111SOL     OW25231   5.174   0.826   5.000
 8111SOL    HW125232   5.169   0.751   5.066
 8111SOL    HW225233   5.258   0.817   4.946
 8112SOL     OW25234   2.424   2.310   4.013
 8112SOL    HW125235   2.477   2.245   4.067
 8112SOL    HW225236   2.481   2.389   3.989
 8113SOL     OW25237   1.950   3.708   0.393
 8113SOL    HW125238   1.856   3.679   0.413
 8113SOL    HW225239   1.961   3.804   0.417
 8114SOL     OW25240   1.388   3.796   2.988
 8114SOL    HW125241   1.444   3.813   2.907
 8114SOL    HW225242   1.429   3.723   3.042
 8115SOL     OW25243   3.793   0.547   0.589
 8115SOL    HW125244   3.783   0.460   0.539
 8115SOL    HW225245   3.707   0.569   0.634
 8116SOL     OW25246   4.532   5.166   6.103
 8116SOL    HW125247   4.520   5.075   6.064
 8116SOL    HW225248   4.466   5.179   6.178
 8117SOL     OW25249   1.613   0.005   3.238
 8117SOL    HW125250   1.539   0.072   3.246
 8117SOL    HW225251   1.634   6.986   3.328
 8118SOL     OW25252   5.511   4.646   5.996
 8118SOL    HW125253   5.565   4.588   5.935
 8118SOL    HW225254   5.420   4.659   5.959
 8119SOL     OW25255   4.942   5.205   6.436
 8119SOL    HW125256   4.850   5.176   6.408
 8119SOL    HW225257   4.999   5.124   6.448
 8120SOL     OW25258   3.117   5.321   0.537
 8120SOL    HW125259   3.205   5.302   0.581
 8120SOL    HW225260   3.075   5.402   0.579
 8121SOL     OW25261   0.358   5.349   1.868
 8121SOL    HW125262   0.399   5.365   1.778
 8121SOL    HW225263   0.273   5.298   1.858
 8122SOL     OW25264   0.743   5.457   3.149
 8122SOL    HW125265   0.655   5.471   3.195
 8122SOL    HW225266   0.742   5.506   3.061
 8123SOL     OW25267   6.695   0.857   6.227
 8123SOL    HW125268   6.642   0.910   6.293
 8123SOL    HW225269   6.792   0.858   6.252
 8124SOL     OW25270   5.999   6.539   1.114
 8124SOL    HW125271   5.940   6.459   1.119
 8124SOL    HW225272   6.013   6.564   1.018
 8125SOL     OW25273   1.669   1.219   3.379
 8125SOL    HW125274   1.685   1.121   3.391
 8125SOL    HW225275   1.629   1.236   3.289
 8126SOL     OW25276   4.907   4.670   2.593
 8126SOL    HW125277   4.954   4.584   2.615
 8126SOL    HW225278   4.942   4.706   2.507
 8127SOL     OW25279   2.455   4.522   6.572
 8127SOL    HW125280   2.356   4.536   6.581
 8127SOL    HW225281   2.478   4.430   6.603
 8128SOL     OW25282   2.509   1.216   1.454
 8128SOL    HW125283   2.524   1.306   1.494
 8128SOL    HW225284   2.525   1.146   1.525
 8129SOL     OW25285   4.307   0.925   6.239
 8129SOL    HW125286   4.276   0.922   6.144
 8129SOL    HW225287   4.346   1.014   6.259
 8130SOL     OW25288   0.037   3.316   6.059
 8130SOL    HW125289   0.114   3.345   6.116
 8130SOL    HW225290   7.005   3.244   6.105
 8131SOL     OW25291   3.289   2.026   0.648
 8131SOL    HW125292   3.215   2.059   0.589
 8131SOL    HW225293   3.277   2.064   0.739
 8132SOL     OW25294   5.933   6.666   6.130
 8132SOL    HW125295   5.975   6.602   6.065
 8132SOL    HW225296   5.938   6.759   6.093
 8133SOL     OW25297   3.179   4.851   1.348
 8133SOL    HW125298   3.261   4.909   1.359
 8133SOL    HW225299   3.151   4.852   1.252
 8134SOL     OW25300   6.609   2.717   5.638
 8134SOL    HW125301   6.553   2.711   5.556
 8134SOL    HW225302   6.601   2.631   5.690
 8135SOL     OW25303   2.873   6.264   1.560
 8135SOL    HW125304   2.912   6.296   1.474
 8135SOL    HW225305   2.897   6.327   1.634
 8136SOL     OW25306   4.591   5.270   3.218
 8136SOL    HW125307   4.497   5.271   3.251
 8136SOL    HW225308   4.649   5.323   3.281
 8137SOL     OW25309   2.918   1.988   5.413
 8137SOL    HW125310   2.959   2.063   5.363
 8137SOL    HW225311   2.953   1.986   5.506
 8138SOL     OW25312   5.902   1.444   6.846
 8138SOL    HW125313   5.986   1.424   6.795
 8138SOL    HW225314   5.887   1.543   6.847
 8139SOL     OW25315   6.902   1.341   2.688
 8139SOL    HW125316   6.891   1.431   2.732
 8139SOL    HW225317   6.829   1.280   2.720
 8140SOL     OW25318   4.832   0.636   1.151
 8140SOL    HW125319   4.887   0.673   1.076
 8140SOL    HW225320   4.807   0.709   1.214
 8141SOL     OW25321   4.913   6.538   4.952
 8141SOL    HW125322   4.989   6.590   4.913
 8141SOL    HW225323   4.940   6.443   4.963
 8142SOL     OW25324   1.126   5.217   6.890
 8142SOL    HW125325   1.071   5.200   6.972
 8142SOL    HW225326   1.193   5.289   6.910
 8143SOL     OW25327   6.458   4.209   1.352
 8143SOL    HW125328   6.535   4.270   1.367
 8143SOL    HW225329   6.485   4.115   1.374
 8144SOL     OW25330   6.475   6.550   6.446
 8144SOL    HW125331   6.509   6.638   6.412
 8144SOL    HW225332   6.454   6.490   6.369
 8145SOL     OW25333   5.611   5.803   1.291
 8145SOL    HW125334   5.565   5.831   1.375
 8145SOL    HW225335   5.595   5.705   1.275
 8146SOL     OW25336   5.119   0.687   4.730
 8146SOL    HW125337   5.048   0.715   4.666
 8146SOL    HW225338   5.081   0.678   4.822
 8147SOL     OW25339   6.335   1.592   1.355
 8147SOL    HW125340   6.263   1.633   1.410
 8147SOL    HW225341   6.393   1.665   1.317
 8148SOL     OW25342   5.026   4.170   0.702
 8148SOL    HW125343   4.929   4.164   0.681
 8148SOL    HW225344   5.042   4.243   0.768
 8149SOL     OW25345   3.081   6.409   2.320
 8149SOL    HW125346   3.104   6.332   2.260
 8149SOL    HW225347   3.103   6.495   2.273
 8150SOL     OW25348   1.999   4.218   1.206
 8150SOL    HW125349   2.058   4.140   1.226
 8150SOL    HW225350   1.956   4.206   1.117
 8151SOL     OW25351   5.686   2.977   1.637
 8151SOL    HW125352   5.644   2.992   1.726
 8151SOL    HW225353   5.614   2.966   1.567
 8152SOL     OW25354   6.669   2.125   2.456
 8152SOL    HW125355   6.592   2.075   2.416
 8152SOL    HW225356   6.715   2.067   2.524
 8153SOL     OW25357   1.972   6.644   3.983
 8153SOL    HW125358   1.959   6.718   3.917
 8153SOL    HW225359   2.069   6.636   4.006
 8154SOL     OW25360   3.465   5.278   1.985
 8154SOL    HW125361   3.550   5.244   1.946
 8154SOL    HW225362   3.417   5.203   2.031
 8155SOL     OW25363   1.661   3.967   2.082
 8155SOL    HW125364   1.711   4.048   2.053
 8155SOL    HW225365   1.726   3.895   2.107
 8156SOL     OW25366   5.600   0.024   0.818
 8156SOL    HW125367   5.631   0.005   0.911
 8156SOL    HW225368   5.547   0.108   0.817
 8157SOL     OW25369   6.711   5.357   6.514
 8157SOL    HW125370   6.686   5.450   6.540
 8157SOL    HW225371   6.803   5.356   6.475
 8158SOL     OW25372   4.617   5.368   0.657
 8158SOL    HW125373   4.702   5.318   0.678
 8158SOL    HW225374   4.557   5.366   0.737
 8159SOL     OW25375   2.907   5.864   2.629
 8159SOL    HW125376   2.850   5.808   2.569
 8159SOL    HW225377   2.871   5.863   2.722
 8160SOL     OW25378   5.327   0.675   3.815
 8160SOL    HW125379   5.339   0.607   3.888
 8160SOL    HW225380   5.252   0.737   3.840
 8161SOL     OW25381   5.869   1.935   6.248
 8161SOL    HW125382   5.879   1.839   6.276
 8161SOL    HW225383   5.888   1.995   6.326
 8162SOL     OW25384   5.438   6.605   6.127
 8162SOL    HW125385   5.355   6.594   6.072
 8162SOL    HW225386   5.452   6.522   6.181
 8163SOL     OW25387   2.552   4.034   5.363
 8163SOL    HW125388   2.639   4.077   5.340
 8163SOL    HW225389   2.502   4.013   5.279
 8164SOL     OW25390   5.340   2.767   0.592
 8164SOL    HW125391   5.357   2.858   0.628
 8164SOL    HW225392   5.405   2.748   0.518
 8165SOL     OW25393   1.054   3.090   6.358
 8165SOL    HW125394   1.029   3.139   6.442
 8165SOL    HW225395   1.154   3.089   6.348
 8166SOL     OW25396   1.397   0.245   2.932
 8166SOL    HW125397   1.409   0.188   3.013
 8166SOL    HW225398   1.327   0.315   2.951
 8167SOL     OW25399   6.392   0.083   4.712
 8167SOL    HW125400   6.374   7.016   4.666
 8167SOL    HW225401   6.307   0.133   4.724
 8168SOL     OW25402   2.166   1.688   3.415
 8168SOL    HW125403   2.072   1.719   3.399
 8168SOL    HW225404   2.195   1.630   3.339
 8169SOL     OW25405   5.106   1.979   0.703
 8169SOL    HW125406   5.155   1.934   0.777
 8169SOL    HW225407   5.084   1.911   0.633
 8170SOL     OW25408   1.226   4.747   2.573
 8170SOL    HW125409   1.308   4.716   2.524
 8170SOL    HW225410   1.253   4.808   2.648
 8171SOL     OW25411   1.533   1.730   6.585
 8171SOL    HW125412   1.535   1.671   6.505
 8171SOL    HW225413   1.605   1.799   6.577
 8172SOL     OW25414   0.944   1.978   2.225
 8172SOL    HW125415   0.890   2.060   2.207
 8172SOL    HW225416   1.014   1.999   2.294
 8173SOL     OW25417   5.121   0.730   2.070
 8173SOL    HW125418   5.124   0.830   2.078
 8173SOL    HW225419   5.076   0.705   1.984
 8174SOL     OW25420   5.858   3.316   1.050
 8174SOL    HW125421   5.951   3.353   1.051
 8174SOL    HW225422   5.855   3.234   1.108
 8175SOL     OW25423   6.949   2.262   5.668
 8175SOL    HW125424   6.878   2.290   5.603
 8175SOL    HW225425   6.908   2.205   5.739
 8176SOL     OW25426   2.864   5.000   1.802
 8176SOL    HW125427   2.890   5.013   1.898
 8176SOL    HW225428   2.784   5.055   1.782
 8177SOL     OW25429   3.047   6.297   3.706
 8177SOL    HW125430   3.004   6.296   3.797
 8177SOL    HW225431   3.137   6.341   3.712
 8178SOL     OW25432   2.829   5.757   6.548
 8178SOL    HW125433   2.800   5.776   6.454
 8178SOL    HW225434   2.858   5.842   6.592
 8179SOL     OW25435   5.061   2.253   5.776
 8179SOL    HW125436   5.012   2.339   5.786
 8179SOL    HW225437   5.069   2.208   5.865
 8180SOL     OW25438   6.729   0.271   4.842
 8180SOL    HW125439   6.727   0.272   4.942
 8180SOL    HW225440   6.653   0.325   4.807
 8181SOL     OW25441   1.819   1.291   0.957
 8181SOL    HW125442   1.781   1.355   0.890
 8181SOL    HW225443   1.910   1.321   0.984
 8182SOL     OW25444   4.455   3.342   6.195
 8182SOL    HW125445   4.392   3.268   6.170
 8182SOL    HW225446   4.439   3.421   6.136
 8183SOL     OW25447   0.006   2.597   4.711
 8183SOL    HW125448   0.069   2.569   4.639
 8183SOL    HW225449   6.990   2.688   4.692
 8184SOL     OW25450   5.697   1.690   5.874
 8184SOL    HW125451   5.652   1.772   5.909
 8184SOL    HW225452   5.796   1.702   5.879
 8185SOL     OW25453   2.444   6.474   0.402
 8185SOL    HW125454   2.410   6.484   0.308
 8185SOL    HW225455   2.418   6.555   0.455
 8186SOL     OW25456   3.851   5.952   5.523
 8186SOL    HW125457   3.836   5.860   5.489
 8186SOL    HW225458   3.791   6.016   5.475
 8187SOL     OW25459   1.520   2.445   5.493
 8187SOL    HW125460   1.554   2.524   5.442
 8187SOL    HW225461   1.476   2.381   5.430
 8188SOL     OW25462   5.477   2.890   2.986
 8188SOL    HW125463   5.455   2.983   2.958
 8188SOL    HW225464   5.392   2.838   2.998
 8189SOL     OW25465   4.726   4.599   2.812
 8189SOL    HW125466   4.778   4.639   2.736
 8189SOL    HW225467   4.628   4.609   2.794
 8190SOL     OW25468   3.648   5.159   3.702
 8190SOL    HW125469   3.615   5.225   3.635
 8190SOL    HW225470   3.746   5.144   3.689
 8191SOL     OW25471   3.355   6.590   2.247
 8191SOL    HW125472   3.414   6.539   2.184
 8191SOL    HW225473   3.261   6.588   2.214
 8192SOL     OW25474   3.659   5.328   0.857
 8192SOL    HW125475   3.626   5.404   0.913
 8192SOL    HW225476   3.589   5.257   0.853
 8193SOL     OW25477   6.919   6.507   4.666
 8193SOL    HW125478   6.945   6.510   4.570
 8193SOL    HW225479   6.919   6.600   4.703
 8194SOL     OW25480   6.067   2.716   1.053
 8194SOL    HW125481   6.038   2.788   1.115
 8194SOL    HW225482   6.069   2.629   1.101
 8195SOL     OW25483   1.016   0.020   1.686
 8195SOL    HW125484   1.014   6.956   1.741
 8195SOL    HW225485   0.958   0.007   1.605
 8196SOL     OW25486   3.584   6.557   6.138
 8196SOL    HW125487   3.660   6.514   6.089
 8196SOL    HW225488   3.608   6.651   6.161
 8197SOL     OW25489   4.247   1.396   6.388
 8197SOL    HW125490   4.246   1.492   6.415
 8197SOL    HW225491   4.292   1.387   6.299
 8198SOL     OW25492   3.688   6.456   3.418
 8198SOL    HW125493   3.719   6.498   3.332
 8198SOL    HW225494   3.715   6.360   3.419
 8199SOL     OW25495   5.996   2.749   6.127
 8199SOL    HW125496   5.966   2.832   6.080
 8199SOL    HW225497   5.916   2.700   6.163
 8200SOL     OW25498   4.627   3.845   1.547
 8200SOL    HW125499   4.671   3.891   1.624
 8200SOL    HW225500   4.560   3.907   1.505
 8201SOL     OW25501   5.847   0.416   3.968
 8201SOL    HW125502   5.871   0.341   3.907
 8201SOL    HW225503   5.759   0.398   4.012
 8202SOL     OW25504   0.187   5.789   4.665
 8202SOL    HW125505   0.174   5.869   4.606
 8202SOL    HW225506   0.268   5.803   4.722
 8203SOL     OW25507   4.413   2.531   0.540
 8203SOL    HW125508   4.333   2.547   0.599
 8203SOL    HW225509   4.472   2.611   0.543
 8204SOL     OW25510   2.916   5.388   0.117
 8204SOL    HW125511   2.961   5.477   0.125
 8204SOL    HW225512   2.928   5.337   0.203
 8205SOL     OW25513   0.654   4.579   0.913
 8205SOL    HW125514   0.668   4.631   0.829
 8205SOL    HW225515   0.567   4.530   0.907
 8206SOL     OW25516   4.680   2.565   5.995
 8206SOL    HW125517   4.698   2.659   5.969
 8206SOL    HW225518   4.589   2.559   6.037
 8207SOL     OW25519   3.601   4.096   5.299
 8207SOL    HW125520   3.646   4.169   5.248
 8207SOL    HW225521   3.656   4.072   5.379
 8208SOL     OW25522   1.662   0.116   1.474
 8208SOL    HW125523   1.605   0.033   1.465
 8208SOL    HW225524   1.756   0.094   1.451
 8209SOL     OW25525   1.129   1.354   5.946
 8209SOL    HW125526   1.144   1.300   5.863
 8209SOL    HW225527   1.047   1.322   5.993
 8210SOL     OW25528   2.552   0.927   1.184
 8210SOL    HW125529   2.645   0.928   1.221
 8210SOL    HW225530   2.510   1.016   1.199
 8211SOL     OW25531   3.862   3.929   2.992
 8211SOL    HW125532   3.850   3.955   2.896
 8211SOL    HW225533   3.803   3.987   3.049
 8212SOL     OW25534   3.157   1.623   0.803
 8212SOL    HW125535   3.130   1.571   0.884
 8212SOL    HW225536   3.221   1.569   0.748
 8213SOL     OW25537   5.473   4.908   2.364
 8213SOL    HW125538   5.515   4.831   2.411
 8213SOL    HW225539   5.386   4.930   2.408
 8214SOL     OW25540   0.893   5.211   4.234
 8214SOL    HW125541   0.961   5.282   4.215
 8214SOL    HW225542   0.839   5.238   4.313
 8215SOL     OW25543   2.997   5.948   6.375
 8215SOL    HW125544   3.001   6.006   6.294
 8215SOL    HW225545   2.909   5.900   6.377
 8216SOL     OW25546   5.125   6.212   3.517
 8216SOL    HW125547   5.205   6.271   3.524
 8216SOL    HW225548   5.155   6.116   3.517
 8217SOL     OW25549   2.121   3.812   2.352
 8217SOL    HW125550   2.025   3.839   2.358
 8217SOL    HW225551   2.128   3.725   2.302
 8218SOL     OW25552   1.311   6.758   4.929
 8218SOL    HW125553   1.358   6.687   4.877
 8218SOL    HW225554   1.300   6.729   5.024
 8219SOL     OW25555   3.989   3.065   1.399
 8219SOL    HW125556   4.033   3.014   1.326
 8219SOL    HW225557   3.899   3.098   1.369
 8220SOL     OW25558   2.965   3.839   4.890
 8220SOL    HW125559   3.043   3.894   4.919
 8220SOL    HW225560   2.979   3.744   4.917
 8221SOL     OW25561   6.563   5.391   3.165
 8221SOL    HW125562   6.582   5.385   3.263
 8221SOL    HW225563   6.473   5.351   3.147
 8222SOL     OW25564   4.990   2.077   1.513
 8222SOL    HW125565   4.964   2.095   1.607
 8222SOL    HW225566   4.925   2.013   1.472
 8223SOL     OW25567   0.723   4.508   5.217
 8223SOL    HW125568   0.740   4.417   5.181
 8223SOL    HW225569   0.724   4.504   5.317
 8224SOL     OW25570   5.458   2.687   2.005
 8224SOL    HW125571   5.425   2.750   1.934
 8224SOL    HW225572   5.557   2.696   2.015
 8225SOL     OW25573   3.559   1.206   1.538
 8225SOL    HW125574   3.489   1.221   1.608
 8225SOL    HW225575   3.520   1.221   1.447
 8226SOL     OW25576   3.165   0.145   0.295
 8226SOL    HW125577   3.181   0.187   0.206
 8226SOL    HW225578   3.242   0.166   0.356
 8227SOL     OW25579   7.007   1.481   2.485
 8227SOL    HW125580   0.006   1.425   2.404
 8227SOL    HW225581   6.967   1.423   2.557
 8228SOL     OW25582   0.927   1.771   6.040
 8228SOL    HW125583   0.938   1.716   5.957
 8228SOL    HW225584   0.842   1.825   6.033
 8229SOL     OW25585   3.500   4.234   1.137
 8229SOL    HW125586   3.401   4.246   1.126
 8229SOL    HW225587   3.518   4.182   1.220
 8230SOL     OW25588   3.963   0.365   5.419
 8230SOL    HW125589   3.912   0.325   5.343
 8230SOL    HW225590   4.051   0.399   5.387
 8231SOL     OW25591   3.223   2.434   1.700
 8231SOL    HW125592   3.310   2.385   1.701
 8231SOL    HW225593   3.199   2.462   1.793
 8232SOL     OW25594   5.675   1.951   2.111
 8232SOL    HW125595   5.605   1.913   2.171
 8232SOL    HW225596   5.720   2.027   2.156
 8233SOL     OW25597   1.277   6.960   6.477
 8233SOL    HW125598   1.286   0.014   6.544
 8233SOL    HW225599   1.279   6.999   6.385
 8234SOL     OW25600   3.010   3.966   7.004
 8234SOL    HW125601   3.104   3.958   0.020
 8234SOL    HW225602   2.946   3.961   0.061
 8235SOL     OW25603   0.175   3.431   6.759
 8235SOL    HW125604   0.239   3.501   6.730
 8235SOL    HW225605   0.219   3.370   6.825
 8236SOL     OW25606   6.574   4.887   6.676
 8236SOL    HW125607   6.654   4.845   6.719
 8236SOL    HW225608   6.587   4.985   6.668
 8237SOL     OW25609   5.039   6.205   5.986
 8237SOL    HW125610   4.970   6.217   5.914
 8237SOL    HW225611   5.020   6.267   6.062
 8238SOL     OW25612   0.843   5.726   6.992
 8238SOL    HW125613   0.794   5.801   6.947
 8238SOL    HW225614   0.824   5.728   0.071
 8239SOL     OW25615   1.192   0.829   5.066
 8239SOL    HW125616   1.248   0.907   5.037
 8239SOL    HW225617   1.178   0.767   4.990
 8240SOL     OW25618   3.056   3.963   3.167
 8240SOL    HW125619   3.135   4.024   3.167
 8240SOL    HW225620   3.017   3.957   3.259
 8241SOL     OW25621   2.556   5.026   5.974
 8241SOL    HW125622   2.649   5.036   6.011
 8241SOL    HW225623   2.492   5.074   6.034
 8242SOL     OW25624   0.682   3.737   4.850
 8242SOL    HW125625   0.683   3.639   4.829
 8242SOL    HW225626   0.589   3.765   4.873
 8243SOL     OW25627   6.920   3.678   1.143
 8243SOL    HW125628   6.903   3.776   1.147
 8243SOL    HW225629   6.883   3.642   1.057
 8244SOL     OW25630   0.803   0.023   3.972
 8244SOL    HW125631   0.888   6.990   3.981
 8244SOL    HW225632   0.805   0.075   3.887
 8245SOL     OW25633   3.862   2.067   2.695
 8245SOL    HW125634   3.838   2.073   2.791
 8245SOL    HW225635   3.957   2.095   2.682
 8246SOL     OW25636   0.343   4.506   6.748
 8246SOL    HW125637   0.255   4.493   6.795
 8246SOL    HW225638   0.328   4.552   6.661
 8247SOL     OW25639   2.151   6.150   3.082
 8247SOL    HW125640   2.180   6.240   3.112
 8247SOL    HW225641   2.115   6.098   3.159
 8248SOL     OW25642   0.508   4.545   4.672
 8248SOL    HW125643   0.474   4.576   4.583
 8248SOL    HW225644   0.588   4.487   4.659
 8249SOL     OW25645   2.314   1.440   5.967
 8249SOL    HW125646   2.301   1.539   5.968
 8249SOL    HW225647   2.408   1.419   5.942
 8250SOL     OW25648   2.658   2.256   1.325
 8250SOL    HW125649   2.662   2.252   1.425
 8250SOL    HW225650   2.719   2.329   1.292
 8251SOL     OW25651   5.506   1.610   4.642
 8251SOL    HW125652   5.464   1.641   4.557
 8251SOL    HW225653   5.476   1.669   4.717
 8252SOL     OW25654   4.110   1.647   6.716
 8252SOL    HW125655   4.113   1.564   6.772
 8252SOL    HW225656   4.124   1.727   6.773
 8253SOL     OW25657   3.662   5.987   6.657
 8253SOL    HW125658   3.570   5.949   6.645
 8253SOL    HW225659   3.721   5.958   6.582
 8254SOL     OW25660   4.674   4.689   5.543
 8254SOL    HW125661   4.730   4.670   5.624
 8254SOL    HW225662   4.633   4.604   5.511
 8255SOL     OW25663   1.224   0.001   5.586
 8255SOL    HW125664   1.247   0.049   5.671
 8255SOL    HW225665   1.199   0.068   5.516
 8256SOL     OW25666   6.999   6.387   3.067
 8256SOL    HW125667   0.052   6.437   3.115
 8256SOL    HW225668   7.001   6.291   3.095
 8257SOL     OW25669   5.340   3.943   3.665
 8257SOL    HW125670   5.370   3.872   3.728
 8257SOL    HW225671   5.415   3.966   3.602
 8258SOL     OW25672   4.702   2.864   1.719
 8258SOL    HW125673   4.685   2.951   1.765
 8258SOL    HW225674   4.751   2.803   1.781
 8259SOL     OW25675   3.675   2.173   5.449
 8259SOL    HW125676   3.653   2.091   5.501
 8259SOL    HW225677   3.591   2.217   5.419
 8260SOL     OW25678   1.709   6.641   1.689
 8260SOL    HW125679   1.775   6.694   1.636
 8260SOL    HW225680   1.755   6.563   1.732
 8261SOL     OW25681   5.096   6.359   3.047
 8261SOL    HW125682   5.018   6.364   2.986
 8261SOL    HW225683   5.137   6.450   3.057
 8262SOL     OW25684   1.132   4.953   0.687
 8262SOL    HW125685   1.161   4.876   0.743
 8262SOL    HW225686   1.201   4.971   0.617
 8263SOL     OW25687   6.903   3.126   6.504
 8263SOL    HW125688   6.844   3.189   6.554
 8263SOL    HW225689   6.997   3.159   6.508
 8264SOL     OW25690   0.905   6.291   1.445
 8264SOL    HW125691   0.845   6.334   1.377
 8264SOL    HW225692   0.977   6.239   1.398
 8265SOL     OW25693   5.319   0.349   2.291
 8265SOL    HW125694   5.380   0.272   2.270
 8265SOL    HW225695   5.331   0.375   2.387
 8266SOL     OW25696   2.487   1.084   4.459
 8266SOL    HW125697   2.467   0.991   4.487
 8266SOL    HW225698   2.565   1.084   4.397
 8267SOL     OW25699   1.336   4.346   2.007
 8267SOL    HW125700   1.303   4.424   2.060
 8267SOL    HW225701   1.359   4.271   2.069
 8268SOL     OW25702   3.236   5.851   6.254
 8268SOL    HW125703   3.231   5.767   6.199
 8268SOL    HW225704   3.150   5.864   6.303
 8269SOL     OW25705   4.582   2.561   2.884
 8269SOL    HW125706   4.569   2.595   2.791
 8269SOL    HW225707   4.635   2.627   2.937
 8270SOL     OW25708   2.806   5.900   5.044
 8270SOL    HW125709   2.792   5.864   4.952
 8270SOL    HW225710   2.822   5.824   5.108
 8271SOL     OW25711   6.554   6.555   3.511
 8271SOL    HW125712   6.471   6.569   3.564
 8271SOL    HW225713   6.545   6.600   3.422
 8272SOL     OW25714   6.338   1.172   2.511
 8272SOL    HW125715   6.266   1.152   2.445
 8272SOL    HW225716   6.417   1.211   2.465
 8273SOL     OW25717   3.138   0.794   0.151
 8273SOL    HW125718   3.119   0.824   0.058
 8273SOL    HW225719   3.073   0.724   0.178
 8274SOL     OW25720   3.966   5.201   5.401
 8274SOL    HW125721   3.950   5.279   5.340
 8274SOL    HW225722   4.039   5.144   5.363
 8275SOL     OW25723   5.968   0.629   3.854
 8275SOL    HW125724   5.973   0.621   3.755
 8275SOL    HW225725   5.905   0.560   3.890
 8276SOL     OW25726   6.995   1.955   5.529
 8276SOL    HW125727   6.912   1.984   5.576
 8276SOL    HW225728   0.046   1.931   5.596
 8277SOL     OW25729   1.013   6.068   5.571
 8277SOL    HW125730   1.039   6.149   5.623
 8277SOL    HW225731   0.924   6.035   5.603
 8278SOL     OW25732   3.203   1.825   6.850
 8278SOL    HW125733   3.144   1.770   6.908
 8278SOL    HW225734   3.215   1.779   6.762
 8279SOL     OW25735   6.623   5.920   5.076
 8279SOL    HW125736   6.623   5.996   5.011
 8279SOL    HW225737   6.535   5.872   5.071
 8280SOL     OW25738   3.881   2.456   0.765
 8280SOL    HW125739   3.952   2.505   0.714
 8280SOL    HW225740   3.792   2.498   0.747
 8281SOL     OW25741   2.379   4.526   1.959
 8281SOL    HW125742   2.310   4.590   1.925
 8281SOL    HW225743   2.338   4.436   1.973
 8282SOL     OW25744   3.178   3.790   0.144
 8282SOL    HW125745   3.108   3.722   0.164
 8282SOL    HW225746   3.177   3.860   0.215
 8283SOL     OW25747   1.612   4.672   4.397
 8283SOL    HW125748   1.546   4.713   4.334
 8283SOL    HW225749   1.584   4.579   4.420
 8284SOL     OW25750   1.828   4.147   1.957
 8284SOL    HW125751   1.873   4.101   1.881
 8284SOL    HW225752   1.874   4.234   1.976
 8285SOL     OW25753   4.275   3.460   5.349
 8285SOL    HW125754   4.208   3.517   5.300
 8285SOL    HW225755   4.363   3.507   5.350
 8286SOL     OW25756   5.491   1.940   4.899
 8286SOL    HW125757   5.522   1.900   4.813
 8286SOL    HW225758   5.417   2.005   4.881
 8287SOL     OW25759   0.877   4.955   4.123
 8287SOL    HW125760   0.879   5.052   4.144
 8287SOL    HW225761   0.890   4.902   4.207
 8288SOL     OW25762   1.683   2.504   2.884
 8288SOL    HW125763   1.625   2.583   2.903
 8288SOL    HW225764   1.638   2.444   2.817
 8289SOL     OW25765   5.930   0.244   6.683
 8289SOL    HW125766   5.971   0.220   6.595
 8289SOL    HW225767   5.900   0.340   6.682
 8290SOL     OW25768   5.034   1.875   1.220
 8290SOL    HW125769   4.944   1.917   1.209
 8290SOL    HW225770   5.099   1.919   1.158
 8291SOL     OW25771   5.881   5.870   6.313
 8291SOL    HW125772   5.910   5.959   6.347
 8291SOL    HW225773   5.873   5.874   6.213
 8292SOL     OW25774   2.546   5.438   6.784
 8292SOL    HW125775   2.638   5.454   6.748
 8292SOL    HW225776   2.551   5.429   6.884
 8293SOL     OW25777   1.571   4.784   1.478
 8293SOL    HW125778   1.614   4.836   1.404
 8293SOL    HW225779   1.620   4.799   1.563
 8294SOL     OW25780   6.330   3.497   4.603
 8294SOL    HW125781   6.375   3.413   4.574
 8294SOL    HW225782   6.359   3.520   4.696
 8295SOL     OW25783   4.886   3.186   3.122
 8295SOL    HW125784   4.980   3.211   3.148
 8295SOL    HW225785   4.826   3.265   3.135
 8296SOL     OW25786   3.335   5.905   0.316
 8296SOL    HW125787   3.374   5.865   0.398
 8296SOL    HW225788   3.406   5.911   0.245
 8297SOL     OW25789   6.436   3.175   2.416
 8297SOL    HW125790   6.397   3.087   2.444
 8297SOL    HW225791   6.534   3.176   2.434
 8298SOL     OW25792   6.848   0.565   0.781
 8298SOL    HW125793   6.863   0.472   0.816
 8298SOL    HW225794   6.800   0.560   0.693
 8299SOL     OW25795   0.433   3.002   1.470
 8299SOL    HW125796   0.385   2.918   1.445
 8299SOL    HW225797   0.380   3.081   1.440
 8300SOL     OW25798   7.006   6.989   4.638
 8300SOL    HW125799   6.994   0.049   4.698
 8300SOL    HW225800   0.014   0.002   4.547
 8301SOL     OW25801   4.458   0.811   0.034
 8301SOL    HW125802   4.553   0.843   0.025
 8301SOL    HW225803   4.448   0.761   0.120
 8302SOL     OW25804   5.006   6.989   5.494
 8302SOL    HW125805   4.944   0.048   5.482
 8302SOL    HW225806   5.011   6.937   5.409
 8303SOL     OW25807   6.681   0.368   3.217
 8303SOL    HW125808   6.712   0.281   3.178
 8303SOL    HW225809   6.631   0.350   3.302
 8304SOL     OW25810   5.419   4.865   1.763
 8304SOL    HW125811   5.446   4.774   1.732
 8304SOL    HW225812   5.484   4.898   1.831
 8305SOL     OW25813   4.265   4.692   4.232
 8305SOL    HW125814   4.298   4.687   4.326
 8305SOL    HW225815   4.177   4.738   4.229
 8306SOL     OW25816   6.391   1.077   3.357
 8306SOL    HW125817   6.308   1.041   3.314
 8306SOL    HW225818   6.369   1.163   3.403
 8307SOL     OW25819   3.642   5.579   1.669
 8307SOL    HW125820   3.590   5.527   1.602
 8307SOL    HW225821   3.701   5.646   1.623
 8308SOL     OW25822   2.196   5.467   0.359
 8308SOL    HW125823   2.290   5.466   0.326
 8308SOL    HW225824   2.173   5.558   0.392
 8309SOL     OW25825   6.066   5.355   3.158
 8309SOL    HW125826   6.096   5.343   3.253
 8309SOL    HW225827   6.004   5.280   3.133
 8310SOL     OW25828   1.696   5.229   0.678
 8310SOL    HW125829   1.692   5.245   0.776
 8310SOL    HW225830   1.624   5.282   0.633
 8311SOL     OW25831   6.116   0.707   4.301
 8311SOL    HW125832   6.115   0.745   4.209
 8311SOL    HW225833   6.208   0.716   4.340
 8312SOL     OW25834   5.248   1.173   6.654
 8312SOL    HW125835   5.344   1.149   6.634
 8312SOL    HW225836   5.190   1.136   6.582
 8313SOL     OW25837   5.451   0.615   5.976
 8313SOL    HW125838   5.474   0.563   6.059
 8313SOL    HW225839   5.470   0.559   5.896
 8314SOL     OW25840   6.226   6.635   6.554
 8314SOL    HW125841   6.159   6.611   6.483
 8314SOL    HW225842   6.312   6.588   6.535
 8315SOL     OW25843   3.932   3.058   2.892
 8315SOL    HW125844   4.017   3.105   2.915
 8315SOL    HW225845   3.922   2.975   2.947
 8316SOL     OW25846   1.835   3.367   1.227
 8316SOL    HW125847   1.737   3.364   1.206
 8316SOL    HW225848   1.874   3.276   1.211
 8317SOL     OW25849   1.882   1.958   2.964
 8317SOL    HW125850   1.817   1.980   3.036
 8317SOL    HW225851   1.948   1.892   2.998
 8318SOL     OW25852   3.977   1.643   5.988
 8318SOL    HW125853   3.984   1.662   6.086
 8318SOL    HW225854   3.923   1.559   5.975
 8319SOL     OW25855   1.309   0.316   0.644
 8319SOL    HW125856   1.345   0.251   0.577
 8319SOL    HW225857   1.246   0.379   0.599
 8320SOL     OW25858   3.212   4.119   3.489
 8320SOL    HW125859   3.287   4.168   3.533
 8320SOL    HW225860   3.238   4.098   3.394
 8321SOL     OW25861   7.004   6.964   6.970
 8321SOL    HW125862   6.999   0.020   0.018
 8321SOL    HW225863   6.912   6.944   6.936
 8322SOL     OW25864   6.721   1.695   0.752
 8322SOL    HW125865   6.638   1.648   0.722
 8322SOL    HW225866   6.706   1.794   0.753
 8323SOL     OW25867   3.813   4.729   1.472
 8323SOL    HW125868   3.811   4.718   1.571
 8323SOL    HW225869   3.893   4.783   1.446
 8324SOL     OW25870   5.112   0.702   0.516
 8324SOL    HW125871   5.156   0.752   0.442
 8324SOL    HW225872   5.052   0.765   0.567
 8325SOL     OW25873   0.585   3.674   5.137
 8325SOL    HW125874   0.530   3.740   5.086
 8325SOL    HW225875   0.619   3.604   5.075
 8326SOL     OW25876   4.394   3.982   6.459
 8326SOL    HW125877   4.475   3.924   6.471
 8326SOL    HW225878   4.314   3.925   6.441
 8327SOL     OW25879   1.028   0.600   5.725
 8327SOL    HW125880   1.043   0.538   5.802
 8327SOL    HW225881   0.996   0.689   5.760
 8328SOL     OW25882   2.673   6.342   6.506
 8328SOL    HW125883   2.638   6.264   6.558
 8328SOL    HW225884   2.761   6.317   6.465
 8329SOL     OW25885   0.283   2.026   5.259
 8329SOL    HW125886   0.334   2.039   5.344
 8329SOL    HW225887   0.335   2.063   5.182
 8330SOL     OW25888   3.302   1.475   6.757
 8330SOL    HW125889   3.366   1.404   6.725
 8330SOL    HW225890   3.300   1.550   6.691
 8331SOL     OW25891   3.444   0.905   0.623
 8331SOL    HW125892   3.347   0.919   0.604
 8331SOL    HW225893   3.480   0.833   0.563
 8332SOL     OW25894   5.678   5.447   1.975
 8332SOL    HW125895   5.621   5.462   1.894
 8332SOL    HW225896   5.669   5.352   2.006
 8333SOL     OW25897   1.370   4.616   6.471
 8333SOL    HW125898   1.410   4.647   6.557
 8333SOL    HW225899   1.291   4.558   6.490
 8334SOL     OW25900   2.989   2.261   5.876
 8334SOL    HW125901   2.953   2.278   5.784
 8334SOL    HW225902   3.083   2.294   5.881
 8335SOL     OW25903   3.923   1.736   0.284
 8335SOL    HW125904   3.838   1.710   0.238
 8335SOL    HW225905   3.942   1.673   0.358
 8336SOL     OW25906   0.561   3.838   3.093
 8336SOL    HW125907   0.627   3.839   3.018
 8336SOL    HW225908   0.563   3.925   3.141
 8337SOL     OW25909   0.512   6.952   4.236
 8337SOL    HW125910   0.436   6.961   4.171
 8337SOL    HW225911   0.508   6.861   4.279
 8338SOL     OW25912   3.717   5.603   1.367
 8338SOL    HW125913   3.781   5.665   1.412
 8338SOL    HW225914   3.748   5.586   1.273
 8339SOL     OW25915   0.183   1.085   1.869
 8339SOL    HW125916   0.103   1.139   1.896
 8339SOL    HW225917   0.179   0.995   1.913
 8340SOL     OW25918   4.977   3.648   0.995
 8340SOL    HW125919   5.017   3.690   1.077
 8340SOL    HW225920   4.924   3.717   0.945
 8341SOL     OW25921   3.873   0.221   0.004
 8341SOL    HW125922   3.799   0.155   0.018
 8341SOL    HW225923   3.901   0.221   6.927
 8342SOL     OW25924   4.079   6.510   0.207
 8342SOL    HW125925   4.057   6.528   0.111
 8342SOL    HW225926   3.996   6.480   0.255
 8343SOL     OW25927   6.931   5.477   3.410
 8343SOL    HW125928   6.972   5.425   3.335
 8343SOL    HW225929   6.911   5.416   3.486
 8344SOL     OW25930   6.595   4.987   4.784
 8344SOL    HW125931   6.570   4.895   4.752
 8344SOL    HW225932   6.673   5.020   4.732
 8345SOL     OW25933   4.123   2.132   3.306
 8345SOL    HW125934   4.168   2.214   3.270
 8345SOL    HW225935   4.125   2.059   3.237
 8346SOL     OW25936   3.937   4.444   6.937
 8346SOL    HW125937   4.006   4.446   6.864
 8346SOL    HW225938   3.857   4.392   6.906
 8347SOL     OW25939   3.138   6.323   5.887
 8347SOL    HW125940   3.150   6.224   5.889
 8347SOL    HW225941   3.222   6.367   5.918
 8348SOL     OW25942   2.030   0.928   1.596
 8348SOL    HW125943   1.979   0.999   1.645
 8348SOL    HW225944   2.125   0.957   1.586
 8349SOL     OW25945   1.086   6.791   2.242
 8349SOL    HW125946   1.183   6.767   2.230
 8349SOL    HW225947   1.041   6.721   2.296
 8350SOL     OW25948   3.036   6.560   6.314
 8350SOL    HW125949   3.120   6.557   6.369
 8350SOL    HW225950   2.993   6.470   6.315
 8351SOL     OW25951   5.360   5.591   4.739
 8351SOL    HW125952   5.322   5.556   4.653
 8351SOL    HW225953   5.313   5.548   4.816
 8352SOL     OW25954   1.342   6.930   3.152
 8352SOL    HW125955   1.274   6.891   3.090
 8352SOL    HW225956   1.426   6.875   3.147
 8353SOL     OW25957   0.884   3.376   0.636
 8353SOL    HW125958   0.810   3.327   0.682
 8353SOL    HW225959   0.953   3.311   0.604
 8354SOL     OW25960   3.234   6.884   4.339
 8354SOL    HW125961   3.280   6.973   4.339
 8354SOL    HW225962   3.282   6.822   4.277
 8355SOL     OW25963   1.946   1.402   4.605
 8355SOL    HW125964   1.953   1.451   4.517
 8355SOL    HW225965   1.850   1.391   4.630
 8356SOL     OW25966   1.442   5.948   1.278
 8356SOL    HW125967   1.491   6.019   1.328
 8356SOL    HW225968   1.429   5.978   1.183
 8357SOL     OW25969   3.828   6.937   5.836
 8357SOL    HW125970   3.760   7.010   5.820
 8357SOL    HW225971   3.872   6.913   5.750
 8358SOL     OW25972   0.891   3.183   4.512
 8358SOL    HW125973   0.987   3.182   4.484
 8358SOL    HW225974   0.842   3.110   4.464
 8359SOL     OW25975   2.924   1.533   4.980
 8359SOL    HW125976   2.896   1.530   4.884
 8359SOL    HW225977   2.948   1.627   5.004
 8360SOL     OW25978   4.697   0.015   0.878
 8360SOL    HW125979   4.775   0.006   0.815
 8360SOL    HW225980   4.612   0.005   0.828
 8361SOL     OW25981   3.519   0.658   0.917
 8361SOL    HW125982   3.591   0.589   0.906
 8361SOL    HW225983   3.557   0.739   0.963
 8362SOL     OW25984   5.463   2.073   0.645
 8362SOL    HW125985   5.487   2.158   0.691
 8362SOL    HW225986   5.390   2.091   0.578
 8363SOL     OW25987   4.959   2.403   0.150
 8363SOL    HW125988   5.057   2.406   0.130
 8363SOL    HW225989   4.940   2.328   0.214
 8364SOL     OW25990   0.060   2.528   4.180
 8364SOL    HW125991   0.092   2.621   4.200
 8364SOL    HW225992   0.120   2.486   4.112
 8365SOL     OW25993   1.914   2.104   2.374
 8365SOL    HW125994   1.985   2.157   2.327
 8365SOL    HW225995   1.948   2.074   2.463
 8366SOL     OW25996   3.065   5.353   1.092
 8366SOL    HW125997   2.970   5.320   1.094
 8366SOL    HW225998   3.066   5.450   1.071
 8367SOL     OW25999   3.436   5.678   5.168
 8367SOL    HW126000   3.499   5.719   5.102
 8367SOL    HW226001   3.343   5.712   5.151
 8368SOL     OW26002   0.814   6.128   0.038
 8368SOL    HW126003   0.826   6.099   0.133
 8368SOL    HW226004   0.750   6.066   7.011
 8369SOL     OW26005   0.900   0.697   6.685
 8369SOL    HW126006   0.941   0.735   6.768
 8369SOL    HW226007   0.852   0.613   6.706
 8370SOL     OW26008   2.296   1.286   6.181
 8370SOL    HW126009   2.313   1.360   6.115
 8370SOL    HW226010   2.318   1.198   6.138
 8371SOL     OW26011   2.617   3.819   0.765
 8371SOL    HW126012   2.564   3.864   0.837
 8371SOL    HW226013   2.706   3.864   0.756
 8372SOL     OW26014   1.330   6.151   1.824
 8372SOL    HW126015   1.387   6.124   1.746
 8372SOL    HW226016   1.233   6.138   1.800
 8373SOL     OW26017   1.885   6.679   4.446
 8373SOL    HW126018   1.801   6.681   4.500
 8373SOL    HW226019   1.889   6.594   4.394
 8374SOL     OW26020   0.283   0.235   4.764
 8374SOL    HW126021   0.193   0.200   4.788
 8374SOL    HW226022   0.306   0.206   4.671
 8375SOL     OW26023   3.986   6.648   5.931
 8375SOL    HW126024   4.056   6.585   5.966
 8375SOL    HW226025   3.986   6.731   5.987
 8376SOL     OW26026   1.496   1.345   3.893
 8376SOL    HW126027   1.561   1.290   3.840
 8376SOL    HW226028   1.412   1.292   3.907
 8377SOL     OW26029   5.756   6.292   0.181
 8377SOL    HW126030   5.768   6.314   0.278
 8377SOL    HW226031   5.659   6.294   0.158
 8378SOL     OW26032   3.645   4.885   3.198
 8378SOL    HW126033   3.608   4.953   3.261
 8378SOL    HW226034   3.571   4.846   3.144
 8379SOL     OW26035   4.937   3.052   1.823
 8379SOL    HW126036   4.911   3.138   1.779
 8379SOL    HW226037   4.874   3.033   1.899
 8380SOL     OW26038   0.179   0.239   0.292
 8380SOL    HW126039   0.138   0.264   0.380
 8380SOL    HW226040   0.276   0.218   0.305
 8381SOL     OW26041   6.920   1.940   3.986
 8381SOL    HW126042   6.821   1.927   3.989
 8381SOL    HW226043   6.944   1.993   3.904
 8382SOL     OW26044   2.114   6.568   1.763
 8382SOL    HW126045   2.086   6.501   1.832
 8382SOL    HW226046   2.212   6.558   1.743
 8383SOL     OW26047   3.064   0.138   5.920
 8383SOL    HW126048   2.996   0.194   5.967
 8383SOL    HW226049   3.041   0.132   5.823
 8384SOL     OW26050   6.112   1.654   1.511
 8384SOL    HW126051   6.071   1.569   1.544
 8384SOL    HW226052   6.040   1.722   1.496
 8385SOL     OW26053   4.401   2.362   6.801
 8385SOL    HW126054   4.486   2.406   6.773
 8385SOL    HW226055   4.324   2.419   6.772
 8386SOL     OW26056   1.707   6.197   1.751
 8386SOL    HW126057   1.760   6.131   1.804
 8386SOL    HW226058   1.641   6.148   1.693
 8387SOL     OW26059   1.243   1.968   1.216
 8387SOL    HW126060   1.154   1.952   1.259
 8387SOL    HW226061   1.247   2.062   1.181
 8388SOL     OW26062   2.133   6.438   0.823
 8388SOL    HW126063   2.064   6.409   0.756
 8388SOL    HW226064   2.183   6.517   0.787
 8389SOL     OW26065   0.279   3.016   4.203
 8389SOL    HW126066   0.317   2.999   4.112
 8389SOL    HW226067   0.349   3.056   4.262
 8390SOL     OW26068   3.770   6.478   0.266
 8390SOL    HW126069   3.689   6.442   0.220
 8390SOL    HW226070   3.743   6.521   0.352
 8391SOL     OW26071   4.743   5.006   1.243
 8391SOL    HW126072   4.659   4.953   1.228
 8391SOL    HW226073   4.797   4.963   1.315
 8392SOL     OW26074   6.982   5.712   5.339
 8392SOL    HW126075   6.938   5.801   5.329
 8392SOL    HW226076   6.957   5.654   5.262
 8393SOL     OW26077   0.521   0.270   3.546
 8393SOL    HW126078   0.435   0.231   3.581
 8393SOL    HW226079   0.552   0.342   3.608
 8394SOL     OW26080   0.433   3.317   1.685
 8394SOL    HW126081   0.429   3.410   1.721
 8394SOL    HW226082   0.340   3.284   1.667
 8395SOL     OW26083   1.536   5.900   4.017
 8395SOL    HW126084   1.457   5.844   4.041
 8395SOL    HW226085   1.620   5.849   4.033
 8396SOL     OW26086   4.443   4.602   2.682
 8396SOL    HW126087   4.448   4.516   2.632
 8396SOL    HW226088   4.351   4.641   2.672
 8397SOL     OW26089   2.736   1.104   3.463
 8397SOL    HW126090   2.751   1.184   3.404
 8397SOL    HW226091   2.820   1.084   3.513
 8398SOL     OW26092   4.218   2.583   6.242
 8398SOL    HW126093   4.272   2.532   6.309
 8398SOL    HW226094   4.194   2.522   6.166
 8399SOL     OW26095   6.029   0.324   6.926
 8399SOL    HW126096   6.020   0.291   6.832
 8399SOL    HW226097   6.123   0.355   6.941
 8400SOL     OW26098   1.454   0.475   3.808
 8400SOL    HW126099   1.510   0.410   3.860
 8400SOL    HW226100   1.421   0.546   3.869
 8401SOL     OW26101   3.106   2.123   6.267
 8401SOL    HW126102   3.127   2.119   6.364
 8401SOL    HW226103   3.007   2.112   6.254
 8402SOL     OW26104   4.078   1.996   5.491
 8402SOL    HW126105   4.072   1.964   5.586
 8402SOL    HW226106   4.080   1.918   5.429
 8403SOL     OW26107   1.001   2.050   3.309
 8403SOL    HW126108   0.966   2.019   3.397
 8403SOL    HW226109   1.078   1.992   3.281
 8404SOL     OW26110   4.258   6.060   6.205
 8404SOL    HW126111   4.302   5.975   6.174
 8404SOL    HW226112   4.252   6.059   6.305
 8405SOL     OW26113   2.519   1.021   5.866
 8405SOL    HW126114   2.586   0.950   5.840
 8405SOL    HW226115   2.478   1.059   5.783
 8406SOL     OW26116   5.099   6.897   0.894
 8406SOL    HW126117   5.053   6.847   0.821
 8406SOL    HW226118   5.194   6.915   0.868
 8407SOL     OW26119   4.583   6.497   4.274
 8407SOL    HW126120   4.589   6.527   4.369
 8407SOL    HW226121   4.576   6.577   4.214
 8408SOL     OW26122   5.044   2.963   2.320
 8408SOL    HW126123   5.006   3.050   2.287
 8408SOL    HW226124   5.118   2.982   2.385
 8409SOL     OW26125   6.280   2.945   3.568
 8409SOL    HW126126   6.327   2.875   3.515
 8409SOL    HW226127   6.344   3.017   3.593
 8410SOL     OW26128   4.939   0.169   1.831
 8410SOL    HW126129   4.845   0.140   1.813
 8410SOL    HW226130   4.994   0.159   1.749
 8411SOL     OW26131   0.935   5.452   6.936
 8411SOL    HW126132   0.931   5.551   6.950
 8411SOL    HW226133   0.968   5.433   6.844
 8412SOL     OW26134   3.883   2.099   1.888
 8412SOL    HW126135   3.844   2.027   1.830
 8412SOL    HW226136   3.809   2.152   1.929
 8413SOL     OW26137   4.019   5.403   0.169
 8413SOL    HW126138   4.079   5.364   0.239
 8413SOL    HW226139   3.924   5.380   0.190
 8414SOL     OW26140   4.366   5.546   3.106
 8414SOL    HW126141   4.430   5.623   3.103
 8414SOL    HW226142   4.398   5.473   3.045
 8415SOL     OW26143   6.634   5.549   3.453
 8415SOL    HW126144   6.733   5.534   3.458
 8415SOL    HW226145   6.616   5.646   3.437
 8416SOL     OW26146   5.585   3.743   2.596
 8416SOL    HW126147   5.493   3.732   2.634
 8416SOL    HW226148   5.643   3.669   2.631
 8417SOL     OW26149   1.181   5.332   6.201
 8417SOL    HW126150   1.276   5.337   6.232
 8417SOL    HW226151   1.121   5.322   6.281
 8418SOL     OW26152   5.838   5.248   1.234
 8418SOL    HW126153   5.937   5.234   1.231
 8418SOL    HW226154   5.792   5.160   1.246
 8419SOL     OW26155   5.125   1.163   2.727
 8419SOL    HW126156   5.091   1.232   2.663
 8419SOL    HW226157   5.201   1.114   2.686
 8420SOL     OW26158   4.365   6.858   0.560
 8420SOL    HW126159   4.331   6.764   0.568
 8420SOL    HW226160   4.301   6.912   0.506
 8421SOL     OW26161   3.171   5.996   0.521
 8421SOL    HW126162   3.160   5.898   0.537
 8421SOL    HW226163   3.239   6.010   0.449
 8422SOL     OW26164   4.527   0.754   1.127
 8422SOL    HW126165   4.465   0.832   1.113
 8422SOL    HW226166   4.490   0.696   1.200
 8423SOL     OW26167   3.863   4.503   5.819
 8423SOL    HW126168   3.943   4.519   5.878
 8423SOL    HW226169   3.796   4.448   5.869
 8424SOL     OW26170   2.382   2.708   2.828
 8424SOL    HW126171   2.300   2.762   2.849
 8424SOL    HW226172   2.393   2.701   2.729
 8425SOL     OW26173   5.595   5.615   0.483
 8425SOL    HW126174   5.528   5.676   0.440
 8425SOL    HW226175   5.637   5.558   0.413
 8426SOL     OW26176   3.231   3.403   4.015
 8426SOL    HW126177   3.143   3.409   3.967
 8426SOL    HW226178   3.286   3.330   3.976
 8427SOL     OW26179   2.783   3.373   5.270
 8427SOL    HW126180   2.767   3.278   5.298
 8427SOL    HW226181   2.813   3.374   5.174
 8428SOL     OW26182   0.182   4.195   1.742
 8428SOL    HW126183   0.270   4.184   1.788
 8428SOL    HW226184   0.195   4.247   1.657
 8429SOL     OW26185   2.244   4.283   3.643
 8429SOL    HW126186   2.167   4.339   3.673
 8429SOL    HW226187   2.329   4.332   3.659
 8430SOL     OW26188   3.414   5.280   4.295
 8430SOL    HW126189   3.399   5.182   4.288
 8430SOL    HW226190   3.388   5.311   4.387
 8431SOL     OW26191   3.018   5.526   0.695
 8431SOL    HW126192   2.963   5.592   0.746
 8431SOL    HW226193   3.090   5.489   0.754
 8432SOL     OW26194   5.537   0.037   6.310
 8432SOL    HW126195   5.473   0.066   6.240
 8432SOL    HW226196   5.553   6.957   6.302
 8433SOL     OW26197   5.924   1.752   0.683
 8433SOL    HW126198   6.014   1.732   0.722
 8433SOL    HW226199   5.909   1.694   0.602
 8434SOL     OW26200   3.571   6.838   4.912
 8434SOL    HW126201   3.538   6.898   4.839
 8434SOL    HW226202   3.493   6.798   4.960
 8435SOL     OW26203   5.576   0.510   0.960
 8435SOL    HW126204   5.549   0.572   0.886
 8435SOL    HW226205   5.542   0.546   1.047
 8436SOL     OW26206   3.196   0.207   4.460
 8436SOL    HW126207   3.156   0.227   4.370
 8436SOL    HW226208   3.125   0.216   4.530
 8437SOL     OW26209   1.700   0.269   3.502
 8437SOL    HW126210   1.789   0.254   3.459
 8437SOL    HW226211   1.701   0.229   3.594
 8438SOL     OW26212   2.464   5.001   1.915
 8438SOL    HW126213   2.409   5.030   1.993
 8438SOL    HW226214   2.515   4.918   1.940
 8439SOL     OW26215   6.173   5.152   2.313
 8439SOL    HW126216   6.250   5.136   2.252
 8439SOL    HW226217   6.133   5.065   2.340
 8440SOL     OW26218   1.006   1.933   3.594
 8440SOL    HW126219   1.082   1.993   3.617
 8440SOL    HW226220   1.041   1.844   3.565
 8441SOL     OW26221   5.907   6.893   0.170
 8441SOL    HW126222   5.999   6.915   0.201
 8441SOL    HW226223   5.842   6.959   0.209
 8442SOL     OW26224   2.948   2.314   5.587
 8442SOL    HW126225   2.867   2.294   5.532
 8442SOL    HW226226   2.954   2.413   5.601
 8443SOL     OW26227   1.638   5.850   3.711
 8443SOL    HW126228   1.560   5.859   3.649
 8443SOL    HW226229   1.666   5.941   3.744
 8444SOL     OW26230   3.426   5.928   3.709
 8444SOL    HW126231   3.425   5.987   3.628
 8444SOL    HW226232   3.339   5.879   3.714
 8445SOL     OW26233   3.622   5.893   1.445
 8445SOL    HW126234   3.678   5.975   1.451
 8445SOL    HW226235   3.673   5.814   1.478
 8446SOL     OW26236   4.997   4.734   6.833
 8446SOL    HW126237   4.978   4.809   6.770
 8446SOL    HW226238   4.912   4.685   6.853
 8447SOL     OW26239   5.348   2.464   1.858
 8447SOL    HW126240   5.249   2.474   1.869
 8447SOL    HW226241   5.395   2.535   1.910
 8448SOL     OW26242   4.833   5.754   4.139
 8448SOL    HW126243   4.824   5.848   4.104
 8448SOL    HW226244   4.902   5.752   4.211
 8449SOL     OW26245   6.573   2.836   4.002
 8449SOL    HW126246   6.502   2.769   4.025
 8449SOL    HW226247   6.538   2.899   3.932
 8450SOL     OW26248   1.028   5.908   1.717
 8450SOL    HW126249   1.087   5.920   1.637
 8450SOL    HW226250   0.933   5.927   1.692
 8451SOL     OW26251   4.644   2.751   0.565
 8451SOL    HW126252   4.635   2.834   0.510
 8451SOL    HW226253   4.684   2.678   0.510
 8452SOL     OW26254   6.665   0.967   2.936
 8452SOL    HW126255   6.690   0.874   2.911
 8452SOL    HW226256   6.647   0.971   3.035
 8453SOL     OW26257   0.287   4.159   6.160
 8453SOL    HW126258   0.355   4.167   6.086
 8453SOL    HW226259   0.199   4.135   6.120
 8454SOL     OW26260   0.058   6.607   1.077
 8454SOL    HW126261   0.033   6.684   1.017
 8454SOL    HW226262   0.061   6.523   1.023
 8455SOL     OW26263   5.734   2.420   1.827
 8455SOL    HW126264   5.703   2.340   1.775
 8455SOL    HW226265   5.709   2.503   1.778
 8456SOL     OW26266   4.884   5.717   2.826
 8456SOL    HW126267   4.812   5.771   2.868
 8456SOL    HW226268   4.873   5.621   2.851
 8457SOL     OW26269   6.920   6.765   4.777
 8457SOL    HW126270   6.855   6.792   4.848
 8457SOL    HW226271   6.963   6.846   4.738
 8458SOL     OW26272   2.576   1.382   6.610
 8458SOL    HW126273   2.604   1.396   6.515
 8458SOL    HW226274   2.494   1.437   6.629
 8459SOL     OW26275   3.110   6.630   2.122
 8459SOL    HW126276   3.157   6.669   2.043
 8459SOL    HW226277   3.011   6.639   2.111
 8460SOL     OW26278   4.883   3.225   5.806
 8460SOL    HW126279   4.947   3.155   5.775
 8460SOL    HW226280   4.789   3.194   5.789
 8461SOL     OW26281   0.189   3.983   3.174
 8461SOL    HW126282   0.168   3.923   3.252
 8461SOL    HW226283   0.229   4.068   3.207
 8462SOL     OW26284   3.628   2.356   6.757
 8462SOL    HW126285   3.673   2.278   6.800
 8462SOL    HW226286   3.543   2.325   6.713
 8463SOL     OW26287   6.182   6.936   0.205
 8463SOL    HW126288   6.212   6.923   0.110
 8463SOL    HW226289   6.235   6.877   0.265
 8464SOL     OW26290   5.650   3.499   5.712
 8464SOL    HW126291   5.571   3.486   5.772
 8464SOL    HW226292   5.624   3.557   5.635
 8465SOL     OW26293   1.962   3.018   0.952
 8465SOL    HW126294   1.973   2.920   0.965
 8465SOL    HW226295   2.049   3.064   0.973
 8466SOL     OW26296   0.643   6.951   5.417
 8466SOL    HW126297   0.573   6.913   5.477
 8466SOL    HW226298   0.600   6.978   5.330
 8467SOL     OW26299   4.156   0.185   1.343
 8467SOL    HW126300   4.135   0.264   1.285
 8467SOL    HW226301   4.071   0.140   1.369
 8468SOL     OW26302   4.429   2.448   0.283
 8468SOL    HW126303   4.490   2.370   0.275
 8468SOL    HW226304   4.420   2.473   0.380
 8469SOL     OW26305   3.753   1.479   5.329
 8469SOL    HW126306   3.691   1.521   5.263
 8469SOL    HW226307   3.715   1.489   5.421
 8470SOL     OW26308   0.898   4.783   0.238
 8470SOL    HW126309   0.822   4.759   0.299
 8470SOL    HW226310   0.862   4.799   0.146
 8471SOL     OW26311   4.094   0.399   4.180
 8471SOL    HW126312   4.183   0.393   4.226
 8471SOL    HW226313   4.076   0.312   4.133
 8472SOL     OW26314   6.722   0.855   5.332
 8472SOL    HW126315   6.816   0.886   5.345
 8472SOL    HW226316   6.680   0.840   5.422
 8473SOL     OW26317   6.670   6.157   0.852
 8473SOL    HW126318   6.576   6.163   0.818
 8473SOL    HW226319   6.669   6.138   0.950
 8474SOL     OW26320   3.434   3.244   2.650
 8474SOL    HW126321   3.519   3.295   2.668
 8474SOL    HW226322   3.424   3.230   2.552
 8475SOL     OW26323   0.064   2.005   3.618
 8475SOL    HW126324   7.002   2.043   3.664
 8475SOL    HW226325   0.122   2.080   3.586
 8476SOL     OW26326   6.659   2.243   0.936
 8476SOL    HW126327   6.672   2.342   0.948
 8476SOL    HW226328   6.561   2.225   0.922
 8477SOL     OW26329   4.616   6.898   2.471
 8477SOL    HW126330   4.645   6.819   2.417
 8477SOL    HW226331   4.562   6.960   2.414
 8478SOL     OW26332   1.438   0.282   6.368
 8478SOL    HW126333   1.451   0.290   6.467
 8478SOL    HW226334   1.425   0.372   6.328
 8479SOL     OW26335   0.316   2.424   1.299
 8479SOL    HW126336   0.369   2.469   1.371
 8479SOL    HW226337   0.309   2.483   1.219
 8480SOL     OW26338   4.970   2.586   6.799
 8480SOL    HW126339   4.917   2.626   6.725
 8480SOL    HW226340   4.935   2.494   6.819
 8481SOL     OW26341   4.840   2.564   4.983
 8481SOL    HW126342   4.821   2.483   4.928
 8481SOL    HW226343   4.814   2.547   5.078
 8482SOL     OW26344   4.589   6.142   2.524
 8482SOL    HW126345   4.612   6.083   2.447
 8482SOL    HW226346   4.588   6.088   2.608
 8483SOL     OW26347   3.919   6.551   1.611
 8483SOL    HW126348   3.998   6.510   1.658
 8483SOL    HW226349   3.877   6.620   1.670
 8484SOL     OW26350   0.045   6.095   3.566
 8484SOL    HW126351   0.106   6.115   3.643
 8484SOL    HW226352   7.006   6.017   3.590
 8485SOL     OW26353   3.184   2.601   0.123
 8485SOL    HW126354   3.267   2.578   0.173
 8485SOL    HW226355   3.149   2.689   0.156
 8486SOL     OW26356   2.458   1.560   2.407
 8486SOL    HW126357   2.433   1.505   2.486
 8486SOL    HW226358   2.482   1.653   2.436
 8487SOL     OW26359   6.125   1.241   5.496
 8487SOL    HW126360   6.052   1.225   5.563
 8487SOL    HW226361   6.084   1.250   5.405
 8488SOL     OW26362   4.906   6.335   0.625
 8488SOL    HW126363   4.998   6.328   0.664
 8488SOL    HW226364   4.871   6.244   0.605
 8489SOL     OW26365   6.021   1.954   1.552
 8489SOL    HW126366   6.014   2.045   1.592
 8489SOL    HW226367   6.117   1.929   1.543
 8490SOL     OW26368   4.132   7.008   4.055
 8490SOL    HW126369   4.049   6.969   4.016
 8490SOL    HW226370   4.162   0.067   4.001
 8491SOL     OW26371   2.657   5.853   1.507
 8491SOL    HW126372   2.647   5.759   1.540
 8491SOL    HW226373   2.607   5.863   1.422
 8492SOL     OW26374   5.287   3.940   4.940
 8492SOL    HW126375   5.293   3.944   4.841
 8492SOL    HW226376   5.343   4.012   4.981
 8493SOL     OW26377   2.383   2.787   6.341
 8493SOL    HW126378   2.332   2.725   6.400
 8493SOL    HW226379   2.336   2.797   6.253
 8494SOL     OW26380   3.896   5.470   1.777
 8494SOL    HW126381   3.801   5.464   1.748
 8494SOL    HW226382   3.949   5.519   1.708
 8495SOL     OW26383   6.456   5.224   2.152
 8495SOL    HW126384   6.528   5.165   2.116
 8495SOL    HW226385   6.370   5.203   2.106
 8496SOL     OW26386   1.263   2.177   2.159
 8496SOL    HW126387   1.359   2.155   2.177
 8496SOL    HW226388   1.258   2.242   2.083
 8497SOL     OW26389   0.052   0.735   3.604
 8497SOL    HW126390   0.122   0.671   3.571
 8497SOL    HW226391   0.024   0.795   3.530
 8498SOL     OW26392   5.678   5.841   3.357
 8498SOL    HW126393   5.685   5.922   3.298
 8498SOL    HW226394   5.695   5.759   3.303
 8499SOL     OW26395   1.788   4.556   6.573
 8499SOL    HW126396   1.835   4.512   6.650
 8499SOL    HW226397   1.848   4.553   6.493
 8500SOL     OW26398   1.711   6.481   5.328
 8500SOL    HW126399   1.792   6.539   5.335
 8500SOL    HW226400   1.734   6.399   5.276
 8501SOL     OW26401   0.443   2.440   6.945
 8501SOL    HW126402   0.382   2.375   6.900
 8501SOL    HW226403   0.471   2.510   6.880
 8502SOL     OW26404   0.542   3.373   1.235
 8502SOL    HW126405   0.478   3.404   1.305
 8502SOL    HW226406   0.563   3.449   1.172
 8503SOL     OW26407   0.633   6.361   4.013
 8503SOL    HW126408   0.590   6.283   3.968
 8503SOL    HW226409   0.641   6.343   4.111
 8504SOL     OW26410   2.455   4.905   2.654
 8504SOL    HW126411   2.364   4.946   2.644
 8504SOL    HW226412   2.479   4.901   2.751
 8505SOL     OW26413   5.690   3.308   3.486
 8505SOL    HW126414   5.648   3.236   3.431
 8505SOL    HW226415   5.686   3.395   3.436
 8506SOL     OW26416   1.025   0.828   6.912
 8506SOL    HW126417   0.979   0.917   6.902
 8506SOL    HW226418   1.121   0.838   6.886
 8507SOL     OW26419   3.775   0.681   4.757
 8507SOL    HW126420   3.835   0.694   4.836
 8507SOL    HW226421   3.679   0.686   4.786
 8508SOL     OW26422   5.068   1.615   4.763
 8508SOL    HW126423   5.045   1.677   4.688
 8508SOL    HW226424   5.110   1.668   4.837
 8509SOL     OW26425   4.718   1.082   4.346
 8509SOL    HW126426   4.714   1.025   4.429
 8509SOL    HW226427   4.651   1.050   4.280
 8510SOL     OW26428   5.660   4.273   2.487
 8510SOL    HW126429   5.606   4.357   2.480
 8510SOL    HW226430   5.625   4.218   2.564
 8511SOL     OW26431   5.715   4.314   2.227
 8511SOL    HW126432   5.712   4.276   2.319
 8511SOL    HW226433   5.792   4.377   2.219
 8512SOL     OW26434   2.821   1.664   1.958
 8512SOL    HW126435   2.896   1.708   1.909
 8512SOL    HW226436   2.855   1.623   2.043
 8513SOL     OW26437   6.222   5.097   0.824
 8513SOL    HW126438   6.270   5.185   0.819
 8513SOL    HW226439   6.205   5.075   0.920
 8514SOL     OW26440   2.315   2.072   3.921
 8514SOL    HW126441   2.348   2.166   3.910
 8514SOL    HW226442   2.374   2.024   3.987
 8515SOL     OW26443   4.807   2.019   1.218
 8515SOL    HW126444   4.746   1.985   1.146
 8515SOL    HW226445   4.783   2.114   1.238
 8516SOL     OW26446   6.366   2.244   1.926
 8516SOL    HW126447   6.425   2.166   1.950
 8516SOL    HW226448   6.276   2.211   1.900
 8517SOL     OW26449   0.891   2.444   6.635
 8517SOL    HW126450   0.865   2.480   6.545
 8517SOL    HW226451   0.984   2.476   6.657
 8518SOL     OW26452   4.190   4.598   6.826
 8518SOL    HW126453   4.138   4.682   6.838
 8518SOL    HW226454   4.248   4.606   6.746
 8519SOL     OW26455   1.651   4.813   1.915
 8519SOL    HW126456   1.676   4.720   1.887
 8519SOL    HW226457   1.714   4.844   1.986
 8520SOL     OW26458   3.406   2.414   0.191
 8520SOL    HW126459   3.450   2.351   0.255
 8520SOL    HW226460   3.469   2.489   0.170
 8521SOL     OW26461   1.538   4.668   5.823
 8521SOL    HW126462   1.456   4.673   5.879
 8521SOL    HW226463   1.617   4.694   5.878
 8522SOL     OW26464   1.280   5.392   1.307
 8522SOL    HW126465   1.348   5.441   1.361
 8522SOL    HW226466   1.190   5.401   1.350
 8523SOL     OW26467   3.219   6.926   6.355
 8523SOL    HW126468   3.182   6.923   6.262
 8523SOL    HW226469   3.177   7.002   6.405
 8524SOL     OW26470   0.915   2.066   4.942
 8524SOL    HW126471   0.865   2.021   5.017
 8524SOL    HW226472   0.982   2.129   4.981
 8525SOL     OW26473   5.970   4.159   3.074
 8525SOL    HW126474   5.912   4.188   3.150
 8525SOL    HW226475   6.041   4.097   3.108
 8526SOL     OW26476   3.862   5.059   6.765
 8526SOL    HW126477   3.902   5.077   6.675
 8526SOL    HW226478   3.888   5.133   6.827
 8527SOL     OW26479   3.144   0.425   5.449
 8527SOL    HW126480   3.199   0.493   5.401
 8527SOL    HW226481   3.070   0.470   5.498
 8528SOL     OW26482   5.169   2.946   6.054
 8528SOL    HW126483   5.145   3.034   6.096
 8528SOL    HW226484   5.096   2.880   6.072
 8529SOL     OW26485   0.330   0.044   0.991
 8529SOL    HW126486   0.389   0.089   1.058
 8529SOL    HW226487   0.288   6.982   1.032
 8530SOL     OW26488   2.213   3.767   5.207
 8530SOL    HW126489   2.220   3.749   5.305
 8530SOL    HW226490   2.284   3.831   5.179
 8531SOL     OW26491   6.683   4.363   1.417
 8531SOL    HW126492   6.741   4.443   1.436
 8531SOL    HW226493   6.722   4.283   1.463
 8532SOL     OW26494   4.046   4.936   4.689
 8532SOL    HW126495   4.128   4.880   4.677
 8532SOL    HW226496   4.002   4.951   4.601
 8533SOL     OW26497   1.830   0.214   5.904
 8533SOL    HW126498   1.744   0.265   5.911
 8533SOL    HW226499   1.903   0.275   5.874
 8534SOL     OW26500   6.431   3.430   4.260
 8534SOL    HW126501   6.384   3.518   4.263
 8534SOL    HW226502   6.377   3.362   4.309
 8535SOL     OW26503   0.432   2.110   5.035
 8535SOL    HW126504   0.447   2.189   4.976
 8535SOL    HW226505   0.372   2.045   4.989
 8536SOL     OW26506   6.057   2.353   4.781
 8536SOL    HW126507   6.120   2.299   4.724
 8536SOL    HW226508   6.110   2.411   4.843
 8537SOL     OW26509   5.313   1.541   2.684
 8537SOL    HW126510   5.328   1.470   2.615
 8537SOL    HW226511   5.239   1.512   2.745
 8538SOL     OW26512   1.267   1.574   6.067
 8538SOL    HW126513   1.215   1.634   6.128
 8538SOL    HW226514   1.220   1.486   6.059
 8539SOL     OW26515   6.566   1.218   1.902
 8539SOL    HW126516   6.575   1.301   1.848
 8539SOL    HW226517   6.561   1.139   1.841
 8540SOL     OW26518   4.190   1.585   0.269
 8540SOL    HW126519   4.247   1.505   0.288
 8540SOL    HW226520   4.125   1.598   0.344
 8541SOL     OW26521   3.243   2.021   4.428
 8541SOL    HW126522   3.179   1.963   4.479
 8541SOL    HW226523   3.291   1.966   4.360
 8542SOL     OW26524   2.481   4.733   6.136
 8542SOL    HW126525   2.533   4.764   6.216
 8542SOL    HW226526   2.535   4.666   6.085
 8543SOL     OW26527   3.155   1.087   6.924
 8543SOL    HW126528   3.110   1.174   6.941
 8543SOL    HW226529   3.239   1.081   6.977
 8544SOL     OW26530   5.461   3.069   4.328
 8544SOL    HW126531   5.557   3.091   4.313
 8544SOL    HW226532   5.454   2.996   4.397
 8545SOL     OW26533   4.943   0.057   4.424
 8545SOL    HW126534   4.922   0.041   4.328
 8545SOL    HW226535   4.889   7.013   4.481
 8546SOL     OW26536   0.653   7.005   2.792
 8546SOL    HW126537   0.554   6.997   2.778
 8546SOL    HW226538   0.671   0.031   2.879
 8547SOL     OW26539   0.995   0.125   6.903
 8547SOL    HW126540   1.035   0.173   6.982
 8547SOL    HW226541   0.966   0.034   6.931
 8548SOL     OW26542   6.784   2.882   6.085
 8548SOL    HW126543   6.749   2.976   6.091
 8548SOL    HW226544   6.879   2.880   6.116
 8549SOL     OW26545   1.096   2.779   4.353
 8549SOL    HW126546   1.081   2.831   4.437
 8549SOL    HW226547   1.061   2.831   4.275
 8550SOL     OW26548   1.338   5.270   0.406
 8550SOL    HW126549   1.402   5.314   0.470
 8550SOL    HW226550   1.252   5.320   0.407
 8551SOL     OW26551   2.856   3.029   0.229
 8551SOL    HW126552   2.757   3.028   0.241
 8551SOL    HW226553   2.893   2.939   0.252
 8552SOL     OW26554   2.175   0.705   2.927
 8552SOL    HW126555   2.135   0.796   2.920
 8552SOL    HW226556   2.128   0.642   2.865
 8553SOL     OW26557   4.243   4.573   6.518
 8553SOL    HW126558   4.240   4.599   6.422
 8553SOL    HW226559   4.154   4.535   6.545
 8554SOL     OW26560   0.555   5.546   0.449
 8554SOL    HW126561   0.578   5.600   0.367
 8554SOL    HW226562   0.582   5.598   0.530
 8555SOL     OW26563   3.223   1.105   3.537
 8555SOL    HW126564   3.268   1.193   3.520
 8555SOL    HW226565   3.174   1.077   3.454
 8556SOL     OW26566   2.417   6.769   5.314
 8556SOL    HW126567   2.363   6.713   5.376
 8556SOL    HW226568   2.514   6.750   5.328
 8557SOL     OW26569   6.391   6.629   2.516
 8557SOL    HW126570   6.450   6.654   2.439
 8557SOL    HW226571   6.314   6.692   2.520
 8558SOL     OW26572   2.449   5.434   3.132
 8558SOL    HW126573   2.497   5.470   3.212
 8558SOL    HW226574   2.379   5.500   3.103
 8559SOL     OW26575   2.146   7.018   2.192
 8559SOL    HW126576   2.240   6.988   2.175
 8559SOL    HW226577   2.140   0.041   2.283
 8560SOL     OW26578   1.027   6.169   1.844
 8560SOL    HW126579   0.967   6.232   1.796
 8560SOL    HW226580   1.013   6.076   1.810
 8561SOL     OW26581   3.464   0.280   3.004
 8561SOL    HW126582   3.558   0.292   2.972
 8561SOL    HW226583   3.404   0.264   2.926
 8562SOL     OW26584   4.285   6.367   6.288
 8562SOL    HW126585   4.246   6.276   6.271
 8562SOL    HW226586   4.377   6.371   6.249
 8563SOL     OW26587   0.653   4.767   1.236
 8563SOL    HW126588   0.744   4.724   1.235
 8563SOL    HW226589   0.649   4.836   1.307
 8564SOL     OW26590   3.284   0.246   4.986
 8564SOL    HW126591   3.240   0.329   5.020
 8564SOL    HW226592   3.305   0.185   5.062
 8565SOL     OW26593   3.637   5.017   1.030
 8565SOL    HW126594   3.667   5.073   1.107
 8565SOL    HW226595   3.630   4.921   1.060
 8566SOL     OW26596   0.404   6.489   1.673
 8566SOL    HW126597   0.363   6.543   1.747
 8566SOL    HW226598   0.366   6.518   1.586
 8567SOL     OW26599   6.784   1.921   2.586
 8567SOL    HW126600   6.813   1.867   2.507
 8567SOL    HW226601   6.708   1.876   2.632
 8568SOL     OW26602   5.413   1.566   6.695
 8568SOL    HW126603   5.472   1.501   6.744
 8568SOL    HW226604   5.467   1.612   6.624
 8569SOL     OW26605   4.453   1.391   5.583
 8569SOL    HW126606   4.541   1.410   5.539
 8569SOL    HW226607   4.379   1.436   5.533
 8570SOL     OW26608   1.399   1.270   4.331
 8570SOL    HW126609   1.410   1.286   4.429
 8570SOL    HW226610   1.322   1.325   4.297
 8571SOL     OW26611   0.564   5.774   5.756
 8571SOL    HW126612   0.523   5.706   5.818
 8571SOL    HW226613   0.505   5.854   5.751
 8572SOL     OW26614   2.427   4.376   6.119
 8572SOL    HW126615   2.458   4.335   6.205
 8572SOL    HW226616   2.330   4.355   6.105
 8573SOL     OW26617   3.142   6.139   6.567
 8573SOL    HW126618   3.162   6.108   6.474
 8573SOL    HW226619   3.217   6.197   6.599
 8574SOL     OW26620   6.520   0.015   6.277
 8574SOL    HW126621   6.588   0.065   6.332
 8574SOL    HW226622   6.434   0.012   6.327
 8575SOL     OW26623   2.212   1.944   3.488
 8575SOL    HW126624   2.130   1.986   3.528
 8575SOL    HW226625   2.190   1.852   3.456
 8576SOL     OW26626   1.504   4.214   4.645
 8576SOL    HW126627   1.508   4.250   4.738
 8576SOL    HW226628   1.535   4.118   4.645
 8577SOL     OW26629   1.885   6.644   5.079
 8577SOL    HW126630   1.892   6.738   5.045
 8577SOL    HW226631   1.958   6.628   5.146
 8578SOL     OW26632   6.199   5.702   4.890
 8578SOL    HW126633   6.147   5.617   4.876
 8578SOL    HW226634   6.140   5.781   4.874
 8579SOL     OW26635   1.791   6.944   1.835
 8579SOL    HW126636   1.850   6.887   1.777
 8579SOL    HW226637   1.818   6.933   1.931
 8580SOL     OW26638   1.988   6.111   1.013
 8580SOL    HW126639   1.969   6.192   1.069
 8580SOL    HW226640   1.934   6.034   1.047
 8581SOL     OW26641   3.344   3.755   1.593
 8581SOL    HW126642   3.420   3.790   1.648
 8581SOL    HW226643   3.380   3.699   1.518
 8582SOL     OW26644   4.668   4.274   4.903
 8582SOL    HW126645   4.580   4.244   4.866
 8582SOL    HW226646   4.708   4.342   4.842
 8583SOL     OW26647   4.592   0.309   4.360
 8583SOL    HW126648   4.506   0.283   4.316
 8583SOL    HW226649   4.574   0.369   4.438
 8584SOL     OW26650   0.534   5.883   6.522
 8584SOL    HW126651   0.440   5.850   6.533
 8584SOL    HW226652   0.531   5.973   6.477
 8585SOL     OW26653   6.394   1.498   6.739
 8585SOL    HW126654   6.474   1.502   6.799
 8585SOL    HW226655   6.342   1.583   6.747
 8586SOL     OW26656   3.324   6.432   1.882
 8586SOL    HW126657   3.345   6.343   1.841
 8586SOL    HW226658   3.387   6.450   1.957
 8587SOL     OW26659   0.981   0.481   4.827
 8587SOL    HW126660   0.944   0.430   4.906
 8587SOL    HW226661   1.003   0.574   4.856
 8588SOL     OW26662   4.093   0.865   0.112
 8588SOL    HW126663   4.130   0.794   0.052
 8588SOL    HW226664   4.065   0.943   0.057
 8589SOL     OW26665   5.618   2.895   5.443
 8589SOL    HW126666   5.614   2.929   5.538
 8589SOL    HW226667   5.679   2.817   5.438
 8590SOL     OW26668   0.160   0.456   2.889
 8590SOL    HW126669   0.241   0.489   2.841
 8590SOL    HW226670   0.159   0.493   2.982
 8591SOL     OW26671   0.312   4.031   0.547
 8591SOL    HW126672   0.299   3.938   0.514
 8591SOL    HW226673   0.392   4.034   0.606
 8592SOL     OW26674   5.905   1.979   6.574
 8592SOL    HW126675   5.852   1.977   6.659
 8592SOL    HW226676   5.865   2.046   6.512
 8593SOL     OW26677   3.010   1.050   0.318
 8593SOL    HW126678   2.961   1.027   0.233
 8593SOL    HW226679   2.973   0.995   0.393
 8594SOL     OW26680   4.864   2.437   5.328
 8594SOL    HW126681   4.769   2.451   5.357
 8594SOL    HW226682   4.916   2.399   5.405
 8595SOL     OW26683   0.676   1.105   3.842
 8595SOL    HW126684   0.597   1.146   3.887
 8595SOL    HW226685   0.698   1.157   3.760
 8596SOL     OW26686   1.165   4.499   2.625
 8596SOL    HW126687   1.179   4.588   2.582
 8596SOL    HW226688   1.096   4.507   2.697
 8597SOL     OW26689   4.541   1.846   1.530
 8597SOL    HW126690   4.544   1.826   1.628
 8597SOL    HW226691   4.471   1.788   1.487
 8598SOL     OW26692   5.814   0.429   0.031
 8598SOL    HW126693   5.855   0.502   0.085
 8598SOL    HW226694   5.885   0.383   6.997
 8599SOL     OW26695   1.860   2.239   4.356
 8599SOL    HW126696   1.767   2.238   4.321
 8599SOL    HW226697   1.884   2.333   4.383
 8600SOL     OW26698   5.192   4.050   6.615
 8600SOL    HW126699   5.291   4.048   6.627
 8600SOL    HW226700   5.166   4.140   6.579
 8601SOL     OW26701   1.024   1.331   4.382
 8601SOL    HW126702   1.038   1.388   4.301
 8601SOL    HW226703   0.928   1.302   4.386
 8602SOL     OW26704   2.950   6.074   2.420
 8602SOL    HW126705   3.004   6.149   2.458
 8602SOL    HW226706   2.936   6.004   2.491
 8603SOL     OW26707   5.201   6.024   0.929
 8603SOL    HW126708   5.173   6.071   0.846
 8603SOL    HW226709   5.135   6.041   1.001
 8604SOL     OW26710   0.469   2.437   5.384
 8604SOL    HW126711   0.409   2.499   5.332
 8604SOL    HW226712   0.518   2.378   5.321
 8605SOL     OW26713   2.385   5.290   4.083
 8605SOL    HW126714   2.404   5.216   4.148
 8605SOL    HW226715   2.286   5.305   4.078
 8606SOL     OW26716   1.727   3.526   6.295
 8606SOL    HW126717   1.766   3.488   6.379
 8606SOL    HW226718   1.794   3.519   6.221
 8607SOL     OW26719   3.083   5.123   6.074
 8607SOL    HW126720   3.141   5.197   6.110
 8607SOL    HW226721   3.141   5.049   6.042
 8608SOL     OW26722   3.012   4.792   2.411
 8608SOL    HW126723   2.999   4.737   2.328
 8608SOL    HW226724   2.945   4.764   2.480
 8609SOL     OW26725   5.157   0.397   2.717
 8609SOL    HW126726   5.120   0.324   2.774
 8609SOL    HW226727   5.241   0.433   2.759
 8610SOL     OW26728   0.984   1.777   3.117
 8610SOL    HW126729   1.008   1.764   3.021
 8610SOL    HW226730   1.053   1.834   3.162
 8611SOL     OW26731   2.934   1.899   4.694
 8611SOL    HW126732   2.946   1.999   4.695
 8611SOL    HW226733   2.968   1.863   4.607
 8612SOL     OW26734   2.643   3.039   0.590
 8612SOL    HW126735   2.722   3.091   0.558
 8612SOL    HW226736   2.622   3.064   0.684
 8613SOL     OW26737   3.135   1.560   1.717
 8613SOL    HW126738   3.146   1.570   1.618
 8613SOL    HW226739   3.058   1.499   1.736
 8614SOL     OW26740   0.968   2.781   3.931
 8614SOL    HW126741   0.917   2.740   3.855
 8614SOL    HW226742   1.064   2.756   3.924
 8615SOL     OW26743   4.582   2.094   5.272
 8615SOL    HW126744   4.590   1.997   5.250
 8615SOL    HW226745   4.537   2.142   5.197
 8616SOL     OW26746   3.124   4.584   1.706
 8616SOL    HW126747   3.165   4.672   1.728
 8616SOL    HW226748   3.034   4.577   1.750
 8617SOL     OW26749   5.983   1.264   5.258
 8617SOL    HW126750   6.045   1.213   5.197
 8617SOL    HW226751   5.902   1.208   5.277
 8618SOL     OW26752   6.203   5.023   1.085
 8618SOL    HW126753   6.141   4.967   1.140
 8618SOL    HW226754   6.297   5.004   1.111
 8619SOL     OW26755   4.126   5.030   2.076
 8619SOL    HW126756   4.096   4.969   2.150
 8619SOL    HW226757   4.064   5.109   2.072
 8620SOL     OW26758   1.772   6.979   3.486
 8620SOL    HW126759   1.812   0.050   3.506
 8620SOL    HW226760   1.846   6.912   3.476
 8621SOL     OW26761   5.693   1.946   2.498
 8621SOL    HW126762   5.736   2.023   2.452
 8621SOL    HW226763   5.603   1.928   2.457
 8622SOL     OW26764   5.108   3.314   1.081
 8622SOL    HW126765   5.129   3.272   1.170
 8622SOL    HW226766   5.013   3.295   1.058
 8623SOL     OW26767   1.225   3.926   4.436
 8623SOL    HW126768   1.259   3.849   4.381
 8623SOL    HW226769   1.284   4.005   4.421
 8624SOL     OW26770   1.856   3.595   4.669
 8624SOL    HW126771   1.951   3.596   4.702
 8624SOL    HW226772   1.851   3.645   4.582
 8625SOL     OW26773   4.643   1.253   5.936
 8625SOL    HW126774   4.714   1.315   5.970
 8625SOL    HW226775   4.557   1.304   5.927
 8626SOL     OW26776   3.639   2.604   6.643
 8626SOL    HW126777   3.638   2.512   6.681
 8626SOL    HW226778   3.733   2.630   6.620
 8627SOL     OW26779   0.894   1.503   2.778
 8627SOL    HW126780   0.844   1.455   2.850
 8627SOL    HW226781   0.844   1.496   2.692
 8628SOL     OW26782   6.239   6.699   0.327
 8628SOL    HW126783   6.150   6.679   0.369
 8628SOL    HW226784   6.236   6.675   0.230
 8629SOL     OW26785   1.940   5.976   4.991
 8629SOL    HW126786   2.001   6.022   4.927
 8629SOL    HW226787   1.935   5.878   4.969
 8630SOL     OW26788   5.406   4.022   4.371
 8630SOL    HW126789   5.339   3.960   4.330
 8630SOL    HW226790   5.402   4.014   4.471
 8631SOL     OW26791   0.602   5.577   6.836
 8631SOL    HW126792   0.664   5.616   6.768
 8631SOL    HW226793   0.651   5.511   6.892
 8632SOL     OW26794   4.167   5.065   5.262
 8632SOL    HW126795   4.183   5.093   5.167
 8632SOL    HW226796   4.237   5.105   5.321
 8633SOL     OW26797   5.376   1.887   5.823
 8633SOL    HW126798   5.284   1.910   5.792
 8633SOL    HW226799   5.371   1.825   5.901
 8634SOL     OW26800   4.918   3.925   0.129
 8634SOL    HW126801   4.879   3.980   0.055
 8634SOL    HW226802   5.017   3.925   0.123
 8635SOL     OW26803   5.126   3.277   6.434
 8635SOL    HW126804   5.131   3.249   6.530
 8635SOL    HW226805   5.046   3.335   6.420
 8636SOL     OW26806   5.865   6.014   0.864
 8636SOL    HW126807   5.819   6.098   0.894
 8636SOL    HW226808   5.826   5.983   0.778
 8637SOL     OW26809   2.862   0.694   0.072
 8637SOL    HW126810   2.905   0.743   7.016
 8637SOL    HW226811   2.856   0.753   0.152
 8638SOL     OW26812   3.232   2.028   5.163
 8638SOL    HW126813   3.194   1.976   5.086
 8638SOL    HW226814   3.187   2.117   5.168
 8639SOL     OW26815   5.308   2.550   0.090
 8639SOL    HW126816   5.278   2.492   0.165
 8639SOL    HW226817   5.296   2.646   0.115
 8640SOL     OW26818   4.238   3.611   0.400
 8640SOL    HW126819   4.241   3.638   0.304
 8640SOL    HW226820   4.189   3.680   0.452
 8641SOL     OW26821   4.382   4.620   3.830
 8641SOL    HW126822   4.429   4.702   3.798
 8641SOL    HW226823   4.358   4.563   3.751
 8642SOL     OW26824   0.759   5.863   4.212
 8642SOL    HW126825   0.800   5.951   4.191
 8642SOL    HW226826   0.777   5.799   4.136
 8643SOL     OW26827   2.871   0.797   6.148
 8643SOL    HW126828   2.815   0.871   6.185
 8643SOL    HW226829   2.819   0.712   6.150
 8644SOL     OW26830   5.515   2.382   5.302
 8644SOL    HW126831   5.476   2.311   5.360
 8644SOL    HW226832   5.533   2.344   5.211
 8645SOL     OW26833   4.170   4.478   0.985
 8645SOL    HW126834   4.104   4.455   1.057
 8645SOL    HW226835   4.191   4.396   0.932
 8646SOL     OW26836   0.375   2.136   0.438
 8646SOL    HW126837   0.429   2.104   0.360
 8646SOL    HW226838   0.408   2.094   0.522
 8647SOL     OW26839   2.441   5.021   6.891
 8647SOL    HW126840   2.416   4.986   6.981
 8647SOL    HW226841   2.410   5.115   6.881
 8648SOL     OW26842   6.597   0.122   2.801
 8648SOL    HW126843   6.627   0.184   2.729
 8648SOL    HW226844   6.566   0.036   2.760
 8649SOL     OW26845   5.271   5.874   6.653
 8649SOL    HW126846   5.175   5.857   6.675
 8649SOL    HW226847   5.325   5.791   6.669
 8650SOL     OW26848   1.821   4.806   4.289
 8650SOL    HW126849   1.761   4.741   4.336
 8650SOL    HW226850   1.912   4.766   4.279
 8651SOL     OW26851   4.347   1.414   0.802
 8651SOL    HW126852   4.294   1.486   0.758
 8651SOL    HW226853   4.286   1.349   0.847
 8652SOL     OW26854   1.737   5.188   3.140
 8652SOL    HW126855   1.681   5.212   3.219
 8652SOL    HW226856   1.688   5.211   3.056
 8653SOL     OW26857   6.779   1.141   6.204
 8653SOL    HW126858   6.714   1.101   6.140
 8653SOL    HW226859   6.767   1.101   6.294
 8654SOL     OW26860   0.687   4.822   2.294
 8654SOL    HW126861   0.689   4.811   2.393
 8654SOL    HW226862   0.759   4.765   2.253
 8655SOL     OW26863   6.183   0.268   3.848
 8655SOL    HW126864   6.210   0.313   3.762
 8655SOL    HW226865   6.241   0.301   3.922
 8656SOL     OW26866   6.591   0.129   1.766
 8656SOL    HW126867   6.647   0.204   1.800
 8656SOL    HW226868   6.596   0.052   1.830
 8657SOL     OW26869   4.792   5.474   6.802
 8657SOL    HW126870   4.822   5.461   6.707
 8657SOL    HW226871   4.796   5.571   6.825
 8658SOL     OW26872   6.206   6.609   0.066
 8658SOL    HW126873   6.198   6.510   0.073
 8658SOL    HW226874   6.137   6.644   0.002
 8659SOL     OW26875   4.835   2.466   2.050
 8659SOL    HW126876   4.740   2.495   2.056
 8659SOL    HW226877   4.880   2.481   2.138
 8660SOL     OW26878   6.805   3.401   1.790
 8660SOL    HW126879   6.781   3.324   1.849
 8660SOL    HW226880   6.742   3.405   1.713
 8661SOL     OW26881   6.895   3.956   1.207
 8661SOL    HW126882   6.884   4.055   1.198
 8661SOL    HW226883   6.959   3.936   1.282
 8662SOL     OW26884   4.486   5.751   1.781
 8662SOL    HW126885   4.506   5.653   1.780
 8662SOL    HW226886   4.412   5.770   1.715
 8663SOL     OW26887   2.897   5.435   2.550
 8663SOL    HW126888   2.927   5.450   2.456
 8663SOL    HW226889   2.834   5.509   2.577
 8664SOL     OW26890   1.642   6.171   1.127
 8664SOL    HW126891   1.553   6.213   1.110
 8664SOL    HW226892   1.630   6.075   1.152
 8665SOL     OW26893   5.729   5.642   5.347
 8665SOL    HW126894   5.665   5.620   5.274
 8665SOL    HW226895   5.742   5.563   5.406
 8666SOL     OW26896   5.528   0.864   3.734
 8666SOL    HW126897   5.464   0.802   3.779
 8666SOL    HW226898   5.588   0.813   3.674
 8667SOL     OW26899   3.778   1.508   3.845
 8667SOL    HW126900   3.682   1.533   3.835
 8667SOL    HW226901   3.794   1.417   3.807
 8668SOL     OW26902   5.189   3.569   3.212
 8668SOL    HW126903   5.158   3.644   3.153
 8668SOL    HW226904   5.276   3.593   3.254
 8669SOL     OW26905   1.119   6.672   6.312
 8669SOL    HW126906   1.219   6.678   6.306
 8669SOL    HW226907   1.092   6.576   6.308
 8670SOL     OW26908   4.263   5.051   5.874
 8670SOL    HW126909   4.258   5.144   5.909
 8670SOL    HW226910   4.178   5.029   5.826
 8671SOL     OW26911   5.276   1.514   3.327
 8671SOL    HW126912   5.231   1.498   3.415
 8671SOL    HW226913   5.346   1.584   3.337
 8672SOL     OW26914   1.315   4.875   3.971
 8672SOL    HW126915   1.238   4.820   4.006
 8672SOL    HW226916   1.376   4.816   3.919
 8673SOL     OW26917   5.656   2.301   6.878
 8673SOL    HW126918   5.648   2.205   6.907
 8673SOL    HW226919   5.662   2.359   6.959
 8674SOL     OW26920   5.215   5.610   2.634
 8674SOL    HW126921   5.259   5.552   2.565
 8674SOL    HW226922   5.140   5.661   2.591
 8675SOL     OW26923   4.419   1.765   4.827
 8675SOL    HW126924   4.457   1.808   4.745
 8675SOL    HW226925   4.343   1.820   4.861
 8676SOL     OW26926   5.587   6.585   3.554
 8676SOL    HW126927   5.558   6.552   3.464
 8676SOL    HW226928   5.653   6.521   3.593
 8677SOL     OW26929   2.266   5.375   6.438
 8677SOL    HW126930   2.232   5.328   6.357
 8677SOL    HW226931   2.282   5.309   6.511
 8678SOL     OW26932   0.157   0.474   1.415
 8678SOL    HW126933   0.099   0.494   1.337
 8678SOL    HW226934   0.252   0.497   1.394
 8679SOL     OW26935   1.180   1.518   3.339
 8679SOL    HW126936   1.196   1.482   3.431
 8679SOL    HW226937   1.256   1.490   3.280
 8680SOL     OW26938   6.445   3.362   6.821
 8680SOL    HW126939   6.543   3.363   6.844
 8680SOL    HW226940   6.400   3.288   6.870
 8681SOL     OW26941   4.598   5.599   1.515
 8681SOL    HW126942   4.684   5.627   1.558
 8681SOL    HW226943   4.555   5.528   1.570
 8682SOL     OW26944   5.715   6.995   2.463
 8682SOL    HW126945   5.648   6.921   2.464
 8682SOL    HW226946   5.668   0.064   2.454
 8683SOL     OW26947   1.557   2.449   5.147
 8683SOL    HW126948   1.582   2.352   5.148
 8683SOL    HW226949   1.467   2.459   5.105
 8684SOL     OW26950   6.099   2.672   4.911
 8684SOL    HW126951   6.032   2.617   4.960
 8684SOL    HW226952   6.191   2.634   4.925
 8685SOL     OW26953   6.581   1.877   6.280
 8685SOL    HW126954   6.557   1.954   6.339
 8685SOL    HW226955   6.528   1.796   6.309
 8686SOL     OW26956   6.980   1.017   2.677
 8686SOL    HW126957   7.007   1.099   2.627
 8686SOL    HW226958   6.963   1.040   2.773
 8687SOL     OW26959   4.765   5.272   2.105
 8687SOL    HW126960   4.793   5.254   2.199
 8687SOL    HW226961   4.726   5.189   2.065
 8688SOL     OW26962   0.708   5.132   6.215
 8688SOL    HW126963   0.648   5.212   6.222
 8688SOL    HW226964   0.742   5.123   6.121
 8689SOL     OW26965   3.881   2.754   1.230
 8689SOL    HW126966   3.885   2.807   1.315
 8689SOL    HW226967   3.962   2.696   1.223
 8690SOL     OW26968   1.440   3.723   3.809
 8690SOL    HW126969   1.497   3.803   3.829
 8690SOL    HW226970   1.476   3.676   3.728
 8691SOL     OW26971   3.740   2.003   6.580
 8691SOL    HW126972   3.759   2.041   6.670
 8691SOL    HW226973   3.786   2.059   6.510
 8692SOL     OW26974   3.112   1.562   4.575
 8692SOL    HW126975   3.034   1.525   4.624
 8692SOL    HW226976   3.113   1.526   4.482
 8693SOL     OW26977   5.669   0.002   0.278
 8693SOL    HW126978   5.695   0.098   0.281
 8693SOL    HW226979   5.611   6.999   0.356
 8694SOL     OW26980   5.587   1.397   4.810
 8694SOL    HW126981   5.546   1.455   4.739
 8694SOL    HW226982   5.517   1.370   4.876
 8695SOL     OW26983   4.788   3.221   6.088
 8695SOL    HW126984   4.707   3.165   6.066
 8695SOL    HW226985   4.828   3.255   6.003
 8696SOL     OW26986   2.527   5.348   5.156
 8696SOL    HW126987   2.544   5.374   5.061
 8696SOL    HW226988   2.497   5.253   5.160
 8697SOL     OW26989   0.415   4.066   6.398
 8697SOL    HW126990   0.365   4.100   6.318
 8697SOL    HW226991   0.414   4.137   6.470
 8698SOL     OW26992   4.986   6.101   5.232
 8698SOL    HW126993   5.070   6.054   5.204
 8698SOL    HW226994   5.010   6.177   5.293
 8699SOL     OW26995   1.180   3.528   4.728
 8699SOL    HW126996   1.169   3.525   4.827
 8699SOL    HW226997   1.185   3.435   4.692
 8700SOL     OW26998   0.850   0.372   5.040
 8700SOL    HW126999   0.871   0.434   5.116
 8700SOL    HW227000   0.890   0.282   5.059
 8701SOL     OW27001   1.461   1.143   6.979
 8701SOL    HW127002   1.388   1.088   0.000
 8701SOL    HW227003   1.496   1.207   0.029
 8702SOL     OW27004   5.250   5.028   2.132
 8702SOL    HW127005   5.218   5.090   2.204
 8702SOL    HW227006   5.187   4.950   2.125
 8703SOL     OW27007   2.936   5.234   0.340
 8703SOL    HW127008   2.963   5.152   0.288
 8703SOL    HW227009   2.988   5.238   0.425
 8704SOL     OW27010   0.727   4.124   3.446
 8704SOL    HW127011   0.808   4.177   3.421
 8704SOL    HW227012   0.699   4.149   3.539
 8705SOL     OW27013   4.960   1.413   6.534
 8705SOL    HW127014   5.048   1.452   6.507
 8705SOL    HW227015   4.956   1.317   6.506
 8706SOL     OW27016   4.717   2.079   0.010
 8706SOL    HW127017   4.639   2.075   6.966
 8706SOL    HW227018   4.800   2.049   6.981
 8707SOL     OW27019   0.713   1.842   5.831
 8707SOL    HW127020   0.626   1.826   5.879
 8707SOL    HW227021   0.701   1.822   5.734
 8708SOL     OW27022   4.121   1.417   3.522
 8708SOL    HW127023   4.064   1.453   3.596
 8708SOL    HW227024   4.100   1.321   3.508
 8709SOL     OW27025   6.550   6.797   6.777
 8709SOL    HW127026   6.456   6.805   6.812
 8709SOL    HW227027   6.563   6.706   6.739
 8710SOL     OW27028   1.565   3.004   3.260
 8710SOL    HW127029   1.651   3.023   3.307
 8710SOL    HW227030   1.538   3.084   3.206
 8711SOL     OW27031   1.714   6.592   2.602
 8711SOL    HW127032   1.637   6.655   2.611
 8711SOL    HW227033   1.757   6.579   2.691
 8712SOL     OW27034   3.422   1.870   4.241
 8712SOL    HW127035   3.371   1.794   4.200
 8712SOL    HW227036   3.469   1.837   4.323
 8713SOL     OW27037   6.710   3.192   2.528
 8713SOL    HW127038   6.715   3.118   2.596
 8713SOL    HW227039   6.756   3.273   2.564
 8714SOL     OW27040   1.012   0.018   5.839
 8714SOL    HW127041   1.052   6.972   5.774
 8714SOL    HW227042   0.916   0.033   5.816
 8715SOL     OW27043   3.942   0.738   1.272
 8715SOL    HW127044   3.915   0.736   1.175
 8715SOL    HW227045   3.991   0.822   1.292
 8716SOL     OW27046   6.929   0.286   0.865
 8716SOL    HW127047   6.990   0.208   0.847
 8716SOL    HW227048   6.835   0.253   0.873
 8717SOL     OW27049   2.810   4.107   5.306
 8717SOL    HW127050   2.837   4.198   5.339
 8717SOL    HW227051   2.862   4.084   5.225
 8718SOL     OW27052   1.160   3.003   5.488
 8718SOL    HW127053   1.171   3.053   5.402
 8718SOL    HW227054   1.194   3.059   5.564
 8719SOL     OW27055   4.121   0.119   0.625
 8719SOL    HW127056   4.054   0.046   0.618
 8719SOL    HW227057   4.189   0.110   0.551
 8720SOL     OW27058   0.835   6.075   6.282
 8720SOL    HW127059   0.767   6.074   6.209
 8720SOL    HW227060   0.908   6.010   6.260
 8721SOL     OW27061   6.492   2.403   1.742
 8721SOL    HW127062   6.576   2.425   1.790
 8721SOL    HW227063   6.445   2.327   1.787
 8722SOL     OW27064   3.489   1.501   1.183
 8722SOL    HW127065   3.570   1.528   1.235
 8722SOL    HW227066   3.469   1.404   1.201
 8723SOL     OW27067   4.601   6.423   2.127
 8723SOL    HW127068   4.529   6.459   2.185
 8723SOL    HW227069   4.571   6.337   2.085
 8724SOL     OW27070   5.776   6.782   4.502
 8724SOL    HW127071   5.713   6.711   4.535
 8724SOL    HW227072   5.792   6.770   4.405
 8725SOL     OW27073   2.085   5.829   5.654
 8725SOL    HW127074   2.143   5.783   5.720
 8725SOL    HW227075   2.099   5.789   5.563
 8726SOL     OW27076   0.310   0.901   3.355
 8726SOL    HW127077   0.214   0.877   3.369
 8726SOL    HW227078   0.339   0.964   3.428
 8727SOL     OW27079   6.122   0.264   2.069
 8727SOL    HW127080   6.197   0.213   2.026
 8727SOL    HW227081   6.158   0.348   2.109
 8728SOL     OW27082   6.314   0.895   2.253
 8728SOL    HW127083   6.335   0.933   2.163
 8728SOL    HW227084   6.396   0.853   2.292
 8729SOL     OW27085   3.250   5.106   5.504
 8729SOL    HW127086   3.195   5.024   5.487
 8729SOL    HW227087   3.345   5.088   5.481
 8730SOL     OW27088   5.107   3.974   2.451
 8730SOL    HW127089   5.100   4.072   2.467
 8730SOL    HW227090   5.141   3.929   2.533
 8731SOL     OW27091   0.675   3.123   2.956
 8731SOL    HW127092   0.652   3.041   3.007
 8731SOL    HW227093   0.686   3.200   3.019
 8732SOL     OW27094   5.456   4.862   2.059
 8732SOL    HW127095   5.363   4.885   2.031
 8732SOL    HW227096   5.478   4.909   2.145
 8733SOL     OW27097   1.834   5.955   1.185
 8733SOL    HW127098   1.802   5.987   1.274
 8733SOL    HW227099   1.773   5.883   1.152
 8734SOL     OW27100   0.950   3.491   2.781
 8734SOL    HW127101   1.033   3.444   2.811
 8734SOL    HW227102   0.926   3.459   2.689
 8735SOL     OW27103   0.948   3.157   6.893
 8735SOL    HW127104   1.002   3.135   6.812
 8735SOL    HW227105   0.969   3.250   6.923
 8736SOL     OW27106   0.407   5.385   1.578
 8736SOL    HW127107   0.332   5.449   1.564
 8736SOL    HW227108   0.493   5.427   1.549
 8737SOL     OW27109   1.711   6.603   0.380
 8737SOL    HW127110   1.643   6.616   0.308
 8737SOL    HW227111   1.678   6.536   0.446
 8738SOL     OW27112   2.567   5.650   4.247
 8738SOL    HW127113   2.564   5.727   4.310
 8738SOL    HW227114   2.482   5.598   4.254
 8739SOL     OW27115   5.318   5.557   6.199
 8739SOL    HW127116   5.264   5.488   6.248
 8739SOL    HW227117   5.314   5.643   6.249
 8740SOL     OW27118   4.050   1.440   4.566
 8740SOL    HW127119   4.032   1.383   4.486
 8740SOL    HW227120   4.148   1.462   4.571
 8741SOL     OW27121   2.225   1.349   2.610
 8741SOL    HW127122   2.168   1.412   2.556
 8741SOL    HW227123   2.166   1.297   2.671
 8742SOL     OW27124   4.684   0.067   1.825
 8742SOL    HW127125   4.671   7.000   1.775
 8742SOL    HW227126   4.630   0.139   1.782
 8743SOL     OW27127   1.101   6.796   1.788
 8743SOL    HW127128   1.133   6.854   1.863
 8743SOL    HW227129   1.020   6.746   1.817
 8744SOL     OW27130   4.285   2.929   0.417
 8744SOL    HW127131   4.382   2.952   0.411
 8744SOL    HW227132   4.272   2.834   0.386
 8745SOL     OW27133   6.422   1.626   6.293
 8745SOL    HW127134   6.340   1.663   6.338
 8745SOL    HW227135   6.439   1.534   6.326
 8746SOL     OW27136   4.267   5.510   4.621
 8746SOL    HW127137   4.352   5.563   4.617
 8746SOL    HW227138   4.248   5.470   4.532
 8747SOL     OW27139   6.666   1.604   3.032
 8747SOL    HW127140   6.637   1.545   3.107
 8747SOL    HW227141   6.637   1.564   2.945
 8748SOL     OW27142   0.373   1.534   4.393
 8748SOL    HW127143   0.289   1.555   4.343
 8748SOL    HW227144   0.366   1.569   4.486
 8749SOL     OW27145   2.447   0.439   5.012
 8749SOL    HW127146   2.424   0.354   5.060
 8749SOL    HW227147   2.413   0.517   5.063
 8750SOL     OW27148   3.483   4.381   5.452
 8750SOL    HW127149   3.482   4.322   5.533
 8750SOL    HW227150   3.543   4.341   5.383
 8751SOL     OW27151   6.197   1.759   1.937
 8751SOL    HW127152   6.250   1.798   2.012
 8751SOL    HW227153   6.110   1.807   1.929
 8752SOL     OW27154   3.352   3.124   6.241
 8752SOL    HW127155   3.258   3.098   6.263
 8752SOL    HW227156   3.353   3.178   6.157
 8753SOL     OW27157   3.261   1.943   6.488
 8753SOL    HW127158   3.208   2.026   6.500
 8753SOL    HW227159   3.344   1.964   6.436
 8754SOL     OW27160   1.398   3.835   5.156
 8754SOL    HW127161   1.495   3.815   5.147
 8754SOL    HW227162   1.383   3.898   5.232
 8755SOL     OW27163   2.126   1.134   1.317
 8755SOL    HW127164   2.089   1.060   1.261
 8755SOL    HW227165   2.054   1.170   1.376
 8756SOL     OW27166   1.802   3.028   4.018
 8756SOL    HW127167   1.727   3.048   3.955
 8756SOL    HW227168   1.880   2.991   3.968
 8757SOL     OW27169   3.999   5.473   6.637
 8757SOL    HW127170   3.926   5.420   6.593
 8757SOL    HW227171   3.998   5.455   6.736
 8758SOL     OW27172   5.266   5.885   2.699
 8758SOL    HW127173   5.251   5.786   2.701
 8758SOL    HW227174   5.183   5.932   2.731
 8759SOL     OW27175   4.758   2.975   6.915
 8759SOL    HW127176   4.753   3.035   6.995
 8759SOL    HW227177   4.853   2.964   6.887
 8760SOL     OW27178   2.971   0.782   5.151
 8760SOL    HW127179   2.939   0.755   5.242
 8760SOL    HW227180   3.046   0.847   5.159
 8761SOL     OW27181   6.112   2.231   1.368
 8761SOL    HW127182   6.127   2.141   1.327
 8761SOL    HW227183   6.163   2.238   1.454
 8762SOL     OW27184   1.186   4.685   3.646
 8762SOL    HW127185   1.270   4.734   3.668
 8762SOL    HW227186   1.108   4.736   3.682
 8763SOL     OW27187   6.129   6.942   6.152
 8763SOL    HW127188   6.166   6.949   6.244
 8763SOL    HW227189   6.199   6.904   6.091
 8764SOL     OW27190   4.626   0.403   5.840
 8764SOL    HW127191   4.724   0.382   5.831
 8764SOL    HW227192   4.615   0.483   5.899
 8765SOL     OW27193   4.945   0.219   3.919
 8765SOL    HW127194   4.881   0.142   3.917
 8765SOL    HW227195   4.898   0.301   3.951
 8766SOL     OW27196   4.531   4.353   5.144
 8766SOL    HW127197   4.470   4.419   5.100
 8766SOL    HW227198   4.621   4.357   5.102
 8767SOL     OW27199   5.772   5.912   2.398
 8767SOL    HW127200   5.822   5.909   2.485
 8767SOL    HW227201   5.686   5.862   2.408
 8768SOL     OW27202   1.521   2.570   0.358
 8768SOL    HW127203   1.504   2.635   0.432
 8768SOL    HW227204   1.454   2.496   0.364
 8769SOL     OW27205   6.782   0.627   3.175
 8769SOL    HW127206   6.871   0.631   3.220
 8769SOL    HW227207   6.738   0.540   3.195
 8770SOL     OW27208   4.516   4.532   2.111
 8770SOL    HW127209   4.520   4.435   2.086
 8770SOL    HW227210   4.423   4.555   2.139
 8771SOL     OW27211   1.733   1.942   6.540
 8771SOL    HW127212   1.721   2.040   6.527
 8771SOL    HW227213   1.825   1.924   6.575
 8772SOL     OW27214   4.522   0.719   6.449
 8772SOL    HW127215   4.588   0.791   6.469
 8772SOL    HW227216   4.463   0.704   6.528
 8773SOL     OW27217   5.483   2.654   3.817
 8773SOL    HW127218   5.533   2.676   3.733
 8773SOL    HW227219   5.432   2.569   3.805
 8774SOL     OW27220   1.291   0.671   0.123
 8774SOL    HW127221   1.383   0.702   0.147
 8774SOL    HW227222   1.225   0.707   0.189
 8775SOL     OW27223   5.560   1.211   5.803
 8775SOL    HW127224   5.614   1.283   5.846
 8775SOL    HW227225   5.571   1.125   5.854
 8776SOL     OW27226   4.791   3.295   0.563
 8776SOL    HW127227   4.889   3.285   0.580
 8776SOL    HW227228   4.771   3.390   0.539
 8777SOL     OW27229   6.132   4.443   3.361
 8777SOL    HW127230   6.062   4.453   3.290
 8777SOL    HW227231   6.201   4.514   3.350
 8778SOL     OW27232   5.701   3.173   6.060
 8778SOL    HW127233   5.699   3.207   5.966
 8778SOL    HW227234   5.690   3.074   6.059
 8779SOL     OW27235   2.572   5.143   2.344
 8779SOL    HW127236   2.570   5.045   2.360
 8779SOL    HW227237   2.597   5.191   2.428
 8780SOL     OW27238   0.624   7.004   3.076
 8780SOL    HW127239   0.673   0.060   3.121
 8780SOL    HW227240   0.530   0.013   3.059
 8781SOL     OW27241   5.076   0.919   4.270
 8781SOL    HW127242   5.165   0.896   4.309
 8781SOL    HW227243   5.034   0.992   4.324
 8782SOL     OW27244   6.860   0.474   2.354
 8782SOL    HW127245   6.803   0.472   2.272
 8782SOL    HW227246   6.953   0.503   2.329
 8783SOL     OW27247   6.899   4.226   3.514
 8783SOL    HW127248   6.879   4.210   3.611
 8783SOL    HW227249   6.813   4.240   3.464
 8784SOL     OW27250   6.998   6.389   6.087
 8784SOL    HW127251   6.936   6.453   6.132
 8784SOL    HW227252   0.049   6.441   6.037
 8785SOL     OW27253   5.846   4.930   0.276
 8785SOL    HW127254   5.840   4.837   0.239
 8785SOL    HW227255   5.855   4.994   0.200
 8786SOL     OW27256   2.737   1.227   0.454
 8786SOL    HW127257   2.759   1.319   0.421
 8786SOL    HW227258   2.819   1.185   0.492
 8787SOL     OW27259   3.251   1.311   2.180
 8787SOL    HW127260   3.250   1.396   2.126
 8787SOL    HW227261   3.210   1.238   2.126
 8788SOL     OW27262   0.137   0.708   5.709
 8788SOL    HW127263   0.203   0.638   5.680
 8788SOL    HW227264   0.060   0.710   5.645
 8789SOL     OW27265   6.407   5.316   5.362
 8789SOL    HW127266   6.496   5.352   5.334
 8789SOL    HW227267   6.420   5.248   5.434
 8790SOL     OW27268   6.368   0.313   6.284
 8790SOL    HW127269   6.330   0.241   6.226
 8790SOL    HW227270   6.317   0.398   6.270
 8791SOL     OW27271   5.966   6.648   5.341
 8791SOL    HW127272   5.979   6.747   5.331
 8791SOL    HW227273   6.049   6.601   5.308
 8792SOL     OW27274   3.090   5.168   2.909
 8792SOL    HW127275   3.008   5.143   2.959
 8792SOL    HW227276   3.132   5.086   2.870
 8793SOL     OW27277   0.690   4.458   2.237
 8793SOL    HW127278   0.722   4.365   2.217
 8793SOL    HW227279   0.712   4.480   2.332
 8794SOL     OW27280   5.453   0.042   2.765
 8794SOL    HW127281   5.506   6.982   2.796
 8794SOL    HW227282   5.409   0.020   2.677
 8795SOL     OW27283   1.254   4.187   5.513
 8795SOL    HW127284   1.273   4.181   5.611
 8795SOL    HW227285   1.244   4.283   5.487
 8796SOL     OW27286   4.902   2.165   3.844
 8796SOL    HW127287   4.924   2.155   3.747
 8796SOL    HW227288   4.815   2.214   3.854
 8797SOL     OW27289   0.157   0.351   6.453
 8797SOL    HW127290   0.086   0.396   6.399
 8797SOL    HW227291   0.119   0.271   6.498
 8798SOL     OW27292   4.688   6.081   6.208
 8798SOL    HW127293   4.671   6.118   6.117
 8798SOL    HW227294   4.723   6.154   6.268
 8799SOL     OW27295   2.395   5.107   3.801
 8799SOL    HW127296   2.424   5.017   3.833
 8799SOL    HW227297   2.398   5.172   3.877
 8800SOL     OW27298   5.865   4.536   6.391
 8800SOL    HW127299   5.843   4.458   6.333
 8800SOL    HW227300   5.964   4.551   6.390
 8801SOL     OW27301   6.950   1.728   4.413
 8801SOL    HW127302   7.007   1.802   4.450
 8801SOL    HW227303   6.890   1.765   4.342
 8802SOL     OW27304   1.935   6.638   5.980
 8802SOL    HW127305   1.904   6.727   6.013
 8802SOL    HW227306   1.871   6.604   5.912
 8803SOL     OW27307   6.985   6.882   0.435
 8803SOL    HW127308   6.951   6.839   0.519
 8803SOL    HW227309   6.975   6.818   0.359
 8804SOL     OW27310   2.445   6.402   1.489
 8804SOL    HW127311   2.446   6.303   1.486
 8804SOL    HW227312   2.505   6.439   1.418
 8805SOL     OW27313   3.486   6.398   3.111
 8805SOL    HW127314   3.517   6.471   3.171
 8805SOL    HW227315   3.561   6.335   3.092
 8806SOL     OW27316   3.076   4.625   0.992
 8806SOL    HW127317   3.056   4.566   1.071
 8806SOL    HW227318   3.171   4.655   0.996
 8807SOL     OW27319   4.731   1.415   0.575
 8807SOL    HW127320   4.644   1.402   0.527
 8807SOL    HW227321   4.747   1.337   0.636
 8808SOL     OW27322   6.394   2.857   6.412
 8808SOL    HW127323   6.366   2.916   6.487
 8808SOL    HW227324   6.328   2.865   6.337
 8809SOL     OW27325   3.323   4.956   3.767
 8809SOL    HW127326   3.323   5.026   3.696
 8809SOL    HW227327   3.408   4.903   3.762
 8810SOL     OW27328   6.126   0.447   5.257
 8810SOL    HW127329   6.222   0.426   5.237
 8810SOL    HW227330   6.109   0.433   5.354
 8811SOL     OW27331   3.518   1.346   2.959
 8811SOL    HW127332   3.469   1.268   2.921
 8811SOL    HW227333   3.469   1.380   3.040
 8812SOL     OW27334   1.663   0.809   0.864
 8812SOL    HW127335   1.646   0.776   0.957
 8812SOL    HW227336   1.742   0.761   0.825
 8813SOL     OW27337   1.940   5.688   3.138
 8813SOL    HW127338   1.998   5.688   3.219
 8813SOL    HW227339   1.916   5.782   3.114
 8814SOL     OW27340   6.529   6.982   0.917
 8814SOL    HW127341   6.536   6.898   0.971
 8814SOL    HW227342   6.449   0.016   0.948
 8815SOL     OW27343   5.124   0.034   1.587
 8815SOL    HW127344   5.168   0.113   1.630
 8815SOL    HW227345   5.194   6.988   1.558
 8816SOL     OW27346   0.685   6.366   0.122
 8816SOL    HW127347   0.727   6.294   0.068
 8816SOL    HW227348   0.639   6.431   0.062
 8817SOL     OW27349   0.077   4.324   3.905
 8817SOL    HW127350   0.067   4.235   3.949
 8817SOL    HW227351   0.075   4.396   3.974
 8818SOL     OW27352   1.087   4.756   4.100
 8818SOL    HW127353   1.055   4.679   4.045
 8818SOL    HW227354   1.025   4.833   4.090
 8819SOL     OW27355   5.442   5.295   5.519
 8819SOL    HW127356   5.364   5.268   5.576
 8819SOL    HW227357   5.524   5.300   5.576
 8820SOL     OW27358   2.806   0.822   5.553
 8820SOL    HW127359   2.708   0.802   5.545
 8820SOL    HW227360   2.818   0.919   5.575
 8821SOL     OW27361   2.197   5.727   0.973
 8821SOL    HW127362   2.123   5.663   0.950
 8821SOL    HW227363   2.232   5.769   0.890
 8822SOL     OW27364   0.976   1.011   4.435
 8822SOL    HW127365   0.937   1.000   4.343
 8822SOL    HW227366   1.006   1.105   4.448
 8823SOL     OW27367   2.473   1.056   2.533
 8823SOL    HW127368   2.551   1.003   2.499
 8823SOL    HW227369   2.496   1.154   2.531
 8824SOL     OW27370   1.367   0.907   0.335
 8824SOL    HW127371   1.375   1.000   0.298
 8824SOL    HW227372   1.441   0.850   0.299
 8825SOL     OW27373   1.825   0.883   2.054
 8825SOL    HW127374   1.759   0.880   2.129
 8825SOL    HW227375   1.806   0.808   1.991
 8826SOL     OW27376   0.482   3.930   0.068
 8826SOL    HW127377   0.557   3.975   0.019
 8826SOL    HW227378   0.515   3.901   0.158
 8827SOL     OW27379   3.890   0.526   3.221
 8827SOL    HW127380   3.839   0.582   3.287
 8827SOL    HW227381   3.842   0.526   3.133
 8828SOL     OW27382   3.758   5.312   6.520
 8828SOL    HW127383   3.749   5.401   6.476
 8828SOL    HW227384   3.667   5.274   6.538
 8829SOL     OW27385   5.371   2.150   1.280
 8829SOL    HW127386   5.392   2.082   1.349
 8829SOL    HW227387   5.329   2.105   1.201
 8830SOL     OW27388   1.864   1.607   2.363
 8830SOL    HW127389   1.817   1.550   2.296
 8830SOL    HW227390   1.848   1.704   2.343
 8831SOL     OW27391   4.853   2.424   3.572
 8831SOL    HW127392   4.827   2.494   3.506
 8831SOL    HW227393   4.852   2.462   3.665
 8832SOL     OW27394   0.000   6.481   3.545
 8832SOL    HW127395   6.976   6.420   3.479
 8832SOL    HW227396   0.097   6.459   3.554
 8833SOL     OW27397   2.794   5.485   6.633
 8833SOL    HW127398   2.823   5.579   6.612
 8833SOL    HW227399   2.728   5.454   6.565
 8834SOL     OW27400   5.875   4.122   4.543
 8834SOL    HW127401   5.875   4.114   4.443
 8834SOL    HW227402   5.946   4.063   4.581
 8835SOL     OW27403   5.391   1.054   5.991
 8835SOL    HW127404   5.377   1.137   5.937
 8835SOL    HW227405   5.353   0.976   5.941
 8836SOL     OW27406   5.251   2.135   0.419
 8836SOL    HW127407   5.250   2.048   0.372
 8836SOL    HW227408   5.174   2.141   0.482
 8837SOL     OW27409   0.408   6.904   2.765
 8837SOL    HW127410   0.412   6.912   2.666
 8837SOL    HW227411   0.348   6.828   2.791
 8838SOL     OW27412   2.280   4.670   3.960
 8838SOL    HW127413   2.329   4.728   3.894
 8838SOL    HW227414   2.347   4.623   4.017
 8839SOL     OW27415   4.212   5.418   1.748
 8839SOL    HW127416   4.269   5.484   1.796
 8839SOL    HW227417   4.252   5.398   1.659
 8840SOL     OW27418   0.256   1.108   2.896
 8840SOL    HW127419   0.241   1.112   2.995
 8840SOL    HW227420   0.169   1.090   2.850
 8841SOL     OW27421   0.628   1.249   4.875
 8841SOL    HW127422   0.623   1.151   4.898
 8841SOL    HW227423   0.713   1.287   4.910
 8842SOL     OW27424   3.146   3.016   3.272
 8842SOL    HW127425   3.113   2.929   3.235
 8842SOL    HW227426   3.219   2.999   3.338
 8843SOL     OW27427   1.457   3.168   4.677
 8843SOL    HW127428   1.478   3.117   4.761
 8843SOL    HW227429   1.539   3.175   4.621
 8844SOL     OW27430   0.568   1.726   5.183
 8844SOL    HW127431   0.645   1.663   5.191
 8844SOL    HW227432   0.493   1.694   5.241
 8845SOL     OW27433   2.991   3.839   1.215
 8845SOL    HW127434   2.899   3.867   1.244
 8845SOL    HW227435   2.996   3.739   1.212
 8846SOL     OW27436   3.831   4.951   4.479
 8846SOL    HW127437   3.750   4.995   4.441
 8846SOL    HW227438   3.810   4.918   4.571
 8847SOL     OW27439   2.493   1.161   3.126
 8847SOL    HW127440   2.470   1.064   3.114
 8847SOL    HW227441   2.501   1.204   3.036
 8848SOL     OW27442   2.480   2.450   2.332
 8848SOL    HW127443   2.565   2.436   2.280
 8848SOL    HW227444   2.403   2.415   2.279
 8849SOL     OW27445   3.798   5.810   3.822
 8849SOL    HW127446   3.747   5.746   3.879
 8849SOL    HW227447   3.796   5.780   3.727
 8850SOL     OW27448   2.015   0.847   6.403
 8850SOL    HW127449   1.941   0.800   6.356
 8850SOL    HW227450   1.989   0.943   6.418
 8851SOL     OW27451   0.746   5.165   2.052
 8851SOL    HW127452   0.822   5.144   2.113
 8851SOL    HW227453   0.779   5.172   1.958
 8852SOL     OW27454   4.084   3.903   5.894
 8852SOL    HW127455   4.128   3.837   5.955
 8852SOL    HW227456   4.145   3.981   5.879
 8853SOL     OW27457   3.344   1.129   6.021
 8853SOL    HW127458   3.257   1.152   5.977
 8853SOL    HW227459   3.325   1.076   6.104
 8854SOL     OW27460   3.086   1.836   6.311
 8854SOL    HW127461   3.148   1.878   6.376
 8854SOL    HW227462   3.118   1.853   6.218
 8855SOL     OW27463   0.281   5.956   0.390
 8855SOL    HW127464   0.193   5.994   0.419
 8855SOL    HW227465   0.321   5.904   0.465
 8856SOL     OW27466   6.341   0.786   6.225
 8856SOL    HW127467   6.353   0.801   6.126
 8856SOL    HW227468   6.424   0.748   6.264
 8857SOL     OW27469   6.870   1.665   3.713
 8857SOL    HW127470   6.951   1.662   3.772
 8857SOL    HW227471   6.893   1.709   3.627
 8858SOL     OW27472   1.256   2.500   5.575
 8858SOL    HW127473   1.331   2.445   5.613
 8858SOL    HW227474   1.235   2.469   5.483
 8859SOL     OW27475   6.612   0.880   3.966
 8859SOL    HW127476   6.664   0.817   3.908
 8859SOL    HW227477   6.671   0.913   4.040
 8860SOL     OW27478   0.809   3.105   2.720
 8860SOL    HW127479   0.739   3.111   2.792
 8860SOL    HW227480   0.848   3.013   2.719
 8861SOL     OW27481   3.913   1.867   5.813
 8861SOL    HW127482   3.961   1.953   5.828
 8861SOL    HW227483   3.967   1.792   5.852
 8862SOL     OW27484   6.067   0.334   3.501
 8862SOL    HW127485   6.153   0.360   3.545
 8862SOL    HW227486   6.059   0.234   3.501
 8863SOL     OW27487   1.718   5.039   4.401
 8863SOL    HW127488   1.757   4.961   4.351
 8863SOL    HW227489   1.764   5.123   4.372
 8864SOL     OW27490   3.375   3.227   5.980
 8864SOL    HW127491   3.371   3.316   5.934
 8864SOL    HW227492   3.456   3.177   5.948
 8865SOL     OW27493   2.743   1.614   6.054
 8865SOL    HW127494   2.770   1.655   5.966
 8865SOL    HW227495   2.770   1.674   6.129
 8866SOL     OW27496   5.294   6.870   3.397
 8866SOL    HW127497   5.240   6.800   3.444
 8866SOL    HW227498   5.256   6.960   3.416
 8867SOL     OW27499   5.234   3.438   2.114
 8867SOL    HW127500   5.172   3.375   2.067
 8867SOL    HW227501   5.201   3.453   2.207
 8868SOL     OW27502   6.526   2.536   0.280
 8868SOL    HW127503   6.600   2.506   0.340
 8868SOL    HW227504   6.560   2.545   0.187
 8869SOL     OW27505   4.235   5.946   4.728
 8869SOL    HW127506   4.165   5.914   4.792
 8869SOL    HW227507   4.255   5.874   4.662
 8870SOL     OW27508   4.011   0.468   6.849
 8870SOL    HW127509   4.020   0.541   6.782
 8870SOL    HW227510   3.964   0.390   6.808
 8871SOL     OW27511   1.497   0.407   4.108
 8871SOL    HW127512   1.587   0.381   4.143
 8871SOL    HW227513   1.428   0.347   4.148
 8872SOL     OW27514   1.715   4.544   4.908
 8872SOL    HW127515   1.762   4.456   4.899
 8872SOL    HW227516   1.641   4.549   4.840
 8873SOL     OW27517   0.865   5.945   2.390
 8873SOL    HW127518   0.835   5.970   2.482
 8873SOL    HW227519   0.804   5.876   2.352
 8874SOL     OW27520   2.703   5.689   1.909
 8874SOL    HW127521   2.787   5.635   1.899
 8874SOL    HW227522   2.718   5.781   1.873
 8875SOL     OW27523   6.411   3.580   4.849
 8875SOL    HW127524   6.346   3.634   4.903
 8875SOL    HW227525   6.501   3.585   4.891
 8876SOL     OW27526   2.146   6.742   4.470
 8876SOL    HW127527   2.209   6.725   4.546
 8876SOL    HW227528   2.062   6.690   4.484
 8877SOL     OW27529   2.838   0.371   4.156
 8877SOL    HW127530   2.774   0.431   4.204
 8877SOL    HW227531   2.856   0.406   4.065
 8878SOL     OW27532   6.442   5.196   6.861
 8878SOL    HW127533   6.459   5.218   6.765
 8878SOL    HW227534   6.353   5.152   6.870
 8879SOL     OW27535   5.009   4.234   1.763
 8879SOL    HW127536   5.040   4.162   1.824
 8879SOL    HW227537   4.961   4.304   1.816
 8880SOL     OW27538   5.662   5.356   4.480
 8880SOL    HW127539   5.698   5.303   4.557
 8880SOL    HW227540   5.630   5.445   4.513
 8881SOL     OW27541   6.627   0.038   3.909
 8881SOL    HW127542   6.569   0.041   3.828
 8881SOL    HW227543   6.649   6.962   3.930
 8882SOL     OW27544   5.643   1.920   1.029
 8882SOL    HW127545   5.666   2.018   1.021
 8882SOL    HW227546   5.547   1.906   1.005
 8883SOL     OW27547   2.041   6.542   6.337
 8883SOL    HW127548   2.131   6.584   6.350
 8883SOL    HW227549   2.043   6.484   6.255
 8884SOL     OW27550   6.180   4.321   6.153
 8884SOL    HW127551   6.258   4.369   6.113
 8884SOL    HW227552   6.166   4.353   6.247
 8885SOL     OW27553   0.293   3.066   0.789
 8885SOL    HW127554   0.198   3.048   0.763
 8885SOL    HW227555   0.338   2.980   0.814
 8886SOL     OW27556   3.282   6.468   4.654
 8886SOL    HW127557   3.291   6.567   4.642
 8886SOL    HW227558   3.275   6.447   4.751
 8887SOL     OW27559   3.205   1.517   1.189
 8887SOL    HW127560   3.178   1.449   1.121
 8887SOL    HW227561   3.303   1.536   1.180
 8888SOL     OW27562   1.455   1.580   0.206
 8888SOL    HW127563   1.397   1.652   0.170
 8888SOL    HW227564   1.551   1.605   0.197
 8889SOL     OW27565   6.115   0.397   5.529
 8889SOL    HW127566   6.067   0.352   5.604
 8889SOL    HW227567   6.137   0.491   5.554
 8890SOL     OW27568   6.608   5.480   3.954
 8890SOL    HW127569   6.569   5.414   3.889
 8890SOL    HW227570   6.624   5.434   4.042
 8891SOL     OW27571   5.437   3.393   5.862
 8891SOL    HW127572   5.367   3.333   5.823
 8891SOL    HW227573   5.460   3.362   5.954
 8892SOL     OW27574   3.717   5.471   3.047
 8892SOL    HW127575   3.708   5.543   2.978
 8892SOL    HW227576   3.672   5.387   3.014
 8893SOL     OW27577   0.876   5.805   3.654
 8893SOL    HW127578   0.818   5.886   3.637
 8893SOL    HW227579   0.817   5.725   3.667
 8894SOL     OW27580   4.681   2.816   6.185
 8894SOL    HW127581   4.601   2.764   6.155
 8894SOL    HW227582   4.665   2.913   6.169
 8895SOL     OW27583   6.441   2.191   2.197
 8895SOL    HW127584   6.372   2.234   2.139
 8895SOL    HW227585   6.397   2.126   2.259
 8896SOL     OW27586   2.307   3.546   5.591
 8896SOL    HW127587   2.220   3.559   5.545
 8896SOL    HW227588   2.327   3.448   5.597
 8897SOL     OW27589   2.004   2.881   3.360
 8897SOL    HW127590   1.957   2.820   3.425
 8897SOL    HW227591   2.049   2.827   3.290
 8898SOL     OW27592   5.137   3.761   3.567
 8898SOL    HW127593   5.188   3.844   3.589
 8898SOL    HW227594   5.090   3.773   3.480
 8899SOL     OW27595   2.216   5.436   0.826
 8899SOL    HW127596   2.213   5.337   0.838
 8899SOL    HW227597   2.133   5.466   0.777
 8900SOL     OW27598   6.232   3.441   2.626
 8900SOL    HW127599   6.319   3.487   2.610
 8900SOL    HW227600   6.228   3.358   2.572
 8901SOL     OW27601   1.917   0.861   4.488
 8901SOL    HW127602   1.985   0.812   4.542
 8901SOL    HW227603   1.939   0.959   4.487
 8902SOL     OW27604   2.458   0.418   0.610
 8902SOL    HW127605   2.401   0.337   0.594
 8902SOL    HW227606   2.525   0.398   0.682
 8903SOL     OW27607   1.541   1.440   4.907
 8903SOL    HW127608   1.498   1.488   4.831
 8903SOL    HW227609   1.496   1.352   4.920
 8904SOL     OW27610   5.613   6.196   4.225
 8904SOL    HW127611   5.650   6.113   4.184
 8904SOL    HW227612   5.523   6.177   4.264
 8905SOL     OW27613   1.709   4.397   3.620
 8905SOL    HW127614   1.757   4.397   3.533
 8905SOL    HW227615   1.749   4.465   3.681
 8906SOL     OW27616   0.166   6.299   0.457
 8906SOL    HW127617   0.261   6.284   0.428
 8906SOL    HW227618   0.121   6.210   0.468
 8907SOL     OW27619   2.699   2.414   4.928
 8907SOL    HW127620   2.686   2.374   5.019
 8907SOL    HW227621   2.778   2.475   4.930
 8908SOL     OW27622   0.854   3.613   6.469
 8908SOL    HW127623   0.817   3.705   6.483
 8908SOL    HW227624   0.841   3.585   6.374
 8909SOL     OW27625   2.702   0.828   5.845
 8909SOL    HW127626   2.768   0.857   5.913
 8909SOL    HW227627   2.731   0.740   5.806
 8910SOL     OW27628   0.316   2.791   5.817
 8910SOL    HW127629   0.302   2.698   5.782
 8910SOL    HW227630   0.233   2.820   5.864
 8911SOL     OW27631   3.994   2.004   4.874
 8911SOL    HW127632   3.903   2.026   4.838
 8911SOL    HW227633   3.985   1.974   4.969
 8912SOL     OW27634   3.863   2.735   0.018
 8912SOL    HW127635   3.949   2.734   6.985
 8912SOL    HW227636   3.872   2.676   0.098
 8913SOL     OW27637   4.979   5.081   5.943
 8913SOL    HW127638   4.939   5.070   5.852
 8913SOL    HW227639   5.068   5.036   5.947
 8914SOL     OW27640   4.638   0.073   4.483
 8914SOL    HW127641   4.635   0.162   4.438
 8914SOL    HW227642   4.609   0.002   4.418
 8915SOL     OW27643   0.202   2.838   3.523
 8915SOL    HW127644   0.300   2.833   3.544
 8915SOL    HW227645   0.185   2.915   3.461
 8916SOL     OW27646   0.367   3.738   1.148
 8916SOL    HW127647   0.296   3.719   1.216
 8916SOL    HW227648   0.405   3.651   1.116
 8917SOL     OW27649   0.114   3.484   0.183
 8917SOL    HW127650   0.181   3.463   0.254
 8917SOL    HW227651   0.148   3.558   0.125
 8918SOL     OW27652   6.200   3.978   1.420
 8918SOL    HW127653   6.276   3.945   1.365
 8918SOL    HW227654   6.121   3.995   1.361
 8919SOL     OW27655   3.734   4.446   0.332
 8919SOL    HW127656   3.636   4.433   0.348
 8919SOL    HW227657   3.747   4.489   0.243
 8920SOL     OW27658   0.448   0.514   0.137
 8920SOL    HW127659   0.530   0.561   0.168
 8920SOL    HW227660   0.392   0.488   0.216
 8921SOL     OW27661   2.170   2.115   2.774
 8921SOL    HW127662   2.109   2.125   2.853
 8921SOL    HW227663   2.200   2.205   2.743
 8922SOL     OW27664   3.452   5.339   1.199
 8922SOL    HW127665   3.506   5.291   1.268
 8922SOL    HW227666   3.385   5.277   1.159
 8923SOL     OW27667   1.477   3.557   6.306
 8923SOL    HW127668   1.577   3.567   6.306
 8923SOL    HW227669   1.437   3.626   6.366
 8924SOL     OW27670   3.457   5.698   5.923
 8924SOL    HW127671   3.431   5.613   5.969
 8924SOL    HW227672   3.417   5.700   5.832
 8925SOL     OW27673   0.982   1.376   2.362
 8925SOL    HW127674   0.955   1.422   2.277
 8925SOL    HW227675   0.961   1.278   2.355
 8926SOL     OW27676   6.745   4.031   5.453
 8926SOL    HW127677   6.655   4.067   5.476
 8926SOL    HW227678   6.807   4.043   5.530
 8927SOL     OW27679   0.975   1.617   4.753
 8927SOL    HW127680   1.028   1.697   4.781
 8927SOL    HW227681   1.036   1.545   4.722
 8928SOL     OW27682   6.975   0.455   6.277
 8928SOL    HW127683   6.987   0.390   6.202
 8928SOL    HW227684   6.909   0.525   6.249
 8929SOL     OW27685   6.107   3.322   4.357
 8929SOL    HW127686   6.162   3.290   4.435
 8929SOL    HW227687   6.011   3.298   4.371
 8930SOL     OW27688   1.337   4.049   3.776
 8930SOL    HW127689   1.360   3.985   3.702
 8930SOL    HW227690   1.362   4.142   3.749
 8931SOL     OW27691   3.260   2.890   0.703
 8931SOL    HW127692   3.231   2.798   0.673
 8931SOL    HW227693   3.279   2.889   0.801
 8932SOL     OW27694   5.813   0.356   0.912
 8932SOL    HW127695   5.804   0.333   0.815
 8932SOL    HW227696   5.746   0.425   0.936
 8933SOL     OW27697   1.556   3.083   5.992
 8933SOL    HW127698   1.607   3.063   6.076
 8933SOL    HW227699   1.600   3.159   5.944
 8934SOL     OW27700   3.421   5.081   4.606
 8934SOL    HW127701   3.435   5.067   4.508
 8934SOL    HW227702   3.509   5.102   4.650
 8935SOL     OW27703   6.310   4.320   1.131
 8935SOL    HW127704   6.215   4.335   1.157
 8935SOL    HW227705   6.349   4.247   1.187
 8936SOL     OW27706   1.208   3.245   1.771
 8936SOL    HW127707   1.261   3.299   1.836
 8936SOL    HW227708   1.236   3.150   1.776
 8937SOL     OW27709   0.081   0.028   5.026
 8937SOL    HW127710   0.155   0.086   5.059
 8937SOL    HW227711   0.117   6.956   5.004
 8938SOL     OW27712   0.246   1.767   0.672
 8938SOL    HW127713   0.197   1.741   0.755
 8938SOL    HW227714   0.294   1.853   0.687
 8939SOL     OW27715   5.764   4.827   4.477
 8939SOL    HW127716   5.721   4.744   4.441
 8939SOL    HW227717   5.850   4.803   4.523
 8940SOL     OW27718   5.316   0.668   1.523
 8940SOL    HW127719   5.227   0.676   1.568
 8940SOL    HW227720   5.338   0.754   1.476
 8941SOL     OW27721   6.165   2.546   3.491
 8941SOL    HW127722   6.070   2.527   3.513
 8941SOL    HW227723   6.191   2.635   3.529
 8942SOL     OW27724   0.138   5.823   5.791
 8942SOL    HW127725   0.076   5.773   5.731
 8942SOL    HW227726   0.133   5.785   5.883
 8943SOL     OW27727   3.745   5.664   0.509
 8943SOL    HW127728   3.784   5.738   0.455
 8943SOL    HW227729   3.664   5.627   0.463
 8944SOL     OW27730   4.688   6.300   4.124
 8944SOL    HW127731   4.665   6.365   4.197
 8944SOL    HW227732   4.717   6.351   4.042
 8945SOL     OW27733   0.301   1.521   3.738
 8945SOL    HW127734   0.392   1.517   3.697
 8945SOL    HW227735   0.307   1.497   3.835
 8946SOL     OW27736   3.329   0.370   3.846
 8946SOL    HW127737   3.394   0.339   3.776
 8946SOL    HW227738   3.365   0.452   3.891
 8947SOL     OW27739   2.750   3.360   5.791
 8947SOL    HW127740   2.708   3.299   5.723
 8947SOL    HW227741   2.694   3.442   5.802
 8948SOL     OW27742   6.002   5.755   3.438
 8948SOL    HW127743   5.996   5.695   3.517
 8948SOL    HW227744   6.009   5.700   3.355
 8949SOL     OW27745   3.912   6.359   0.652
 8949SOL    HW127746   3.961   6.420   0.590
 8949SOL    HW227747   3.936   6.264   0.633
 8950SOL     OW27748   3.478   3.257   0.458
 8950SOL    HW127749   3.544   3.332   0.450
 8950SOL    HW227750   3.395   3.291   0.502
 8951SOL     OW27751   1.978   1.129   4.503
 8951SOL    HW127752   1.957   1.223   4.530
 8951SOL    HW227753   2.077   1.116   4.499
 8952SOL     OW27754   0.811   5.036   3.688
 8952SOL    HW127755   0.868   5.076   3.617
 8952SOL    HW227756   0.790   5.105   3.757
 8953SOL     OW27757   1.135   4.464   0.510
 8953SOL    HW127758   1.225   4.469   0.467
 8953SOL    HW227759   1.091   4.554   0.506
 8954SOL     OW27760   6.680   0.266   4.436
 8954SOL    HW127761   6.699   0.172   4.465
 8954SOL    HW227762   6.750   0.327   4.474
 8955SOL     OW27763   6.802   4.781   3.075
 8955SOL    HW127764   6.809   4.686   3.107
 8955SOL    HW227765   6.864   4.795   2.998
 8956SOL     OW27766   1.881   1.514   5.942
 8956SOL    HW127767   1.924   1.602   5.961
 8956SOL    HW227768   1.826   1.520   5.859
 8957SOL     OW27769   2.039   4.743   1.078
 8957SOL    HW127770   2.096   4.660   1.076
 8957SOL    HW227771   2.034   4.778   1.171
 8958SOL     OW27772   0.806   2.404   5.830
 8958SOL    HW127773   0.875   2.447   5.888
 8958SOL    HW227774   0.726   2.463   5.824
 8959SOL     OW27775   1.794   4.574   2.647
 8959SOL    HW127776   1.713   4.625   2.677
 8959SOL    HW227777   1.836   4.621   2.569
 8960SOL     OW27778   5.189   5.716   3.837
 8960SOL    HW127779   5.289   5.714   3.835
 8960SOL    HW227780   5.153   5.623   3.836
 8961SOL     OW27781   3.464   1.341   3.318
 8961SOL    HW127782   3.486   1.245   3.302
 8961SOL    HW227783   3.503   1.370   3.406
 8962SOL     OW27784   6.267   5.337   2.471
 8962SOL    HW127785   6.237   5.265   2.408
 8962SOL    HW227786   6.218   5.422   2.449
 8963SOL     OW27787   3.905   0.096   4.536
 8963SOL    HW127788   3.843   0.039   4.482
 8963SOL    HW227789   3.878   0.192   4.529
 8964SOL     OW27790   5.830   2.661   2.921
 8964SOL    HW127791   5.857   2.603   2.844
 8964SOL    HW227792   5.790   2.604   2.993
 8965SOL     OW27793   2.647   5.409   0.037
 8965SOL    HW127794   2.745   5.388   0.041
 8965SOL    HW227795   2.594   5.326   0.056
 8966SOL     OW27796   6.839   3.891   0.536
 8966SOL    HW127797   6.773   3.938   0.477
 8966SOL    HW227798   6.904   3.841   0.479
 8967SOL     OW27799   3.840   0.426   1.861
 8967SOL    HW127800   3.744   0.428   1.834
 8967SOL    HW227801   3.886   0.508   1.826
 8968SOL     OW27802   4.613   5.994   2.733
 8968SOL    HW127803   4.692   5.980   2.793
 8968SOL    HW227804   4.553   5.914   2.739
 8969SOL     OW27805   0.211   0.466   3.583
 8969SOL    HW127806   0.311   0.462   3.591
 8969SOL    HW227807   0.171   0.466   3.674
 8970SOL     OW27808   2.641   3.147   6.913
 8970SOL    HW127809   2.716   3.212   6.906
 8970SOL    HW227810   2.580   3.157   6.834
 8971SOL     OW27811   6.104   5.269   1.175
 8971SOL    HW127812   6.109   5.349   1.117
 8971SOL    HW227813   6.149   5.192   1.130
 8972SOL     OW27814   4.428   4.235   0.433
 8972SOL    HW127815   4.467   4.327   0.436
 8972SOL    HW227816   4.490   4.171   0.479
 8973SOL     OW27817   6.868   3.765   3.218
 8973SOL    HW127818   6.878   3.859   3.186
 8973SOL    HW227819   6.798   3.760   3.289
 8974SOL     OW27820   1.478   3.525   4.076
 8974SOL    HW127821   1.526   3.498   3.992
 8974SOL    HW227822   1.465   3.445   4.134
 8975SOL     OW27823   0.397   6.575   0.236
 8975SOL    HW127824   0.332   6.616   0.172
 8975SOL    HW227825   0.437   6.493   0.195
 8976SOL     OW27826   0.204   5.189   0.309
 8976SOL    HW127827   0.226   5.254   0.381
 8976SOL    HW227828   0.126   5.223   0.255
 8977SOL     OW27829   6.579   3.039   6.321
 8977SOL    HW127830   6.562   3.131   6.356
 8977SOL    HW227831   6.518   2.974   6.367
 8978SOL     OW27832   5.460   6.739   4.469
 8978SOL    HW127833   5.472   6.789   4.383
 8978SOL    HW227834   5.405   6.794   4.532
 8979SOL     OW27835   0.948   4.708   5.772
 8979SOL    HW127836   0.849   4.720   5.777
 8979SOL    HW227837   0.981   4.667   5.858
 8980SOL     OW27838   4.826   2.648   5.595
 8980SOL    HW127839   4.917   2.608   5.588
 8980SOL    HW227840   4.760   2.577   5.617
 8981SOL     OW27841   5.011   2.034   5.119
 8981SOL    HW127842   4.946   1.979   5.068
 8981SOL    HW227843   5.002   2.014   5.217
 8982SOL     OW27844   1.347   1.729   1.524
 8982SOL    HW127845   1.262   1.767   1.489
 8982SOL    HW227846   1.423   1.791   1.503
 8983SOL     OW27847   0.798   5.426   0.157
 8983SOL    HW127848   0.754   5.516   0.156
 8983SOL    HW227849   0.858   5.417   0.078
 8984SOL     OW27850   6.004   5.844   3.986
 8984SOL    HW127851   6.024   5.900   4.067
 8984SOL    HW227852   6.050   5.884   3.906
 8985SOL     OW27853   2.325   1.732   0.567
 8985SOL    HW127854   2.335   1.773   0.657
 8985SOL    HW227855   2.322   1.804   0.498
 8986SOL     OW27856   4.228   4.970   2.486
 8986SOL    HW127857   4.167   5.031   2.536
 8986SOL    HW227858   4.229   4.880   2.529
 8987SOL     OW27859   3.733   0.467   0.894
 8987SOL    HW127860   3.728   0.456   0.993
 8987SOL    HW227861   3.747   0.377   0.851
 8988SOL     OW27862   1.440   4.270   0.165
 8988SOL    HW127863   1.462   4.268   0.067
 8988SOL    HW227864   1.498   4.205   0.214
 8989SOL     OW27865   4.852   3.904   2.181
 8989SOL    HW127866   4.821   3.979   2.238
 8989SOL    HW227867   4.841   3.929   2.084
 8990SOL     OW27868   2.216   5.542   2.320
 8990SOL    HW127869   2.137   5.539   2.258
 8990SOL    HW227870   2.300   5.547   2.267
 8991SOL     OW27871   1.941   1.384   0.072
 8991SOL    HW127872   1.966   1.289   0.093
 8991SOL    HW227873   1.945   1.398   6.992
 8992SOL     OW27874   6.883   2.335   6.649
 8992SOL    HW127875   6.867   2.433   6.663
 8992SOL    HW227876   6.972   2.310   6.686
 8993SOL     OW27877   4.677   2.627   2.578
 8993SOL    HW127878   4.655   2.623   2.480
 8993SOL    HW227879   4.767   2.585   2.593
 8994SOL     OW27880   0.705   5.504   4.588
 8994SOL    HW127881   0.644   5.583   4.592
 8994SOL    HW227882   0.732   5.479   4.681
 8995SOL     OW27883   1.226   2.756   5.971
 8995SOL    HW127884   1.195   2.685   6.033
 8995SOL    HW227885   1.257   2.835   6.024
 8996SOL     OW27886   6.589   4.912   1.926
 8996SOL    HW127887   6.687   4.920   1.947
 8996SOL    HW227888   6.578   4.863   1.839
 8997SOL     OW27889   3.997   1.348   6.258
 8997SOL    HW127890   4.078   1.330   6.314
 8997SOL    HW227891   3.989   1.446   6.241
 8998SOL     OW27892   0.127   3.265   4.478
 8998SOL    HW127893   0.114   3.203   4.400
 8998SOL    HW227894   0.055   3.334   4.478
 8999SOL     OW27895   4.392   0.619   0.242
 8999SOL    HW127896   4.338   0.588   0.320
 8999SOL    HW227897   4.380   0.555   0.166
 9000SOL     OW27898   2.295   4.089   5.940
 9000SOL    HW127899   2.293   4.175   5.889
 9000SOL    HW227900   2.301   4.108   6.038
 9001SOL     OW27901   0.746   5.367   2.782
 9001SOL    HW127902   0.799   5.291   2.819
 9001SOL    HW227903   0.756   5.369   2.682
 9002SOL     OW27904   0.316   5.232   5.009
 9002SOL    HW127905   0.405   5.198   5.037
 9002SOL    HW227906   0.266   5.159   4.962
 9003SOL     OW27907   5.511   2.334   1.105
 9003SOL    HW127908   5.453   2.277   1.163
 9003SOL    HW227909   5.495   2.430   1.125
 9004SOL     OW27910   4.828   6.415   1.576
 9004SOL    HW127911   4.742   6.374   1.605
 9004SOL    HW227912   4.896   6.403   1.648
 9005SOL     OW27913   5.572   2.288   4.830
 9005SOL    HW127914   5.620   2.369   4.796
 9005SOL    HW227915   5.480   2.313   4.859
 9006SOL     OW27916   2.219   6.207   0.128
 9006SOL    HW127917   2.180   6.280   0.184
 9006SOL    HW227918   2.318   6.205   0.142
 9007SOL     OW27919   3.667   6.057   3.728
 9007SOL    HW127920   3.567   6.061   3.721
 9007SOL    HW227921   3.697   5.962   3.737
 9008SOL     OW27922   6.478   4.896   2.577
 9008SOL    HW127923   6.531   4.826   2.626
 9008SOL    HW227924   6.499   4.892   2.479
 9009SOL     OW27925   2.322   0.148   0.619
 9009SOL    HW127926   2.398   0.085   0.600
 9009SOL    HW227927   2.259   0.105   0.683
 9010SOL     OW27928   1.010   6.936   4.720
 9010SOL    HW127929   0.998   6.844   4.683
 9010SOL    HW227930   1.026   7.000   4.644
 9011SOL     OW27931   4.295   1.953   1.918
 9011SOL    HW127932   4.216   1.997   1.874
 9011SOL    HW227933   4.298   1.978   2.014
 9012SOL     OW27934   3.297   4.036   0.826
 9012SOL    HW127935   3.239   4.058   0.905
 9012SOL    HW227936   3.343   4.119   0.794
 9013SOL     OW27937   6.656   6.375   4.398
 9013SOL    HW127938   6.605   6.291   4.414
 9013SOL    HW227939   6.595   6.454   4.408
 9014SOL     OW27940   0.941   0.751   0.137
 9014SOL    HW127941   1.026   0.753   0.190
 9014SOL    HW227942   0.963   0.764   0.040
 9015SOL     OW27943   5.770   1.418   1.303
 9015SOL    HW127944   5.674   1.394   1.291
 9015SOL    HW227945   5.816   1.418   1.214
 9016SOL     OW27946   0.803   6.572   6.591
 9016SOL    HW127947   0.710   6.601   6.614
 9016SOL    HW227948   0.801   6.480   6.552
 9017SOL     OW27949   4.841   2.737   1.909
 9017SOL    HW127950   4.837   2.644   1.947
 9017SOL    HW227951   4.801   2.801   1.975
 9018SOL     OW27952   4.299   1.221   5.246
 9018SOL    HW127953   4.265   1.301   5.197
 9018SOL    HW227954   4.398   1.229   5.258
 9019SOL     OW27955   0.267   0.769   0.554
 9019SOL    HW127956   0.366   0.774   0.569
 9019SOL    HW227957   0.224   0.854   0.584
 9020SOL     OW27958   1.167   3.826   1.580
 9020SOL    HW127959   1.234   3.836   1.653
 9020SOL    HW227960   1.088   3.886   1.598
 9021SOL     OW27961   6.426   0.581   3.774
 9021SOL    HW127962   6.418   0.512   3.846
 9021SOL    HW227963   6.523   0.603   3.759
 9022SOL     OW27964   2.717   1.436   1.068
 9022SOL    HW127965   2.659   1.458   1.147
 9022SOL    HW227966   2.802   1.489   1.074
 9023SOL     OW27967   3.273   2.969   2.660
 9023SOL    HW127968   3.283   3.068   2.650
 9023SOL    HW227969   3.250   2.929   2.571
 9024SOL     OW27970   0.618   5.358   5.317
 9024SOL    HW127971   0.552   5.420   5.274
 9024SOL    HW227972   0.710   5.380   5.285
 9025SOL     OW27973   0.208   5.871   0.077
 9025SOL    HW127974   0.195   5.872   0.176
 9025SOL    HW227975   0.189   5.780   0.042
 9026SOL     OW27976   3.741   3.229   1.988
 9026SOL    HW127977   3.731   3.310   2.045
 9026SOL    HW227978   3.671   3.231   1.916
 9027SOL     OW27979   1.416   1.718   3.380
 9027SOL    HW127980   1.385   1.652   3.311
 9027SOL    HW227981   1.498   1.682   3.425
 9028SOL     OW27982   2.419   3.379   6.742
 9028SOL    HW127983   2.480   3.310   6.703
 9028SOL    HW227984   2.469   3.435   6.807
 9029SOL     OW27985   3.163   5.649   5.494
 9029SOL    HW127986   3.197   5.557   5.473
 9029SOL    HW227987   3.090   5.673   5.429
 9030SOL     OW27988   2.064   0.761   3.561
 9030SOL    HW127989   2.047   0.721   3.471
 9030SOL    HW227990   2.073   0.689   3.629
 9031SOL     OW27991   4.721   5.799   5.031
 9031SOL    HW127992   4.661   5.743   4.974
 9031SOL    HW227993   4.667   5.852   5.095
 9032SOL     OW27994   2.999   3.022   0.680
 9032SOL    HW127995   3.084   3.000   0.632
 9032SOL    HW227996   2.952   2.937   0.706
 9033SOL     OW27997   2.032   4.441   3.656
 9033SOL    HW127998   2.014   4.395   3.569
 9033SOL    HW227999   2.034   4.540   3.642
 9034SOL     OW28000   3.503   0.418   4.867
 9034SOL    HW128001   3.495   0.420   4.767
 9034SOL    HW228002   3.431   0.360   4.904
 9035SOL     OW28003   1.178   5.493   5.607
 9035SOL    HW128004   1.264   5.463   5.566
 9035SOL    HW228005   1.149   5.425   5.675
 9036SOL     OW28006   1.990   0.713   4.974
 9036SOL    HW128007   1.974   0.624   4.930
 9036SOL    HW228008   1.963   0.707   5.070
 9037SOL     OW28009   1.388   3.944   5.696
 9037SOL    HW128010   1.427   3.852   5.702
 9037SOL    HW228011   1.460   4.012   5.712
 9038SOL     OW28012   4.356   0.376   5.827
 9038SOL    HW128013   4.320   0.363   5.919
 9038SOL    HW228014   4.452   0.402   5.832
 9039SOL     OW28015   2.449   4.865   4.689
 9039SOL    HW128016   2.520   4.902   4.630
 9039SOL    HW228017   2.412   4.781   4.648
 9040SOL     OW28018   2.960   1.782   2.834
 9040SOL    HW128019   2.892   1.851   2.811
 9040SOL    HW228020   3.050   1.812   2.802
 9041SOL     OW28021   0.850   2.235   2.167
 9041SOL    HW128022   0.751   2.241   2.153
 9041SOL    HW228023   0.895   2.313   2.123
 9042SOL     OW28024   3.282   6.702   3.876
 9042SOL    HW128025   3.237   6.755   3.804
 9042SOL    HW228026   3.240   6.721   3.964
 9043SOL     OW28027   2.500   1.435   6.319
 9043SOL    HW128028   2.447   1.480   6.392
 9043SOL    HW228029   2.438   1.383   6.260
 9044SOL     OW28030   5.817   1.653   1.908
 9044SOL    HW128031   5.797   1.605   1.822
 9044SOL    HW228032   5.791   1.595   1.985
 9045SOL     OW28033   3.403   1.864   2.575
 9045SOL    HW128034   3.336   1.797   2.541
 9045SOL    HW228035   3.487   1.817   2.599
 9046SOL     OW28036   3.385   3.846   4.298
 9046SOL    HW128037   3.379   3.858   4.199
 9046SOL    HW228038   3.326   3.912   4.344
 9047SOL     OW28039   1.373   3.270   5.041
 9047SOL    HW128040   1.467   3.292   5.016
 9047SOL    HW228041   1.321   3.355   5.051
 9048SOL     OW28042   6.128   2.595   5.928
 9048SOL    HW128043   6.075   2.645   5.997
 9048SOL    HW228044   6.123   2.497   5.948
 9049SOL     OW28045   3.956   0.201   6.767
 9049SOL    HW128046   3.998   0.230   6.680
 9049SOL    HW228047   3.873   0.149   6.748
 9050SOL     OW28048   0.612   4.462   5.793
 9050SOL    HW128049   0.679   4.506   5.852
 9050SOL    HW228050   0.608   4.510   5.705
 9051SOL     OW28051   4.155   6.125   0.728
 9051SOL    HW128052   4.200   6.066   0.795
 9051SOL    HW228053   4.067   6.086   0.702
 9052SOL     OW28054   1.671   2.412   3.136
 9052SOL    HW128055   1.722   2.477   3.192
 9052SOL    HW228056   1.691   2.429   3.039
 9053SOL     OW28057   1.939   1.372   3.058
 9053SOL    HW128058   1.944   1.293   3.119
 9053SOL    HW228059   1.845   1.408   3.058
 9054SOL     OW28060   1.599   0.114   2.072
 9054SOL    HW128061   1.660   0.187   2.041
 9054SOL    HW228062   1.516   0.113   2.016
 9055SOL     OW28063   6.409   3.980   3.331
 9055SOL    HW128064   6.487   3.990   3.270
 9055SOL    HW228065   6.428   4.026   3.418
 9056SOL     OW28066   5.915   0.230   1.655
 9056SOL    HW128067   5.885   0.180   1.574
 9056SOL    HW228068   6.008   0.202   1.678
 9057SOL     OW28069   5.931   5.124   5.742
 9057SOL    HW128070   5.867   5.181   5.792
 9057SOL    HW228071   5.967   5.175   5.664
 9058SOL     OW28072   1.976   1.788   3.650
 9058SOL    HW128073   1.957   1.697   3.687
 9058SOL    HW228074   2.072   1.810   3.663
 9059SOL     OW28075   1.081   1.365   4.657
 9059SOL    HW128076   1.036   1.359   4.567
 9059SOL    HW228077   1.036   1.301   4.720
 9060SOL     OW28078   0.171   2.669   2.551
 9060SOL    HW128079   0.204   2.699   2.461
 9060SOL    HW228080   0.191   2.572   2.562
 9061SOL     OW28081   3.366   5.545   2.272
 9061SOL    HW128082   3.432   5.478   2.304
 9061SOL    HW228083   3.375   5.555   2.173
 9062SOL     OW28084   1.683   5.504   1.890
 9062SOL    HW128085   1.586   5.480   1.892
 9062SOL    HW228086   1.739   5.422   1.898
 9063SOL     OW28087   2.232   6.495   2.711
 9063SOL    HW128088   2.235   6.453   2.620
 9063SOL    HW228089   2.254   6.426   2.780
 9064SOL     OW28090   6.109   3.818   5.217
 9064SOL    HW128091   6.079   3.847   5.307
 9064SOL    HW228092   6.068   3.730   5.195
 9065SOL     OW28093   3.438   6.151   6.960
 9065SOL    HW128094   3.500   6.180   6.888
 9065SOL    HW228095   3.355   6.207   6.959
 9066SOL     OW28096   5.939   0.619   0.168
 9066SOL    HW128097   5.981   0.707   0.186
 9066SOL    HW228098   5.976   0.550   0.230
 9067SOL     OW28099   6.421   0.174   4.383
 9067SOL    HW128100   6.508   0.209   4.418
 9067SOL    HW228101   6.434   0.140   4.290
 9068SOL     OW28102   3.135   0.464   5.063
 9068SOL    HW128103   3.050   0.479   5.114
 9068SOL    HW228104   3.140   0.528   4.986
 9069SOL     OW28105   2.666   2.412   1.737
 9069SOL    HW128106   2.740   2.391   1.801
 9069SOL    HW228107   2.646   2.331   1.681
 9070SOL     OW28108   1.024   3.361   5.659
 9070SOL    HW128109   1.009   3.381   5.562
 9070SOL    HW228110   0.945   3.391   5.712
 9071SOL     OW28111   5.182   6.980   0.564
 9071SOL    HW128112   5.148   7.012   0.476
 9071SOL    HW228113   5.185   6.880   0.564
 9072SOL     OW28114   5.984   1.043   1.860
 9072SOL    HW128115   6.065   1.094   1.832
 9072SOL    HW228116   5.933   1.095   1.929
 9073SOL     OW28117   3.321   6.474   0.725
 9073SOL    HW128118   3.290   6.441   0.814
 9073SOL    HW228119   3.278   6.419   0.653
 9074SOL     OW28120   1.972   1.132   2.051
 9074SOL    HW128121   1.930   1.043   2.070
 9074SOL    HW228122   2.071   1.121   2.046
 9075SOL     OW28123   0.946   0.553   1.834
 9075SOL    HW128124   1.006   0.594   1.765
 9075SOL    HW228125   0.999   0.491   1.891
 9076SOL     OW28126   6.080   1.729   4.811
 9076SOL    HW128127   5.990   1.763   4.838
 9076SOL    HW228128   6.108   1.775   4.726
 9077SOL     OW28129   5.842   0.632   6.849
 9077SOL    HW128130   5.744   0.643   6.865
 9077SOL    HW228131   5.889   0.616   6.936
 9078SOL     OW28132   4.291   3.957   6.872
 9078SOL    HW128133   4.344   3.899   6.934
 9078SOL    HW228134   4.351   4.024   6.829
 9079SOL     OW28135   2.272   6.039   3.974
 9079SOL    HW128136   2.252   6.103   3.899
 9079SOL    HW228137   2.287   5.948   3.937
 9080SOL     OW28138   5.716   2.027   0.569
 9080SOL    HW128139   5.711   1.934   0.531
 9080SOL    HW228140   5.631   2.048   0.616
 9081SOL     OW28141   4.234   6.616   2.751
 9081SOL    HW128142   4.154   6.643   2.804
 9081SOL    HW228143   4.297   6.693   2.743
 9082SOL     OW28144   3.224   6.671   5.710
 9082SOL    HW128145   3.175   6.648   5.794
 9082SOL    HW228146   3.179   6.627   5.632
 9083SOL     OW28147   3.746   4.189   5.910
 9083SOL    HW128148   3.845   4.194   5.897
 9083SOL    HW228149   3.725   4.116   5.975
 9084SOL     OW28150   3.077   3.700   5.562
 9084SOL    HW128151   3.042   3.794   5.553
 9084SOL    HW228152   3.176   3.704   5.578
 9085SOL     OW28153   1.822   4.624   0.574
 9085SOL    HW128154   1.896   4.668   0.625
 9085SOL    HW228155   1.741   4.617   0.632
 9086SOL     OW28156   0.632   4.514   0.511
 9086SOL    HW128157   0.632   4.579   0.435
 9086SOL    HW228158   0.717   4.460   0.508
 9087SOL     OW28159   4.575   2.502   1.992
 9087SOL    HW128160   4.549   2.407   2.008
 9087SOL    HW228161   4.501   2.549   1.944
 9088SOL     OW28162   6.122   6.184   0.930
 9088SOL    HW128163   6.036   6.139   0.905
 9088SOL    HW228164   6.136   6.177   1.029
 9089SOL     OW28165   4.996   6.283   5.032
 9089SOL    HW128166   4.951   6.231   5.105
 9089SOL    HW228167   5.050   6.221   4.975
 9090SOL     OW28168   6.442   6.108   3.575
 9090SOL    HW128169   6.507   6.172   3.534
 9090SOL    HW228170   6.492   6.036   3.623
 9091SOL     OW28171   2.789   3.494   0.919
 9091SOL    HW128172   2.812   3.403   0.885
 9091SOL    HW228173   2.856   3.560   0.885
 9092SOL     OW28174   7.013   2.119   0.980
 9092SOL    HW128175   6.954   2.045   1.012
 9092SOL    HW228176   6.981   2.206   1.019
 9093SOL     OW28177   1.460   6.334   6.339
 9093SOL    HW128178   1.453   6.432   6.359
 9093SOL    HW228179   1.387   6.307   6.277
 9094SOL     OW28180   6.282   5.404   3.002
 9094SOL    HW128181   6.262   5.356   2.916
 9094SOL    HW228182   6.211   5.381   3.070
 9095SOL     OW28183   4.510   3.936   6.088
 9095SOL    HW128184   4.450   4.010   6.059
 9095SOL    HW228185   4.556   3.961   6.173
 9096SOL     OW28186   5.581   3.980   1.739
 9096SOL    HW128187   5.659   3.987   1.677
 9096SOL    HW228188   5.597   3.905   1.803
 9097SOL     OW28189   1.158   1.936   6.686
 9097SOL    HW128190   1.206   1.853   6.713
 9097SOL    HW228191   1.060   1.926   6.704
 9098SOL     OW28192   3.876   2.157   6.418
 9098SOL    HW128193   3.878   2.173   6.319
 9098SOL    HW228194   3.921   2.233   6.465
 9099SOL     OW28195   2.458   2.959   6.531
 9099SOL    HW128196   2.541   2.979   6.478
 9099SOL    HW228197   2.419   2.873   6.498
 9100SOL     OW28198   0.516   3.714   4.234
 9100SOL    HW128199   0.555   3.688   4.322
 9100SOL    HW228200   0.588   3.710   4.164
 9101SOL     OW28201   2.306   2.395   2.997
 9101SOL    HW128202   2.388   2.341   3.014
 9101SOL    HW228203   2.296   2.464   3.068
 9102SOL     OW28204   2.750   0.322   1.587
 9102SOL    HW128205   2.677   0.391   1.587
 9102SOL    HW228206   2.713   0.235   1.553
 9103SOL     OW28207   6.299   3.063   6.574
 9103SOL    HW128208   6.324   3.140   6.515
 9103SOL    HW228209   6.290   3.095   6.668
 9104SOL     OW28210   6.676   6.406   2.083
 9104SOL    HW128211   6.627   6.324   2.055
 9104SOL    HW228212   6.760   6.380   2.130
 9105SOL     OW28213   1.556   1.378   0.057
 9105SOL    HW128214   1.496   1.408   0.131
 9105SOL    HW228215   1.647   1.418   0.069
 9106SOL     OW28216   6.942   3.533   6.851
 9106SOL    HW128217   0.010   3.491   6.828
 9106SOL    HW228218   6.955   3.631   6.867
 9107SOL     OW28219   3.413   1.357   6.300
 9107SOL    HW128220   3.391   1.433   6.361
 9107SOL    HW228221   3.441   1.278   6.355
 9108SOL     OW28222   4.703   3.935   5.817
 9108SOL    HW128223   4.744   3.870   5.881
 9108SOL    HW228224   4.604   3.926   5.819
 9109SOL     OW28225   6.980   2.328   2.901
 9109SOL    HW128226   6.905   2.367   2.956
 9109SOL    HW228227   0.044   2.380   2.917
 9110SOL     OW28228   2.056   4.037   3.895
 9110SOL    HW128229   2.094   4.048   3.803
 9110SOL    HW228230   2.083   3.948   3.932
 9111SOL     OW28231   4.853   1.838   0.795
 9111SOL    HW128232   4.838   1.816   0.699
 9111SOL    HW228233   4.950   1.855   0.811
 9112SOL     OW28234   0.460   5.106   3.520
 9112SOL    HW128235   0.540   5.046   3.520
 9112SOL    HW228236   0.488   5.199   3.543
 9113SOL     OW28237   4.819   1.148   2.851
 9113SOL    HW128238   4.895   1.085   2.868
 9113SOL    HW228239   4.838   1.235   2.896
 9114SOL     OW28240   0.414   4.478   2.181
 9114SOL    HW128241   0.505   4.498   2.216
 9114SOL    HW228242   0.353   4.554   2.201
 9115SOL     OW28243   0.134   5.992   4.512
 9115SOL    HW128244   0.212   6.011   4.452
 9115SOL    HW228245   0.052   5.980   4.457
 9116SOL     OW28246   6.356   0.957   2.009
 9116SOL    HW128247   6.436   0.901   1.988
 9116SOL    HW228248   6.294   0.957   1.930
 9117SOL     OW28249   5.681   2.619   0.634
 9117SOL    HW128250   5.778   2.602   0.651
 9117SOL    HW228251   5.638   2.535   0.601
 9118SOL     OW28252   6.660   3.504   0.378
 9118SOL    HW128253   6.580   3.491   0.436
 9118SOL    HW228254   6.654   3.443   0.298
 9119SOL     OW28255   4.459   0.388   2.432
 9119SOL    HW128256   4.480   0.459   2.364
 9119SOL    HW228257   4.540   0.372   2.489
 9120SOL     OW28258   6.588   1.732   6.035
 9120SOL    HW128259   6.593   1.759   6.131
 9120SOL    HW228260   6.522   1.791   5.988
 9121SOL     OW28261   4.521   1.156   4.613
 9121SOL    HW128262   4.539   1.236   4.557
 9121SOL    HW228263   4.606   1.125   4.656
 9122SOL     OW28264   2.206   4.020   2.218
 9122SOL    HW128265   2.168   3.931   2.245
 9122SOL    HW228266   2.266   4.008   2.140
 9123SOL     OW28267   2.885   0.586   3.473
 9123SOL    HW128268   2.900   0.681   3.498
 9123SOL    HW228269   2.794   0.557   3.502
 9124SOL     OW28270   5.343   6.387   0.401
 9124SOL    HW128271   5.380   6.338   0.480
 9124SOL    HW228272   5.271   6.449   0.431
 9125SOL     OW28273   4.618   4.124   0.588
 9125SOL    HW128274   4.641   4.107   0.684
 9125SOL    HW228275   4.649   4.047   0.532
 9126SOL     OW28276   6.119   3.477   1.068
 9126SOL    HW128277   6.191   3.518   1.012
 9126SOL    HW228278   6.045   3.543   1.079
 9127SOL     OW28279   0.246   1.864   6.423
 9127SOL    HW128280   0.180   1.921   6.374
 9127SOL    HW228281   0.337   1.877   6.384
 9128SOL     OW28282   6.209   1.894   5.317
 9128SOL    HW128283   6.277   1.950   5.269
 9128SOL    HW228284   6.155   1.843   5.250
 9129SOL     OW28285   0.102   2.316   0.251
 9129SOL    HW128286   0.148   2.285   0.334
 9129SOL    HW228287   0.161   2.297   0.172
 9130SOL     OW28288   0.260   3.175   6.009
 9130SOL    HW128289   0.318   3.165   5.928
 9130SOL    HW228290   0.174   3.220   5.982
 9131SOL     OW28291   5.681   3.204   5.508
 9131SOL    HW128292   5.598   3.164   5.547
 9131SOL    HW228293   5.734   3.132   5.462
 9132SOL     OW28294   0.386   5.767   4.369
 9132SOL    HW128295   0.312   5.712   4.329
 9132SOL    HW228296   0.361   5.864   4.365
 9133SOL     OW28297   3.616   6.905   1.576
 9133SOL    HW128298   3.679   6.927   1.502
 9133SOL    HW228299   3.666   6.901   1.662
 9134SOL     OW28300   3.787   6.111   1.492
 9134SOL    HW128301   3.795   6.203   1.454
 9134SOL    HW228302   3.869   6.058   1.471
 9135SOL     OW28303   6.201   6.736   1.765
 9135SOL    HW128304   6.236   6.786   1.844
 9135SOL    HW228305   6.228   6.640   1.772
 9136SOL     OW28306   4.881   6.676   0.057
 9136SOL    HW128307   4.976   6.661   0.030
 9136SOL    HW228308   4.830   6.591   0.047
 9137SOL     OW28309   5.214   1.123   0.588
 9137SOL    HW128310   5.248   1.148   0.678
 9137SOL    HW228311   5.155   1.195   0.553
 9138SOL     OW28312   0.506   6.155   6.402
 9138SOL    HW128313   0.515   6.161   6.303
 9138SOL    HW228314   0.414   6.123   6.426
 9139SOL     OW28315   2.028   1.792   3.106
 9139SOL    HW128316   2.076   1.863   3.158
 9139SOL    HW228317   1.986   1.726   3.169
 9140SOL     OW28318   6.809   2.989   2.748
 9140SOL    HW128319   6.874   2.931   2.699
 9140SOL    HW228320   6.850   3.078   2.766
 9141SOL     OW28321   5.243   0.094   1.131
 9141SOL    HW128322   5.236   7.013   1.135
 9141SOL    HW228323   5.188   0.129   1.055
 9142SOL     OW28324   0.601   2.693   1.001
 9142SOL    HW128325   0.681   2.656   1.050
 9142SOL    HW228326   0.618   2.789   0.978
 9143SOL     OW28327   6.402   2.915   0.260
 9143SOL    HW128328   6.343   2.850   0.308
 9143SOL    HW228329   6.356   2.947   0.177
 9144SOL     OW28330   2.612   5.176   4.644
 9144SOL    HW128331   2.534   5.184   4.707
 9144SOL    HW228332   2.586   5.210   4.554
 9145SOL     OW28333   0.382   5.538   6.641
 9145SOL    HW128334   0.446   5.549   6.717
 9145SOL    HW228335   0.422   5.477   6.572
 9146SOL     OW28336   5.450   3.308   3.871
 9146SOL    HW128337   5.433   3.347   3.780
 9146SOL    HW228338   5.366   3.267   3.906
 9147SOL     OW28339   5.984   6.597   5.632
 9147SOL    HW128340   6.018   6.532   5.563
 9147SOL    HW228341   6.011   6.690   5.606
 9148SOL     OW28342   5.426   6.123   1.554
 9148SOL    HW128343   5.502   6.184   1.579
 9148SOL    HW228344   5.369   6.107   1.634
 9149SOL     OW28345   5.676   3.701   2.338
 9149SOL    HW128346   5.639   3.757   2.412
 9149SOL    HW228347   5.764   3.664   2.365
 9150SOL     OW28348   3.397   5.227   0.839
 9150SOL    HW128349   3.346   5.176   0.908
 9150SOL    HW228350   3.366   5.321   0.836
 9151SOL     OW28351   1.811   4.623   3.723
 9151SOL    HW128352   1.746   4.690   3.688
 9151SOL    HW228353   1.904   4.655   3.708
 9152SOL     OW28354   2.177   3.974   4.494
 9152SOL    HW128355   2.152   3.938   4.584
 9152SOL    HW228356   2.215   3.900   4.438
 9153SOL     OW28357   0.264   2.838   6.818
 9153SOL    HW128358   0.205   2.872   6.746
 9153SOL    HW228359   0.213   2.832   6.904
 9154SOL     OW28360   5.621   5.017   6.403
 9154SOL    HW128361   5.535   5.012   6.351
 9154SOL    HW228362   5.661   4.925   6.410
 9155SOL     OW28363   1.863   3.885   2.405
 9155SOL    HW128364   1.798   3.825   2.359
 9155SOL    HW228365   1.854   3.874   2.504
 9156SOL     OW28366   0.845   2.370   0.732
 9156SOL    HW128367   0.935   2.329   0.721
 9156SOL    HW228368   0.809   2.350   0.823
 9157SOL     OW28369   2.297   4.115   6.211
 9157SOL    HW128370   2.375   4.160   6.254
 9157SOL    HW228371   2.223   4.107   6.277
 9158SOL     OW28372   6.033   3.522   4.123
 9158SOL    HW128373   6.116   3.511   4.069
 9158SOL    HW228374   6.030   3.453   4.195
 9159SOL     OW28375   1.687   0.925   2.329
 9159SOL    HW128376   1.670   0.869   2.409
 9159SOL    HW228377   1.618   0.998   2.324
 9160SOL     OW28378   0.200   6.681   6.031
 9160SOL    HW128379   0.204   6.673   5.931
 9160SOL    HW228380   0.283   6.641   6.071
 9161SOL     OW28381   4.899   5.264   4.046
 9161SOL    HW128382   4.978   5.324   4.031
 9161SOL    HW228383   4.821   5.319   4.077
 9162SOL     OW28384   4.315   0.527   3.800
 9162SOL    HW128385   4.381   0.479   3.858
 9162SOL    HW228386   4.355   0.543   3.710
 9163SOL     OW28387   0.409   2.483   4.322
 9163SOL    HW128388   0.407   2.567   4.268
 9163SOL    HW228389   0.488   2.485   4.383
 9164SOL     OW28390   1.995   0.405   0.220
 9164SOL    HW128391   1.978   0.351   0.137
 9164SOL    HW228392   1.947   0.493   0.212
 9165SOL     OW28393   6.227   1.496   5.609
 9165SOL    HW128394   6.185   1.573   5.560
 9165SOL    HW228395   6.216   1.413   5.554
 9166SOL     OW28396   4.087   6.284   1.346
 9166SOL    HW128397   4.115   6.271   1.441
 9166SOL    HW228398   4.108   6.377   1.318
 9167SOL     OW28399   2.148   2.449   6.271
 9167SOL    HW128400   2.175   2.355   6.292
 9167SOL    HW228401   2.110   2.492   6.353
 9168SOL     OW28402   6.605   5.965   5.943
 9168SOL    HW128403   6.551   5.887   5.974
 9168SOL    HW228404   6.653   6.006   6.021
 9169SOL     OW28405   0.145   6.741   6.546
 9169SOL    HW128406   0.172   6.708   6.636
 9169SOL    HW228407   0.070   6.807   6.556
 9170SOL     OW28408   1.834   0.325   7.012
 9170SOL    HW128409   1.858   0.278   6.927
 9170SOL    HW228410   1.786   0.410   6.992
 9171SOL     OW28411   3.424   5.981   0.632
 9171SOL    HW128412   3.438   6.008   0.727
 9171SOL    HW228413   3.326   5.975   0.613
 9172SOL     OW28414   4.991   1.113   3.383
 9172SOL    HW128415   5.034   1.196   3.421
 9172SOL    HW228416   4.949   1.135   3.295
 9173SOL     OW28417   5.792   4.866   6.180
 9173SOL    HW128418   5.843   4.795   6.230
 9173SOL    HW228419   5.845   4.894   6.100
 9174SOL     OW28420   6.904   5.304   0.645
 9174SOL    HW128421   6.804   5.314   0.645
 9174SOL    HW228422   6.945   5.383   0.690
 9175SOL     OW28423   1.798   6.210   6.157
 9175SOL    HW128424   1.810   6.277   6.230
 9175SOL    HW228425   1.703   6.213   6.124
 9176SOL     OW28426   2.303   1.142   1.993
 9176SOL    HW128427   2.287   1.052   1.952
 9176SOL    HW228428   2.401   1.155   2.008
 9177SOL     OW28429   1.002   3.818   4.038
 9177SOL    HW128430   1.098   3.835   4.019
 9177SOL    HW228431   0.991   3.779   4.129
 9178SOL     OW28432   2.032   5.106   6.801
 9178SOL    HW128433   1.998   5.018   6.768
 9178SOL    HW228434   2.087   5.149   6.729
 9179SOL     OW28435   1.911   5.486   3.942
 9179SOL    HW128436   1.871   5.441   3.862
 9179SOL    HW228437   1.839   5.531   3.994
 9180SOL     OW28438   6.299   2.143   3.351
 9180SOL    HW128439   6.357   2.065   3.329
 9180SOL    HW228440   6.356   2.220   3.380
 9181SOL     OW28441   6.328   2.159   4.181
 9181SOL    HW128442   6.422   2.176   4.213
 9181SOL    HW228443   6.270   2.237   4.206
 9182SOL     OW28444   2.652   0.204   2.969
 9182SOL    HW128445   2.608   0.290   2.996
 9182SOL    HW228446   2.642   0.192   2.871
 9183SOL     OW28447   4.542   4.530   0.064
 9183SOL    HW128448   4.596   4.498   0.142
 9183SOL    HW228449   4.459   4.575   0.098
 9184SOL     OW28450   4.308   2.434   1.211
 9184SOL    HW128451   4.376   2.388   1.268
 9184SOL    HW228452   4.233   2.467   1.269
 9185SOL     OW28453   6.611   6.624   5.088
 9185SOL    HW128454   6.628   6.545   5.146
 9185SOL    HW228455   6.529   6.609   5.032
 9186SOL     OW28456   5.862   0.027   4.581
 9186SOL    HW128457   5.843   0.104   4.520
 9186SOL    HW228458   5.813   6.964   4.548
 9187SOL     OW28459   3.711   1.951   0.042
 9187SOL    HW128460   3.655   1.877   0.005
 9187SOL    HW228461   3.662   1.997   0.116
 9188SOL     OW28462   2.190   0.225   1.489
 9188SOL    HW128463   2.269   0.176   1.525
 9188SOL    HW228464   2.134   0.258   1.565
 9189SOL     OW28465   3.724   5.843   2.577
 9189SOL    HW128466   3.769   5.776   2.518
 9189SOL    HW228467   3.642   5.803   2.617
 9190SOL     OW28468   0.868   3.105   5.313
 9190SOL    HW128469   0.888   3.201   5.332
 9190SOL    HW228470   0.873   3.052   5.398
 9191SOL     OW28471   5.649   1.138   6.891
 9191SOL    HW128472   5.711   1.124   6.968
 9191SOL    HW228473   5.594   1.056   6.877
 9192SOL     OW28474   6.790   2.307   6.402
 9192SOL    HW128475   6.812   2.316   6.500
 9192SOL    HW228476   6.697   2.274   6.392
 9193SOL     OW28477   3.492   3.147   4.611
 9193SOL    HW128478   3.443   3.144   4.699
 9193SOL    HW228479   3.443   3.207   4.548
 9194SOL     OW28480   3.313   0.625   2.650
 9194SOL    HW128481   3.228   0.575   2.664
 9194SOL    HW228482   3.361   0.588   2.570
 9195SOL     OW28483   1.683   3.289   2.887
 9195SOL    HW128484   1.706   3.284   2.984
 9195SOL    HW228485   1.585   3.307   2.877
 9196SOL     OW28486   5.886   6.276   4.133
 9196SOL    HW128487   5.799   6.277   4.182
 9196SOL    HW228488   5.950   6.216   4.181
 9197SOL     OW28489   2.945   4.631   0.703
 9197SOL    HW128490   2.860   4.653   0.656
 9197SOL    HW228491   2.987   4.714   0.738
 9198SOL     OW28492   6.313   4.130   6.348
 9198SOL    HW128493   6.363   4.103   6.267
 9198SOL    HW228494   6.261   4.213   6.329
 9199SOL     OW28495   6.862   2.736   5.271
 9199SOL    HW128496   6.879   2.649   5.318
 9199SOL    HW228497   6.945   2.792   5.275
 9200SOL     OW28498   2.756   6.074   5.694
 9200SOL    HW128499   2.824   6.003   5.712
 9200SOL    HW228500   2.802   6.159   5.668
 9201SOL     OW28501   6.750   3.317   6.633
 9201SOL    HW128502   6.794   3.401   6.601
 9201SOL    HW228503   6.715   3.331   6.725
 9202SOL     OW28504   1.056   5.406   4.126
 9202SOL    HW128505   1.012   5.454   4.050
 9202SOL    HW228506   1.078   5.472   4.198
 9203SOL     OW28507   6.238   3.003   5.865
 9203SOL    HW128508   6.222   3.061   5.945
 9203SOL    HW228509   6.309   2.936   5.886
 9204SOL     OW28510   4.950   3.642   4.476
 9204SOL    HW128511   4.932   3.617   4.570
 9204SOL    HW228512   4.957   3.560   4.419
 9205SOL     OW28513   5.266   5.650   3.187
 9205SOL    HW128514   5.256   5.749   3.202
 9205SOL    HW228515   5.175   5.608   3.187
 9206SOL     OW28516   3.255   6.551   3.307
 9206SOL    HW128517   3.209   6.577   3.222
 9206SOL    HW228518   3.348   6.588   3.307
 9207SOL     OW28519   4.065   4.531   0.132
 9207SOL    HW128520   4.021   4.540   0.222
 9207SOL    HW228521   3.994   4.516   0.063
 9208SOL     OW28522   5.528   4.019   2.582
 9208SOL    HW128523   5.468   4.028   2.502
 9208SOL    HW228524   5.563   3.926   2.587
 9209SOL     OW28525   4.822   1.083   1.301
 9209SOL    HW128526   4.919   1.094   1.323
 9209SOL    HW228527   4.771   1.161   1.337
 9210SOL     OW28528   1.772   1.525   0.761
 9210SOL    HW128529   1.769   1.591   0.686
 9210SOL    HW228530   1.717   1.445   0.736
 9211SOL     OW28531   6.234   2.863   6.193
 9211SOL    HW128532   6.297   2.850   6.117
 9211SOL    HW228533   6.147   2.818   6.173
 9212SOL     OW28534   5.579   4.160   4.209
 9212SOL    HW128535   5.516   4.105   4.265
 9212SOL    HW228536   5.554   4.150   4.112
 9213SOL     OW28537   4.920   4.965   4.361
 9213SOL    HW128538   4.844   4.956   4.296
 9213SOL    HW228539   4.933   5.062   4.384
 9214SOL     OW28540   0.015   3.131   4.793
 9214SOL    HW128541   6.954   3.070   4.785
 9214SOL    HW228542   0.014   3.197   4.718
 9215SOL     OW28543   1.323   4.604   2.244
 9215SOL    HW128544   1.248   4.544   2.274
 9215SOL    HW228545   1.403   4.589   2.303
 9216SOL     OW28546   2.412   6.577   3.533
 9216SOL    HW128547   2.447   6.624   3.452
 9216SOL    HW228548   2.485   6.571   3.601
 9217SOL     OW28549   6.762   2.897   6.604
 9217SOL    HW128550   6.771   2.832   6.529
 9217SOL    HW228551   6.828   2.971   6.593
 9218SOL     OW28552   3.720   0.936   0.023
 9218SOL    HW128553   3.686   0.978   6.957
 9218SOL    HW228554   3.735   0.839   0.009
 9219SOL     OW28555   4.882   4.119   6.535
 9219SOL    HW128556   4.930   4.117   6.447
 9219SOL    HW228557   4.905   4.037   6.587
 9220SOL     OW28558   1.138   6.574   2.023
 9220SOL    HW128559   1.161   6.483   2.057
 9220SOL    HW228560   1.043   6.574   1.990
 9221SOL     OW28561   2.103   6.970   3.690
 9221SOL    HW128562   2.122   7.010   3.600
 9221SOL    HW228563   2.164   7.011   3.758
 9222SOL     OW28564   2.523   5.896   5.274
 9222SOL    HW128565   2.577   5.955   5.214
 9222SOL    HW228566   2.450   5.950   5.316
 9223SOL     OW28567   1.325   2.783   4.193
 9223SOL    HW128568   1.395   2.713   4.209
 9223SOL    HW228569   1.277   2.802   4.279
 9224SOL     OW28570   1.473   5.155   3.666
 9224SOL    HW128571   1.503   5.069   3.625
 9224SOL    HW228572   1.526   5.174   3.748
 9225SOL     OW28573   3.171   6.065   5.904
 9225SOL    HW128574   3.096   5.999   5.909
 9225SOL    HW228575   3.253   6.025   5.945
 9226SOL     OW28576   0.689   6.478   1.584
 9226SOL    HW128577   0.622   6.452   1.653
 9226SOL    HW228578   0.717   6.573   1.598
 9227SOL     OW28579   2.193   5.956   1.119
 9227SOL    HW128580   2.136   6.012   1.058
 9227SOL    HW228581   2.195   5.862   1.086
 9228SOL     OW28582   2.872   1.541   6.961
 9228SOL    HW128583   2.806   1.557   0.016
 9228SOL    HW228584   2.823   1.514   6.878
 9229SOL     OW28585   0.628   4.655   5.523
 9229SOL    HW128586   0.613   4.693   5.432
 9229SOL    HW228587   0.664   4.562   5.516
 9230SOL     OW28588   5.125   3.020   3.546
 9230SOL    HW128589   5.170   3.100   3.584
 9230SOL    HW228590   5.193   2.954   3.514
 9231SOL     OW28591   1.261   3.345   5.356
 9231SOL    HW128592   1.292   3.412   5.288
 9231SOL    HW228593   1.284   3.253   5.326
 9232SOL     OW28594   2.844   5.227   6.710
 9232SOL    HW128595   2.773   5.198   6.775
 9232SOL    HW228596   2.838   5.326   6.696
 9233SOL     OW28597   6.183   6.283   1.419
 9233SOL    HW128598   6.258   6.341   1.451
 9233SOL    HW228599   6.096   6.320   1.453
 9234SOL     OW28600   3.186   5.756   0.613
 9234SOL    HW128601   3.131   5.673   0.600
 9234SOL    HW228602   3.280   5.730   0.634
 9235SOL     OW28603   2.183   2.468   3.533
 9235SOL    HW128604   2.127   2.449   3.452
 9235SOL    HW228605   2.256   2.532   3.508
 9236SOL     OW28606   1.758   4.270   6.530
 9236SOL    HW128607   1.756   4.346   6.595
 9236SOL    HW228608   1.705   4.295   6.448
 9237SOL     OW28609   0.777   6.028   2.632
 9237SOL    HW128610   0.850   6.081   2.676
 9237SOL    HW228611   0.690   6.075   2.645
 9238SOL     OW28612   2.474   3.157   6.277
 9238SOL    HW128613   2.470   3.144   6.178
 9238SOL    HW228614   2.548   3.103   6.315
 9239SOL     OW28615   0.289   3.628   5.821
 9239SOL    HW128616   0.320   3.550   5.767
 9239SOL    HW228617   0.291   3.711   5.765
 9240SOL     OW28618   4.807   2.835   2.227
 9240SOL    HW128619   4.900   2.858   2.254
 9240SOL    HW228620   4.772   2.905   2.165
 9241SOL     OW28621   0.366   5.072   6.902
 9241SOL    HW128622   0.428   5.145   6.929
 9241SOL    HW228623   0.272   5.097   6.927
 9242SOL     OW28624   1.225   3.889   0.850
 9242SOL    HW128625   1.309   3.845   0.819
 9242SOL    HW228626   1.171   3.824   0.902
 9243SOL     OW28627   0.146   0.208   1.451
 9243SOL    HW128628   0.225   0.191   1.393
 9243SOL    HW228629   0.123   0.306   1.448
 9244SOL     OW28630   3.423   5.587   6.279
 9244SOL    HW128631   3.338   5.583   6.226
 9244SOL    HW228632   3.403   5.574   6.376
 9245SOL     OW28633   0.773   5.460   3.932
 9245SOL    HW128634   0.757   5.481   3.836
 9245SOL    HW228635   0.822   5.535   3.975
 9246SOL     OW28636   6.338   6.995   2.950
 9246SOL    HW128637   6.382   0.062   2.974
 9246SOL    HW228638   6.351   6.929   3.023
 9247SOL     OW28639   2.467   5.731   3.281
 9247SOL    HW128640   2.385   5.760   3.232
 9247SOL    HW228641   2.441   5.677   3.361
 9248SOL     OW28642   3.028   1.810   4.458
 9248SOL    HW128643   3.036   1.717   4.495
 9248SOL    HW228644   2.985   1.806   4.368
 9249SOL     OW28645   3.667   4.939   1.352
 9249SOL    HW128646   3.732   5.014   1.340
 9249SOL    HW228647   3.711   4.864   1.402
 9250SOL     OW28648   5.500   2.856   4.519
 9250SOL    HW128649   5.479   2.904   4.604
 9250SOL    HW228650   5.448   2.770   4.515
 9251SOL     OW28651   4.116   1.922   3.126
 9251SOL    HW128652   4.120   1.947   3.029
 9251SOL    HW228653   4.125   1.823   3.135
 9252SOL     OW28654   5.612   0.885   4.887
 9252SOL    HW128655   5.542   0.893   4.816
 9252SOL    HW228656   5.692   0.838   4.850
 9253SOL     OW28657   5.511   5.608   5.540
 9253SOL    HW128658   5.420   5.620   5.579
 9253SOL    HW228659   5.507   5.539   5.467
 9254SOL     OW28660   5.419   4.955   3.098
 9254SOL    HW128661   5.340   5.009   3.069
 9254SOL    HW228662   5.471   4.927   3.018
 9255SOL     OW28663   4.678   3.739   0.087
 9255SOL    HW128664   4.745   3.756   0.015
 9255SOL    HW228665   4.691   3.804   0.162
 9256SOL     OW28666   3.387   0.040   2.516
 9256SOL    HW128667   3.395   0.140   2.512
 9256SOL    HW228668   3.320   0.009   2.448
 9257SOL     OW28669   6.987   4.573   3.340
 9257SOL    HW128670   6.956   4.619   3.423
 9257SOL    HW228671   6.994   4.475   3.358
 9258SOL     OW28672   3.706   3.824   2.503
 9258SOL    HW128673   3.667   3.778   2.584
 9258SOL    HW228674   3.683   3.771   2.421
 9259SOL     OW28675   0.421   1.994   0.715
 9259SOL    HW128676   0.492   1.980   0.784
 9259SOL    HW228677   0.340   2.035   0.758
 9260SOL     OW28678   6.119   1.752   5.559
 9260SOL    HW128679   6.031   1.792   5.584
 9260SOL    HW228680   6.127   1.748   5.459
 9261SOL     OW28681   3.352   1.588   0.448
 9261SOL    HW128682   3.333   1.516   0.516
 9261SOL    HW228683   3.378   1.672   0.495
 9262SOL     OW28684   6.874   5.222   4.903
 9262SOL    HW128685   6.834   5.208   4.993
 9262SOL    HW228686   6.915   5.136   4.871
 9263SOL     OW28687   4.328   0.578   1.844
 9263SOL    HW128688   4.264   0.502   1.841
 9263SOL    HW228689   4.419   0.547   1.818
 9264SOL     OW28690   4.892   4.524   0.521
 9264SOL    HW128691   4.956   4.447   0.528
 9264SOL    HW228692   4.893   4.559   0.428
 9265SOL     OW28693   3.892   2.491   6.820
 9265SOL    HW128694   3.890   2.590   6.807
 9265SOL    HW228695   3.798   2.456   6.820
 9266SOL     OW28696   1.029   6.113   0.788
 9266SOL    HW128697   1.050   6.096   0.692
 9266SOL    HW228698   0.975   6.037   0.824
 9267SOL     OW28699   0.362   2.217   4.592
 9267SOL    HW128700   0.402   2.146   4.535
 9267SOL    HW228701   0.289   2.263   4.542
 9268SOL     OW28702   1.278   5.973   2.574
 9268SOL    HW128703   1.230   5.938   2.494
 9268SOL    HW228704   1.285   5.900   2.643
 9269SOL     OW28705   3.999   1.025   6.255
 9269SOL    HW128706   4.060   0.995   6.181
 9269SOL    HW228707   4.054   1.048   6.336
 9270SOL     OW28708   4.522   6.433   6.104
 9270SOL    HW128709   4.525   6.368   6.028
 9270SOL    HW228710   4.608   6.427   6.155
 9271SOL     OW28711   6.088   0.377   0.907
 9271SOL    HW128712   6.125   0.291   0.943
 9271SOL    HW228713   5.990   0.367   0.892
 9272SOL     OW28714   0.787   5.730   5.080
 9272SOL    HW128715   0.832   5.681   5.004
 9272SOL    HW228716   0.730   5.666   5.131
 9273SOL     OW28717   5.922   6.280   2.699
 9273SOL    HW128718   5.982   6.349   2.659
 9273SOL    HW228719   5.835   6.278   2.649
 9274SOL     OW28720   6.703   1.440   0.462
 9274SOL    HW128721   6.737   1.349   0.484
 9274SOL    HW228722   6.774   1.508   0.483
 9275SOL     OW28723   6.297   1.149   0.024
 9275SOL    HW128724   6.214   1.132   0.077
 9275SOL    HW228725   6.306   1.247   0.005
 9276SOL     OW28726   1.532   3.961   1.621
 9276SOL    HW128727   1.581   4.027   1.678
 9276SOL    HW228728   1.587   3.939   1.541
 9277SOL     OW28729   3.846   4.414   0.633
 9277SOL    HW128730   3.941   4.382   0.629
 9277SOL    HW228731   3.812   4.430   0.541
 9278SOL     OW28732   2.099   0.310   5.781
 9278SOL    HW128733   2.142   0.235   5.831
 9278SOL    HW228734   2.157   0.337   5.704
 9279SOL     OW28735   3.199   0.462   1.876
 9279SOL    HW128736   3.270   0.490   1.941
 9279SOL    HW228737   3.234   0.387   1.820
 9280SOL     OW28738   2.464   1.823   2.704
 9280SOL    HW128739   2.500   1.835   2.612
 9280SOL    HW228740   2.396   1.750   2.705
 9281SOL     OW28741   2.624   3.822   6.983
 9281SOL    HW128742   2.541   3.768   6.996
 9281SOL    HW228743   2.704   3.763   6.996
 9282SOL     OW28744   5.781   0.437   3.496
 9282SOL    HW128745   5.722   0.397   3.566
 9282SOL    HW228746   5.877   0.422   3.520
 9283SOL     OW28747   5.123   0.644   4.123
 9283SOL    HW128748   5.161   0.561   4.083
 9283SOL    HW228749   5.023   0.637   4.125
 9284SOL     OW28750   3.168   3.150   5.619
 9284SOL    HW128751   3.188   3.248   5.615
 9284SOL    HW228752   3.075   3.137   5.652
 9285SOL     OW28753   5.097   2.897   0.903
 9285SOL    HW128754   5.192   2.921   0.883
 9285SOL    HW228755   5.039   2.978   0.892
 9286SOL     OW28756   5.623   6.067   0.453
 9286SOL    HW128757   5.626   5.968   0.468
 9286SOL    HW228758   5.708   6.108   0.487
 9287SOL     OW28759   3.272   5.104   6.627
 9287SOL    HW128760   3.325   5.022   6.647
 9287SOL    HW228761   3.243   5.147   6.712
 9288SOL     OW28762   4.437   1.376   2.823
 9288SOL    HW128763   4.342   1.392   2.795
 9288SOL    HW228764   4.463   1.281   2.803
 9289SOL     OW28765   3.893   0.644   1.699
 9289SOL    HW128766   3.956   0.576   1.662
 9289SOL    HW228767   3.810   0.646   1.644
 9290SOL     OW28768   5.463   0.159   3.153
 9290SOL    HW128769   5.419   0.210   3.227
 9290SOL    HW228770   5.552   0.201   3.132
 9291SOL     OW28771   1.283   5.025   5.932
 9291SOL    HW128772   1.308   4.935   5.896
 9291SOL    HW228773   1.296   5.027   6.031
 9292SOL     OW28774   1.593   2.840   6.209
 9292SOL    HW128775   1.659   2.889   6.266
 9292SOL    HW228776   1.632   2.824   6.119
 9293SOL     OW28777   6.114   2.868   6.469
 9293SOL    HW128778   6.183   2.934   6.499
 9293SOL    HW228779   6.085   2.890   6.376
 9294SOL     OW28780   4.589   6.914   5.935
 9294SOL    HW128781   4.689   6.918   5.943
 9294SOL    HW228782   4.560   6.820   5.918
 9295SOL     OW28783   6.009   0.864   5.020
 9295SOL    HW128784   6.058   0.819   5.095
 9295SOL    HW228785   5.952   0.797   4.972
 9296SOL     OW28786   1.013   5.384   6.415
 9296SOL    HW128787   1.018   5.341   6.505
 9296SOL    HW228788   0.973   5.475   6.423
 9297SOL     OW28789   1.073   6.625   3.357
 9297SOL    HW128790   1.017   6.590   3.282
 9297SOL    HW228791   1.021   6.621   3.442
 9298SOL     OW28792   1.262   6.219   6.785
 9298SOL    HW128793   1.239   6.176   6.697
 9298SOL    HW228794   1.313   6.303   6.768
 9299SOL     OW28795   0.584   2.441   4.587
 9299SOL    HW128796   0.542   2.350   4.590
 9299SOL    HW228797   0.683   2.431   4.586
 9300SOL     OW28798   0.874   4.351   5.891
 9300SOL    HW128799   0.876   4.281   5.962
 9300SOL    HW228800   0.888   4.309   5.801
 9301SOL     OW28801   5.401   5.410   5.043
 9301SOL    HW128802   5.427   5.337   5.106
 9301SOL    HW228803   5.351   5.370   4.965
 9302SOL     OW28804   1.883   2.705   4.123
 9302SOL    HW128805   1.899   2.665   4.214
 9302SOL    HW228806   1.869   2.632   4.057
 9303SOL     OW28807   2.916   3.920   0.722
 9303SOL    HW128808   2.942   3.940   0.816
 9303SOL    HW228809   2.998   3.908   0.666
 9304SOL     OW28810   4.078   4.518   1.742
 9304SOL    HW128811   4.054   4.507   1.646
 9304SOL    HW228812   4.151   4.453   1.765
 9305SOL     OW28813   3.672   1.421   0.710
 9305SOL    HW128814   3.632   1.458   0.794
 9305SOL    HW228815   3.639   1.327   0.697
 9306SOL     OW28816   1.002   3.943   4.953
 9306SOL    HW128817   1.066   4.020   4.946
 9306SOL    HW228818   0.909   3.976   4.941
 9307SOL     OW28819   0.677   3.749   0.936
 9307SOL    HW128820   0.667   3.842   0.971
 9307SOL    HW228821   0.771   3.719   0.950
 9308SOL     OW28822   1.320   3.951   0.384
 9308SOL    HW128823   1.247   3.989   0.441
 9308SOL    HW228824   1.287   3.938   0.291
 9309SOL     OW28825   3.428   5.262   6.252
 9309SOL    HW128826   3.514   5.259   6.202
 9309SOL    HW228827   3.377   5.344   6.224
 9310SOL     OW28828   5.590   5.874   5.405
 9310SOL    HW128829   5.618   5.778   5.398
 9310SOL    HW228830   5.671   5.931   5.419
 9311SOL     OW28831   4.472   5.004   1.511
 9311SOL    HW128832   4.410   4.927   1.522
 9311SOL    HW228833   4.464   5.065   1.590
 9312SOL     OW28834   1.221   3.583   1.475
 9312SOL    HW128835   1.299   3.605   1.416
 9312SOL    HW228836   1.186   3.667   1.517
 9313SOL     OW28837   0.029   0.629   1.997
 9313SOL    HW128838   6.967   0.641   1.940
 9313SOL    HW228839   0.089   0.561   1.955
 9314SOL     OW28840   6.695   4.062   6.841
 9314SOL    HW128841   6.719   4.063   6.744
 9314SOL    HW228842   6.655   3.973   6.864
 9315SOL     OW28843   6.925   0.055   5.829
 9315SOL    HW128844   6.994   0.012   5.887
 9315SOL    HW228845   6.901   0.144   5.867
 9316SOL     OW28846   5.652   6.310   5.898
 9316SOL    HW128847   5.576   6.277   5.841
 9316SOL    HW228848   5.706   6.377   5.847
 9317SOL     OW28849   4.804   6.002   4.028
 9317SOL    HW128850   4.835   5.960   3.943
 9317SOL    HW228851   4.713   6.043   4.014
 9318SOL     OW28852   6.218   1.202   6.424
 9318SOL    HW128853   6.224   1.104   6.443
 9318SOL    HW228854   6.254   1.220   6.333
 9319SOL     OW28855   2.173   2.978   0.470
 9319SOL    HW128856   2.266   2.940   0.474
 9319SOL    HW228857   2.157   3.018   0.380
 9320SOL     OW28858   3.844   0.719   5.023
 9320SOL    HW128859   3.822   0.805   5.067
 9320SOL    HW228860   3.944   0.709   5.016
 9321SOL     OW28861   0.930   0.115   5.129
 9321SOL    HW128862   1.018   0.067   5.122
 9321SOL    HW228863   0.904   0.124   5.225
 9322SOL     OW28864   6.909   3.733   6.005
 9322SOL    HW128865   6.998   3.730   6.052
 9322SOL    HW228866   6.839   3.765   6.069
 9323SOL     OW28867   1.322   1.273   5.225
 9323SOL    HW128868   1.380   1.335   5.277
 9323SOL    HW228869   1.300   1.193   5.281
 9324SOL     OW28870   1.102   4.732   2.128
 9324SOL    HW128871   1.163   4.693   2.197
 9324SOL    HW228872   1.137   4.712   2.037
 9325SOL     OW28873   5.883   0.929   6.962
 9325SOL    HW128874   5.910   1.000   6.896
 9325SOL    HW228875   5.821   0.864   6.919
 9326SOL     OW28876   2.575   4.735   0.041
 9326SOL    HW128877   2.622   4.785   6.987
 9326SOL    HW228878   2.499   4.791   0.075
 9327SOL     OW28879   4.625   0.274   2.722
 9327SOL    HW128880   4.654   0.185   2.686
 9327SOL    HW228881   4.667   0.347   2.668
 9328SOL     OW28882   2.202   0.693   4.380
 9328SOL    HW128883   2.131   0.628   4.353
 9328SOL    HW228884   2.240   0.736   4.298
 9329SOL     OW28885   5.707   3.745   0.981
 9329SOL    HW128886   5.617   3.787   0.997
 9329SOL    HW228887   5.776   3.817   0.976
 9330SOL     OW28888   6.958   0.323   5.368
 9330SOL    HW128889   6.993   0.234   5.338
 9330SOL    HW228890   6.954   0.324   5.468
 9331SOL     OW28891   2.654   0.787   6.417
 9331SOL    HW128892   2.603   0.850   6.359
 9331SOL    HW228893   2.618   0.790   6.510
 9332SOL     OW28894   3.567   4.787   0.181
 9332SOL    HW128895   3.501   4.713   0.193
 9332SOL    HW228896   3.634   4.784   0.255
 9333SOL     OW28897   4.044   5.097   6.549
 9333SOL    HW128898   4.036   5.184   6.500
 9333SOL    HW228899   4.086   5.112   6.638
 9334SOL     OW28900   5.132   6.661   4.581
 9334SOL    HW128901   5.171   6.733   4.639
 9334SOL    HW228902   5.158   6.678   4.486
 9335SOL     OW28903   1.417   1.360   6.796
 9335SOL    HW128904   1.439   1.309   6.879
 9335SOL    HW228905   1.325   1.400   6.805
 9336SOL     OW28906   4.030   0.159   4.810
 9336SOL    HW128907   3.944   0.146   4.761
 9336SOL    HW228908   4.099   0.098   4.774
 9337SOL     OW28909   4.500   0.554   4.966
 9337SOL    HW128910   4.465   0.520   5.054
 9337SOL    HW228911   4.424   0.565   4.902
 9338SOL     OW28912   6.101   0.138   1.080
 9338SOL    HW128913   6.127   0.069   1.148
 9338SOL    HW228914   6.002   0.151   1.082
 9339SOL     OW28915   5.983   6.785   6.928
 9339SOL    HW128916   5.931   6.843   6.866
 9339SOL    HW228917   5.954   6.802   0.003
 9340SOL     OW28918   3.911   5.108   3.606
 9340SOL    HW128919   3.880   5.070   3.519
 9340SOL    HW228920   3.946   5.035   3.664
 9341SOL     OW28921   5.944   5.018   1.493
 9341SOL    HW128922   5.869   5.078   1.520
 9341SOL    HW228923   5.916   4.922   1.505
 9342SOL     OW28924   3.041   6.996   4.203
 9342SOL    HW128925   3.107   6.961   4.269
 9342SOL    HW228926   3.043   0.077   4.204
 9343SOL     OW28927   4.744   4.174   2.241
 9343SOL    HW128928   4.795   4.257   2.261
 9343SOL    HW228929   4.661   4.197   2.189
 9344SOL     OW28930   5.478   6.603   1.768
 9344SOL    HW128931   5.462   6.651   1.681
 9344SOL    HW228932   5.568   6.558   1.765
 9345SOL     OW28933   6.457   5.422   0.949
 9345SOL    HW128934   6.529   5.357   0.924
 9345SOL    HW228935   6.372   5.397   0.903
 9346SOL     OW28936   4.879   1.205   2.139
 9346SOL    HW128937   4.867   1.191   2.040
 9346SOL    HW228938   4.967   1.249   2.156
 9347SOL     OW28939   3.587   4.195   0.455
 9347SOL    HW128940   3.668   4.187   0.397
 9347SOL    HW228941   3.508   4.154   0.409
 9348SOL     OW28942   2.914   5.456   2.281
 9348SOL    HW128943   2.869   5.542   2.255
 9348SOL    HW228944   2.870   5.380   2.234
 9349SOL     OW28945   5.583   5.185   1.977
 9349SOL    HW128946   5.549   5.164   2.069
 9349SOL    HW228947   5.508   5.222   1.921
 9350SOL     OW28948   6.403   2.067   5.263
 9350SOL    HW128949   6.397   2.125   5.345
 9350SOL    HW228950   6.494   2.075   5.224
 9351SOL     OW28951   3.498   6.857   6.025
 9351SOL    HW128952   3.399   6.851   6.036
 9351SOL    HW228953   3.536   6.917   6.096
 9352SOL     OW28954   3.297   1.588   6.416
 9352SOL    HW128955   3.306   1.639   6.502
 9352SOL    HW228956   3.215   1.617   6.368
 9353SOL     OW28957   0.727   4.717   0.668
 9353SOL    HW128958   0.704   4.632   0.621
 9353SOL    HW228959   0.682   4.794   0.623
 9354SOL     OW28960   0.355   2.103   6.010
 9354SOL    HW128961   0.380   2.012   6.045
 9354SOL    HW228962   0.255   2.114   6.014
 9355SOL     OW28963   0.649   1.627   4.363
 9355SOL    HW128964   0.550   1.624   4.379
 9355SOL    HW228965   0.696   1.644   4.450
 9356SOL     OW28966   4.565   5.922   2.271
 9356SOL    HW128967   4.541   5.918   2.174
 9356SOL    HW228968   4.493   5.876   2.324
 9357SOL     OW28969   2.016   3.809   6.382
 9357SOL    HW128970   2.008   3.741   6.455
 9357SOL    HW228971   2.105   3.799   6.337
 9358SOL     OW28972   6.831   3.407   2.598
 9358SOL    HW128973   6.746   3.449   2.566
 9358SOL    HW228974   6.895   3.478   2.627
 9359SOL     OW28975   1.008   3.905   5.295
 9359SOL    HW128976   1.066   3.987   5.298
 9359SOL    HW228977   0.992   3.878   5.200
 9360SOL     OW28978   1.339   5.361   6.898
 9360SOL    HW128979   1.334   5.461   6.900
 9360SOL    HW228980   1.393   5.330   6.977
 9361SOL     OW28981   1.725   5.894   2.164
 9361SOL    HW128982   1.738   5.917   2.260
 9361SOL    HW228983   1.677   5.968   2.118
 9362SOL     OW28984   2.063   3.631   2.927
 9362SOL    HW128985   2.094   3.720   2.960
 9362SOL    HW228986   2.058   3.632   2.827
 9363SOL     OW28987   3.582   0.083   2.081
 9363SOL    HW128988   3.601   0.165   2.134
 9363SOL    HW228989   3.539   0.014   2.139
 9364SOL     OW28990   4.315   3.113   6.123
 9364SOL    HW128991   4.218   3.089   6.121
 9364SOL    HW228992   4.361   3.060   6.194
 9365SOL     OW28993   2.415   2.068   4.762
 9365SOL    HW128994   2.427   1.970   4.781
 9365SOL    HW228995   2.449   2.088   4.670
 9366SOL     OW28996   3.294   6.587   6.454
 9366SOL    HW128997   3.355   6.664   6.432
 9366SOL    HW228998   3.345   6.501   6.446
 9367SOL     OW28999   0.200   6.720   2.935
 9367SOL    HW129000   0.198   6.787   3.009
 9367SOL    HW229001   0.112   6.672   2.930
 9368SOL     OW29002   2.931   1.208   2.754
 9368SOL    HW129003   2.999   1.281   2.753
 9368SOL    HW229004   2.888   1.201   2.664
 9369SOL     OW29005   6.874   5.939   4.738
 9369SOL    HW129006   6.869   5.945   4.638
 9369SOL    HW229007   6.826   6.017   4.778
 9370SOL     OW29008   4.866   0.359   3.372
 9370SOL    HW129009   4.882   0.288   3.303
 9370SOL    HW229010   4.790   0.417   3.342
 9371SOL     OW29011   2.651   5.313   0.409
 9371SOL    HW129012   2.727   5.284   0.351
 9371SOL    HW229013   2.685   5.376   0.480
 9372SOL     OW29014   5.869   6.631   2.565
 9372SOL    HW129015   5.900   6.607   2.656
 9372SOL    HW229016   5.870   6.550   2.506
 9373SOL     OW29017   5.112   2.088   2.859
 9373SOL    HW129018   5.051   2.009   2.856
 9373SOL    HW229019   5.192   2.067   2.916
 9374SOL     OW29020   0.788   3.560   0.291
 9374SOL    HW129021   0.747   3.571   0.382
 9374SOL    HW229022   0.731   3.605   0.223
 9375SOL     OW29023   0.451   1.054   2.061
 9375SOL    HW129024   0.390   1.122   2.019
 9375SOL    HW229025   0.417   0.962   2.041
 9376SOL     OW29026   2.762   3.994   1.287
 9376SOL    HW129027   2.741   4.050   1.367
 9376SOL    HW229028   2.681   3.942   1.260
 9377SOL     OW29029   1.745   5.738   4.315
 9377SOL    HW129030   1.794   5.659   4.353
 9377SOL    HW229031   1.674   5.767   4.379
 9378SOL     OW29032   1.860   1.310   4.182
 9378SOL    HW129033   1.954   1.296   4.211
 9378SOL    HW229034   1.812   1.365   4.251
 9379SOL     OW29035   4.823   6.331   5.850
 9379SOL    HW129036   4.803   6.336   5.753
 9379SOL    HW229037   4.820   6.423   5.890
 9380SOL     OW29038   4.992   5.615   4.584
 9380SOL    HW129039   4.982   5.646   4.679
 9380SOL    HW229040   4.956   5.685   4.522
 9381SOL     OW29041   3.516   2.330   6.164
 9381SOL    HW129042   3.455   2.251   6.155
 9381SOL    HW229043   3.484   2.389   6.238
 9382SOL     OW29044   3.556   0.659   3.749
 9382SOL    HW129045   3.540   0.653   3.847
 9382SOL    HW229046   3.655   0.667   3.731
 9383SOL     OW29047   0.337   5.428   4.249
 9383SOL    HW129048   0.278   5.508   4.258
 9383SOL    HW229049   0.426   5.455   4.212
 9384SOL     OW29050   4.092   0.399   2.266
 9384SOL    HW129051   4.185   0.401   2.228
 9384SOL    HW229052   4.079   0.477   2.327
 9385SOL     OW29053   4.299   0.903   3.382
 9385SOL    HW129054   4.247   0.974   3.334
 9385SOL    HW229055   4.237   0.831   3.412
 9386SOL     OW29056   1.627   6.203   5.460
 9386SOL    HW129057   1.719   6.165   5.450
 9386SOL    HW229058   1.561   6.140   5.419
 9387SOL     OW29059   2.933   1.857   6.571
 9387SOL    HW129060   2.974   1.862   6.479
 9387SOL    HW229061   2.976   1.925   6.630
 9388SOL     OW29062   3.251   6.315   2.949
 9388SOL    HW129063   3.309   6.337   3.028
 9388SOL    HW229064   3.267   6.383   2.877
 9389SOL     OW29065   2.129   0.022   3.418
 9389SOL    HW129066   2.207   0.084   3.431
 9389SOL    HW229067   2.056   0.070   3.371
 9390SOL     OW29068   4.760   4.745   6.071
 9390SOL    HW129069   4.733   4.791   5.987
 9390SOL    HW229070   4.682   4.695   6.109
 9391SOL     OW29071   2.293   1.703   5.283
 9391SOL    HW129072   2.312   1.631   5.350
 9391SOL    HW229073   2.357   1.778   5.294
 9392SOL     OW29074   5.935   5.904   5.102
 9392SOL    HW129075   5.893   5.813   5.097
 9392SOL    HW229076   6.012   5.901   5.165
 9393SOL     OW29077   3.190   6.311   6.895
 9393SOL    HW129078   3.124   6.236   6.889
 9393SOL    HW229079   3.176   6.374   6.818
 9394SOL     OW29080   6.539   0.592   1.530
 9394SOL    HW129081   6.469   0.559   1.594
 9394SOL    HW229082   6.528   0.691   1.518
 9395SOL     OW29083   3.229   1.582   1.461
 9395SOL    HW129084   3.293   1.648   1.500
 9395SOL    HW229085   3.227   1.593   1.361
 9396SOL     OW29086   2.268   4.079   4.166
 9396SOL    HW129087   2.281   3.992   4.120
 9396SOL    HW229088   2.184   4.076   4.220
 9397SOL     OW29089   4.582   0.257   6.496
 9397SOL    HW129090   4.540   0.200   6.567
 9397SOL    HW229091   4.625   0.337   6.539
 9398SOL     OW29092   0.072   1.393   4.855
 9398SOL    HW129093   0.140   1.336   4.808
 9398SOL    HW229094   0.050   1.472   4.797
 9399SOL     OW29095   0.846   2.659   5.586
 9399SOL    HW129096   0.929   2.658   5.643
 9399SOL    HW229097   0.767   2.637   5.643
 9400SOL     OW29098   4.607   0.750   1.617
 9400SOL    HW129099   4.668   0.786   1.688
 9400SOL    HW229100   4.635   0.787   1.529
 9401SOL     OW29101   6.692   0.736   3.489
 9401SOL    HW129102   6.612   0.724   3.432
 9401SOL    HW229103   6.767   0.775   3.435
 9402SOL     OW29104   1.242   5.316   3.033
 9402SOL    HW129105   1.334   5.341   3.002
 9402SOL    HW229106   1.191   5.278   2.956
 9403SOL     OW29107   6.679   1.167   2.752
 9403SOL    HW129108   6.678   1.100   2.826
 9403SOL    HW229109   6.616   1.241   2.773
 9404SOL     OW29110   1.042   3.184   0.530
 9404SOL    HW129111   1.121   3.205   0.472
 9404SOL    HW229112   1.053   3.091   0.566
 9405SOL     OW29113   2.407   4.493   3.740
 9405SOL    HW129114   2.355   4.512   3.823
 9405SOL    HW229115   2.503   4.479   3.764
 9406SOL     OW29116   6.762   2.585   6.016
 9406SOL    HW129117   6.850   2.561   6.058
 9406SOL    HW229118   6.740   2.680   6.036
 9407SOL     OW29119   2.878   4.794   3.519
 9407SOL    HW129120   2.934   4.820   3.598
 9407SOL    HW229121   2.838   4.704   3.534
 9408SOL     OW29122   6.573   3.177   5.804
 9408SOL    HW129123   6.587   3.137   5.895
 9408SOL    HW229124   6.525   3.111   5.746
 9409SOL     OW29125   5.958   5.625   0.469
 9409SOL    HW129126   5.901   5.567   0.411
 9409SOL    HW229127   6.053   5.621   0.438
 9410SOL     OW29128   2.517   0.488   1.886
 9410SOL    HW129129   2.532   0.584   1.860
 9410SOL    HW229130   2.422   0.463   1.866
 9411SOL     OW29131   3.422   3.231   2.375
 9411SOL    HW129132   3.437   3.320   2.334
 9411SOL    HW229133   3.415   3.162   2.303
 9412SOL     OW29134   0.909   0.991   2.695
 9412SOL    HW129135   0.946   0.908   2.738
 9412SOL    HW229136   0.984   1.045   2.657
 9413SOL     OW29137   4.061   5.862   3.872
 9413SOL    HW129138   4.101   5.874   3.781
 9413SOL    HW229139   3.968   5.827   3.864
 9414SOL     OW29140   3.095   1.297   3.064
 9414SOL    HW129141   3.027   1.225   3.070
 9414SOL    HW229142   3.056   1.376   3.015
 9415SOL     OW29143   2.844   6.933   2.656
 9415SOL    HW129144   2.767   6.883   2.697
 9415SOL    HW229145   2.868   6.891   2.568
 9416SOL     OW29146   7.018   2.084   0.067
 9416SOL    HW129147   7.001   2.078   0.166
 9416SOL    HW229148   0.092   2.052   0.047
 9417SOL     OW29149   4.469   0.477   0.837
 9417SOL    HW129150   4.405   0.413   0.879
 9417SOL    HW229151   4.555   0.475   0.888
 9418SOL     OW29152   3.149   0.631   1.296
 9418SOL    HW129153   3.240   0.644   1.257
 9418SOL    HW229154   3.155   0.569   1.375
 9419SOL     OW29155   2.767   4.625   5.567
 9419SOL    HW129156   2.765   4.542   5.623
 9419SOL    HW229157   2.768   4.706   5.626
 9420SOL     OW29158   5.490   4.180   6.118
 9420SOL    HW129159   5.426   4.250   6.086
 9420SOL    HW229160   5.582   4.204   6.087
 9421SOL     OW29161   2.443   6.475   4.421
 9421SOL    HW129162   2.361   6.419   4.406
 9421SOL    HW229163   2.455   6.538   4.345
 9422SOL     OW29164   3.097   5.490   2.737
 9422SOL    HW129165   3.166   5.417   2.730
 9422SOL    HW229166   3.013   5.461   2.691
 9423SOL     OW29167   2.590   6.523   3.766
 9423SOL    HW129168   2.627   6.586   3.834
 9423SOL    HW229169   2.665   6.471   3.724
 9424SOL     OW29170   5.165   2.295   5.040
 9424SOL    HW129171   5.074   2.317   5.075
 9424SOL    HW229172   5.231   2.363   5.071
 9425SOL     OW29173   5.451   3.821   0.972
 9425SOL    HW129174   5.400   3.738   0.949
 9425SOL    HW229175   5.456   3.881   0.892
 9426SOL     OW29176   3.556   1.711   5.988
 9426SOL    HW129177   3.526   1.806   5.978
 9426SOL    HW229178   3.625   1.705   6.061
 9427SOL     OW29179   2.336   5.382   3.462
 9427SOL    HW129180   2.282   5.386   3.546
 9427SOL    HW229181   2.411   5.448   3.469
 9428SOL     OW29182   6.639   1.135   1.318
 9428SOL    HW129183   6.609   1.202   1.250
 9428SOL    HW229184   6.725   1.164   1.359
 9429SOL     OW29185   2.207   4.097   2.859
 9429SOL    HW129186   2.230   4.183   2.902
 9429SOL    HW229187   2.239   4.097   2.764
 9430SOL     OW29188   0.305   3.396   4.699
 9430SOL    HW129189   0.373   3.323   4.695
 9430SOL    HW229190   0.227   3.372   4.642
 9431SOL     OW29191   6.528   4.106   0.704
 9431SOL    HW129192   6.439   4.113   0.659
 9431SOL    HW229193   6.596   4.156   0.651
 9432SOL     OW29194   5.469   0.123   3.613
 9432SOL    HW129195   5.511   0.213   3.622
 9432SOL    HW229196   5.371   0.131   3.632
 9433SOL     OW29197   3.098   5.968   3.204
 9433SOL    HW129198   3.168   5.947   3.135
 9433SOL    HW229199   3.142   5.977   3.294
 9434SOL     OW29200   5.376   5.271   2.363
 9434SOL    HW129201   5.452   5.243   2.304
 9434SOL    HW229202   5.407   5.274   2.458
 9435SOL     OW29203   0.828   2.597   4.126
 9435SOL    HW129204   0.883   2.665   4.078
 9435SOL    HW229205   0.754   2.567   4.067
 9436SOL     OW29206   1.795   3.019   1.310
 9436SOL    HW129207   1.884   3.065   1.319
 9436SOL    HW229208   1.805   2.923   1.333
 9437SOL     OW29209   1.109   5.783   3.017
 9437SOL    HW129210   1.024   5.834   3.028
 9437SOL    HW229211   1.130   5.772   2.920
 9438SOL     OW29212   0.570   6.874   1.572
 9438SOL    HW129213   0.642   6.804   1.567
 9438SOL    HW229214   0.525   6.870   1.661
 9439SOL     OW29215   0.449   3.060   0.481
 9439SOL    HW129216   0.511   2.999   0.431
 9439SOL    HW229217   0.359   3.016   0.489
 9440SOL     OW29218   4.002   4.790   3.402
 9440SOL    HW129219   4.101   4.780   3.389
 9440SOL    HW229220   3.983   4.796   3.500
 9441SOL     OW29221   5.908   4.490   5.777
 9441SOL    HW129222   5.978   4.502   5.847
 9441SOL    HW229223   5.936   4.536   5.693
 9442SOL     OW29224   4.409   3.447   1.137
 9442SOL    HW129225   4.407   3.349   1.117
 9442SOL    HW229226   4.497   3.472   1.176
 9443SOL     OW29227   2.603   4.963   1.041
 9443SOL    HW129228   2.575   5.054   1.012
 9443SOL    HW229229   2.692   4.968   1.086
 9444SOL     OW29230   1.416   3.632   0.855
 9444SOL    HW129231   1.482   3.559   0.839
 9444SOL    HW229232   1.369   3.616   0.942
 9445SOL     OW29233   6.137   2.899   2.874
 9445SOL    HW129234   6.054   2.904   2.929
 9445SOL    HW229235   6.177   2.990   2.867
 9446SOL     OW29236   6.210   5.505   4.443
 9446SOL    HW129237   6.269   5.488   4.522
 9446SOL    HW229238   6.161   5.591   4.455
 9447SOL     OW29239   5.968   4.841   3.532
 9447SOL    HW129240   5.987   4.808   3.625
 9447SOL    HW229241   5.885   4.797   3.498
 9448SOL     OW29242   0.027   0.139   6.142
 9448SOL    HW129243   0.080   0.117   6.224
 9448SOL    HW229244   0.048   0.073   6.071
 9449SOL     OW29245   5.558   0.356   6.911
 9449SOL    HW129246   5.638   0.390   6.960
 9449SOL    HW229247   5.477   0.365   6.969
 9450SOL     OW29248   2.127   5.675   4.559
 9450SOL    HW129249   2.094   5.582   4.551
 9450SOL    HW229250   2.050   5.739   4.553
 9451SOL     OW29251   4.532   0.230   5.546
 9451SOL    HW129252   4.432   0.225   5.540
 9451SOL    HW229253   4.563   0.318   5.511
 9452SOL     OW29254   2.008   3.875   0.039
 9452SOL    HW129255   2.019   3.883   6.959
 9452SOL    HW229256   1.947   3.947   0.072
 9453SOL     OW29257   2.591   4.632   2.718
 9453SOL    HW129258   2.544   4.719   2.702
 9453SOL    HW229259   2.556   4.590   2.801
 9454SOL     OW29260   3.578   3.949   6.541
 9454SOL    HW129261   3.496   3.930   6.488
 9454SOL    HW229262   3.659   3.919   6.490
 9455SOL     OW29263   2.501   1.942   4.068
 9455SOL    HW129264   2.565   2.002   4.021
 9455SOL    HW229265   2.533   1.847   4.062
 9456SOL     OW29266   6.877   3.660   0.784
 9456SOL    HW129267   6.838   3.570   0.765
 9456SOL    HW229268   6.807   3.730   0.770
 9457SOL     OW29269   1.610   3.998   4.092
 9457SOL    HW129270   1.700   3.963   4.067
 9457SOL    HW229271   1.552   3.923   4.122
 9458SOL     OW29272   0.951   3.353   6.536
 9458SOL    HW129273   0.915   3.446   6.547
 9458SOL    HW229274   1.050   3.356   6.527
 9459SOL     OW29275   5.590   4.485   3.627
 9459SOL    HW129276   5.678   4.444   3.605
 9459SOL    HW229277   5.602   4.559   3.693
 9460SOL     OW29278   1.787   3.641   3.723
 9460SOL    HW129279   1.785   3.726   3.776
 9460SOL    HW229280   1.861   3.645   3.656
 9461SOL     OW29281   0.288   1.822   1.696
 9461SOL    HW129282   0.198   1.779   1.690
 9461SOL    HW229283   0.279   1.921   1.686
 9462SOL     OW29284   2.136   3.380   3.351
 9462SOL    HW129285   2.052   3.359   3.400
 9462SOL    HW229286   2.123   3.464   3.297
 9463SOL     OW29287   6.168   0.328   1.340
 9463SOL    HW129288   6.171   0.267   1.419
 9463SOL    HW229289   6.254   0.319   1.288
 9464SOL     OW29290   6.030   0.501   1.154
 9464SOL    HW129291   6.040   0.453   1.067
 9464SOL    HW229292   6.074   0.447   1.226
 9465SOL     OW29293   0.452   4.098   1.856
 9465SOL    HW129294   0.442   3.999   1.848
 9465SOL    HW229295   0.530   4.119   1.915
 9466SOL     OW29296   3.790   4.536   5.313
 9466SOL    HW129297   3.700   4.577   5.328
 9466SOL    HW229298   3.839   4.531   5.400
 9467SOL     OW29299   1.635   2.508   1.686
 9467SOL    HW129300   1.580   2.498   1.602
 9467SOL    HW229301   1.654   2.604   1.702
 9468SOL     OW29302   5.762   3.498   6.529
 9468SOL    HW129303   5.854   3.473   6.561
 9468SOL    HW229304   5.768   3.534   6.436
 9469SOL     OW29305   6.254   5.162   1.980
 9469SOL    HW129306   6.238   5.075   1.934
 9469SOL    HW229307   6.213   5.236   1.927
 9470SOL     OW29308   5.048   3.581   6.382
 9470SOL    HW129309   4.975   3.619   6.326
 9470SOL    HW229310   5.130   3.570   6.326
 9471SOL     OW29311   6.762   2.345   3.881
 9471SOL    HW129312   6.738   2.443   3.880
 9471SOL    HW229313   6.831   2.329   3.952
 9472SOL     OW29314   6.226   3.087   5.079
 9472SOL    HW129315   6.291   3.012   5.082
 9472SOL    HW229316   6.134   3.053   5.099
 9473SOL     OW29317   2.993   4.987   0.202
 9473SOL    HW129318   2.959   4.919   0.267
 9473SOL    HW229319   2.981   4.952   0.109
 9474SOL     OW29320   6.740   3.345   6.898
 9474SOL    HW129321   6.783   3.435   6.892
 9474SOL    HW229322   6.746   3.312   6.993
 9475SOL     OW29323   3.699   3.322   6.676
 9475SOL    HW129324   3.653   3.388   6.736
 9475SOL    HW229325   3.792   3.353   6.658
 9476SOL     OW29326   4.099   3.626   4.268
 9476SOL    HW129327   4.036   3.553   4.241
 9476SOL    HW229328   4.135   3.670   4.186
 9477SOL     OW29329   0.998   2.612   0.692
 9477SOL    HW129330   1.084   2.571   0.663
 9477SOL    HW229331   0.926   2.542   0.690
 9478SOL     OW29332   5.236   3.246   0.830
 9478SOL    HW129333   5.328   3.284   0.841
 9478SOL    HW229334   5.186   3.257   0.916
 9479SOL     OW29335   4.239   6.290   0.016
 9479SOL    HW129336   4.280   6.231   0.084
 9479SOL    HW229337   4.140   6.294   0.031
 9480SOL     OW29338   5.642   4.685   0.947
 9480SOL    HW129339   5.567   4.623   0.970
 9480SOL    HW229340   5.612   4.747   0.874
 9481SOL     OW29341   4.989   3.081   2.875
 9481SOL    HW129342   4.914   3.112   2.932
 9481SOL    HW229343   4.959   3.075   2.780
 9482SOL     OW29344   0.573   1.255   2.636
 9482SOL    HW129345   0.492   1.308   2.615
 9482SOL    HW229346   0.653   1.315   2.637
 9483SOL     OW29347   1.849   0.692   1.248
 9483SOL    HW129348   1.903   0.612   1.223
 9483SOL    HW229349   1.762   0.690   1.200
 9484SOL     OW29350   4.821   0.342   4.209
 9484SOL    HW129351   4.903   0.322   4.263
 9484SOL    HW229352   4.740   0.329   4.266
 9485SOL     OW29353   0.514   0.898   0.579
 9485SOL    HW129354   0.581   0.952   0.629
 9485SOL    HW229355   0.459   0.958   0.521
 9486SOL     OW29356   3.922   6.444   0.945
 9486SOL    HW129357   3.906   6.391   0.862
 9486SOL    HW229358   4.018   6.474   0.947
 9487SOL     OW29359   3.347   3.853   3.996
 9487SOL    HW129360   3.341   3.924   3.925
 9487SOL    HW229361   3.259   3.845   4.043
 9488SOL     OW29362   2.976   0.030   1.405
 9488SOL    HW129363   2.961   6.968   1.461
 9488SOL    HW229364   3.019   0.004   1.318
 9489SOL     OW29365   4.320   4.246   0.855
 9489SOL    HW129366   4.412   4.281   0.872
 9489SOL    HW229367   4.285   4.202   0.937
 9490SOL     OW29368   6.015   5.113   2.572
 9490SOL    HW129369   6.078   5.039   2.546
 9490SOL    HW229370   6.020   5.127   2.671
 9491SOL     OW29371   5.679   4.694   3.779
 9491SOL    HW129372   5.646   4.755   3.851
 9491SOL    HW229373   5.766   4.728   3.744
 9492SOL     OW29374   3.437   2.861   4.742
 9492SOL    HW129375   3.382   2.895   4.666
 9492SOL    HW229376   3.498   2.789   4.709
 9493SOL     OW29377   2.790   5.578   4.436
 9493SOL    HW129378   2.697   5.605   4.411
 9493SOL    HW229379   2.814   5.492   4.390
 9494SOL     OW29380   5.059   2.754   2.714
 9494SOL    HW129381   5.062   2.682   2.644
 9494SOL    HW229382   4.966   2.788   2.722
 9495SOL     OW29383   6.393   1.480   3.154
 9495SOL    HW129384   6.304   1.441   3.178
 9495SOL    HW229385   6.395   1.577   3.182
 9496SOL     OW29386   5.821   3.566   1.160
 9496SOL    HW129387   5.754   3.625   1.114
 9496SOL    HW229388   5.821   3.475   1.118
 9497SOL     OW29389   5.680   6.773   6.214
 9497SOL    HW129390   5.612   6.702   6.191
 9497SOL    HW229391   5.772   6.735   6.206
 9498SOL     OW29392   4.870   6.651   4.630
 9498SOL    HW129393   4.970   6.651   4.620
 9498SOL    HW229394   4.835   6.744   4.619
 9499SOL     OW29395   2.197   4.624   6.561
 9499SOL    HW129396   2.252   4.683   6.502
 9499SOL    HW229397   2.113   4.598   6.514
 9500SOL     OW29398   4.968   0.011   1.146
 9500SOL    HW129399   4.999   7.005   1.054
 9500SOL    HW229400   4.930   6.949   1.191
 9501SOL     OW29401   2.697   1.224   5.163
 9501SOL    HW129402   2.788   1.241   5.125
 9501SOL    HW229403   2.647   1.310   5.170
 9502SOL     OW29404   5.731   2.993   5.140
 9502SOL    HW129405   5.694   2.994   5.233
 9502SOL    HW229406   5.656   3.005   5.074
 9503SOL     OW29407   1.092   1.884   1.620
 9503SOL    HW129408   1.101   1.839   1.708
 9503SOL    HW229409   1.153   1.963   1.616
 9504SOL     OW29410   0.071   2.717   0.449
 9504SOL    HW129411   0.009   2.683   0.378
 9504SOL    HW229412   0.139   2.648   0.470
 9505SOL     OW29413   5.150   4.595   4.371
 9505SOL    HW129414   5.149   4.525   4.300
 9505SOL    HW229415   5.244   4.609   4.403
 9506SOL     OW29416   1.207   2.425   6.620
 9506SOL    HW129417   1.182   2.440   6.524
 9506SOL    HW229418   1.248   2.508   6.657
 9507SOL     OW29419   0.706   1.472   3.029
 9507SOL    HW129420   0.620   1.444   2.985
 9507SOL    HW229421   0.708   1.572   3.036
 9508SOL     OW29422   6.232   1.898   1.257
 9508SOL    HW129423   6.137   1.874   1.238
 9508SOL    HW229424   6.264   1.965   1.190
 9509SOL     OW29425   0.831   0.896   3.972
 9509SOL    HW129426   0.883   0.879   3.888
 9509SOL    HW229427   0.776   0.978   3.960
 9510SOL     OW29428   2.057   3.630   3.213
 9510SOL    HW129429   2.101   3.716   3.237
 9510SOL    HW229430   2.055   3.620   3.113
 9511SOL     OW29431   1.385   0.360   1.164
 9511SOL    HW129432   1.356   0.384   1.072
 9511SOL    HW229433   1.483   0.376   1.174
 9512SOL     OW29434   6.003   1.398   1.611
 9512SOL    HW129435   5.980   1.336   1.537
 9512SOL    HW229436   5.958   1.368   1.695
 9513SOL     OW29437   2.256   3.808   6.136
 9513SOL    HW129438   2.158   3.787   6.138
 9513SOL    HW229439   2.271   3.891   6.081
 9514SOL     OW29440   1.634   5.166   5.730
 9514SOL    HW129441   1.569   5.128   5.664
 9514SOL    HW229442   1.676   5.248   5.693
 9515SOL     OW29443   1.990   5.764   0.746
 9515SOL    HW129444   1.952   5.694   0.806
 9515SOL    HW229445   2.002   5.726   0.654
 9516SOL     OW29446   6.108   4.723   6.823
 9516SOL    HW129447   6.088   4.670   6.741
 9516SOL    HW229448   6.023   4.744   6.871
 9517SOL     OW29449   1.851   5.054   1.085
 9517SOL    HW129450   1.862   5.148   1.052
 9517SOL    HW229451   1.923   5.035   1.152
 9518SOL     OW29452   1.845   1.609   0.406
 9518SOL    HW129453   1.815   1.539   0.342
 9518SOL    HW229454   1.945   1.606   0.416
 9519SOL     OW29455   3.767   3.658   4.580
 9519SOL    HW129456   3.689   3.720   4.569
 9519SOL    HW229457   3.846   3.695   4.533
 9520SOL     OW29458   1.894   1.657   3.342
 9520SOL    HW129459   1.868   1.560   3.341
 9520SOL    HW229460   1.824   1.710   3.391
 9521SOL     OW29461   4.840   5.619   1.624
 9521SOL    HW129462   4.900   5.545   1.592
 9521SOL    HW229463   4.858   5.637   1.721
 9522SOL     OW29464   2.765   5.666   1.274
 9522SOL    HW129465   2.846   5.691   1.327
 9522SOL    HW229466   2.692   5.732   1.293
 9523SOL     OW29467   2.730   4.688   4.762
 9523SOL    HW129468   2.742   4.785   4.742
 9523SOL    HW229469   2.782   4.664   4.844
 9524SOL     OW29470   3.518   3.029   1.884
 9524SOL    HW129471   3.583   2.968   1.839
 9524SOL    HW229472   3.518   3.012   1.982
 9525SOL     OW29473   2.620   3.196   5.620
 9525SOL    HW129474   2.602   3.214   5.523
 9525SOL    HW229475   2.670   3.110   5.630
 9526SOL     OW29476   5.260   5.457   1.488
 9526SOL    HW129477   5.289   5.434   1.581
 9526SOL    HW229478   5.283   5.552   1.468
 9527SOL     OW29479   1.165   0.433   2.866
 9527SOL    HW129480   1.233   0.495   2.905
 9527SOL    HW229481   1.073   0.465   2.890
 9528SOL     OW29482   0.386   1.424   0.338
 9528SOL    HW129483   0.307   1.458   0.389
 9528SOL    HW229484   0.363   1.420   0.241
 9529SOL     OW29485   6.407   3.361   5.254
 9529SOL    HW129486   6.429   3.332   5.161
 9529SOL    HW229487   6.413   3.282   5.315
 9530SOL     OW29488   1.663   3.724   2.288
 9530SOL    HW129489   1.620   3.637   2.309
 9530SOL    HW229490   1.711   3.718   2.200
 9531SOL     OW29491   4.868   5.402   3.115
 9531SOL    HW129492   4.913   5.371   3.032
 9531SOL    HW229493   4.843   5.323   3.171
 9532SOL     OW29494   0.060   6.742   2.625
 9532SOL    HW129495   0.113   6.737   2.541
 9532SOL    HW229496   0.072   6.832   2.667
 9533SOL     OW29497   6.608   6.932   5.786
 9533SOL    HW129498   6.565   0.002   5.771
 9533SOL    HW229499   6.684   6.920   5.722
 9534SOL     OW29500   7.011   3.361   5.085
 9534SOL    HW129501   7.006   3.458   5.063
 9534SOL    HW229502   6.998   3.348   5.183
 9535SOL     OW29503   2.588   1.346   5.684
 9535SOL    HW129504   2.577   1.436   5.642
 9535SOL    HW229505   2.623   1.357   5.778
 9536SOL     OW29506   2.510   4.813   5.486
 9536SOL    HW129507   2.498   4.793   5.584
 9536SOL    HW229508   2.577   4.750   5.447
 9537SOL     OW29509   2.628   6.457   2.722
 9537SOL    HW129510   2.701   6.392   2.744
 9537SOL    HW229511   2.655   6.549   2.753
 9538SOL     OW29512   6.270   1.783   3.237
 9538SOL    HW129513   6.288   1.810   3.332
 9538SOL    HW229514   6.339   1.825   3.177
 9539SOL     OW29515   2.667   3.798   5.339
 9539SOL    HW129516   2.752   3.820   5.292
 9539SOL    HW229517   2.615   3.883   5.355
 9540SOL     OW29518   5.918   4.078   4.281
 9540SOL    HW129519   5.876   4.001   4.233
 9540SOL    HW229520   5.928   4.155   4.218
 9541SOL     OW29521   3.328   1.105   5.661
 9541SOL    HW129522   3.332   1.009   5.686
 9541SOL    HW229523   3.379   1.160   5.727
 9542SOL     OW29524   5.158   4.098   4.728
 9542SOL    HW129525   5.240   4.059   4.687
 9542SOL    HW229526   5.078   4.071   4.675
 9543SOL     OW29527   3.427   1.240   4.952
 9543SOL    HW129528   3.440   1.169   5.021
 9543SOL    HW229529   3.350   1.299   4.978
 9544SOL     OW29530   0.686   1.233   3.597
 9544SOL    HW129531   0.755   1.260   3.530
 9544SOL    HW229532   0.633   1.156   3.561
 9545SOL     OW29533   6.101   5.264   3.808
 9545SOL    HW129534   6.070   5.216   3.725
 9545SOL    HW229535   6.162   5.205   3.860
 9546SOL     OW29536   3.001   2.573   5.682
 9546SOL    HW129537   2.996   2.584   5.583
 9546SOL    HW229538   3.091   2.603   5.715
 9547SOL     OW29539   2.643   6.256   4.030
 9547SOL    HW129540   2.629   6.168   3.986
 9547SOL    HW229541   2.740   6.268   4.052
 9548SOL     OW29542   5.798   6.142   5.678
 9548SOL    HW129543   5.724   6.210   5.683
 9548SOL    HW229544   5.769   6.058   5.724
 9549SOL     OW29545   2.877   3.030   1.178
 9549SOL    HW129546   2.921   3.058   1.263
 9549SOL    HW229547   2.929   2.956   1.136
 9550SOL     OW29548   0.534   1.451   0.813
 9550SOL    HW129549   0.582   1.398   0.742
 9550SOL    HW229550   0.552   1.548   0.800
 9551SOL     OW29551   6.288   1.295   3.948
 9551SOL    HW129552   6.335   1.209   3.969
 9551SOL    HW229553   6.204   1.300   4.003
 9552SOL     OW29554   1.300   6.219   2.716
 9552SOL    HW129555   1.271   6.133   2.674
 9552SOL    HW229556   1.331   6.282   2.644
 9553SOL     OW29557   6.345   4.023   6.775
 9553SOL    HW129558   6.325   4.061   6.865
 9553SOL    HW229559   6.401   4.088   6.723
 9554SOL     OW29560   2.318   0.646   1.588
 9554SOL    HW129561   2.383   0.718   1.564
 9554SOL    HW229562   2.238   0.652   1.529
 9555SOL     OW29563   1.481   1.026   2.641
 9555SOL    HW129564   1.424   0.965   2.586
 9555SOL    HW229565   1.524   1.093   2.581
 9556SOL     OW29566   2.164   2.403   1.239
 9556SOL    HW129567   2.140   2.429   1.146
 9556SOL    HW229568   2.206   2.312   1.239
 9557SOL     OW29569   7.007   0.608   3.340
 9557SOL    HW129570   0.056   0.608   3.267
 9557SOL    HW229571   0.006   0.531   3.402
 9558SOL     OW29572   6.873   6.177   4.481
 9558SOL    HW129573   6.817   6.254   4.452
 9558SOL    HW229574   6.875   6.108   4.409
 9559SOL     OW29575   0.434   3.914   1.373
 9559SOL    HW129576   0.415   3.857   1.294
 9559SOL    HW229577   0.530   3.941   1.373
 9560SOL     OW29578   1.430   1.513   3.198
 9560SOL    HW129579   1.365   1.519   3.122
 9560SOL    HW229580   1.507   1.456   3.172
 9561SOL     OW29581   1.072   6.255   0.310
 9561SOL    HW129582   1.152   6.295   0.264
 9561SOL    HW229583   0.991   6.309   0.289
 9562SOL     OW29584   3.363   0.104   5.220
 9562SOL    HW129585   3.375   0.203   5.223
 9562SOL    HW229586   3.269   0.082   5.247
 9563SOL     OW29587   6.605   0.051   0.646
 9563SOL    HW129588   6.596   7.003   0.572
 9563SOL    HW229589   6.599   0.004   0.734
 9564SOL     OW29590   2.694   6.989   6.773
 9564SOL    HW129591   2.694   0.025   6.856
 9564SOL    HW229592   2.620   7.018   6.713
 9565SOL     OW29593   4.187   6.112   5.165
 9565SOL    HW129594   4.099   6.067   5.148
 9565SOL    HW229595   4.243   6.056   5.225
 9566SOL     OW29596   2.693   5.122   6.924
 9566SOL    HW129597   2.604   5.075   6.921
 9566SOL    HW229598   2.748   5.085   6.999
 9567SOL     OW29599   6.093   4.346   6.403
 9567SOL    HW129600   6.063   4.263   6.449
 9567SOL    HW229601   6.116   4.415   6.471
 9568SOL     OW29602   4.539   2.852   6.669
 9568SOL    HW129603   4.621   2.851   6.612
 9568SOL    HW229604   4.553   2.796   6.750
 9569SOL     OW29605   0.386   0.520   2.731
 9569SOL    HW129606   0.434   0.602   2.763
 9569SOL    HW229607   0.385   0.519   2.631
 9570SOL     OW29608   0.970   2.725   2.352
 9570SOL    HW129609   0.934   2.808   2.395
 9570SOL    HW229610   1.038   2.683   2.413
 9571SOL     OW29611   2.403   3.675   0.006
 9571SOL    HW129612   2.327   3.665   6.961
 9571SOL    HW229613   2.445   3.586   0.023
 9572SOL     OW29614   1.758   5.856   0.878
 9572SOL    HW129615   1.839   5.828   0.825
 9572SOL    HW229616   1.746   5.793   0.955
 9573SOL     OW29617   0.908   1.550   6.934
 9573SOL    HW129618   0.964   1.561   7.016
 9573SOL    HW229619   0.968   1.533   6.855
 9574SOL     OW29620   3.786   2.944   4.244
 9574SOL    HW129621   3.883   2.956   4.266
 9574SOL    HW229622   3.730   2.977   4.321
 9575SOL     OW29623   5.821   1.266   0.934
 9575SOL    HW129624   5.839   1.350   0.985
 9575SOL    HW229625   5.829   1.188   0.995
 9576SOL     OW29626   3.035   0.548   2.665
 9576SOL    HW129627   3.013   0.482   2.737
 9576SOL    HW229628   2.951   0.586   2.627
 9577SOL     OW29629   1.261   1.146   3.909
 9577SOL    HW129630   1.278   1.057   3.867
 9577SOL    HW229631   1.202   1.200   3.849
 9578SOL     OW29632   0.130   3.830   3.405
 9578SOL    HW129633   0.144   3.731   3.400
 9578SOL    HW229634   0.038   3.849   3.437
 9579SOL     OW29635   1.850   5.260   2.751
 9579SOL    HW129636   1.914   5.304   2.688
 9579SOL    HW229637   1.896   5.237   2.836
 9580SOL     OW29638   4.502   3.248   0.564
 9580SOL    HW129639   4.596   3.283   0.572
 9580SOL    HW229640   4.480   3.194   0.646
 9581SOL     OW29641   1.432   5.302   6.341
 9581SOL    HW129642   1.481   5.238   6.281
 9581SOL    HW229643   1.497   5.366   6.381
 9582SOL     OW29644   4.533   4.503   4.808
 9582SOL    HW129645   4.460   4.512   4.876
 9582SOL    HW229646   4.599   4.576   4.820
 9583SOL     OW29647   2.955   3.962   0.979
 9583SOL    HW129648   2.978   3.901   1.054
 9583SOL    HW229649   2.929   4.052   1.015
 9584SOL     OW29650   6.512   6.610   0.066
 9584SOL    HW129651   6.415   6.602   0.045
 9584SOL    HW229652   6.561   6.532   0.026
 9585SOL     OW29653   6.211   0.670   3.284
 9585SOL    HW129654   6.150   0.603   3.242
 9585SOL    HW229655   6.159   0.753   3.306
 9586SOL     OW29656   5.782   4.130   2.039
 9586SOL    HW129657   5.750   4.201   2.102
 9586SOL    HW229658   5.760   4.040   2.076
 9587SOL     OW29659   6.096   0.535   2.241
 9587SOL    HW129660   5.999   0.528   2.218
 9587SOL    HW229661   6.148   0.556   2.159
 9588SOL     OW29662   0.698   1.579   2.270
 9588SOL    HW129663   0.773   1.638   2.301
 9588SOL    HW229664   0.735   1.503   2.216
 9589SOL     OW29665   2.722   5.827   6.303
 9589SOL    HW129666   2.707   5.808   6.206
 9589SOL    HW229667   2.660   5.900   6.332
 9590SOL     OW29668   0.224   4.933   2.128
 9590SOL    HW129669   0.233   4.933   2.029
 9590SOL    HW229670   0.274   5.010   2.167
 9591SOL     OW29671   2.936   6.161   0.250
 9591SOL    HW129672   2.870   6.145   0.324
 9591SOL    HW229673   2.920   6.250   0.209
 9592SOL     OW29674   3.855   4.681   1.749
 9592SOL    HW129675   3.925   4.621   1.787
 9592SOL    HW229676   3.766   4.659   1.788
 9593SOL     OW29677   6.413   1.131   4.604
 9593SOL    HW129678   6.492   1.176   4.561
 9593SOL    HW229679   6.368   1.194   4.666
 9594SOL     OW29680   1.049   5.794   3.425
 9594SOL    HW129681   1.040   5.708   3.375
 9594SOL    HW229682   0.987   5.793   3.503
 9595SOL     OW29683   2.096   4.495   4.480
 9595SOL    HW129684   2.130   4.402   4.499
 9595SOL    HW229685   2.024   4.518   4.545
 9596SOL     OW29686   0.043   5.720   0.307
 9596SOL    HW129687   0.096   5.684   0.231
 9596SOL    HW229688   6.968   5.735   0.278
 9597SOL     OW29689   0.204   4.595   0.860
 9597SOL    HW129690   0.230   4.683   0.900
 9597SOL    HW229691   0.172   4.609   0.766
 9598SOL     OW29692   0.470   3.895   5.010
 9598SOL    HW129693   0.497   3.963   4.942
 9598SOL    HW229694   0.411   3.938   5.079
 9599SOL     OW29695   3.281   0.622   5.270
 9599SOL    HW129696   3.372   0.592   5.244
 9599SOL    HW229697   3.218   0.608   5.193
 9600SOL     OW29698   1.907   0.100   6.453
 9600SOL    HW129699   1.878   0.015   6.408
 9600SOL    HW229700   1.906   0.175   6.386
 9601SOL     OW29701   6.216   4.352   0.036
 9601SOL    HW129702   6.313   4.334   0.055
 9601SOL    HW229703   6.178   4.409   0.108
 9602SOL     OW29704   5.925   5.012   6.436
 9602SOL    HW129705   6.010   5.044   6.394
 9602SOL    HW229706   5.852   5.078   6.419
 9603SOL     OW29707   3.054   0.147   4.864
 9603SOL    HW129708   3.125   0.206   4.902
 9603SOL    HW229709   3.010   0.193   4.787
 9604SOL     OW29710   5.129   0.188   0.895
 9604SOL    HW129711   5.040   0.143   0.888
 9604SOL    HW229712   5.159   0.218   0.805
 9605SOL     OW29713   0.412   5.151   5.621
 9605SOL    HW129714   0.313   5.166   5.623
 9605SOL    HW229715   0.431   5.054   5.615
 9606SOL     OW29716   1.002   6.503   4.846
 9606SOL    HW129717   0.957   6.452   4.920
 9606SOL    HW229718   1.086   6.455   4.820
 9607SOL     OW29719   1.197   2.482   2.218
 9607SOL    HW129720   1.141   2.471   2.136
 9607SOL    HW229721   1.220   2.392   2.256
 9608SOL     OW29722   6.858   6.395   2.662
 9608SOL    HW129723   6.848   6.476   2.603
 9608SOL    HW229724   6.932   6.337   2.626
 9609SOL     OW29725   1.270   3.740   4.936
 9609SOL    HW129726   1.273   3.775   4.843
 9609SOL    HW229727   1.310   3.807   4.999
 9610SOL     OW29728   1.657   4.056   4.394
 9610SOL    HW129729   1.572   4.031   4.441
 9610SOL    HW229730   1.646   4.038   4.296
 9611SOL     OW29731   0.244   6.462   0.906
 9611SOL    HW129732   0.303   6.382   0.914
 9611SOL    HW229733   0.230   6.483   0.809
 9612SOL     OW29734   6.162   3.370   1.609
 9612SOL    HW129735   6.251   3.375   1.654
 9612SOL    HW229736   6.111   3.291   1.643
 9613SOL     OW29737   4.246   6.188   3.716
 9613SOL    HW129738   4.263   6.195   3.814
 9613SOL    HW229739   4.166   6.130   3.699
 9614SOL     OW29740   3.690   3.367   1.159
 9614SOL    HW129741   3.649   3.289   1.111
 9614SOL    HW229742   3.672   3.359   1.257
 9615SOL     OW29743   1.043   6.877   2.545
 9615SOL    HW129744   1.104   6.909   2.618
 9615SOL    HW229745   1.079   6.906   2.456
 9616SOL     OW29746   4.068   4.065   0.596
 9616SOL    HW129747   4.143   4.039   0.535
 9616SOL    HW229748   4.086   4.155   0.635
 9617SOL     OW29749   0.725   3.685   4.048
 9617SOL    HW129750   0.812   3.732   4.035
 9617SOL    HW229751   0.687   3.660   3.959
 9618SOL     OW29752   4.381   6.687   6.120
 9618SOL    HW129753   4.426   6.598   6.131
 9618SOL    HW229754   4.425   6.755   6.179
 9619SOL     OW29755   1.340   0.409   0.898
 9619SOL    HW129756   1.320   0.363   0.811
 9619SOL    HW229757   1.370   0.502   0.880
 9620SOL     OW29758   5.226   1.758   6.766
 9620SOL    HW129759   5.277   1.684   6.722
 9620SOL    HW229760   5.228   1.839   6.707
 9621SOL     OW29761   1.854   1.116   2.782
 9621SOL    HW129762   1.810   1.092   2.696
 9621SOL    HW229763   1.793   1.095   2.858
 9622SOL     OW29764   5.960   1.698   6.573
 9622SOL    HW129765   5.947   1.794   6.598
 9622SOL    HW229766   5.944   1.640   6.653
 9623SOL     OW29767   4.274   5.382   5.775
 9623SOL    HW129768   4.185   5.365   5.732
 9623SOL    HW229769   4.264   5.382   5.874
 9624SOL     OW29770   5.279   4.350   4.743
 9624SOL    HW129771   5.216   4.276   4.765
 9624SOL    HW229772   5.343   4.319   4.672
 9625SOL     OW29773   5.304   4.265   0.100
 9625SOL    HW129774   5.387   4.305   0.060
 9625SOL    HW229775   5.326   4.226   0.190
 9626SOL     OW29776   2.501   6.207   5.540
 9626SOL    HW129777   2.509   6.116   5.579
 9626SOL    HW229778   2.514   6.276   5.612
 9627SOL     OW29779   0.068   3.620   5.023
 9627SOL    HW129780   0.080   3.713   5.058
 9627SOL    HW229781   0.157   3.574   5.021
 9628SOL     OW29782   5.997   4.159   0.576
 9628SOL    HW129783   6.031   4.205   0.658
 9628SOL    HW229784   6.023   4.063   0.578
 9629SOL     OW29785   6.717   5.699   2.745
 9629SOL    HW129786   6.661   5.779   2.725
 9629SOL    HW229787   6.684   5.656   2.829
 9630SOL     OW29788   6.439   6.052   5.522
 9630SOL    HW129789   6.431   6.113   5.600
 9630SOL    HW229790   6.372   6.078   5.452
 9631SOL     OW29791   4.821   2.319   0.745
 9631SOL    HW129792   4.811   2.353   0.839
 9631SOL    HW229793   4.739   2.266   0.720
 9632SOL     OW29794   2.357   5.101   2.139
 9632SOL    HW129795   2.311   5.182   2.102
 9632SOL    HW229796   2.442   5.129   2.184
 9633SOL     OW29797   3.766   4.029   0.225
 9633SOL    HW129798   3.813   4.099   0.279
 9633SOL    HW229799   3.760   3.944   0.278
 9634SOL     OW29800   0.530   5.542   3.299
 9634SOL    HW129801   0.573   5.621   3.343
 9634SOL    HW229802   0.477   5.572   3.220
 9635SOL     OW29803   1.432   4.403   5.161
 9635SOL    HW129804   1.510   4.402   5.223
 9635SOL    HW229805   1.387   4.492   5.166
 9636SOL     OW29806   4.044   1.489   5.614
 9636SOL    HW129807   3.961   1.544   5.625
 9636SOL    HW229808   4.056   1.432   5.695
 9637SOL     OW29809   4.150   2.737   1.445
 9637SOL    HW129810   4.124   2.659   1.388
 9637SOL    HW229811   4.068   2.783   1.478
 9638SOL     OW29812   6.820   3.278   5.692
 9638SOL    HW129813   6.861   3.367   5.710
 9638SOL    HW229814   6.734   3.270   5.741
 9639SOL     OW29815   4.324   2.358   2.000
 9639SOL    HW129816   4.315   2.375   1.902
 9639SOL    HW229817   4.242   2.313   2.034
 9640SOL     OW29818   3.242   0.469   2.228
 9640SOL    HW129819   3.282   0.377   2.232
 9640SOL    HW229820   3.146   0.465   2.256
 9641SOL     OW29821   5.854   5.838   1.962
 9641SOL    HW129822   5.850   5.820   1.864
 9641SOL    HW229823   5.885   5.756   2.010
 9642SOL     OW29824   1.155   6.312   4.468
 9642SOL    HW129825   1.217   6.311   4.389
 9642SOL    HW229826   1.188   6.376   4.536
 9643SOL     OW29827   5.079   4.065   3.749
 9643SOL    HW129828   5.164   4.014   3.736
 9643SOL    HW229829   5.001   4.003   3.739
 9644SOL     OW29830   1.268   5.948   5.578
 9644SOL    HW129831   1.176   5.982   5.559
 9644SOL    HW229832   1.270   5.906   5.669
 9645SOL     OW29833   2.571   4.565   4.444
 9645SOL    HW129834   2.634   4.530   4.512
 9645SOL    HW229835   2.536   4.489   4.388
 9646SOL     OW29836   2.645   5.141   1.769
 9646SOL    HW129837   2.627   5.144   1.670
 9646SOL    HW229838   2.569   5.096   1.815
 9647SOL     OW29839   0.017   6.718   3.286
 9647SOL    HW129840   6.952   6.734   3.234
 9647SOL    HW229841   7.017   6.728   3.383
 9648SOL     OW29842   4.351   2.571   0.038
 9648SOL    HW129843   4.380   2.649   7.001
 9648SOL    HW229844   4.432   2.526   0.076
 9649SOL     OW29845   2.124   4.202   0.018
 9649SOL    HW129846   2.171   4.183   0.104
 9649SOL    HW229847   2.078   4.290   0.023
 9650SOL     OW29848   4.881   4.168   2.778
 9650SOL    HW129849   4.850   4.148   2.685
 9650SOL    HW229850   4.955   4.105   2.802
 9651SOL     OW29851   5.421   1.079   1.161
 9651SOL    HW129852   5.334   1.038   1.136
 9651SOL    HW229853   5.439   1.063   1.258
 9652SOL     OW29854   0.962   4.792   1.763
 9652SOL    HW129855   0.875   4.759   1.799
 9652SOL    HW229856   0.945   4.860   1.691
 9653SOL     OW29857   4.311   5.021   4.489
 9653SOL    HW129858   4.313   4.922   4.481
 9653SOL    HW229859   4.233   5.057   4.439
 9654SOL     OW29860   3.070   3.478   3.031
 9654SOL    HW129861   3.062   3.553   3.097
 9654SOL    HW229862   3.033   3.394   3.070
 9655SOL     OW29863   0.119   2.203   0.526
 9655SOL    HW129864   0.216   2.194   0.502
 9655SOL    HW229865   0.089   2.121   0.574
 9656SOL     OW29866   4.152   2.900   1.206
 9656SOL    HW129867   4.220   2.852   1.262
 9656SOL    HW229868   4.158   2.869   1.112
 9657SOL     OW29869   5.466   3.383   2.576
 9657SOL    HW129870   5.487   3.432   2.492
 9657SOL    HW229871   5.412   3.302   2.555
 9658SOL     OW29872   5.385   1.348   2.485
 9658SOL    HW129873   5.433   1.280   2.540
 9658SOL    HW229874   5.329   1.302   2.416
 9659SOL     OW29875   0.776   3.291   0.359
 9659SOL    HW129876   0.770   3.388   0.334
 9659SOL    HW229877   0.866   3.271   0.398
 9660SOL     OW29878   0.868   6.598   3.188
 9660SOL    HW129879   0.850   6.696   3.197
 9660SOL    HW229880   0.868   6.573   3.091
 9661SOL     OW29881   3.536   6.598   1.513
 9661SOL    HW129882   3.594   6.559   1.442
 9661SOL    HW229883   3.529   6.697   1.500
 9662SOL     OW29884   4.216   3.767   6.504
 9662SOL    HW129885   4.262   3.684   6.472
 9662SOL    HW229886   4.182   3.754   6.597
 9663SOL     OW29887   0.352   5.906   2.860
 9663SOL    HW129888   0.294   5.919   2.940
 9663SOL    HW229889   0.295   5.896   2.779
 9664SOL     OW29890   5.854   5.192   4.370
 9664SOL    HW129891   5.786   5.264   4.383
 9664SOL    HW229892   5.812   5.117   4.319
 9665SOL     OW29893   6.055   6.567   6.341
 9665SOL    HW129894   5.997   6.599   6.266
 9665SOL    HW229895   5.998   6.543   6.420
 9666SOL     OW29896   6.187   3.941   2.037
 9666SOL    HW129897   6.154   3.976   1.949
 9666SOL    HW229898   6.283   3.968   2.050
 9667SOL     OW29899   3.727   3.801   0.361
 9667SOL    HW129900   3.701   3.791   0.457
 9667SOL    HW229901   3.658   3.758   0.303
 9668SOL     OW29902   0.316   0.707   6.327
 9668SOL    HW129903   0.352   0.653   6.403
 9668SOL    HW229904   0.323   0.654   6.243
 9669SOL     OW29905   2.169   6.485   2.230
 9669SOL    HW129906   2.217   6.565   2.265
 9669SOL    HW229907   2.070   6.503   2.228
 9670SOL     OW29908   0.448   4.689   6.045
 9670SOL    HW129909   0.435   4.629   5.967
 9670SOL    HW229910   0.359   4.727   6.073
 9671SOL     OW29911   6.904   4.459   0.692
 9671SOL    HW129912   6.877   4.381   0.749
 9671SOL    HW229913   6.990   4.438   0.645
 9672SOL     OW29914   2.014   5.001   3.585
 9672SOL    HW129915   1.962   5.057   3.521
 9672SOL    HW229916   2.052   5.059   3.657
 9673SOL     OW29917   3.702   3.770   0.887
 9673SOL    HW129918   3.795   3.746   0.911
 9673SOL    HW229919   3.659   3.819   0.963
 9674SOL     OW29920   3.860   6.679   3.521
 9674SOL    HW129921   3.831   6.587   3.493
 9674SOL    HW229922   3.922   6.717   3.452
 9675SOL     OW29923   5.543   2.266   6.294
 9675SOL    HW129924   5.462   2.311   6.331
 9675SOL    HW229925   5.556   2.294   6.199
 9676SOL     OW29926   1.116   3.194   5.865
 9676SOL    HW129927   1.068   3.244   5.793
 9676SOL    HW229928   1.176   3.126   5.824
 9677SOL     OW29929   6.475   5.389   4.947
 9677SOL    HW129930   6.396   5.452   4.949
 9677SOL    HW229931   6.445   5.297   4.973
 9678SOL     OW29932   2.859   3.582   3.842
 9678SOL    HW129933   2.808   3.622   3.766
 9678SOL    HW229934   2.957   3.599   3.829
 9679SOL     OW29935   2.625   6.901   3.403
 9679SOL    HW129936   2.718   6.933   3.387
 9679SOL    HW229937   2.607   6.822   3.345
 9680SOL     OW29938   4.122   0.295   3.649
 9680SOL    HW129939   4.214   0.299   3.610
 9680SOL    HW229940   4.064   0.365   3.607
 9681SOL     OW29941   2.668   2.197   0.804
 9681SOL    HW129942   2.635   2.221   0.895
 9681SOL    HW229943   2.614   2.121   0.768
 9682SOL     OW29944   4.892   4.240   3.898
 9682SOL    HW129945   4.864   4.167   3.960
 9682SOL    HW229946   4.848   4.326   3.927
 9683SOL     OW29947   3.191   6.728   1.872
 9683SOL    HW129948   3.116   6.739   1.807
 9683SOL    HW229949   3.235   6.640   1.858
 9684SOL     OW29950   0.959   3.594   5.866
 9684SOL    HW129951   0.885   3.527   5.860
 9684SOL    HW229952   1.005   3.586   5.954
 9685SOL     OW29953   4.586   4.317   0.876
 9685SOL    HW129954   4.643   4.238   0.895
 9685SOL    HW229955   4.607   4.352   0.785
 9686SOL     OW29956   0.529   3.431   5.983
 9686SOL    HW129957   0.451   3.386   5.940
 9686SOL    HW229958   0.498   3.514   6.029
 9687SOL     OW29959   1.079   0.890   3.709
 9687SOL    HW129960   1.074   0.794   3.681
 9687SOL    HW229961   1.120   0.896   3.800
 9688SOL     OW29962   1.026   2.891   1.238
 9688SOL    HW129963   1.008   2.985   1.266
 9688SOL    HW229964   1.066   2.891   1.146
 9689SOL     OW29965   0.844   4.698   6.454
 9689SOL    HW129966   0.771   4.729   6.393
 9689SOL    HW229967   0.896   4.777   6.486
 9690SOL     OW29968   6.019   5.861   6.962
 9690SOL    HW129969   5.982   5.780   7.007
 9690SOL    HW229970   6.005   5.854   6.864
 9691SOL     OW29971   3.206   4.214   1.026
 9691SOL    HW129972   3.168   4.165   1.104
 9691SOL    HW229973   3.142   4.284   0.996
 9692SOL     OW29974   4.027   6.313   1.832
 9692SOL    HW129975   4.005   6.375   1.908
 9692SOL    HW229976   3.948   6.255   1.812
 9693SOL     OW29977   5.879   3.964   2.632
 9693SOL    HW129978   5.891   3.877   2.583
 9693SOL    HW229979   5.942   4.032   2.594
 9694SOL     OW29980   3.213   1.313   1.420
 9694SOL    HW129981   3.199   1.412   1.416
 9694SOL    HW229982   3.306   1.292   1.390
 9695SOL     OW29983   6.851   2.450   3.581
 9695SOL    HW129984   6.809   2.513   3.645
 9695SOL    HW229985   6.840   2.356   3.614
 9696SOL     OW29986   5.388   2.754   1.198
 9696SOL    HW129987   5.324   2.831   1.191
 9696SOL    HW229988   5.355   2.689   1.266
 9697SOL     OW29989   0.262   5.456   6.936
 9697SOL    HW129990   0.356   5.453   6.902
 9697SOL    HW229991   0.233   5.364   6.963
 9698SOL     OW29992   5.551   2.308   6.007
 9698SOL    HW129993   5.548   2.399   6.049
 9698SOL    HW229994   5.610   2.310   5.927
 9699SOL     OW29995   6.078   6.200   6.667
 9699SOL    HW129996   6.048   6.220   6.761
 9699SOL    HW229997   6.177   6.211   6.661
 9700SOL     OW29998   5.530   5.937   5.124
 9700SOL    HW129999   5.519   5.889   5.211
 9700SOL    HW230000   5.445   5.929   5.071
 9701SOL     OW30001   4.530   4.939   5.555
 9701SOL    HW130002   4.478   4.927   5.639
 9701SOL    HW230003   4.590   4.860   5.541
 9702SOL     OW30004   4.108   1.459   6.925
 9702SOL    HW130005   4.015   1.423   6.934
 9702SOL    HW230006   4.135   1.502   7.012
 9703SOL     OW30007   5.007   3.510   3.863
 9703SOL    HW130008   5.093   3.501   3.814
 9703SOL    HW230009   4.945   3.436   3.837
 9704SOL     OW30010   3.298   6.896   1.302
 9704SOL    HW130011   3.267   6.899   1.397
 9704SOL    HW230012   3.219   6.899   1.241
 9705SOL     OW30013   5.551   3.869   6.421
 9705SOL    HW130014   5.543   3.862   6.321
 9705SOL    HW230015   5.525   3.782   6.462
 9706SOL     OW30016   2.357   2.954   0.771
 9706SOL    HW130017   2.393   2.863   0.791
 9706SOL    HW230018   2.370   2.974   0.674
 9707SOL     OW30019   5.958   4.471   2.230
 9707SOL    HW130020   5.997   4.438   2.316
 9707SOL    HW230021   5.952   4.571   2.233
 9708SOL     OW30022   1.225   1.762   3.602
 9708SOL    HW130023   1.290   1.812   3.545
 9708SOL    HW230024   1.238   1.664   3.589
 9709SOL     OW30025   5.309   6.182   2.650
 9709SOL    HW130026   5.289   6.086   2.634
 9709SOL    HW230027   5.233   6.225   2.699
 9710SOL     OW30028   6.600   1.598   1.499
 9710SOL    HW130029   6.615   1.557   1.408
 9710SOL    HW230030   6.511   1.568   1.534
 9711SOL     OW30031   3.211   5.383   5.428
 9711SOL    HW130032   3.204   5.398   5.329
 9711SOL    HW230033   3.214   5.285   5.447
 9712SOL     OW30034   5.510   3.625   6.524
 9712SOL    HW130035   5.597   3.576   6.524
 9712SOL    HW230036   5.478   3.636   6.618
 9713SOL     OW30037   1.888   4.335   3.369
 9713SOL    HW130038   1.814   4.275   3.341
 9713SOL    HW230039   1.885   4.419   3.315
 9714SOL     OW30040   4.353   6.249   6.579
 9714SOL    HW130041   4.346   6.275   6.483
 9714SOL    HW230042   4.323   6.325   6.637
 9715SOL     OW30043   5.991   3.941   6.964
 9715SOL    HW130044   5.941   3.874   7.018
 9715SOL    HW230045   5.991   3.915   6.868
 9716SOL     OW30046   3.372   4.647   6.603
 9716SOL    HW130047   3.367   4.738   6.644
 9716SOL    HW230048   3.379   4.655   6.504
 9717SOL     OW30049   4.863   6.921   5.969
 9717SOL    HW130050   4.894   6.916   5.874
 9717SOL    HW230051   4.942   6.923   6.030
 9718SOL     OW30052   5.207   3.249   0.155
 9718SOL    HW130053   5.157   3.238   0.069
 9718SOL    HW230054   5.303   3.224   0.141
 9719SOL     OW30055   6.431   0.675   5.801
 9719SOL    HW130056   6.409   0.589   5.846
 9719SOL    HW230057   6.469   0.739   5.868
 9720SOL     OW30058   0.743   4.482   1.814
 9720SOL    HW130059   0.807   4.537   1.866
 9720SOL    HW230060   0.656   4.475   1.863
 9721SOL     OW30061   0.569   1.713   0.774
 9721SOL    HW130062   0.586   1.767   0.692
 9721SOL    HW230063   0.597   1.764   0.855
 9722SOL     OW30064   4.567   1.319   4.267
 9722SOL    HW130065   4.583   1.352   4.174
 9722SOL    HW230066   4.609   1.229   4.277
 9723SOL     OW30067   3.494   6.683   3.289
 9723SOL    HW130068   3.526   6.722   3.375
 9723SOL    HW230069   3.521   6.742   3.213
 9724SOL     OW30070   1.440   4.797   6.904
 9724SOL    HW130071   1.348   4.790   6.864
 9724SOL    HW230072   1.508   4.778   6.834
 9725SOL     OW30073   4.707   5.808   6.099
 9725SOL    HW130074   4.699   5.895   6.148
 9725SOL    HW230075   4.786   5.811   6.038
 9726SOL     OW30076   4.946   1.438   3.890
 9726SOL    HW130077   4.917   1.531   3.912
 9726SOL    HW230078   4.871   1.374   3.909
 9727SOL     OW30079   1.314   2.361   0.349
 9727SOL    HW130080   1.359   2.291   0.295
 9727SOL    HW230081   1.215   2.346   0.347
 9728SOL     OW30082   0.991   0.488   5.997
 9728SOL    HW130083   0.961   0.419   5.932
 9728SOL    HW230084   0.913   0.540   6.030
 9729SOL     OW30085   1.471   4.050   3.096
 9729SOL    HW130086   1.435   3.974   3.043
 9729SOL    HW230087   1.541   4.098   3.043
 9730SOL     OW30088   1.751   4.559   3.054
 9730SOL    HW130089   1.769   4.571   3.152
 9730SOL    HW230090   1.781   4.641   3.005
 9731SOL     OW30091   5.182   5.006   0.874
 9731SOL    HW130092   5.085   4.982   0.875
 9731SOL    HW230093   5.205   5.056   0.957
 9732SOL     OW30094   6.952   5.323   2.382
 9732SOL    HW130095   6.978   5.341   2.288
 9732SOL    HW230096   0.014   5.310   2.438
 9733SOL     OW30097   4.831   5.189   0.489
 9733SOL    HW130098   4.894   5.174   0.565
 9733SOL    HW230099   4.881   5.226   0.410
 9734SOL     OW30100   6.400   1.566   0.486
 9734SOL    HW130101   6.479   1.506   0.481
 9734SOL    HW230102   6.319   1.519   0.450
 9735SOL     OW30103   1.833   3.632   3.430
 9735SOL    HW130104   1.889   3.622   3.347
 9735SOL    HW230105   1.771   3.709   3.419
 9736SOL     OW30106   5.966   1.653   5.892
 9736SOL    HW130107   5.938   1.602   5.810
 9736SOL    HW230108   6.012   1.591   5.955
 9737SOL     OW30109   5.298   2.471   2.953
 9737SOL    HW130110   5.360   2.537   2.911
 9737SOL    HW230111   5.243   2.517   3.023
 9738SOL     OW30112   2.208   6.927   0.197
 9738SOL    HW130113   2.276   6.947   0.127
 9738SOL    HW230114   2.118   6.956   0.165
 9739SOL     OW30115   5.204   5.724   1.017
 9739SOL    HW130116   5.267   5.691   0.946
 9739SOL    HW230117   5.215   5.822   1.029
 9740SOL     OW30118   0.311   1.096   3.564
 9740SOL    HW130119   0.245   1.099   3.639
 9740SOL    HW230120   0.356   1.185   3.557
 9741SOL     OW30121   3.673   1.885   2.264
 9741SOL    HW130122   3.625   1.932   2.190
 9741SOL    HW230123   3.707   1.953   2.329
 9742SOL     OW30124   3.989   1.507   0.412
 9742SOL    HW130125   3.983   1.457   0.326
 9742SOL    HW230126   3.975   1.443   0.489
 9743SOL     OW30127   6.697   3.351   4.254
 9743SOL    HW130128   6.706   3.263   4.206
 9743SOL    HW230129   6.602   3.382   4.248
 9744SOL     OW30130   1.385   6.746   2.044
 9744SOL    HW130131   1.315   6.682   2.012
 9744SOL    HW230132   1.409   6.809   1.971
 9745SOL     OW30133   5.141   2.478   6.379
 9745SOL    HW130134   5.234   2.498   6.412
 9745SOL    HW230135   5.106   2.396   6.424
 9746SOL     OW30136   6.265   0.667   5.561
 9746SOL    HW130137   6.305   0.680   5.651
 9746SOL    HW230138   6.207   0.746   5.539
 9747SOL     OW30139   2.652   1.855   1.835
 9747SOL    HW130140   2.712   1.785   1.875
 9747SOL    HW230141   2.593   1.894   1.906
 9748SOL     OW30142   6.686   6.758   3.666
 9748SOL    HW130143   6.663   6.668   3.627
 9748SOL    HW230144   6.641   6.767   3.755
 9749SOL     OW30145   1.990   0.299   4.278
 9749SOL    HW130146   2.001   0.345   4.367
 9749SOL    HW230147   1.977   0.368   4.207
 9750SOL     OW30148   6.049   4.497   3.655
 9750SOL    HW130149   6.101   4.455   3.580
 9750SOL    HW230150   5.953   4.473   3.647
 9751SOL     OW30151   2.470   0.782   0.801
 9751SOL    HW130152   2.460   0.722   0.721
 9751SOL    HW230153   2.567   0.796   0.819
 9752SOL     OW30154   3.770   2.159   5.180
 9752SOL    HW130155   3.724   2.193   5.262
 9752SOL    HW230156   3.703   2.149   5.107
 9753SOL     OW30157   6.990   5.653   6.448
 9753SOL    HW130158   7.004   5.587   6.373
 9753SOL    HW230159   0.015   5.618   6.530
 9754SOL     OW30160   1.675   0.427   0.672
 9754SOL    HW130161   1.751   0.386   0.621
 9754SOL    HW230162   1.643   0.363   0.742
 9755SOL     OW30163   3.609   3.620   4.253
 9755SOL    HW130164   3.683   3.631   4.187
 9755SOL    HW230165   3.577   3.711   4.281
 9756SOL     OW30166   5.976   2.607   6.676
 9756SOL    HW130167   5.924   2.687   6.647
 9756SOL    HW230168   5.954   2.530   6.617
 9757SOL     OW30169   6.227   4.484   4.334
 9757SOL    HW130170   6.191   4.547   4.265
 9757SOL    HW230171   6.193   4.510   4.424
 9758SOL     OW30172   2.677   0.472   6.417
 9758SOL    HW130173   2.600   0.444   6.474
 9758SOL    HW230174   2.739   0.528   6.471
 9759SOL     OW30175   1.306   0.404   0.043
 9759SOL    HW130176   1.398   0.369   0.064
 9759SOL    HW230177   1.299   0.499   0.075
 9760SOL     OW30178   5.184   2.922   5.583
 9760SOL    HW130179   5.176   2.991   5.511
 9760SOL    HW230180   5.185   2.831   5.542
 9761SOL     OW30181   0.442   1.498   2.226
 9761SOL    HW130182   0.540   1.515   2.215
 9761SOL    HW230183   0.409   1.538   2.311
 9762SOL     OW30184   3.166   1.872   4.908
 9762SOL    HW130185   3.210   1.783   4.902
 9762SOL    HW230186   3.073   1.866   4.871
 9763SOL     OW30187   4.827   1.964   2.290
 9763SOL    HW130188   4.756   1.953   2.221
 9763SOL    HW230189   4.858   1.874   2.321
 9764SOL     OW30190   7.004   2.955   3.114
 9764SOL    HW130191   0.016   3.050   3.123
 9764SOL    HW230192   0.037   2.909   3.042
 9765SOL     OW30193   6.679   6.294   3.520
 9765SOL    HW130194   6.762   6.290   3.465
 9765SOL    HW230195   6.657   6.389   3.541
 9766SOL     OW30196   2.665   0.497   2.208
 9766SOL    HW130197   2.700   0.590   2.213
 9766SOL    HW230198   2.713   0.447   2.136
 9767SOL     OW30199   3.737   1.205   5.447
 9767SOL    HW130200   3.779   1.280   5.396
 9767SOL    HW230201   3.807   1.141   5.477
 9768SOL     OW30202   5.741   0.774   2.076
 9768SOL    HW130203   5.841   0.777   2.064
 9768SOL    HW230204   5.713   0.683   2.105
 9769SOL     OW30205   4.252   0.810   4.622
 9769SOL    HW130206   4.344   0.816   4.584
 9769SOL    HW230207   4.254   0.749   4.702
 9770SOL     OW30208   4.113   1.381   5.861
 9770SOL    HW130209   4.025   1.387   5.909
 9770SOL    HW230210   4.127   1.287   5.830
 9771SOL     OW30211   2.694   6.485   0.523
 9771SOL    HW130212   2.685   6.400   0.575
 9771SOL    HW230213   2.622   6.489   0.454
 9772SOL     OW30214   1.759   6.000   1.452
 9772SOL    HW130215   1.858   6.003   1.469
 9772SOL    HW230216   1.727   5.906   1.462
 9773SOL     OW30217   4.788   5.563   3.958
 9773SOL    HW130218   4.807   5.629   4.031
 9773SOL    HW230219   4.700   5.519   3.975
 9774SOL     OW30220   0.135   5.204   1.860
 9774SOL    HW130221   0.126   5.194   1.959
 9774SOL    HW230222   0.050   5.242   1.823
 9775SOL     OW30223   3.247   0.743   3.234
 9775SOL    HW130224   3.223   0.683   3.310
 9775SOL    HW230225   3.335   0.716   3.197
 9776SOL     OW30226   1.086   4.329   5.123
 9776SOL    HW130227   1.110   4.419   5.087
 9776SOL    HW230228   1.169   4.279   5.148
 9777SOL     OW30229   6.200   5.915   0.153
 9777SOL    HW130230   6.133   5.880   0.087
 9777SOL    HW230231   6.188   6.014   0.164
 9778SOL     OW30232   0.522   1.301   4.126
 9778SOL    HW130233   0.483   1.238   4.059
 9778SOL    HW230234   0.508   1.266   4.218
 9779SOL     OW30235   1.278   1.751   4.145
 9779SOL    HW130236   1.336   1.682   4.189
 9779SOL    HW230237   1.311   1.768   4.052
 9780SOL     OW30238   2.358   2.691   0.945
 9780SOL    HW130239   2.360   2.689   0.845
 9780SOL    HW230240   2.428   2.629   0.981
 9781SOL     OW30241   2.220   2.717   4.497
 9781SOL    HW130242   2.264   2.665   4.571
 9781SOL    HW230243   2.277   2.795   4.473
 9782SOL     OW30244   0.136   1.058   1.341
 9782SOL    HW130245   0.224   1.054   1.293
 9782SOL    HW230246   0.152   1.079   1.437
 9783SOL     OW30247   4.328   2.006   3.461
 9783SOL    HW130248   4.253   2.044   3.406
 9783SOL    HW230249   4.394   2.077   3.482
 9784SOL     OW30250   2.713   2.148   5.708
 9784SOL    HW130251   2.660   2.194   5.637
 9784SOL    HW230252   2.657   2.078   5.751
 9785SOL     OW30253   1.272   2.497   6.257
 9785SOL    HW130254   1.312   2.584   6.285
 9785SOL    HW230255   1.315   2.465   6.172
 9786SOL     OW30256   2.717   4.205   0.090
 9786SOL    HW130257   2.692   4.302   0.097
 9786SOL    HW230258   2.653   4.159   0.028
 9787SOL     OW30259   3.351   3.823   2.780
 9787SOL    HW130260   3.263   3.869   2.793
 9787SOL    HW230261   3.358   3.745   2.843
 9788SOL     OW30262   1.078   0.321   3.426
 9788SOL    HW130263   1.136   0.388   3.473
 9788SOL    HW230264   1.023   0.272   3.493
 9789SOL     OW30265   2.141   6.032   0.542
 9789SOL    HW130266   2.063   6.054   0.601
 9789SOL    HW230267   2.115   6.046   0.447
 9790SOL     OW30268   6.565   4.556   6.423
 9790SOL    HW130269   6.551   4.507   6.509
 9790SOL    HW230270   6.524   4.647   6.428
 9791SOL     OW30271   0.037   0.968   0.905
 9791SOL    HW130272   0.053   1.052   0.956
 9791SOL    HW230273   0.002   0.897   0.967
 9792SOL     OW30274   3.894   4.233   0.355
 9792SOL    HW130275   3.991   4.240   0.380
 9792SOL    HW230276   3.864   4.320   0.315
 9793SOL     OW30277   4.296   6.903   2.770
 9793SOL    HW130278   4.389   6.930   2.792
 9793SOL    HW230279   4.293   6.863   2.679
 9794SOL     OW30280   0.064   4.155   6.895
 9794SOL    HW130281   0.110   4.150   6.806
 9794SOL    HW230282   0.131   4.140   6.968
 9795SOL     OW30283   2.161   1.813   4.478
 9795SOL    HW130284   2.241   1.798   4.537
 9795SOL    HW230285   2.115   1.897   4.506
 9796SOL     OW30286   3.216   2.899   2.411
 9796SOL    HW130287   3.282   2.848   2.356
 9796SOL    HW230288   3.158   2.954   2.350
 9797SOL     OW30289   1.712   5.857   6.915
 9797SOL    HW130290   1.696   5.759   6.902
 9797SOL    HW230291   1.714   5.902   6.825
 9798SOL     OW30292   2.849   0.191   2.553
 9798SOL    HW130293   2.843   0.094   2.576
 9798SOL    HW230294   2.758   0.227   2.531
 9799SOL     OW30295   3.188   3.624   5.076
 9799SOL    HW130296   3.136   3.690   5.130
 9799SOL    HW230297   3.191   3.537   5.126
 9800SOL     OW30298   4.113   5.229   4.756
 9800SOL    HW130299   4.212   5.233   4.768
 9800SOL    HW230300   4.082   5.134   4.766
 9801SOL     OW30301   4.410   4.142   0.151
 9801SOL    HW130302   4.346   4.211   0.115
 9801SOL    HW230303   4.414   4.148   0.250
 9802SOL     OW30304   6.964   4.298   1.805
 9802SOL    HW130305   6.891   4.248   1.759
 9802SOL    HW230306   0.034   4.264   1.775
 9803SOL     OW30307   1.740   2.472   6.707
 9803SOL    HW130308   1.794   2.517   6.778
 9803SOL    HW230309   1.655   2.436   6.747
 9804SOL     OW30310   1.230   5.987   3.362
 9804SOL    HW130311   1.154   5.934   3.399
 9804SOL    HW230312   1.236   5.973   3.263
 9805SOL     OW30313   0.979   6.495   4.307
 9805SOL    HW130314   1.037   6.420   4.338
 9805SOL    HW230315   1.007   6.523   4.215
 9806SOL     OW30316   1.127   1.396   6.764
 9806SOL    HW130317   1.107   1.359   6.854
 9806SOL    HW230318   1.079   1.343   6.694
 9807SOL     OW30319   2.936   4.558   0.263
 9807SOL    HW130320   2.969   4.565   0.357
 9807SOL    HW230321   2.900   4.466   0.247
 9808SOL     OW30322   4.276   0.163   5.484
 9808SOL    HW130323   4.243   0.151   5.390
 9808SOL    HW230324   4.200   0.152   5.548
 9809SOL     OW30325   1.422   2.703   6.351
 9809SOL    HW130326   1.461   2.774   6.293
 9809SOL    HW230327   1.483   2.684   6.428
 9810SOL     OW30328   1.605   2.780   3.849
 9810SOL    HW130329   1.703   2.772   3.831
 9810SOL    HW230330   1.587   2.865   3.899
 9811SOL     OW30331   5.194   4.626   3.212
 9811SOL    HW130332   5.154   4.717   3.203
 9811SOL    HW230333   5.126   4.563   3.248
 9812SOL     OW30334   3.446   2.548   5.963
 9812SOL    HW130335   3.488   2.457   5.969
 9812SOL    HW230336   3.372   2.548   5.897
 9813SOL     OW30337   5.385   1.214   0.868
 9813SOL    HW130338   5.473   1.169   0.855
 9813SOL    HW230339   5.399   1.297   0.922
 9814SOL     OW30340   6.611   0.120   0.246
 9814SOL    HW130341   6.605   0.028   0.282
 9814SOL    HW230342   6.632   0.184   0.320
 9815SOL     OW30343   5.708   4.375   4.279
 9815SOL    HW130344   5.784   4.389   4.216
 9815SOL    HW230345   5.663   4.288   4.258
 9816SOL     OW30346   0.795   1.380   6.514
 9816SOL    HW130347   0.703   1.372   6.476
 9816SOL    HW230348   0.790   1.373   6.614
 9817SOL     OW30349   2.992   6.887   3.524
 9817SOL    HW130350   3.085   6.882   3.489
 9817SOL    HW230351   2.994   6.903   3.623
 9818SOL     OW30352   1.320   0.691   4.006
 9818SOL    HW130353   1.359   0.690   4.098
 9818SOL    HW230354   1.265   0.609   3.992
 9819SOL     OW30355   5.019   2.954   3.794
 9819SOL    HW130356   5.049   3.036   3.843
 9819SOL    HW230357   5.060   2.953   3.703
 9820SOL     OW30358   4.329   3.558   6.748
 9820SOL    HW130359   4.328   3.506   6.834
 9820SOL    HW230360   4.403   3.524   6.690
 9821SOL     OW30361   5.127   1.014   6.472
 9821SOL    HW130362   5.056   1.082   6.459
 9821SOL    HW230363   5.087   0.930   6.510
 9822SOL     OW30364   2.359   5.943   3.580
 9822SOL    HW130365   2.292   6.011   3.610
 9822SOL    HW230366   2.437   5.944   3.643
 9823SOL     OW30367   2.591   1.408   6.962
 9823SOL    HW130368   2.664   1.379   6.900
 9823SOL    HW230369   2.512   1.437   6.908
 9824SOL     OW30370   1.778   4.813   4.677
 9824SOL    HW130371   1.767   4.877   4.601
 9824SOL    HW230372   1.695   4.812   4.732
 9825SOL     OW30373   5.015   5.581   4.887
 9825SOL    HW130374   4.928   5.553   4.927
 9825SOL    HW230375   5.090   5.551   4.947
 9826SOL     OW30376   4.543   5.336   5.688
 9826SOL    HW130377   4.558   5.385   5.602
 9826SOL    HW230378   4.451   5.356   5.722
 9827SOL     OW30379   2.100   3.580   3.897
 9827SOL    HW130380   2.106   3.481   3.908
 9827SOL    HW230381   2.095   3.603   3.800
 9828SOL     OW30382   2.300   2.367   5.458
 9828SOL    HW130383   2.390   2.347   5.497
 9828SOL    HW230384   2.237   2.394   5.531
 9829SOL     OW30385   3.699   5.235   6.114
 9829SOL    HW130386   3.784   5.183   6.106
 9829SOL    HW230387   3.719   5.332   6.101
 9830SOL     OW30388   5.636   2.385   2.333
 9830SOL    HW130389   5.539   2.389   2.307
 9830SOL    HW230390   5.692   2.368   2.252
 9831SOL     OW30391   2.692   5.414   1.249
 9831SOL    HW130392   2.724   5.340   1.308
 9831SOL    HW230393   2.735   5.500   1.277
 9832SOL     OW30394   4.960   6.125   2.499
 9832SOL    HW130395   5.051   6.148   2.467
 9832SOL    HW230396   4.909   6.079   2.426
 9833SOL     OW30397   2.988   3.584   4.714
 9833SOL    HW130398   2.896   3.616   4.735
 9833SOL    HW230399   3.015   3.514   4.781
 9834SOL     OW30400   2.516   4.566   5.162
 9834SOL    HW130401   2.588   4.605   5.219
 9834SOL    HW230402   2.464   4.499   5.216
 9835SOL     OW30403   4.031   3.328   4.958
 9835SOL    HW130404   4.045   3.324   4.860
 9835SOL    HW230405   3.979   3.411   4.981
 9836SOL     OW30406   6.823   4.212   3.780
 9836SOL    HW130407   6.882   4.180   3.854
 9836SOL    HW230408   6.736   4.244   3.818
 9837SOL     OW30409   3.657   6.999   2.404
 9837SOL    HW130410   3.667   0.071   2.364
 9837SOL    HW230411   3.573   6.995   2.458
 9838SOL     OW30412   1.550   6.669   0.094
 9838SOL    HW130413   1.551   6.625   0.004
 9838SOL    HW230414   1.456   6.674   0.128
 9839SOL     OW30415   5.108   0.385   3.684
 9839SOL    HW130416   5.125   0.380   3.585
 9839SOL    HW230417   5.162   0.315   3.730
 9840SOL     OW30418   5.396   1.916   0.848
 9840SOL    HW130419   5.414   1.978   0.772
 9840SOL    HW230420   5.412   1.822   0.819
 9841SOL     OW30421   1.468   4.595   4.756
 9841SOL    HW130422   1.451   4.694   4.755
 9841SOL    HW230423   1.391   4.548   4.799
 9842SOL     OW30424   3.417   3.388   1.605
 9842SOL    HW130425   3.363   3.444   1.669
 9842SOL    HW230426   3.361   3.367   1.525
 9843SOL     OW30427   6.382   0.860   1.742
 9843SOL    HW130428   6.475   0.848   1.777
 9843SOL    HW230429   6.386   0.885   1.645
 9844SOL     OW30430   6.258   0.689   2.598
 9844SOL    HW130431   6.349   0.688   2.558
 9844SOL    HW230432   6.214   0.776   2.578
 9845SOL     OW30433   2.279   2.849   3.265
 9845SOL    HW130434   2.327   2.809   3.188
 9845SOL    HW230435   2.308   2.805   3.350
 9846SOL     OW30436   3.780   2.970   2.079
 9846SOL    HW130437   3.833   2.960   2.164
 9846SOL    HW230438   3.781   3.065   2.049
 9847SOL     OW30439   3.460   2.886   3.776
 9847SOL    HW130440   3.557   2.904   3.790
 9847SOL    HW230441   3.416   2.869   3.864
 9848SOL     OW30442   4.218   3.258   5.165
 9848SOL    HW130443   4.216   3.324   5.241
 9848SOL    HW230444   4.142   3.276   5.103
 9849SOL     OW30445   0.887   6.822   6.684
 9849SOL    HW130446   0.933   6.861   6.604
 9849SOL    HW230447   0.870   6.725   6.668
 9850SOL     OW30448   6.088   6.933   4.465
 9850SOL    HW130449   6.178   6.963   4.498
 9850SOL    HW230450   6.023   7.009   4.470
 9851SOL     OW30451   6.928   0.419   4.452
 9851SOL    HW130452   7.000   0.439   4.518
 9851SOL    HW230453   6.932   0.484   4.377
 9852SOL     OW30454   3.486   1.581   3.752
 9852SOL    HW130455   3.494   1.676   3.720
 9852SOL    HW230456   3.412   1.575   3.820
 9853SOL     OW30457   4.994   3.916   4.583
 9853SOL    HW130458   4.996   3.824   4.545
 9853SOL    HW230459   4.925   3.921   4.655
 9854SOL     OW30460   6.673   5.591   5.031
 9854SOL    HW130461   6.647   5.688   5.028
 9854SOL    HW230462   6.611   5.538   4.974
 9855SOL     OW30463   1.716   3.970   1.062
 9855SOL    HW130464   1.752   4.039   1.000
 9855SOL    HW230465   1.791   3.920   1.104
 9856SOL     OW30466   4.742   4.158   4.573
 9856SOL    HW130467   4.734   4.071   4.621
 9856SOL    HW230468   4.802   4.219   4.624
 9857SOL     OW30469   4.896   2.452   2.632
 9857SOL    HW130470   4.811   2.400   2.639
 9857SOL    HW230471   4.969   2.402   2.678
 9858SOL     OW30472   6.982   0.881   2.125
 9858SOL    HW130473   0.044   0.896   2.182
 9858SOL    HW230474   6.998   0.802   2.065
 9859SOL     OW30475   6.311   6.333   2.961
 9859SOL    HW130476   6.256   6.398   3.014
 9859SOL    HW230477   6.393   6.379   2.927
 9860SOL     OW30478   1.760   1.846   3.518
 9860SOL    HW130479   1.835   1.842   3.584
 9860SOL    HW230480   1.749   1.940   3.485
 9861SOL     OW30481   3.156   0.503   3.427
 9861SOL    HW130482   3.154   0.404   3.417
 9861SOL    HW230483   3.065   0.541   3.406
 9862SOL     OW30484   3.569   3.085   6.662
 9862SOL    HW130485   3.610   3.175   6.650
 9862SOL    HW230486   3.499   3.090   6.734
 9863SOL     OW30487   3.668   6.736   2.270
 9863SOL    HW130488   3.658   6.826   2.311
 9863SOL    HW230489   3.666   6.744   2.171
 9864SOL     OW30490   3.751   6.719   3.789
 9864SOL    HW130491   3.829   6.744   3.845
 9864SOL    HW230492   3.783   6.687   3.699
 9865SOL     OW30493   1.855   6.909   4.334
 9865SOL    HW130494   1.871   6.823   4.381
 9865SOL    HW230495   1.933   6.930   4.274
 9866SOL     OW30496   4.775   4.463   6.278
 9866SOL    HW130497   4.830   4.419   6.350
 9866SOL    HW230498   4.685   4.420   6.274
 9867SOL     OW30499   6.553   1.607   1.035
 9867SOL    HW130500   6.568   1.704   1.053
 9867SOL    HW230501   6.529   1.594   0.939
 9868SOL     OW30502   0.797   3.574   5.310
 9868SOL    HW130503   0.712   3.580   5.258
 9868SOL    HW230504   0.861   3.643   5.277
 9869SOL     OW30505   1.080   2.375   1.672
 9869SOL    HW130506   1.083   2.395   1.574
 9869SOL    HW230507   1.015   2.301   1.689
 9870SOL     OW30508   3.800   5.587   2.445
 9870SOL    HW130509   3.869   5.583   2.372
 9870SOL    HW230510   3.720   5.534   2.418
 9871SOL     OW30511   6.680   5.610   6.187
 9871SOL    HW130512   6.583   5.600   6.209
 9871SOL    HW230513   6.692   5.599   6.088
 9872SOL     OW30514   2.584   5.382   4.891
 9872SOL    HW130515   2.643   5.437   4.832
 9872SOL    HW230516   2.623   5.290   4.900
 9873SOL     OW30517   2.242   2.685   0.341
 9873SOL    HW130518   2.273   2.714   0.432
 9873SOL    HW230519   2.164   2.622   0.351
 9874SOL     OW30520   5.541   3.459   4.858
 9874SOL    HW130521   5.561   3.556   4.870
 9874SOL    HW230522   5.454   3.437   4.903
 9875SOL     OW30523   5.860   5.797   1.651
 9875SOL    HW130524   5.939   5.784   1.591
 9875SOL    HW230525   5.812   5.709   1.662
 9876SOL     OW30526   5.910   1.040   3.828
 9876SOL    HW130527   5.949   0.986   3.904
 9876SOL    HW230528   5.902   0.982   3.747
 9877SOL     OW30529   6.581   5.187   4.408
 9877SOL    HW130530   6.639   5.159   4.484
 9877SOL    HW230531   6.563   5.108   4.350
 9878SOL     OW30532   2.697   4.381   5.708
 9878SOL    HW130533   2.649   4.329   5.638
 9878SOL    HW230534   2.762   4.321   5.755
 9879SOL     OW30535   5.186   5.982   5.559
 9879SOL    HW130536   5.160   5.923   5.483
 9879SOL    HW230537   5.262   6.040   5.531
 9880SOL     OW30538   3.651   0.580   0.247
 9880SOL    HW130539   3.593   0.613   0.172
 9880SOL    HW230540   3.738   0.630   0.245
 9881SOL     OW30541   1.672   1.420   4.665
 9881SOL    HW130542   1.687   1.427   4.764
 9881SOL    HW230543   1.594   1.358   4.648
 9882SOL     OW30544   1.806   3.655   4.985
 9882SOL    HW130545   1.863   3.734   5.005
 9882SOL    HW230546   1.816   3.629   4.889
 9883SOL     OW30547   1.260   6.208   0.950
 9883SOL    HW130548   1.275   6.304   0.927
 9883SOL    HW230549   1.190   6.170   0.890
 9884SOL     OW30550   4.695   2.251   1.191
 9884SOL    HW130551   4.627   2.247   1.264
 9884SOL    HW230552   4.652   2.285   1.107
 9885SOL     OW30553   6.845   2.051   4.753
 9885SOL    HW130554   6.822   2.133   4.806
 9885SOL    HW230555   6.933   2.065   4.708
 9886SOL     OW30556   1.417   5.458   1.918
 9886SOL    HW130557   1.370   5.437   1.832
 9886SOL    HW230558   1.383   5.397   1.990
 9887SOL     OW30559   4.033   0.535   0.101
 9887SOL    HW130560   3.977   0.522   0.019
 9887SOL    HW230561   3.981   0.585   0.170
 9888SOL     OW30562   5.318   4.847   2.634
 9888SOL    HW130563   5.284   4.753   2.633
 9888SOL    HW230564   5.383   4.858   2.710
 9889SOL     OW30565   5.899   4.856   0.731
 9889SOL    HW130566   5.906   4.790   0.806
 9889SOL    HW230567   5.824   4.830   0.671
 9890SOL     OW30568   0.752   2.631   1.433
 9890SOL    HW130569   0.660   2.593   1.438
 9890SOL    HW230570   0.789   2.643   1.525
 9891SOL     OW30571   6.078   3.146   1.711
 9891SOL    HW130572   6.162   3.131   1.763
 9891SOL    HW230573   6.032   3.058   1.696
 9892SOL     OW30574   1.697   4.885   2.315
 9892SOL    HW130575   1.721   4.971   2.270
 9892SOL    HW230576   1.601   4.863   2.295
 9893SOL     OW30577   6.687   0.644   2.488
 9893SOL    HW130578   6.756   0.580   2.453
 9893SOL    HW230579   6.627   0.598   2.553
 9894SOL     OW30580   3.112   2.079   6.771
 9894SOL    HW130581   3.144   1.987   6.792
 9894SOL    HW230582   3.082   2.124   6.855
 9895SOL     OW30583   5.079   3.764   5.394
 9895SOL    HW130584   5.074   3.763   5.494
 9895SOL    HW230585   4.987   3.765   5.356
 9896SOL     OW30586   5.511   1.336   1.235
 9896SOL    HW130587   5.519   1.238   1.220
 9896SOL    HW230588   5.487   1.381   1.149
 9897SOL     OW30589   5.827   0.065   2.143
 9897SOL    HW130590   5.755   0.004   2.110
 9897SOL    HW230591   5.857   0.124   2.069
 9898SOL     OW30592   0.718   4.680   6.012
 9898SOL    HW130593   0.794   4.742   6.027
 9898SOL    HW230594   0.634   4.721   6.048
 9899SOL     OW30595   1.063   4.995   1.956
 9899SOL    HW130596   1.008   4.954   1.883
 9899SOL    HW230597   1.094   4.924   2.019
 9900SOL     OW30598   1.587   3.026   2.058
 9900SOL    HW130599   1.493   3.042   2.087
 9900SOL    HW230600   1.620   3.104   2.005
 9901SOL     OW30601   2.903   0.811   6.675
 9901SOL    HW130602   2.916   0.793   6.578
 9901SOL    HW230603   2.874   0.726   6.721
 9902SOL     OW30604   3.786   4.326   1.425
 9902SOL    HW130605   3.757   4.328   1.521
 9902SOL    HW230606   3.820   4.234   1.403
 9903SOL     OW30607   5.564   1.546   1.629
 9903SOL    HW130608   5.518   1.630   1.658
 9903SOL    HW230609   5.650   1.568   1.584
 9904SOL     OW30610   0.056   3.943   6.333
 9904SOL    HW130611   0.032   4.007   6.260
 9904SOL    HW230612   0.144   3.900   6.311
 9905SOL     OW30613   2.499   0.580   5.832
 9905SOL    HW130614   2.466   0.624   5.749
 9905SOL    HW230615   2.491   0.644   5.909
 9906SOL     OW30616   1.990   3.453   0.877
 9906SOL    HW130617   1.991   3.402   0.791
 9906SOL    HW230618   1.978   3.550   0.858
 9907SOL     OW30619   1.262   0.562   1.696
 9907SOL    HW130620   1.254   0.477   1.748
 9907SOL    HW230621   1.299   0.542   1.605
 9908SOL     OW30622   6.679   2.402   5.139
 9908SOL    HW130623   6.747   2.410   5.212
 9908SOL    HW230624   6.644   2.493   5.116
 9909SOL     OW30625   4.124   1.197   2.514
 9909SOL    HW130626   4.145   1.272   2.451
 9909SOL    HW230627   4.192   1.125   2.503
 9910SOL     OW30628   1.424   5.171   1.263
 9910SOL    HW130629   1.338   5.222   1.268
 9910SOL    HW230630   1.405   5.077   1.234
 9911SOL     OW30631   2.703   5.931   1.783
 9911SOL    HW130632   2.727   6.023   1.813
 9911SOL    HW230633   2.682   5.932   1.685
 9912SOL     OW30634   3.707   1.114   0.758
 9912SOL    HW130635   3.775   1.079   0.693
 9912SOL    HW230636   3.627   1.055   0.757
 9913SOL     OW30637   6.147   3.071   0.963
 9913SOL    HW130638   6.082   3.139   0.930
 9913SOL    HW230639   6.132   2.985   0.914
 9914SOL     OW30640   6.809   6.759   5.929
 9914SOL    HW130641   6.879   6.753   5.858
 9914SOL    HW230642   6.743   6.830   5.904
 9915SOL     OW30643   5.753   0.728   3.590
 9915SOL    HW130644   5.828   0.794   3.591
 9915SOL    HW230645   5.783   0.645   3.544
 9916SOL     OW30646   1.883   2.205   3.251
 9916SOL    HW130647   1.930   2.292   3.263
 9916SOL    HW230648   1.950   2.134   3.228
 9917SOL     OW30649   3.565   3.577   5.408
 9917SOL    HW130650   3.612   3.502   5.363
 9917SOL    HW230651   3.559   3.656   5.346
 9918SOL     OW30652   1.353   2.976   2.730
 9918SOL    HW130653   1.313   3.014   2.647
 9918SOL    HW230654   1.453   2.972   2.719
 9919SOL     OW30655   2.596   5.311   1.970
 9919SOL    HW130656   2.642   5.267   1.893
 9919SOL    HW230657   2.653   5.305   2.052
 9920SOL     OW30658   4.721   0.468   2.527
 9920SOL    HW130659   4.663   0.542   2.492
 9920SOL    HW230660   4.814   0.502   2.539
 9921SOL     OW30661   4.501   6.725   4.623
 9921SOL    HW130662   4.528   6.635   4.588
 9921SOL    HW230663   4.471   6.783   4.547
 9922SOL     OW30664   3.786   4.271   1.084
 9922SOL    HW130665   3.827   4.201   1.026
 9922SOL    HW230666   3.690   4.250   1.101
 9923SOL     OW30667   6.272   3.800   0.253
 9923SOL    HW130668   6.174   3.807   0.274
 9923SOL    HW230669   6.314   3.890   0.259
 9924SOL     OW30670   5.446   1.748   3.121
 9924SOL    HW130671   5.353   1.781   3.137
 9924SOL    HW230672   5.460   1.732   3.023
 9925SOL     OW30673   0.436   4.754   3.576
 9925SOL    HW130674   0.351   4.798   3.606
 9925SOL    HW230675   0.486   4.720   3.656
 9926SOL     OW30676   3.891   2.875   0.710
 9926SOL    HW130677   3.835   2.958   0.722
 9926SOL    HW230678   3.985   2.894   0.737
 9927SOL     OW30679   0.911   1.090   0.445
 9927SOL    HW130680   0.826   1.068   0.493
 9927SOL    HW230681   0.985   1.099   0.510
 9928SOL     OW30682   5.336   4.231   3.232
 9928SOL    HW130683   5.268   4.278   3.175
 9928SOL    HW230684   5.381   4.298   3.292
 9929SOL     OW30685   3.599   4.154   4.373
 9929SOL    HW130686   3.692   4.164   4.339
 9929SOL    HW230687   3.599   4.168   4.472
 9930SOL     OW30688   0.578   6.820   6.157
 9930SOL    HW130689   0.534   6.730   6.159
 9930SOL    HW230690   0.669   6.813   6.197
 9931SOL     OW30691   6.654   5.844   4.078
 9931SOL    HW130692   6.593   5.805   4.008
 9931SOL    HW230693   6.600   5.865   4.160
 9932SOL     OW30694   2.535   2.571   5.990
 9932SOL    HW130695   2.472   2.644   5.964
 9932SOL    HW230696   2.624   2.587   5.949
 9933SOL     OW30697   1.673   6.661   4.027
 9933SOL    HW130698   1.772   6.657   4.014
 9933SOL    HW230699   1.646   6.596   4.098
 9934SOL     OW30700   0.011   1.970   6.285
 9934SOL    HW130701   0.012   1.892   6.223
 9934SOL    HW230702   6.936   1.992   6.309
 9935SOL     OW30703   2.679   6.999   1.387
 9935SOL    HW130704   2.777   0.001   1.389
 9935SOL    HW230705   2.639   0.012   1.301
 9936SOL     OW30706   6.722   4.912   0.601
 9936SOL    HW130707   6.724   4.866   0.690
 9936SOL    HW230708   6.627   4.935   0.578
 9937SOL     OW30709   0.339   1.340   1.757
 9937SOL    HW130710   0.315   1.419   1.813
 9937SOL    HW230711   0.438   1.325   1.759
 9938SOL     OW30712   5.766   4.978   4.203
 9938SOL    HW130713   5.763   4.927   4.289
 9938SOL    HW230714   5.680   5.027   4.190
 9939SOL     OW30715   3.329   2.892   0.963
 9939SOL    HW130716   3.330   2.836   1.045
 9939SOL    HW230717   3.391   2.969   0.974
 9940SOL     OW30718   1.236   0.111   2.219
 9940SOL    HW130719   1.306   0.181   2.228
 9940SOL    HW230720   1.147   0.149   2.245
 9941SOL     OW30721   3.088   4.358   6.154
 9941SOL    HW130722   3.083   4.423   6.230
 9941SOL    HW230723   3.008   4.369   6.096
 9942SOL     OW30724   3.923   5.219   2.382
 9942SOL    HW130725   3.829   5.191   2.362
 9942SOL    HW230726   3.942   5.305   2.334
 9943SOL     OW30727   0.742   4.932   6.767
 9943SOL    HW130728   0.677   4.877   6.715
 9943SOL    HW230729   0.826   4.943   6.713
 9944SOL     OW30730   0.777   4.522   6.662
 9944SOL    HW130731   0.803   4.588   6.591
 9944SOL    HW230732   0.739   4.440   6.618
 9945SOL     OW30733   4.727   5.718   6.962
 9945SOL    HW130734   4.669   5.650   7.007
 9945SOL    HW230735   4.674   5.766   6.892
 9946SOL     OW30736   6.755   0.046   3.210
 9946SOL    HW130737   6.751   0.084   3.117
 9946SOL    HW230738   6.807   0.108   3.268
 9947SOL     OW30739   2.731   2.329   4.647
 9947SOL    HW130740   2.652   2.386   4.670
 9947SOL    HW230741   2.780   2.304   4.730
 9948SOL     OW30742   6.692   5.367   4.768
 9948SOL    HW130743   6.755   5.313   4.824
 9948SOL    HW230744   6.601   5.367   4.811
 9949SOL     OW30745   0.236   4.896   3.690
 9949SOL    HW130746   0.296   4.963   3.731
 9949SOL    HW230747   0.142   4.910   3.723
 9950SOL     OW30748   6.011   6.149   6.936
 9950SOL    HW130749   5.925   6.199   6.929
 9950SOL    HW230750   5.992   6.053   6.957
 9951SOL     OW30751   1.099   2.717   3.261
 9951SOL    HW130752   1.102   2.817   3.254
 9951SOL    HW230753   1.051   2.690   3.344
 9952SOL     OW30754   1.392   4.482   0.354
 9952SOL    HW130755   1.479   4.485   0.402
 9952SOL    HW230756   1.392   4.403   0.292
 9953SOL     OW30757   6.307   1.788   3.772
 9953SOL    HW130758   6.280   1.692   3.770
 9953SOL    HW230759   6.364   1.804   3.853
 9954SOL     OW30760   1.239   0.019   5.135
 9954SOL    HW130761   1.310   0.071   5.183
 9954SOL    HW230762   1.219   0.062   5.047
 9955SOL     OW30763   4.540   4.059   6.683
 9955SOL    HW130764   4.484   4.074   6.601
 9955SOL    HW230765   4.601   3.981   6.668
 9956SOL     OW30766   0.458   5.096   3.789
 9956SOL    HW130767   0.416   5.181   3.759
 9956SOL    HW230768   0.557   5.108   3.794
 9957SOL     OW30769   6.195   0.213   1.598
 9957SOL    HW130770   6.270   0.278   1.611
 9957SOL    HW230771   6.225   0.122   1.627
 9958SOL     OW30772   2.855   6.085   6.994
 9958SOL    HW130773   2.917   6.108   0.050
 9958SOL    HW230774   2.870   6.148   6.918
 9959SOL     OW30775   4.146   3.548   3.375
 9959SOL    HW130776   4.169   3.610   3.300
 9959SOL    HW230777   4.111   3.462   3.338
 9960SOL     OW30778   0.478   6.945   2.481
 9960SOL    HW130779   0.502   6.851   2.455
 9960SOL    HW230780   0.525   7.009   2.420
 9961SOL     OW30781   1.455   5.002   4.326
 9961SOL    HW130782   1.405   5.088   4.314
 9961SOL    HW230783   1.548   5.013   4.290
 9962SOL     OW30784   4.712   0.662   2.736
 9962SOL    HW130785   4.799   0.619   2.712
 9962SOL    HW230786   4.637   0.604   2.706
 9963SOL     OW30787   2.322   2.237   6.418
 9963SOL    HW130788   2.411   2.254   6.375
 9963SOL    HW230789   2.312   2.297   6.497
 9964SOL     OW30790   4.114   4.177   6.024
 9964SOL    HW130791   4.061   4.205   5.944
 9964SOL    HW230792   4.211   4.175   5.999
 9965SOL     OW30793   3.725   4.963   5.324
 9965SOL    HW130794   3.653   4.959   5.255
 9965SOL    HW230795   3.793   5.032   5.298
 9966SOL     OW30796   2.756   5.251   2.185
 9966SOL    HW130797   2.817   5.185   2.142
 9966SOL    HW230798   2.698   5.204   2.252
 9967SOL     OW30799   5.893   5.671   1.237
 9967SOL    HW130800   5.804   5.714   1.254
 9967SOL    HW230801   5.962   5.742   1.223
 9968SOL     OW30802   3.141   5.142   6.396
 9968SOL    HW130803   3.182   5.142   6.487
 9968SOL    HW230804   3.200   5.092   6.333
 9969SOL     OW30805   0.958   2.409   4.297
 9969SOL    HW130806   0.906   2.468   4.235
 9969SOL    HW230807   0.897   2.370   4.366
 9970SOL     OW30808   6.402   4.425   2.056
 9970SOL    HW130809   6.439   4.395   1.968
 9970SOL    HW230810   6.442   4.513   2.080
 9971SOL     OW30811   2.489   4.041   6.986
 9971SOL    HW130812   2.433   4.038   0.049
 9971SOL    HW230813   2.529   3.951   6.968
 9972SOL     OW30814   3.222   4.403   0.077
 9972SOL    HW130815   3.190   4.342   0.149
 9972SOL    HW230816   3.222   4.354   7.009
 9973SOL     OW30817   4.266   2.013   4.787
 9973SOL    HW130818   4.168   1.995   4.799
 9973SOL    HW230819   4.290   2.003   4.691
 9974SOL     OW30820   5.845   3.206   3.687
 9974SOL    HW130821   5.789   3.248   3.616
 9974SOL    HW230822   5.939   3.196   3.654
 9975SOL     OW30823   0.007   4.524   0.369
 9975SOL    HW130824   6.972   4.607   0.382
 9975SOL    HW230825   6.989   4.472   0.292
 9976SOL     OW30826   6.744   5.450   5.711
 9976SOL    HW130827   6.804   5.529   5.694
 9976SOL    HW230828   6.793   5.384   5.769
 9977SOL     OW30829   6.724   4.988   6.148
 9977SOL    HW130830   6.751   4.894   6.127
 9977SOL    HW230831   6.678   5.028   6.068
 9978SOL     OW30832   6.173   2.079   3.611
 9978SOL    HW130833   6.202   2.110   3.521
 9978SOL    HW230834   6.157   1.980   3.610
 9979SOL     OW30835   6.366   5.087   6.350
 9979SOL    HW130836   6.436   5.155   6.330
 9979SOL    HW230837   6.304   5.078   6.272
 9980SOL     OW30838   1.701   1.399   6.588
 9980SOL    HW130839   1.605   1.427   6.592
 9980SOL    HW230840   1.716   1.322   6.650
 9981SOL     OW30841   2.641   1.904   1.023
 9981SOL    HW130842   2.687   1.891   0.935
 9981SOL    HW230843   2.639   1.817   1.072
 9982SOL     OW30844   0.611   1.018   3.430
 9982SOL    HW130845   0.541   0.962   3.387
 9982SOL    HW230846   0.656   1.074   3.361
 9983SOL     OW30847   1.646   1.857   2.060
 9983SOL    HW130848   1.621   1.781   2.121
 9983SOL    HW230849   1.684   1.820   1.975
 9984SOL     OW30850   1.111   7.002   0.391
 9984SOL    HW130851   1.050   0.016   0.464
 9984SOL    HW230852   1.198   0.032   0.395
 9985SOL     OW30853   2.850   0.697   1.597
 9985SOL    HW130854   2.853   0.796   1.586
 9985SOL    HW230855   2.942   0.660   1.596
 9986SOL     OW30856   5.493   4.054   6.602
 9986SOL    HW130857   5.555   4.133   6.602
 9986SOL    HW230858   5.525   3.986   6.536
 9987SOL     OW30859   5.078   1.620   2.990
 9987SOL    HW130860   5.147   1.648   3.057
 9987SOL    HW230861   5.083   1.520   2.978
 9988SOL     OW30862   0.230   5.443   5.205
 9988SOL    HW130863   0.206   5.531   5.164
 9988SOL    HW230864   0.242   5.374   5.133
 9989SOL     OW30865   5.392   3.729   2.818
 9989SOL    HW130866   5.405   3.810   2.875
 9989SOL    HW230867   5.458   3.659   2.843
 9990SOL     OW30868   2.426   6.689   3.048
 9990SOL    HW130869   2.486   6.756   3.004
 9990SOL    HW230870   2.332   6.722   3.047
 9991SOL     OW30871   1.324   3.107   5.249
 9991SOL    HW130872   1.339   3.169   5.172
 9991SOL    HW230873   1.410   3.065   5.275
 9992SOL     OW30874   4.841   3.752   0.618
 9992SOL    HW130875   4.825   3.664   0.574
 9992SOL    HW230876   4.873   3.819   0.551
 9993SOL     OW30877   4.357   0.086   2.490
 9993SOL    HW130878   4.310   0.079   2.577
 9993SOL    HW230879   4.410   0.171   2.487
 9994SOL     OW30880   6.816   3.654   4.124
 9994SOL    HW130881   6.753   3.585   4.158
 9994SOL    HW230882   6.906   3.640   4.165
 9995SOL     OW30883   3.020   6.952   2.873
 9995SOL    HW130884   3.052   6.857   2.876
 9995SOL    HW230885   2.943   6.959   2.809
 9996SOL     OW30886   2.620   2.569   1.047
 9996SOL    HW130887   2.695   2.503   1.044
 9996SOL    HW230888   2.552   2.539   1.114
 9997SOL     OW30889   3.926   2.201   1.110
 9997SOL    HW130890   3.962   2.294   1.112
 9997SOL    HW230891   3.830   2.202   1.137
 9998SOL     OW30892   6.647   3.681   2.040
 9998SOL    HW130893   6.705   3.732   1.977
 9998SOL    HW230894   6.670   3.704   2.134
 9999SOL     OW30895   6.552   4.751   4.687
 9999SOL    HW130896   6.498   4.692   4.628
 9999SOL    HW230897   6.647   4.752   4.655
10000SOL     OW30898   5.702   2.636   0.057
10000SOL    HW130899   5.795   2.602   0.062
10000SOL    HW230900   5.674   2.644   6.981
10001SOL     OW30901   4.869   1.182   1.874
10001SOL    HW130902   4.927   1.252   1.833
10001SOL    HW230903   4.821   1.133   1.801
10002SOL     OW30904   1.253   0.790   1.154
10002SOL    HW130905   1.296   0.836   1.077
10002SOL    HW230906   1.191   0.853   1.201
10003SOL     OW30907   3.942   1.689   3.532
10003SOL    HW130908   4.023   1.714   3.585
10003SOL    HW230909   3.872   1.653   3.593
10004SOL     OW30910   4.745   2.903   4.401
10004SOL    HW130911   4.656   2.942   4.423
10004SOL    HW230912   4.769   2.833   4.468
10005SOL     OW30913   5.224   5.949   3.572
10005SOL    HW130914   5.166   5.951   3.653
10005SOL    HW230915   5.214   5.861   3.525
10006SOL     OW30916   5.478   0.732   4.403
10006SOL    HW130917   5.468   0.681   4.489
10006SOL    HW230918   5.403   0.798   4.395
10007SOL     OW30919   0.605   4.681   5.034
10007SOL    HW130920   0.684   4.624   5.013
10007SOL    HW230921   0.592   4.685   5.133
10008SOL     OW30922   4.520   1.282   3.986
10008SOL    HW130923   4.513   1.237   3.897
10008SOL    HW230924   4.429   1.297   4.023
10009SOL     OW30925   1.855   4.022   1.662
10009SOL    HW130926   1.882   4.093   1.598
10009SOL    HW230927   1.818   3.944   1.612
10010SOL     OW30928   2.316   6.869   6.756
10010SOL    HW130929   2.252   6.935   6.716
10010SOL    HW230930   2.279   6.777   6.748
10011SOL     OW30931   6.746   2.224   4.945
10011SOL    HW130932   6.835   2.215   4.989
10011SOL    HW230933   6.706   2.313   4.969
10012SOL     OW30934   5.042   0.198   2.843
10012SOL    HW130935   5.038   0.154   2.753
10012SOL    HW230936   5.117   0.158   2.895
10013SOL     OW30937   2.010   1.604   4.328
10013SOL    HW130938   1.948   1.604   4.249
10013SOL    HW230939   2.035   1.698   4.350
10014SOL     OW30940   6.283   2.902   6.947
10014SOL    HW130941   6.201   2.860   6.986
10014SOL    HW230942   6.334   2.833   6.895
10015SOL     OW30943   2.884   4.274   0.324
10015SOL    HW130944   2.845   4.213   0.256
10015SOL    HW230945   2.983   4.263   0.327
10016SOL     OW30946   2.515   0.158   4.800
10016SOL    HW130947   2.446   0.205   4.855
10016SOL    HW230948   2.471   0.091   4.740
10017SOL     OW30949   2.077   2.511   2.224
10017SOL    HW130950   2.123   2.440   2.171
10017SOL    HW230951   2.142   2.552   2.289
10018SOL     OW30952   5.167   6.660   5.955
10018SOL    HW130953   5.107   6.694   5.882
10018SOL    HW230954   5.202   6.570   5.930
10019SOL     OW30955   1.406   1.718   2.894
10019SOL    HW130956   1.341   1.648   2.924
10019SOL    HW230957   1.356   1.798   2.861
10020SOL     OW30958   0.368   2.515   1.719
10020SOL    HW130959   0.319   2.446   1.771
10020SOL    HW230960   0.400   2.587   1.780
10021SOL     OW30961   0.675   3.258   1.641
10021SOL    HW130962   0.686   3.158   1.638
10021SOL    HW230963   0.578   3.280   1.638
10022SOL     OW30964   3.521   0.038   0.642
10022SOL    HW130965   3.453   0.011   0.711
10022SOL    HW230966   3.613   0.017   0.676
10023SOL     OW30967   1.581   5.263   5.972
10023SOL    HW130968   1.592   5.234   5.876
10023SOL    HW230969   1.525   5.196   6.021
10024SOL     OW30970   2.476   6.827   1.971
10024SOL    HW130971   2.530   6.818   1.888
10024SOL    HW230972   2.379   6.830   1.948
10025SOL     OW30973   1.163   1.010   1.605
10025SOL    HW130974   1.249   0.991   1.653
10025SOL    HW230975   1.176   1.089   1.545
10026SOL     OW30976   4.649   6.582   3.795
10026SOL    HW130977   4.746   6.608   3.789
10026SOL    HW230978   4.631   6.504   3.735
10027SOL     OW30979   0.350   4.171   4.923
10027SOL    HW130980   0.395   4.259   4.912
10027SOL    HW230981   0.394   4.103   4.864
10028SOL     OW30982   1.259   2.086   1.678
10028SOL    HW130983   1.304   2.169   1.646
10028SOL    HW230984   1.295   2.061   1.767
10029SOL     OW30985   3.372   2.161   3.791
10029SOL    HW130986   3.327   2.245   3.820
10029SOL    HW230987   3.465   2.157   3.828
10030SOL     OW30988   2.246   6.180   3.686
10030SOL    HW130989   2.279   6.235   3.763
10030SOL    HW230990   2.217   6.240   3.612
10031SOL     OW30991   6.034   5.130   3.580
10031SOL    HW130992   6.041   5.031   3.566
10031SOL    HW230993   5.939   5.158   3.576
10032SOL     OW30994   3.099   0.950   5.362
10032SOL    HW130995   3.109   0.884   5.436
10032SOL    HW230996   3.066   1.037   5.399
10033SOL     OW30997   4.645   2.228   3.811
10033SOL    HW130998   4.581   2.151   3.811
10033SOL    HW230999   4.691   2.234   3.722
10034SOL     OW31000   3.086   0.251   4.203
10034SOL    HW131001   3.001   0.304   4.198
10034SOL    HW231002   3.122   0.238   4.110
10035SOL     OW31003   6.610   4.353   1.858
10035SOL    HW131004   6.616   4.427   1.791
10035SOL    HW231005   6.668   4.374   1.936
10036SOL     OW31006   5.453   1.451   0.985
10036SOL    HW131007   5.368   1.498   1.007
10036SOL    HW231008   5.482   1.476   0.892
10037SOL     OW31009   5.815   1.062   1.125
10037SOL    HW131010   5.767   1.057   1.212
10037SOL    HW231011   5.899   1.007   1.130
10038SOL     OW31012   4.179   0.739   6.896
10038SOL    HW131013   4.130   0.686   6.828
10038SOL    HW231014   4.264   0.692   6.921
10039SOL     OW31015   3.356   0.079   3.655
10039SOL    HW131016   3.259   0.101   3.672
10039SOL    HW231017   3.369   0.055   3.559
10040SOL     OW31018   4.272   5.539   6.441
10040SOL    HW131019   4.244   5.633   6.424
10040SOL    HW231020   4.226   5.477   6.377
10041SOL     OW31021   3.880   6.118   6.256
10041SOL    HW131022   3.966   6.128   6.206
10041SOL    HW231023   3.872   6.192   6.323
10042SOL     OW31024   1.341   1.683   4.518
10042SOL    HW131025   1.392   1.722   4.441
10042SOL    HW231026   1.245   1.710   4.510
10043SOL     OW31027   6.835   1.872   5.016
10043SOL    HW131028   6.911   1.820   5.056
10043SOL    HW231029   6.868   1.924   4.937
10044SOL     OW31030   2.747   1.483   5.194
10044SOL    HW131031   2.769   1.539   5.274
10044SOL    HW231032   2.823   1.486   5.129
10045SOL     OW31033   3.533   0.554   3.249
10045SOL    HW131034   3.575   0.625   3.193
10045SOL    HW231035   3.452   0.519   3.202
10046SOL     OW31036   2.030   4.166   0.900
10046SOL    HW131037   2.067   4.077   0.928
10046SOL    HW231038   2.105   4.223   0.867
10047SOL     OW31039   1.048   3.722   4.548
10047SOL    HW131040   1.044   3.641   4.607
10047SOL    HW231041   1.131   3.774   4.569
10048SOL     OW31042   6.265   0.578   2.855
10048SOL    HW131043   6.251   0.617   2.764
10048SOL    HW231044   6.297   0.649   2.918
10049SOL     OW31045   1.103   1.997   6.380
10049SOL    HW131046   1.125   1.978   6.476
10049SOL    HW231047   1.129   1.918   6.323
10050SOL     OW31048   5.398   3.674   4.589
10050SOL    HW131049   5.467   3.605   4.568
10050SOL    HW231050   5.325   3.633   4.643
10051SOL     OW31051   6.363   3.863   5.591
10051SOL    HW131052   6.440   3.808   5.560
10051SOL    HW231053   6.277   3.815   5.571
10052SOL     OW31054   2.174   0.980   2.901
10052SOL    HW131055   2.269   0.961   2.877
10052SOL    HW231056   2.156   1.078   2.890
10053SOL     OW31057   3.993   5.415   3.088
10053SOL    HW131058   4.007   5.323   3.052
10053SOL    HW231059   3.895   5.434   3.093
10054SOL     OW31060   5.373   6.152   6.243
10054SOL    HW131061   5.350   6.131   6.338
10054SOL    HW231062   5.353   6.249   6.225
10055SOL     OW31063   6.236   1.257   4.881
10055SOL    HW131064   6.165   1.230   4.816
10055SOL    HW231065   6.209   1.342   4.926
10056SOL     OW31066   5.562   4.189   2.792
10056SOL    HW131067   5.558   4.131   2.711
10056SOL    HW231068   5.507   4.271   2.778
10057SOL     OW31069   4.099   2.594   5.644
10057SOL    HW131070   4.125   2.679   5.690
10057SOL    HW231071   4.002   2.576   5.659
10058SOL     OW31072   6.521   3.603   5.132
10058SOL    HW131073   6.491   3.530   5.193
10058SOL    HW231074   6.620   3.605   5.129
10059SOL     OW31075   0.114   1.369   0.482
10059SOL    HW131076   0.038   1.313   0.517
10059SOL    HW231077   0.177   1.390   0.557
10060SOL     OW31078   2.335   2.820   2.260
10060SOL    HW131079   2.432   2.844   2.250
10060SOL    HW231080   2.291   2.818   2.171
10061SOL     OW31081   4.837   1.562   4.239
10061SOL    HW131082   4.925   1.565   4.287
10061SOL    HW231083   4.792   1.475   4.259
10062SOL     OW31084   5.579   0.334   4.011
10062SOL    HW131085   5.531   0.247   4.004
10062SOL    HW231086   5.516   0.409   3.987
10063SOL     OW31087   2.903   1.185   4.483
10063SOL    HW131088   2.942   1.117   4.546
10063SOL    HW231089   2.819   1.222   4.522
10064SOL     OW31090   4.981   6.759   0.458
10064SOL    HW131091   5.005   6.838   0.401
10064SOL    HW231092   4.910   6.706   0.412
10065SOL     OW31093   2.646   0.508   2.892
10065SOL    HW131094   2.571   0.564   2.855
10065SOL    HW231095   2.704   0.564   2.951
10066SOL     OW31096   0.867   2.321   4.556
10066SOL    HW131097   0.914   2.396   4.603
10066SOL    HW231098   0.887   2.234   4.602
10067SOL     OW31099   0.557   3.386   5.178
10067SOL    HW131100   0.470   3.404   5.134
10067SOL    HW231101   0.572   3.287   5.184
10068SOL     OW31102   0.615   3.424   3.588
10068SOL    HW131103   0.668   3.468   3.661
10068SOL    HW231104   0.562   3.493   3.539
10069SOL     OW31105   3.394   5.020   1.351
10069SOL    HW131106   3.399   5.094   1.417
10069SOL    HW231107   3.480   4.969   1.352
10070SOL     OW31108   0.160   6.251   5.074
10070SOL    HW131109   0.152   6.335   5.020
10070SOL    HW231110   0.073   6.203   5.075
10071SOL     OW31111   6.948   5.907   4.355
10071SOL    HW131112   6.956   5.909   4.255
10071SOL    HW231113   6.867   5.856   4.381
10072SOL     OW31114   0.480   0.217   4.317
10072SOL    HW131115   0.515   0.134   4.276
10072SOL    HW231116   0.550   0.288   4.315
10073SOL     OW31117   6.822   3.953   4.160
10073SOL    HW131118   6.842   3.927   4.255
10073SOL    HW231119   6.795   3.873   4.108
10074SOL     OW31120   2.180   0.239   6.233
10074SOL    HW131121   2.083   0.256   6.250
10074SOL    HW231122   2.191   0.183   6.151
10075SOL     OW31123   1.473   2.498   1.937
10075SOL    HW131124   1.523   2.490   1.851
10075SOL    HW231125   1.514   2.438   2.005
10076SOL     OW31126   5.814   6.221   3.019
10076SOL    HW131127   5.884   6.209   2.948
10076SOL    HW231128   5.851   6.275   3.094
10077SOL     OW31129   4.538   3.644   0.335
10077SOL    HW131130   4.502   3.726   0.380
10077SOL    HW231131   4.502   3.640   0.241
10078SOL     OW31132   6.487   6.162   4.395
10078SOL    HW131133   6.482   6.132   4.300
10078SOL    HW231134   6.404   6.135   4.443
10079SOL     OW31135   6.041   3.249   3.239
10079SOL    HW131136   6.123   3.220   3.188
10079SOL    HW231137   5.966   3.263   3.175
10080SOL     OW31138   5.617   1.019   6.104
10080SOL    HW131139   5.525   1.031   6.067
10080SOL    HW231140   5.616   0.950   6.176
10081SOL     OW31141   0.599   1.849   0.018
10081SOL    HW131142   0.569   1.756   7.018
10081SOL    HW231143   0.695   1.849   0.044
10082SOL     OW31144   0.713   5.595   1.906
10082SOL    HW131145   0.672   5.673   1.859
10082SOL    HW231146   0.644   5.522   1.914
10083SOL     OW31147   3.800   0.332   3.762
10083SOL    HW131148   3.828   0.396   3.690
10083SOL    HW231149   3.704   0.307   3.749
10084SOL     OW31150   1.155   0.757   5.518
10084SOL    HW131151   1.123   0.682   5.576
10084SOL    HW231152   1.196   0.719   5.435
10085SOL     OW31153   3.874   6.949   0.501
10085SOL    HW131154   3.819   6.869   0.520
10085SOL    HW231155   3.963   6.921   0.464
10086SOL     OW31156   5.867   5.857   2.998
10086SOL    HW131157   5.949   5.879   2.944
10086SOL    HW231158   5.886   5.873   3.095
10087SOL     OW31159   6.267   5.682   4.064
10087SOL    HW131160   6.258   5.588   4.097
10087SOL    HW231161   6.177   5.718   4.040
10088SOL     OW31162   0.090   0.037   2.607
10088SOL    HW131163   0.007   0.066   2.655
10088SOL    HW231164   0.168   0.086   2.644
10089SOL     OW31165   2.667   2.216   3.450
10089SOL    HW131166   2.751   2.165   3.435
10089SOL    HW231167   2.591   2.169   3.404
10090SOL     OW31168   0.265   4.892   1.858
10090SOL    HW131169   0.171   4.884   1.824
10090SOL    HW231170   0.312   4.964   1.808
10091SOL     OW31171   6.382   5.739   6.781
10091SOL    HW131172   6.392   5.730   6.880
10091SOL    HW231173   6.433   5.818   6.748
10092SOL     OW31174   1.799   2.924   6.359
10092SOL    HW131175   1.823   2.993   6.291
10092SOL    HW231176   1.782   2.968   6.447
10093SOL     OW31177   4.723   3.416   5.395
10093SOL    HW131178   4.718   3.319   5.369
10093SOL    HW231179   4.732   3.472   5.312
10094SOL     OW31180   2.635   6.209   1.677
10094SOL    HW131181   2.572   6.158   1.618
10094SOL    HW231182   2.725   6.214   1.633
10095SOL     OW31183   5.329   1.211   4.489
10095SOL    HW131184   5.291   1.261   4.567
10095SOL    HW231185   5.344   1.274   4.413
10096SOL     OW31186   4.698   6.642   2.397
10096SOL    HW131187   4.705   6.628   2.496
10096SOL    HW231188   4.790   6.644   2.358
10097SOL     OW31189   1.420   1.961   0.063
10097SOL    HW131190   1.341   2.021   0.062
10097SOL    HW231191   1.392   1.868   0.039
10098SOL     OW31192   2.941   6.984   5.152
10098SOL    HW131193   2.875   6.977   5.227
10098SOL    HW231194   3.023   0.013   5.184
10099SOL     OW31195   0.904   4.838   0.990
10099SOL    HW131196   0.834   4.866   0.925
10099SOL    HW231197   0.862   4.797   1.071
10100SOL     OW31198   5.077   6.307   5.425
10100SOL    HW131199   5.129   6.259   5.496
10100SOL    HW231200   5.036   6.389   5.464
10101SOL     OW31201   0.021   2.965   2.028
10101SOL    HW131202   7.013   2.880   2.073
10101SOL    HW231203   6.992   2.974   1.941
10102SOL     OW31204   6.970   0.979   1.637
10102SOL    HW131205   7.000   0.884   1.632
10102SOL    HW231206   0.027   1.040   1.614
10103SOL     OW31207   2.240   0.385   5.558
10103SOL    HW131208   2.200   0.473   5.586
10103SOL    HW231209   2.339   0.395   5.549
10104SOL     OW31210   1.723   1.943   5.632
10104SOL    HW131211   1.687   1.896   5.713
10104SOL    HW231212   1.677   2.032   5.622
10105SOL     OW31213   2.262   0.520   6.134
10105SOL    HW131214   2.177   0.520   6.082
10105SOL    HW231215   2.275   0.431   6.177
10106SOL     OW31216   3.712   6.668   0.510
10106SOL    HW131217   3.644   6.594   0.511
10106SOL    HW231218   3.795   6.636   0.555
10107SOL     OW31219   5.211   1.638   6.249
10107SOL    HW131220   5.290   1.599   6.295
10107SOL    HW231221   5.232   1.653   6.152
10108SOL     OW31222   0.010   1.564   0.234
10108SOL    HW131223   0.021   1.465   0.249
10108SOL    HW231224   0.059   1.614   0.305
10109SOL     OW31225   0.345   0.954   1.033
10109SOL    HW131226   0.255   0.912   1.040
10109SOL    HW231227   0.346   1.019   0.957
10110SOL     OW31228   5.009   4.662   4.005
10110SOL    HW131229   5.078   4.714   4.056
10110SOL    HW231230   5.045   4.640   3.914
10111SOL     OW31231   6.657   3.703   3.389
10111SOL    HW131232   6.573   3.687   3.338
10111SOL    HW231233   6.645   3.781   3.451
10112SOL     OW31234   5.959   3.074   2.572
10112SOL    HW131235   6.017   2.995   2.591
10112SOL    HW231236   6.009   3.139   2.514
10113SOL     OW31237   4.908   0.058   0.612
10113SOL    HW131238   4.815   0.023   0.601
10113SOL    HW231239   4.973   7.003   0.598
10114SOL     OW31240   4.158   2.312   2.343
10114SOL    HW131241   4.105   2.322   2.259
10114SOL    HW231242   4.244   2.363   2.335
10115SOL     OW31243   4.267   1.974   5.185
10115SOL    HW131244   4.334   1.965   5.259
10115SOL    HW231245   4.246   1.883   5.148
10116SOL     OW31246   0.567   6.669   6.675
10116SOL    HW131247   0.573   6.763   6.639
10116SOL    HW231248   0.474   6.651   6.705
10117SOL     OW31249   6.932   6.359   5.774
10117SOL    HW131250   6.906   6.286   5.711
10117SOL    HW231251   6.852   6.387   5.828
10118SOL     OW31252   2.342   4.729   3.624
10118SOL    HW131253   2.420   4.792   3.623
10118SOL    HW231254   2.366   4.648   3.677
10119SOL     OW31255   6.731   4.868   3.809
10119SOL    HW131256   6.715   4.930   3.885
10119SOL    HW231257   6.645   4.822   3.785
10120SOL     OW31258   1.816   3.589   4.072
10120SOL    HW131259   1.913   3.610   4.057
10120SOL    HW231260   1.760   3.646   4.013
10121SOL     OW31261   5.685   3.422   6.781
10121SOL    HW131262   5.680   3.322   6.778
10121SOL    HW231263   5.717   3.456   6.692
10122SOL     OW31264   5.389   1.949   3.453
10122SOL    HW131265   5.378   2.039   3.494
10122SOL    HW231266   5.436   1.888   3.517
10123SOL     OW31267   5.688   6.209   0.934
10123SOL    HW131268   5.723   6.244   1.021
10123SOL    HW231269   5.600   6.164   0.949
10124SOL     OW31270   1.527   4.738   0.629
10124SOL    HW131271   1.480   4.781   0.552
10124SOL    HW231272   1.615   4.783   0.644
10125SOL     OW31273   2.334   1.020   0.703
10125SOL    HW131274   2.363   0.924   0.703
10125SOL    HW231275   2.413   1.078   0.725
10126SOL     OW31276   0.020   0.180   6.641
10126SOL    HW131277   0.052   0.221   6.727
10126SOL    HW231278   0.026   0.081   6.647
10127SOL     OW31279   2.165   3.748   0.645
10127SOL    HW131280   2.152   3.680   0.573
10127SOL    HW231281   2.230   3.818   0.613
10128SOL     OW31282   3.183   0.764   5.524
10128SOL    HW131283   3.120   0.709   5.580
10128SOL    HW231284   3.234   0.703   5.462
10129SOL     OW31285   6.785   1.477   2.174
10129SOL    HW131286   6.734   1.399   2.137
10129SOL    HW231287   6.883   1.454   2.177
10130SOL     OW31288   0.498   3.587   1.873
10130SOL    HW131289   0.581   3.542   1.904
10130SOL    HW231290   0.418   3.535   1.903
10131SOL     OW31291   1.700   0.256   4.191
10131SOL    HW131292   1.649   0.201   4.257
10131SOL    HW231293   1.796   0.262   4.219
10132SOL     OW31294   1.692   0.543   3.065
10132SOL    HW131295   1.773   0.598   3.046
10132SOL    HW231296   1.702   0.452   3.024
10133SOL     OW31297   4.516   6.609   0.953
10133SOL    HW131298   4.542   6.690   1.006
10133SOL    HW231299   4.417   6.595   0.963
10134SOL     OW31300   5.803   0.766   3.024
10134SOL    HW131301   5.727   0.831   3.023
10134SOL    HW231302   5.788   0.698   3.096
10135SOL     OW31303   5.009   2.241   4.089
10135SOL    HW131304   5.000   2.234   3.990
10135SOL    HW231305   4.927   2.203   4.132
10136SOL     OW31306   5.485   1.832   2.295
10136SOL    HW131307   5.517   1.742   2.265
10136SOL    HW231308   5.407   1.822   2.356
10137SOL     OW31309   0.480   4.726   5.282
10137SOL    HW131310   0.425   4.809   5.287
10137SOL    HW231311   0.423   4.650   5.250
10138SOL     OW31312   5.787   3.249   0.256
10138SOL    HW131313   5.725   3.180   0.220
10138SOL    HW231314   5.765   3.268   0.352
10139SOL     OW31315   3.061   3.887   4.603
10139SOL    HW131316   3.008   3.877   4.687
10139SOL    HW231317   3.102   3.800   4.578
10140SOL     OW31318   0.313   6.639   6.730
10140SOL    HW131319   0.283   6.545   6.745
10140SOL    HW231320   0.270   6.699   6.797
10141SOL     OW31321   4.715   1.192   4.813
10141SOL    HW131322   4.629   1.212   4.860
10141SOL    HW231323   4.789   1.245   4.855
10142SOL     OW31324   6.041   6.568   5.904
10142SOL    HW131325   5.992   6.599   5.823
10142SOL    HW231326   6.139   6.585   5.892
10143SOL     OW31327   5.540   2.762   0.340
10143SOL    HW131328   5.543   2.665   0.364
10143SOL    HW231329   5.627   2.805   0.365
10144SOL     OW31330   4.528   6.547   5.511
10144SOL    HW131331   4.466   6.529   5.588
10144SOL    HW231332   4.481   6.602   5.443
10145SOL     OW31333   3.872   5.475   2.682
10145SOL    HW131334   3.869   5.507   2.588
10145SOL    HW231335   3.806   5.527   2.737
10146SOL     OW31336   6.443   3.921   4.522
10146SOL    HW131337   6.398   3.853   4.580
10146SOL    HW231338   6.378   3.956   4.455
10147SOL     OW31339   5.126   3.802   6.784
10147SOL    HW131340   5.046   3.805   6.844
10147SOL    HW231341   5.123   3.878   6.720
10148SOL     OW31342   5.533   4.323   0.535
10148SOL    HW131343   5.608   4.303   0.599
10148SOL    HW231344   5.570   4.371   0.455
10149SOL     OW31345   5.172   4.398   1.086
10149SOL    HW131346   5.145   4.494   1.077
10149SOL    HW231347   5.192   4.360   0.996
10150SOL     OW31348   4.475   3.335   1.569
10150SOL    HW131349   4.496   3.298   1.659
10150SOL    HW231350   4.488   3.434   1.569
10151SOL     OW31351   1.225   0.225   6.770
10151SOL    HW131352   1.155   0.273   6.718
10151SOL    HW231353   1.193   0.133   6.792
10152SOL     OW31354   6.582   5.923   3.709
10152SOL    HW131355   6.535   5.875   3.783
10152SOL    HW231356   6.676   5.891   3.703
10153SOL     OW31357   5.000   6.037   4.211
10153SOL    HW131358   5.052   5.960   4.173
10153SOL    HW231359   4.921   6.057   4.153
10154SOL     OW31360   3.822   6.510   5.480
10154SOL    HW131361   3.779   6.595   5.451
10154SOL    HW231362   3.779   6.478   5.565
10155SOL     OW31363   5.050   2.729   5.329
10155SOL    HW131364   4.994   2.682   5.261
10155SOL    HW231365   5.052   2.827   5.310
10156SOL     OW31366   5.394   0.428   1.642
10156SOL    HW131367   5.358   0.515   1.610
10156SOL    HW231368   5.482   0.410   1.598
10157SOL     OW31369   7.006   2.565   0.238
10157SOL    HW131370   0.042   2.482   0.239
10157SOL    HW231371   6.944   2.564   0.160
10158SOL     OW31372   6.544   6.616   1.261
10158SOL    HW131373   6.537   6.663   1.349
10158SOL    HW231374   6.579   6.524   1.275
10159SOL     OW31375   3.782   3.192   2.400
10159SOL    HW131376   3.695   3.145   2.383
10159SOL    HW231377   3.856   3.138   2.360
10160SOL     OW31378   1.662   4.204   3.313
10160SOL    HW131379   1.659   4.166   3.221
10160SOL    HW231380   1.592   4.159   3.369
10161SOL     OW31381   3.383   4.892   6.737
10161SOL    HW131382   3.478   4.921   6.727
10161SOL    HW231383   3.333   4.958   6.793
10162SOL     OW31384   2.565   4.523   0.425
10162SOL    HW131385   2.616   4.603   0.458
10162SOL    HW231386   2.496   4.553   0.358
10163SOL     OW31387   0.467   4.860   6.776
10163SOL    HW131388   0.473   4.784   6.840
10163SOL    HW231389   0.456   4.946   6.826
10164SOL     OW31390   5.650   3.527   4.463
10164SOL    HW131391   5.673   3.434   4.490
10164SOL    HW231392   5.728   3.587   4.485
10165SOL     OW31393   6.662   2.180   3.493
10165SOL    HW131394   6.592   2.250   3.498
10165SOL    HW231395   6.693   2.169   3.399
10166SOL     OW31396   1.608   1.551   1.661
10166SOL    HW131397   1.645   1.565   1.569
10166SOL    HW231398   1.601   1.639   1.708
10167SOL     OW31399   6.895   5.802   6.730
10167SOL    HW131400   6.913   5.888   6.682
10167SOL    HW231401   6.963   5.734   6.702
10168SOL     OW31402   6.621   2.066   6.092
10168SOL    HW131403   6.616   2.001   6.168
10168SOL    HW231404   6.640   2.157   6.126
10169SOL     OW31405   6.141   3.620   3.199
10169SOL    HW131406   6.074   3.589   3.266
10169SOL    HW231407   6.213   3.551   3.189
10170SOL     OW31408   6.199   5.940   6.055
10170SOL    HW131409   6.104   5.922   6.031
10170SOL    HW231410   6.202   5.996   6.138
10171SOL     OW31411   0.479   2.284   4.082
10171SOL    HW131412   0.449   2.331   4.165
10171SOL    HW231413   0.401   2.266   4.023
10172SOL     OW31414   0.399   6.701   4.631
10172SOL    HW131415   0.379   6.620   4.686
10172SOL    HW231416   0.325   6.767   4.642
10173SOL     OW31417   1.816   3.442   6.534
10173SOL    HW131418   1.908   3.405   6.547
10173SOL    HW231419   1.757   3.416   6.610
10174SOL     OW31420   4.769   4.656   3.534
10174SOL    HW131421   4.796   4.703   3.450
10174SOL    HW231422   4.679   4.614   3.521
10175SOL     OW31423   6.057   1.814   3.655
10175SOL    HW131424   6.141   1.791   3.704
10175SOL    HW231425   5.980   1.817   3.719
10176SOL     OW31426   6.476   2.655   5.397
10176SOL    HW131427   6.558   2.617   5.355
10176SOL    HW231428   6.396   2.601   5.370
10177SOL     OW31429   1.647   0.171   0.763
10177SOL    HW131430   1.560   0.146   0.806
10177SOL    HW231431   1.653   0.128   0.673
10178SOL     OW31432   1.144   0.755   0.344
10178SOL    HW131433   1.208   0.831   0.351
10178SOL    HW231434   1.079   0.759   0.420
10179SOL     OW31435   0.598   3.511   6.417
10179SOL    HW131436   0.597   3.411   6.415
10179SOL    HW231437   0.674   3.542   6.473
10180SOL     OW31438   4.645   0.458   1.069
10180SOL    HW131439   4.707   0.532   1.096
10180SOL    HW231440   4.698   0.377   1.045
10181SOL     OW31441   0.710   2.921   1.521
10181SOL    HW131442   0.614   2.949   1.531
10181SOL    HW231443   0.717   2.852   1.449
10182SOL     OW31444   4.845   1.432   0.080
10182SOL    HW131445   4.911   1.449   0.006
10182SOL    HW231446   4.827   1.517   0.129
10183SOL     OW31447   5.710   2.755   5.824
10183SOL    HW131448   5.793   2.706   5.853
10183SOL    HW231449   5.736   2.837   5.773
10184SOL     OW31450   4.916   2.729   0.007
10184SOL    HW131451   4.940   2.688   6.938
10184SOL    HW231452   4.964   2.817   0.017
10185SOL     OW31453   6.234   5.973   2.195
10185SOL    HW131454   6.167   5.914   2.238
10185SOL    HW231455   6.292   5.920   2.134
10186SOL     OW31456   4.912   3.581   4.752
10186SOL    HW131457   4.885   3.596   4.847
10186SOL    HW231458   4.946   3.488   4.741
10187SOL     OW31459   1.572   3.683   5.395
10187SOL    HW131460   1.634   3.613   5.359
10187SOL    HW231461   1.617   3.734   5.468
10188SOL     OW31462   2.517   5.033   6.559
10188SOL    HW131463   2.615   5.049   6.573
10188SOL    HW231464   2.490   4.947   6.604
10189SOL     OW31465   1.021   0.806   6.079
10189SOL    HW131466   0.965   0.844   6.153
10189SOL    HW231467   0.962   0.774   6.005
10190SOL     OW31468   4.234   3.187   1.836
10190SOL    HW131469   4.282   3.105   1.806
10190SOL    HW231470   4.160   3.162   1.898
10191SOL     OW31471   5.038   5.461   0.312
10191SOL    HW131472   5.074   5.519   0.238
10191SOL    HW231473   5.113   5.408   0.352
10192SOL     OW31474   3.164   1.704   5.223
10192SOL    HW131475   3.075   1.747   5.241
10192SOL    HW231476   3.215   1.697   5.308
10193SOL     OW31477   3.037   3.885   2.189
10193SOL    HW131478   3.044   3.923   2.281
10193SOL    HW231479   3.041   3.959   2.121
10194SOL     OW31480   4.662   0.678   4.295
10194SOL    HW131481   4.600   0.704   4.221
10194SOL    HW231482   4.756   0.683   4.263
10195SOL     OW31483   6.758   0.337   1.863
10195SOL    HW131484   6.846   0.289   1.874
10195SOL    HW231485   6.775   0.434   1.848
10196SOL     OW31486   5.003   2.041   3.588
10196SOL    HW131487   5.009   1.970   3.517
10196SOL    HW231488   5.064   2.018   3.664
10197SOL     OW31489   4.810   1.692   3.969
10197SOL    HW131490   4.727   1.639   3.948
10197SOL    HW231491   4.827   1.690   4.068
10198SOL     OW31492   3.986   6.613   0.574
10198SOL    HW131493   3.977   6.653   0.665
10198SOL    HW231494   4.083   6.605   0.550
10199SOL     OW31495   0.715   2.453   0.082
10199SOL    HW131496   0.801   2.445   0.031
10199SOL    HW231497   0.640   2.420   0.025
10200SOL     OW31498   5.282   3.490   5.596
10200SOL    HW131499   5.322   3.514   5.684
10200SOL    HW231500   5.335   3.532   5.522
10201SOL     OW31501   0.381   6.212   0.948
10201SOL    HW131502   0.308   6.149   0.973
10201SOL    HW231503   0.469   6.171   0.969
10202SOL     OW31504   1.029   4.507   0.130
10202SOL    HW131505   1.072   4.433   0.182
10202SOL    HW231506   1.094   4.583   0.121
10203SOL     OW31507   1.298   2.986   1.835
10203SOL    HW131508   1.272   2.893   1.811
10203SOL    HW231509   1.327   2.989   1.931
10204SOL     OW31510   3.175   5.593   6.182
10204SOL    HW131511   3.089   5.574   6.230
10204SOL    HW231512   3.163   5.580   6.084
10205SOL     OW31513   3.503   1.147   2.325
10205SOL    HW131514   3.450   1.200   2.259
10205SOL    HW231515   3.443   1.117   2.400
10206SOL     OW31516   5.036   6.936   6.160
10206SOL    HW131517   5.029   6.861   6.226
10206SOL    HW231518   5.056   0.002   6.208
10207SOL     OW31519   2.693   1.171   0.193
10207SOL    HW131520   2.675   1.251   0.135
10207SOL    HW231521   2.720   1.201   0.284
10208SOL     OW31522   6.534   4.681   3.700
10208SOL    HW131523   6.519   4.597   3.753
10208SOL    HW231524   6.455   4.697   3.641
10209SOL     OW31525   0.358   0.573   5.586
10209SOL    HW131526   0.329   0.531   5.500
10209SOL    HW231527   0.448   0.616   5.573
10210SOL     OW31528   5.130   0.052   2.031
10210SOL    HW131529   5.103   7.007   2.102
10210SOL    HW231530   5.048   0.082   1.981
10211SOL     OW31531   4.123   6.442   5.317
10211SOL    HW131532   4.144   6.435   5.220
10211SOL    HW231533   4.036   6.396   5.336
10212SOL     OW31534   0.138   0.720   4.615
10212SOL    HW131535   0.097   0.779   4.684
10212SOL    HW231536   0.147   0.770   4.529
10213SOL     OW31537   5.471   2.605   2.525
10213SOL    HW131538   5.492   2.686   2.469
10213SOL    HW231539   5.380   2.572   2.503
10214SOL     OW31540   1.175   2.059   2.398
10214SOL    HW131541   1.228   1.975   2.408
10214SOL    HW231542   1.202   2.106   2.315
10215SOL     OW31543   3.685   2.905   3.994
10215SOL    HW131544   3.588   2.905   4.020
10215SOL    HW231545   3.741   2.891   4.076
10216SOL     OW31546   0.657   0.247   0.901
10216SOL    HW131547   0.574   0.300   0.881
10216SOL    HW231548   0.715   0.245   0.819
10217SOL     OW31549   2.556   1.795   3.619
10217SOL    HW131550   2.484   1.728   3.636
10217SOL    HW231551   2.570   1.851   3.701
10218SOL     OW31552   1.774   0.608   1.936
10218SOL    HW131553   1.836   0.548   1.988
10218SOL    HW231554   1.764   0.573   1.843
10219SOL     OW31555   0.292   3.424   1.958
10219SOL    HW131556   0.266   3.327   1.960
10219SOL    HW231557   0.239   3.475   2.025
10220SOL     OW31558   4.286   1.637   1.657
10220SOL    HW131559   4.233   1.675   1.581
10220SOL    HW231560   4.356   1.702   1.686
10221SOL     OW31561   1.797   2.997   4.314
10221SOL    HW131562   1.847   3.082   4.327
10221SOL    HW231563   1.801   2.969   4.218
10222SOL     OW31564   2.430   3.447   6.314
10222SOL    HW131565   2.422   3.353   6.282
10222SOL    HW231566   2.429   3.509   6.235
10223SOL     OW31567   1.661   5.742   6.594
10223SOL    HW131568   1.656   5.841   6.581
10223SOL    HW231569   1.748   5.718   6.637
10224SOL     OW31570   0.091   1.771   5.051
10224SOL    HW131571   0.106   1.787   5.149
10224SOL    HW231572   0.077   1.673   5.035
10225SOL     OW31573   2.059   6.079   6.094
10225SOL    HW131574   2.076   5.982   6.108
10225SOL    HW231575   1.962   6.099   6.111
10226SOL     OW31576   2.476   0.016   6.582
10226SOL    HW131577   2.433   0.105   6.570
10226SOL    HW231578   2.434   6.988   6.660
10227SOL     OW31579   4.876   5.033   0.900
10227SOL    HW131580   4.841   4.946   0.937
10227SOL    HW231581   4.834   5.050   0.811
10228SOL     OW31582   0.879   5.611   2.120
10228SOL    HW131583   0.966   5.658   2.106
10228SOL    HW231584   0.826   5.613   2.036
10229SOL     OW31585   1.008   1.683   4.079
10229SOL    HW131586   1.048   1.732   4.001
10229SOL    HW231587   1.039   1.726   4.164
10230SOL     OW31588   6.089   6.202   3.072
10230SOL    HW131589   6.175   6.251   3.061
10230SOL    HW231590   6.091   6.150   3.157
10231SOL     OW31591   6.503   5.602   5.415
10231SOL    HW131592   6.578   5.546   5.379
10231SOL    HW231593   6.425   5.599   5.352
10232SOL     OW31594   2.888   0.602   4.636
10232SOL    HW131595   2.937   0.578   4.552
10232SOL    HW231596   2.908   0.534   4.707
10233SOL     OW31597   4.818   3.750   5.297
10233SOL    HW131598   4.838   3.806   5.217
10233SOL    HW231599   4.731   3.704   5.285
10234SOL     OW31600   5.162   1.345   0.434
10234SOL    HW131601   5.182   1.384   0.344
10234SOL    HW231602   5.065   1.317   0.437
10235SOL     OW31603   4.570   2.773   6.916
10235SOL    HW131604   4.631   2.852   6.904
10235SOL    HW231605   4.616   2.704   6.972
10236SOL     OW31606   2.419   0.114   2.031
10236SOL    HW131607   2.345   0.124   1.964
10236SOL    HW231608   2.389   0.149   2.119
10237SOL     OW31609   6.437   4.380   0.874
10237SOL    HW131610   6.352   4.372   0.926
10237SOL    HW231611   6.504   4.431   0.927
10238SOL     OW31612   3.164   3.894   3.679
10238SOL    HW131613   3.201   3.964   3.618
10238SOL    HW231614   3.141   3.934   3.767
10239SOL     OW31615   1.425   4.053   5.353
10239SOL    HW131616   1.491   3.999   5.406
10239SOL    HW231617   1.371   4.110   5.416
10240SOL     OW31618   2.046   4.731   3.641
10240SOL    HW131619   2.146   4.725   3.634
10240SOL    HW231620   2.018   4.826   3.631
10241SOL     OW31621   6.699   0.435   2.133
10241SOL    HW131622   6.642   0.499   2.081
10241SOL    HW231623   6.749   0.377   2.070
10242SOL     OW31624   6.878   0.930   7.006
10242SOL    HW131625   6.956   0.871   0.007
10242SOL    HW231626   6.796   0.874   6.993
10243SOL     OW31627   0.893   4.930   1.560
10243SOL    HW131628   0.961   4.992   1.521
10243SOL    HW231629   0.802   4.972   1.555
10244SOL     OW31630   0.850   4.370   0.470
10244SOL    HW131631   0.948   4.380   0.488
10244SOL    HW231632   0.834   4.372   0.371
10245SOL     OW31633   2.739   4.790   6.833
10245SOL    HW131634   2.770   4.867   6.777
10245SOL    HW231635   2.818   4.735   6.860
10246SOL     OW31636   3.084   4.034   3.896
10246SOL    HW131637   3.014   4.085   3.946
10246SOL    HW231638   3.116   3.958   3.954
10247SOL     OW31639   0.085   5.462   5.715
10247SOL    HW131640   0.152   5.431   5.648
10247SOL    HW231641   0.049   5.551   5.688
10248SOL     OW31642   3.444   6.858   2.152
10248SOL    HW131643   3.386   6.829   2.076
10248SOL    HW231644   3.448   6.785   2.220
10249SOL     OW31645   3.415   1.404   6.048
10249SOL    HW131646   3.418   1.307   6.024
10249SOL    HW231647   3.416   1.413   6.148
10250SOL     OW31648   6.764   2.830   1.092
10250SOL    HW131649   6.778   2.889   1.172
10250SOL    HW231650   6.682   2.775   1.105
10251SOL     OW31651   2.156   2.233   5.280
10251SOL    HW131652   2.158   2.277   5.190
10251SOL    HW231653   2.217   2.281   5.342
10252SOL     OW31654   5.115   5.286   6.965
10252SOL    HW131655   5.039   5.274   6.901
10252SOL    HW231656   5.180   5.211   6.953
10253SOL     OW31657   4.559   5.592   0.128
10253SOL    HW131658   4.483   5.559   0.072
10253SOL    HW231659   4.543   5.566   0.224
10254SOL     OW31660   4.851   1.926   5.344
10254SOL    HW131661   4.789   1.936   5.421
10254SOL    HW231662   4.802   1.884   5.267
10255SOL     OW31663   1.671   6.635   1.294
10255SOL    HW131664   1.753   6.590   1.327
10255SOL    HW231665   1.695   6.703   1.224
10256SOL     OW31666   5.888   0.496   1.635
10256SOL    HW131667   5.973   0.514   1.587
10256SOL    HW231668   5.886   0.400   1.665
10257SOL     OW31669   1.938   5.437   4.489
10257SOL    HW131670   1.962   5.402   4.579
10257SOL    HW231671   1.901   5.363   4.433
10258SOL     OW31672   4.018   0.950   4.647
10258SOL    HW131673   3.976   0.993   4.566
10258SOL    HW231674   4.098   0.897   4.619
10259SOL     OW31675   0.429   4.316   3.001
10259SOL    HW131676   0.525   4.291   3.004
10259SOL    HW231677   0.420   4.407   2.959
10260SOL     OW31678   0.805   0.500   3.425
10260SOL    HW131679   0.879   0.434   3.436
10260SOL    HW231680   0.779   0.537   3.514
10261SOL     OW31681   6.798   5.197   3.062
10261SOL    HW131682   6.720   5.258   3.073
10261SOL    HW231683   6.799   5.159   2.970
10262SOL     OW31684   2.342   6.599   4.660
10262SOL    HW131685   2.413   6.635   4.721
10262SOL    HW231686   2.384   6.563   4.577
10263SOL     OW31687   4.942   0.818   6.413
10263SOL    HW131688   4.900   0.731   6.387
10263SOL    HW231689   4.962   0.871   6.331
10264SOL     OW31690   5.758   2.576   6.144
10264SOL    HW131691   5.779   2.535   6.055
10264SOL    HW231692   5.659   2.584   6.156
10265SOL     OW31693   3.099   2.143   2.998
10265SOL    HW131694   3.005   2.124   3.029
10265SOL    HW231695   3.103   2.136   2.898
10266SOL     OW31696   2.899   3.203   5.043
10266SOL    HW131697   2.847   3.156   5.115
10266SOL    HW231698   2.945   3.135   4.986
10267SOL     OW31699   6.378   1.424   0.128
10267SOL    HW131700   6.472   1.419   0.161
10267SOL    HW231701   6.359   1.517   0.095
10268SOL     OW31702   5.176   4.971   1.647
10268SOL    HW131703   5.258   4.933   1.690
10268SOL    HW231704   5.108   4.991   1.717
10269SOL     OW31705   0.876   2.386   5.189
10269SOL    HW131706   0.806   2.320   5.217
10269SOL    HW231707   0.860   2.473   5.236
10270SOL     OW31708   3.058   5.097   3.468
10270SOL    HW131709   3.006   5.176   3.502
10270SOL    HW231710   3.021   5.013   3.508
10271SOL     OW31711   3.566   2.639   0.166
10271SOL    HW131712   3.660   2.607   0.171
10271SOL    HW231713   3.560   2.716   0.102
10272SOL     OW31714   0.428   7.015   5.221
10272SOL    HW131715   0.372   6.965   5.288
10272SOL    HW231716   0.476   6.949   5.163
10273SOL     OW31717   4.049   5.222   3.352
10273SOL    HW131718   4.086   5.252   3.264
10273SOL    HW231719   3.949   5.224   3.348
10274SOL     OW31720   0.408   4.607   4.413
10274SOL    HW131721   0.416   4.692   4.361
10274SOL    HW231722   0.327   4.556   4.381
10275SOL     OW31723   0.742   6.777   1.861
10275SOL    HW131724   0.663   6.776   1.799
10275SOL    HW231725   0.788   6.688   1.857
10276SOL     OW31726   5.913   5.920   5.545
10276SOL    HW131727   5.899   6.016   5.569
10276SOL    HW231728   5.960   5.873   5.620
10277SOL     OW31729   2.104   5.307   4.056
10277SOL    HW131730   2.053   5.221   4.056
10277SOL    HW231731   2.044   5.381   4.026
10278SOL     OW31732   6.681   1.213   4.521
10278SOL    HW131733   6.709   1.284   4.585
10278SOL    HW231734   6.708   1.239   4.428
10279SOL     OW31735   1.970   5.883   4.632
10279SOL    HW131736   1.895   5.914   4.689
10279SOL    HW231737   2.015   5.962   4.589
10280SOL     OW31738   1.140   4.122   1.296
10280SOL    HW131739   1.169   4.090   1.386
10280SOL    HW231740   1.064   4.186   1.306
10281SOL     OW31741   5.999   0.979   3.061
10281SOL    HW131742   5.909   0.936   3.053
10281SOL    HW231743   6.059   0.945   2.988
10282SOL     OW31744   6.686   4.370   4.322
10282SOL    HW131745   6.607   4.352   4.263
10282SOL    HW231746   6.721   4.462   4.304
10283SOL     OW31747   0.506   3.357   0.806
10283SOL    HW131748   0.419   3.309   0.798
10283SOL    HW231749   0.578   3.304   0.762
10284SOL     OW31750   5.395   3.699   5.046
10284SOL    HW131751   5.325   3.769   5.038
10284SOL    HW231752   5.453   3.699   4.964
10285SOL     OW31753   4.744   0.967   1.074
10285SOL    HW131754   4.778   0.982   1.167
10285SOL    HW231755   4.694   0.880   1.070
10286SOL     OW31756   2.935   1.756   4.211
10286SOL    HW131757   2.930   1.837   4.152
10286SOL    HW231758   2.856   1.697   4.193
10287SOL     OW31759   2.700   5.970   1.011
10287SOL    HW131760   2.664   5.946   1.101
10287SOL    HW231761   2.651   5.920   0.940
10288SOL     OW31762   5.248   5.814   2.195
10288SOL    HW131763   5.331   5.760   2.181
10288SOL    HW231764   5.247   5.850   2.289
10289SOL     OW31765   3.351   0.669   2.106
10289SOL    HW131766   3.324   0.755   2.147
10289SOL    HW231767   3.333   0.594   2.170
10290SOL     OW31768   3.083   4.013   1.913
10290SOL    HW131769   3.159   4.060   1.869
10290SOL    HW231770   3.002   4.020   1.855
10291SOL     OW31771   3.818   0.915   3.650
10291SOL    HW131772   3.847   0.973   3.727
10291SOL    HW231773   3.721   0.892   3.661
10292SOL     OW31774   1.943   0.507   4.762
10292SOL    HW131775   1.844   0.507   4.774
10292SOL    HW231776   1.970   0.592   4.715
10293SOL     OW31777   1.605   5.214   3.362
10293SOL    HW131778   1.582   5.145   3.431
10293SOL    HW231779   1.595   5.305   3.401
10294SOL     OW31780   5.181   3.832   2.662
10294SOL    HW131781   5.095   3.783   2.652
10294SOL    HW231782   5.244   3.777   2.717
10295SOL     OW31783   5.776   5.678   5.648
10295SOL    HW131784   5.807   5.749   5.585
10295SOL    HW231785   5.690   5.640   5.615
10296SOL     OW31786   4.720   3.163   0.136
10296SOL    HW131787   4.741   3.122   0.225
10296SOL    HW231788   4.628   3.202   0.138
10297SOL     OW31789   1.762   6.419   6.316
10297SOL    HW131790   1.708   6.462   6.244
10297SOL    HW231791   1.848   6.470   6.329
10298SOL     OW31792   3.571   4.983   1.748
10298SOL    HW131793   3.560   4.911   1.817
10298SOL    HW231794   3.669   5.000   1.733
10299SOL     OW31795   4.879   4.886   2.770
10299SOL    HW131796   4.779   4.890   2.774
10299SOL    HW231797   4.906   4.835   2.688
10300SOL     OW31798   1.679   4.860   3.162
10300SOL    HW131799   1.728   4.937   3.204
10300SOL    HW231800   1.721   4.839   3.074
10301SOL     OW31801   5.976   2.224   3.733
10301SOL    HW131802   6.052   2.173   3.693
10301SOL    HW231803   5.892   2.169   3.726
10302SOL     OW31804   0.661   5.651   3.662
10302SOL    HW131805   0.591   5.660   3.732
10302SOL    HW231806   0.671   5.555   3.636
10303SOL     OW31807   2.015   5.551   2.115
10303SOL    HW131808   1.928   5.529   2.160
10303SOL    HW231809   2.005   5.633   2.060
10304SOL     OW31810   5.140   0.835   2.910
10304SOL    HW131811   5.222   0.885   2.879
10304SOL    HW231812   5.126   0.755   2.852
10305SOL     OW31813   0.455   4.786   0.135
10305SOL    HW131814   0.470   4.885   0.138
10305SOL    HW231815   0.481   4.751   0.045
10306SOL     OW31816   4.243   6.906   6.897
10306SOL    HW131817   4.268   6.814   6.869
10306SOL    HW231818   4.246   6.967   6.818
10307SOL     OW31819   2.125   2.487   4.683
10307SOL    HW131820   2.059   2.474   4.757
10307SOL    HW231821   2.203   2.425   4.697
10308SOL     OW31822   2.562   5.273   4.368
10308SOL    HW131823   2.532   5.350   4.424
10308SOL    HW231824   2.607   5.307   4.285
10309SOL     OW31825   6.115   1.194   3.750
10309SOL    HW131826   6.152   1.280   3.786
10309SOL    HW231827   6.034   1.168   3.803
10310SOL     OW31828   4.268   2.741   1.704
10310SOL    HW131829   4.231   2.746   1.612
10310SOL    HW231830   4.321   2.824   1.724
10311SOL     OW31831   0.637   6.158   0.926
10311SOL    HW131832   0.732   6.129   0.939
10311SOL    HW231833   0.635   6.253   0.894
10312SOL     OW31834   2.395   6.349   1.178
10312SOL    HW131835   2.493   6.365   1.183
10312SOL    HW231836   2.346   6.434   1.198
10313SOL     OW31837   4.282   6.847   1.424
10313SOL    HW131838   4.186   6.874   1.416
10313SOL    HW231839   4.340   6.917   1.383
10314SOL     OW31840   0.202   0.316   2.341
10314SOL    HW131841   0.253   0.376   2.402
10314SOL    HW231842   0.148   0.371   2.276
10315SOL     OW31843   6.139   5.182   4.208
10315SOL    HW131844   6.081   5.163   4.287
10315SOL    HW231845   6.157   5.097   4.158
10316SOL     OW31846   6.716   2.423   4.723
10316SOL    HW131847   6.618   2.442   4.730
10316SOL    HW231848   6.731   2.325   4.732
10317SOL     OW31849   3.705   6.106   5.787
10317SOL    HW131850   3.738   6.055   5.707
10317SOL    HW231851   3.773   6.099   5.861
10318SOL     OW31852   4.936   6.249   6.987
10318SOL    HW131853   4.981   6.171   0.011
10318SOL    HW231854   4.919   6.229   6.891
10319SOL     OW31855   2.127   2.513   5.663
10319SOL    HW131856   2.138   2.532   5.761
10319SOL    HW231857   2.082   2.590   5.619
10320SOL     OW31858   0.894   0.548   1.507
10320SOL    HW131859   0.841   0.497   1.575
10320SOL    HW231860   0.850   0.637   1.491
10321SOL     OW31861   4.429   0.609   3.267
10321SOL    HW131862   4.427   0.703   3.234
10321SOL    HW231863   4.337   0.570   3.260
10322SOL     OW31864   6.256   6.067   6.291
10322SOL    HW131865   6.278   6.165   6.285
10322SOL    HW231866   6.169   6.055   6.337
10323SOL     OW31867   6.699   4.058   5.774
10323SOL    HW131868   6.707   4.073   5.873
10323SOL    HW231869   6.619   4.107   5.740
10324SOL     OW31870   3.014   3.257   3.171
10324SOL    HW131871   3.003   3.217   3.080
10324SOL    HW231872   3.037   3.185   3.236
10325SOL     OW31873   6.172   4.031   3.174
10325SOL    HW131874   6.235   4.000   3.245
10325SOL    HW231875   6.217   4.097   3.114
10326SOL     OW31876   4.031   3.110   6.932
10326SOL    HW131877   4.075   3.062   7.008
10326SOL    HW231878   3.957   3.053   6.896
10327SOL     OW31879   2.490   1.685   1.704
10327SOL    HW131880   2.541   1.762   1.741
10327SOL    HW231881   2.397   1.685   1.741
10328SOL     OW31882   6.159   3.512   1.367
10328SOL    HW131883   6.138   3.492   1.272
10328SOL    HW231884   6.143   3.430   1.423
10329SOL     OW31885   3.465   7.016   4.722
10329SOL    HW131886   3.484   0.021   4.627
10329SOL    HW231887   3.509   0.062   4.783
10330SOL     OW31888   3.678   5.137   2.365
10330SOL    HW131889   3.640   5.150   2.456
10330SOL    HW231890   3.634   5.058   2.321
10331SOL     OW31891   6.667   0.716   3.759
10331SOL    HW131892   6.745   0.659   3.785
10331SOL    HW231893   6.660   0.718   3.659
10332SOL     OW31894   5.976   1.633   0.172
10332SOL    HW131895   6.046   1.634   0.244
10332SOL    HW231896   5.939   1.726   0.161
10333SOL     OW31897   6.923   4.349   4.469
10333SOL    HW131898   6.937   4.251   4.480
10333SOL    HW231899   6.851   4.365   4.402
10334SOL     OW31900   2.112   5.646   4.044
10334SOL    HW131901   2.042   5.587   4.002
10334SOL    HW231902   2.067   5.719   4.096
10335SOL     OW31903   2.387   4.907   0.115
10335SOL    HW131904   2.384   4.859   0.203
10335SOL    HW231905   2.304   4.888   0.063
10336SOL     OW31906   5.852   6.420   3.208
10336SOL    HW131907   5.951   6.432   3.200
10336SOL    HW231908   5.812   6.501   3.253
10337SOL     OW31909   6.410   6.774   5.708
10337SOL    HW131910   6.473   6.833   5.759
10337SOL    HW231911   6.427   6.784   5.610
10338SOL     OW31912   3.000   6.256   1.966
10338SOL    HW131913   2.907   6.273   1.999
10338SOL    HW231914   3.011   6.159   1.945
10339SOL     OW31915   3.435   5.656   0.705
10339SOL    HW131916   3.484   5.617   0.627
10339SOL    HW231917   3.497   5.715   0.757
10340SOL     OW31918   1.671   5.542   0.394
10340SOL    HW131919   1.617   5.591   0.462
10340SOL    HW231920   1.679   5.446   0.421
10341SOL     OW31921   2.180   3.250   1.733
10341SOL    HW131922   2.252   3.301   1.779
10341SOL    HW231923   2.146   3.178   1.794
10342SOL     OW31924   2.198   6.092   5.625
10342SOL    HW131925   2.220   6.103   5.722
10342SOL    HW231926   2.150   6.005   5.612
10343SOL     OW31927   1.857   4.066   0.188
10343SOL    HW131928   1.863   4.165   0.203
10343SOL    HW231929   1.861   4.018   0.275
10344SOL     OW31930   4.114   3.527   2.016
10344SOL    HW131931   4.159   3.502   2.102
10344SOL    HW231932   4.130   3.624   1.997
10345SOL     OW31933   1.713   0.498   6.153
10345SOL    HW131934   1.680   0.463   6.065
10345SOL    HW231935   1.635   0.527   6.208
10346SOL     OW31936   6.260   0.964   1.194
10346SOL    HW131937   6.162   0.947   1.181
10346SOL    HW231938   6.299   0.999   1.109
10347SOL     OW31939   5.364   2.360   2.280
10347SOL    HW131940   5.370   2.260   2.282
10347SOL    HW231941   5.282   2.389   2.329
10348SOL     OW31942   6.641   1.520   6.558
10348SOL    HW131943   6.659   1.525   6.656
10348SOL    HW231944   6.545   1.499   6.543
10349SOL     OW31945   6.890   1.656   0.037
10349SOL    HW131946   6.930   1.627   0.125
10349SOL    HW231947   6.946   1.622   6.981
10350SOL     OW31948   2.877   6.707   4.793
10350SOL    HW131949   2.962   6.668   4.830
10350SOL    HW231950   2.865   6.799   4.830
10351SOL     OW31951   5.602   5.459   6.092
10351SOL    HW131952   5.680   5.521   6.101
10351SOL    HW231953   5.517   5.511   6.100
10352SOL     OW31954   5.436   1.531   6.330
10352SOL    HW131955   5.477   1.446   6.363
10352SOL    HW231956   5.483   1.609   6.370
10353SOL     OW31957   6.894   2.825   4.603
10353SOL    HW131958   6.813   2.846   4.658
10353SOL    HW231959   6.917   2.905   4.547
10354SOL     OW31960   0.508   2.112   1.809
10354SOL    HW131961   0.556   2.042   1.864
10354SOL    HW231962   0.540   2.107   1.715
10355SOL     OW31963   1.024   0.516   0.870
10355SOL    HW131964   0.960   0.461   0.924
10355SOL    HW231965   1.116   0.478   0.879
10356SOL     OW31966   6.992   3.999   5.617
10356SOL    HW131967   6.930   3.922   5.634
10356SOL    HW231968   0.057   3.986   5.669
10357SOL     OW31969   4.184   2.791   6.422
10357SOL    HW131970   4.197   2.725   6.348
10357SOL    HW231971   4.089   2.821   6.424
10358SOL     OW31972   0.561   2.752   3.866
10358SOL    HW131973   0.478   2.701   3.845
10358SOL    HW231974   0.631   2.689   3.899
10359SOL     OW31975   5.235   1.917   1.691
10359SOL    HW131976   5.194   1.937   1.780
10359SOL    HW231977   5.165   1.925   1.620
10360SOL     OW31978   5.123   5.723   1.980
10360SOL    HW131979   5.141   5.757   2.073
10360SOL    HW231980   5.166   5.783   1.913
10361SOL     OW31981   2.424   0.990   2.806
10361SOL    HW131982   2.447   0.893   2.805
10361SOL    HW231983   2.432   1.028   2.714
10362SOL     OW31984   0.680   4.660   3.017
10362SOL    HW131985   0.685   4.641   3.116
10362SOL    HW231986   0.629   4.745   3.002
10363SOL     OW31987   5.293   2.556   1.411
10363SOL    HW131988   5.206   2.579   1.368
10363SOL    HW231989   5.287   2.466   1.453
10364SOL     OW31990   4.486   4.023   1.384
10364SOL    HW131991   4.545   4.037   1.305
10364SOL    HW231992   4.408   4.085   1.379
10365SOL     OW31993   5.955   4.152   6.599
10365SOL    HW131994   5.974   4.065   6.644
10365SOL    HW231995   5.859   4.176   6.612
10366SOL     OW31996   3.315   6.446   3.765
10366SOL    HW131997   3.305   6.543   3.786
10366SOL    HW231998   3.346   6.435   3.671
10367SOL     OW31999   0.062   1.692   1.673
10367SOL    HW132000   0.044   1.665   1.768
10367SOL    HW232001   7.018   1.766   1.647
10368SOL     OW32002   1.758   1.465   2.147
10368SOL    HW132003   1.805   1.401   2.208
10368SOL    HW232004   1.672   1.424   2.116
10369SOL     OW32005   2.984   6.766   6.132
10369SOL    HW132006   2.900   6.804   6.171
10369SOL    HW232007   3.009   6.682   6.180
10370SOL     OW32008   6.847   1.171   5.244
10370SOL    HW132009   6.824   1.192   5.149
10370SOL    HW232010   6.892   1.250   5.286
10371SOL     OW32011   2.088   6.545   4.679
10371SOL    HW132012   2.183   6.562   4.654
10371SOL    HW232013   2.055   6.465   4.629
10372SOL     OW32014   2.342   1.287   0.332
10372SOL    HW132015   2.398   1.345   0.391
10372SOL    HW232016   2.400   1.223   0.282
10373SOL     OW32017   1.035   6.822   4.976
10373SOL    HW132018   1.133   6.829   4.956
10373SOL    HW232019   0.983   6.831   4.890
10374SOL     OW32020   3.545   0.283   3.641
10374SOL    HW132021   3.478   0.209   3.648
10374SOL    HW232022   3.609   0.263   3.568
10375SOL     OW32023   2.501   2.555   6.265
10375SOL    HW132024   2.544   2.561   6.175
10375SOL    HW232025   2.486   2.647   6.302
10376SOL     OW32026   1.072   6.021   4.361
10376SOL    HW132027   1.169   6.000   4.378
10376SOL    HW232028   1.035   6.071   4.439
10377SOL     OW32029   0.250   0.824   2.023
10377SOL    HW132030   0.229   0.763   2.100
10377SOL    HW232031   0.307   0.775   1.957
10378SOL     OW32032   6.088   5.866   5.326
10378SOL    HW132033   6.152   5.943   5.322
10378SOL    HW232034   6.027   5.877   5.405
10379SOL     OW32035   3.381   5.800   4.678
10379SOL    HW132036   3.473   5.837   4.683
10379SOL    HW232037   3.320   5.854   4.735
10380SOL     OW32038   1.046   2.957   4.589
10380SOL    HW132039   0.953   2.956   4.626
10380SOL    HW232040   1.112   2.949   4.664
10381SOL     OW32041   4.443   3.929   0.906
10381SOL    HW132042   4.515   3.864   0.931
10381SOL    HW232043   4.395   3.895   0.826
10382SOL     OW32044   2.733   5.199   1.424
10382SOL    HW132045   2.664   5.141   1.466
10382SOL    HW232046   2.780   5.148   1.352
10383SOL     OW32047   1.103   4.103   0.706
10383SOL    HW132048   1.164   4.030   0.736
10383SOL    HW232049   1.096   4.101   0.606
10384SOL     OW32050   6.960   6.820   0.920
10384SOL    HW132051   6.865   6.804   0.948
10384SOL    HW232052   6.979   6.918   0.919
10385SOL     OW32053   3.773   5.917   6.434
10385SOL    HW132054   3.838   5.980   6.392
10385SOL    HW232055   3.704   5.889   6.366
10386SOL     OW32056   0.238   1.228   5.766
10386SOL    HW132057   0.216   1.138   5.728
10386SOL    HW232058   0.203   1.234   5.860
10387SOL     OW32059   4.509   2.564   3.241
10387SOL    HW132060   4.564   2.589   3.162
10387SOL    HW232061   4.445   2.491   3.217
10388SOL     OW32062   1.916   5.962   1.824
10388SOL    HW132063   1.974   6.004   1.893
10388SOL    HW232064   1.841   5.913   1.870
10389SOL     OW32065   6.629   4.874   0.921
10389SOL    HW132066   6.556   4.806   0.915
10389SOL    HW232067   6.713   4.831   0.953
10390SOL     OW32068   2.334   3.800   0.376
10390SOL    HW132069   2.300   3.860   0.303
10390SOL    HW232070   2.389   3.854   0.440
10391SOL     OW32071   7.010   6.103   3.886
10391SOL    HW132072   6.922   6.151   3.893
10391SOL    HW232073   6.995   6.005   3.884
10392SOL     OW32074   6.208   4.557   5.846
10392SOL    HW132075   6.139   4.548   5.918
10392SOL    HW232076   6.201   4.480   5.783
10393SOL     OW32077   2.439   2.676   3.113
10393SOL    HW132078   2.494   2.598   3.142
10393SOL    HW232079   2.434   2.679   3.014
10394SOL     OW32080   2.210   5.296   5.723
10394SOL    HW132081   2.221   5.371   5.658
10394SOL    HW232082   2.145   5.229   5.686
10395SOL     OW32083   0.874   0.924   1.815
10395SOL    HW132084   0.861   0.999   1.750
10395SOL    HW232085   0.946   0.863   1.782
10396SOL     OW32086   3.739   1.319   4.152
10396SOL    HW132087   3.669   1.254   4.122
10396SOL    HW232088   3.704   1.372   4.229
10397SOL     OW32089   3.359   1.168   4.675
10397SOL    HW132090   3.330   1.074   4.690
10397SOL    HW232091   3.356   1.218   4.762
10398SOL     OW32092   6.141   2.104   0.816
10398SOL    HW132093   6.081   2.029   0.790
10398SOL    HW232094   6.109   2.189   0.774
10399SOL     OW32095   5.064   1.761   3.627
10399SOL    HW132096   5.049   1.778   3.529
10399SOL    HW232097   5.010   1.683   3.656
10400SOL     OW32098   4.337   5.674   6.957
10400SOL    HW132099   4.279   5.748   6.992
10400SOL    HW232100   4.295   5.586   6.979
10401SOL     OW32101   0.269   6.529   2.259
10401SOL    HW132102   0.306   6.477   2.182
10401SOL    HW232103   0.170   6.517   2.262
10402SOL     OW32104   0.253   1.554   5.909
10402SOL    HW132105   0.303   1.597   5.834
10402SOL    HW232106   0.160   1.533   5.880
10403SOL     OW32107   4.336   2.346   3.193
10403SOL    HW132108   4.300   2.322   3.103
10403SOL    HW232109   4.418   2.291   3.211
10404SOL     OW32110   6.361   5.895   4.203
10404SOL    HW132111   6.337   5.894   4.300
10404SOL    HW232112   6.314   5.819   4.157
10405SOL     OW32113   1.136   6.077   4.674
10405SOL    HW132114   1.209   6.077   4.743
10405SOL    HW232115   1.154   6.149   4.607
10406SOL     OW32116   1.814   3.288   4.595
10406SOL    HW132117   1.875   3.344   4.651
10406SOL    HW232118   1.809   3.196   4.634
10407SOL     OW32119   2.703   6.816   6.189
10407SOL    HW132120   2.645   6.860   6.258
10407SOL    HW232121   2.707   6.717   6.208
10408SOL     OW32122   4.659   0.022   1.409
10408SOL    HW132123   4.564   0.017   1.378
10408SOL    HW232124   4.687   0.118   1.414
10409SOL     OW32125   6.729   4.802   1.253
10409SOL    HW132126   6.632   4.778   1.262
10409SOL    HW232127   6.777   4.729   1.204
10410SOL     OW32128   4.889   2.032   1.757
10410SOL    HW132129   4.960   1.986   1.810
10410SOL    HW232130   4.838   2.096   1.815
10411SOL     OW32131   2.746   6.313   3.592
10411SOL    HW132132   2.842   6.341   3.595
10411SOL    HW232133   2.709   6.330   3.501
10412SOL     OW32134   0.535   1.274   1.017
10412SOL    HW132135   0.540   1.341   0.943
10412SOL    HW232136   0.553   1.320   1.104
10413SOL     OW32137   6.362   2.849   1.472
10413SOL    HW132138   6.455   2.823   1.446
10413SOL    HW232139   6.333   2.928   1.418
10414SOL     OW32140   3.476   4.854   5.813
10414SOL    HW132141   3.444   4.823   5.903
10414SOL    HW232142   3.421   4.811   5.742
10415SOL     OW32143   1.785   4.177   3.945
10415SOL    HW132144   1.869   4.128   3.968
10415SOL    HW232145   1.709   4.142   3.999
10416SOL     OW32146   6.054   0.178   4.978
10416SOL    HW132147   6.096   0.161   5.067
10416SOL    HW232148   6.102   0.253   4.932
10417SOL     OW32149   3.601   4.894   3.741
10417SOL    HW132150   3.638   4.983   3.714
10417SOL    HW232151   3.668   4.822   3.722
10418SOL     OW32152   6.643   4.457   5.798
10418SOL    HW132153   6.725   4.405   5.822
10418SOL    HW232154   6.650   4.489   5.704
10419SOL     OW32155   3.191   6.788   6.619
10419SOL    HW132156   3.221   6.738   6.537
10419SOL    HW232157   3.192   6.886   6.600
10420SOL     OW32158   0.416   3.560   4.026
10420SOL    HW132159   0.434   3.593   4.118
10420SOL    HW232160   0.457   3.622   3.959
10421SOL     OW32161   1.124   3.170   3.961
10421SOL    HW132162   1.054   3.210   4.020
10421SOL    HW232163   1.195   3.127   4.018
10422SOL     OW32164   6.115   3.316   4.835
10422SOL    HW132165   6.056   3.383   4.789
10422SOL    HW232166   6.070   3.227   4.836
10423SOL     OW32167   5.828   5.216   6.230
10423SOL    HW132168   5.741   5.167   6.229
10423SOL    HW232169   5.828   5.287   6.160
10424SOL     OW32170   4.226   3.200   0.808
10424SOL    HW132171   4.323   3.214   0.826
10424SOL    HW232172   4.193   3.273   0.748
10425SOL     OW32173   1.287   6.383   2.442
10425SOL    HW132174   1.321   6.446   2.372
10425SOL    HW232175   1.191   6.363   2.425
10426SOL     OW32176   5.432   4.664   0.337
10426SOL    HW132177   5.397   4.746   0.293
10426SOL    HW232178   5.400   4.660   0.432
10427SOL     OW32179   3.822   1.144   0.191
10427SOL    HW132180   3.794   1.055   0.157
10427SOL    HW232181   3.765   1.215   0.151
10428SOL     OW32182   3.406   0.954   3.891
10428SOL    HW132183   3.338   0.885   3.914
10428SOL    HW232184   3.441   0.938   3.799
10429SOL     OW32185   6.991   3.964   2.090
10429SOL    HW132186   6.918   4.032   2.082
10429SOL    HW232187   0.031   3.988   2.167
10430SOL     OW32188   5.163   0.193   4.837
10430SOL    HW132189   5.155   0.141   4.752
10430SOL    HW232190   5.243   0.162   4.888
10431SOL     OW32191   2.557   5.920   4.387
10431SOL    HW132192   2.466   5.907   4.427
10431SOL    HW232193   2.548   5.967   4.299
10432SOL     OW32194   6.204   0.440   4.243
10432SOL    HW132195   6.171   0.534   4.255
10432SOL    HW232196   6.228   0.402   4.332
10433SOL     OW32197   1.138   5.915   2.275
10433SOL    HW132198   1.153   5.817   2.262
10433SOL    HW232199   1.043   5.931   2.304
10434SOL     OW32200   3.867   5.896   2.816
10434SOL    HW132201   3.813   5.894   2.732
10434SOL    HW232202   3.877   5.991   2.846
10435SOL     OW32203   0.772   1.542   5.686
10435SOL    HW132204   0.702   1.534   5.757
10435SOL    HW232205   0.784   1.454   5.640
10436SOL     OW32206   6.271   4.711   5.412
10436SOL    HW132207   6.299   4.671   5.325
10436SOL    HW232208   6.235   4.803   5.396
10437SOL     OW32209   4.389   4.175   6.053
10437SOL    HW132210   4.457   4.200   5.984
10437SOL    HW232211   4.418   4.208   6.143
10438SOL     OW32212   6.916   6.224   6.867
10438SOL    HW132213   6.888   6.274   6.949
10438SOL    HW232214   6.959   6.138   6.893
10439SOL     OW32215   4.330   1.457   4.582
10439SOL    HW132216   4.420   1.498   4.564
10439SOL    HW232217   4.310   1.462   4.680
10440SOL     OW32218   0.298   6.739   0.512
10440SOL    HW132219   0.359   6.665   0.485
10440SOL    HW232220   0.351   6.812   0.555
10441SOL     OW32221   4.370   1.225   1.332
10441SOL    HW132222   4.283   1.185   1.360
10441SOL    HW232223   4.357   1.282   1.251
10442SOL     OW32224   4.009   6.510   6.576
10442SOL    HW132225   3.988   6.568   6.654
10442SOL    HW232226   4.108   6.509   6.560
10443SOL     OW32227   4.875   3.302   3.748
10443SOL    HW132228   4.871   3.247   3.665
10443SOL    HW232229   4.857   3.244   3.827
10444SOL     OW32230   4.512   5.887   3.395
10444SOL    HW132231   4.604   5.872   3.431
10444SOL    HW232232   4.480   5.978   3.422
10445SOL     OW32233   0.737   4.231   4.369
10445SOL    HW132234   0.663   4.299   4.369
10445SOL    HW232235   0.818   4.270   4.326
10446SOL     OW32236   2.111   2.983   5.560
10446SOL    HW132237   2.051   3.034   5.499
10446SOL    HW232238   2.094   2.885   5.549
10447SOL     OW32239   0.321   0.936   2.571
10447SOL    HW132240   0.250   1.006   2.563
10447SOL    HW232241   0.341   0.920   2.667
10448SOL     OW32242   4.608   0.681   2.404
10448SOL    HW132243   4.616   0.776   2.433
10448SOL    HW232244   4.600   0.678   2.304
10449SOL     OW32245   1.663   5.250   5.226
10449SOL    HW132246   1.623   5.336   5.195
10449SOL    HW232247   1.761   5.263   5.243
10450SOL     OW32248   0.731   1.118   0.936
10450SOL    HW132249   0.736   1.056   1.014
10450SOL    HW232250   0.657   1.184   0.950
10451SOL     OW32251   2.530   5.464   2.761
10451SOL    HW132252   2.489   5.535   2.704
10451SOL    HW232253   2.590   5.507   2.829
10452SOL     OW32254   6.683   3.272   2.021
10452SOL    HW132255   6.708   3.176   2.030
10452SOL    HW232256   6.588   3.285   2.051
10453SOL     OW32257   4.732   6.809   1.278
10453SOL    HW132258   4.713   6.906   1.292
10453SOL    HW232259   4.708   6.759   1.362
10454SOL     OW32260   5.062   3.301   0.385
10454SOL    HW132261   5.114   3.291   0.300
10454SOL    HW232262   4.969   3.331   0.364
10455SOL     OW32263   6.284   6.346   3.564
10455SOL    HW132264   6.324   6.408   3.632
10455SOL    HW232265   6.342   6.265   3.555
10456SOL     OW32266   1.844   5.699   0.295
10456SOL    HW132267   1.792   5.773   0.252
10456SOL    HW232268   1.781   5.637   0.341
10457SOL     OW32269   3.613   2.985   1.497
10457SOL    HW132270   3.698   2.937   1.473
10457SOL    HW232271   3.548   2.919   1.537
10458SOL     OW32272   6.371   0.522   6.648
10458SOL    HW132273   6.416   0.435   6.626
10458SOL    HW232274   6.292   0.535   6.588
10459SOL     OW32275   4.612   6.044   1.789
10459SOL    HW132276   4.572   5.955   1.811
10459SOL    HW232277   4.704   6.032   1.750
10460SOL     OW32278   0.735   4.194   2.229
10460SOL    HW132279   0.763   4.183   2.134
10460SOL    HW232280   0.789   4.133   2.288
10461SOL     OW32281   6.601   5.110   5.901
10461SOL    HW132282   6.528   5.178   5.903
10461SOL    HW232283   6.581   5.042   5.830
10462SOL     OW32284   5.488   1.313   3.647
10462SOL    HW132285   5.402   1.285   3.607
10462SOL    HW232286   5.474   1.337   3.744
10463SOL     OW32287   4.715   3.393   6.279
10463SOL    HW132288   4.617   3.397   6.258
10463SOL    HW232289   4.765   3.357   6.200
10464SOL     OW32290   6.505   6.728   1.522
10464SOL    HW132291   6.466   6.820   1.534
10464SOL    HW232292   6.600   6.729   1.554
10465SOL     OW32293   6.082   5.826   0.685
10465SOL    HW132294   6.048   5.904   0.634
10465SOL    HW232295   6.058   5.741   0.637
10466SOL     OW32296   4.668   5.137   5.823
10466SOL    HW132297   4.605   5.071   5.864
10466SOL    HW232298   4.616   5.206   5.772
10467SOL     OW32299   2.995   0.870   6.919
10467SOL    HW132300   2.953   0.845   6.831
10467SOL    HW232301   3.066   0.939   6.903
10468SOL     OW32302   3.762   5.217   3.274
10468SOL    HW132303   3.764   5.154   3.197
10468SOL    HW232304   3.670   5.218   3.314
10469SOL     OW32305   4.096   4.254   5.522
10469SOL    HW132306   4.072   4.159   5.538
10469SOL    HW232307   4.119   4.267   5.426
10470SOL     OW32308   2.313   2.866   3.613
10470SOL    HW132309   2.226   2.908   3.586
10470SOL    HW232310   2.365   2.930   3.669
10471SOL     OW32311   2.995   1.386   0.752
10471SOL    HW132312   3.055   1.442   0.694
10471SOL    HW232313   2.908   1.434   0.766
10472SOL     OW32314   4.010   5.565   0.515
10472SOL    HW132315   4.028   5.469   0.539
10472SOL    HW232316   3.912   5.583   0.520
10473SOL     OW32317   6.948   6.925   6.665
10473SOL    HW132318   6.889   6.941   6.744
10473SOL    HW232319   6.900   6.949   6.581
10474SOL     OW32320   3.392   1.965   4.630
10474SOL    HW132321   3.361   2.019   4.708
10474SOL    HW232322   3.346   1.997   4.547
10475SOL     OW32323   4.767   6.521   1.236
10475SOL    HW132324   4.745   6.491   1.329
10475SOL    HW232325   4.734   6.615   1.223
10476SOL     OW32326   6.972   6.000   7.009
10476SOL    HW132327   0.043   5.964   0.013
10476SOL    HW232328   6.905   5.968   0.057
10477SOL     OW32329   0.442   1.458   4.875
10477SOL    HW132330   0.410   1.448   4.970
10477SOL    HW232331   0.496   1.378   4.850
10478SOL     OW32332   6.999   0.588   1.191
10478SOL    HW132333   0.001   0.503   1.143
10478SOL    HW232334   6.902   0.589   1.216
10479SOL     OW32335   0.098   2.121   2.473
10479SOL    HW132336   0.077   2.126   2.571
10479SOL    HW232337   0.169   2.187   2.451
10480SOL     OW32338   6.346   0.128   1.985
10480SOL    HW132339   6.313   0.046   1.938
10480SOL    HW232340   6.390   0.103   2.071
10481SOL     OW32341   2.846   6.911   4.360
10481SOL    HW132342   2.883   6.919   4.453
10481SOL    HW232343   2.913   6.947   4.295
10482SOL     OW32344   6.369   4.916   4.492
10482SOL    HW132345   6.272   4.935   4.471
10482SOL    HW232346   6.392   4.956   4.581
10483SOL     OW32347   6.608   4.944   0.155
10483SOL    HW132348   6.607   4.848   0.184
10483SOL    HW232349   6.518   4.985   0.171
10484SOL     OW32350   5.899   1.177   2.089
10484SOL    HW132351   5.800   1.183   2.083
10484SOL    HW232352   5.936   1.265   2.118
10485SOL     OW32353   3.033   3.708   0.913
10485SOL    HW132354   2.975   3.789   0.926
10485SOL    HW232355   3.129   3.735   0.913
10486SOL     OW32356   6.928   1.139   0.152
10486SOL    HW132357   6.895   1.060   0.100
10486SOL    HW232358   6.878   1.221   0.122
10487SOL     OW32359   4.617   1.903   2.087
10487SOL    HW132360   4.603   1.978   2.022
10487SOL    HW232361   4.547   1.833   2.073
10488SOL     OW32362   2.951   1.986   5.688
10488SOL    HW132363   2.885   2.062   5.694
10488SOL    HW232364   2.951   1.935   5.774
10489SOL     OW32365   0.120   0.454   4.656
10489SOL    HW132366   0.128   0.552   4.638
10489SOL    HW232367   0.200   0.422   4.707
10490SOL     OW32368   5.849   2.048   0.811
10490SOL    HW132369   5.788   2.035   0.889
10490SOL    HW232370   5.802   2.023   0.727
10491SOL     OW32371   2.464   2.053   5.813
10491SOL    HW132372   2.462   2.098   5.902
10491SOL    HW232373   2.381   2.076   5.762
10492SOL     OW32374   5.669   5.517   0.729
10492SOL    HW132375   5.722   5.432   0.718
10492SOL    HW232376   5.654   5.559   0.640
10493SOL     OW32377   3.093   6.940   2.058
10493SOL    HW132378   3.132   6.875   1.992
10493SOL    HW232379   3.123   0.013   2.036
10494SOL     OW32380   5.630   4.503   5.798
10494SOL    HW132381   5.729   4.511   5.793
10494SOL    HW232382   5.589   4.529   5.710
10495SOL     OW32383   0.965   6.251   1.119
10495SOL    HW132384   0.909   6.333   1.132
10495SOL    HW232385   1.017   6.260   1.034
10496SOL     OW32386   6.133   3.442   6.148
10496SOL    HW132387   6.179   3.511   6.204
10496SOL    HW232388   6.060   3.400   6.201
10497SOL     OW32389   2.212   6.807   1.919
10497SOL    HW132390   2.129   6.838   1.964
10497SOL    HW232391   2.192   6.726   1.863
10498SOL     OW32392   4.587   5.502   0.406
10498SOL    HW132393   4.607   5.455   0.493
10498SOL    HW232394   4.532   5.583   0.424
10499SOL     OW32395   4.526   0.182   2.140
10499SOL    HW132396   4.502   0.096   2.184
10499SOL    HW232397   4.593   0.165   2.068
10500SOL     OW32398   6.102   1.453   6.082
10500SOL    HW132399   6.183   1.508   6.106
10500SOL    HW232400   6.062   1.416   6.166
10501SOL     OW32401   2.023   5.275   2.303
10501SOL    HW132402   1.952   5.345   2.303
10501SOL    HW232403   2.051   5.257   2.209
10502SOL     OW32404   2.469   1.972   2.029
10502SOL    HW132405   2.517   2.047   2.075
10502SOL    HW232406   2.454   1.897   2.093
10503SOL     OW32407   4.935   2.942   1.165
10503SOL    HW132408   4.917   2.895   1.079
10503SOL    HW232409   4.873   2.908   1.236
10504SOL     OW32410   1.343   2.753   5.714
10504SOL    HW132411   1.307   2.694   5.641
10504SOL    HW232412   1.274   2.761   5.786
10505SOL     OW32413   5.522   5.125   0.851
10505SOL    HW132414   5.601   5.186   0.854
10505SOL    HW232415   5.471   5.133   0.936
10506SOL     OW32416   0.381   3.547   0.345
10506SOL    HW132417   0.448   3.565   0.273
10506SOL    HW232418   0.410   3.468   0.398
10507SOL     OW32419   1.581   6.477   0.855
10507SOL    HW132420   1.667   6.426   0.853
10507SOL    HW232421   1.600   6.575   0.867
10508SOL     OW32422   6.741   5.620   4.718
10508SOL    HW132423   6.708   5.527   4.737
10508SOL    HW232424   6.827   5.636   4.767
10509SOL     OW32425   6.966   5.684   5.613
10509SOL    HW132426   6.962   5.675   5.514
10509SOL    HW232427   6.910   5.763   5.641
10510SOL     OW32428   4.901   6.176   6.714
10510SOL    HW132429   4.926   6.253   6.654
10510SOL    HW232430   4.802   6.162   6.711
10511SOL     OW32431   2.754   1.227   1.931
10511SOL    HW132432   2.681   1.282   1.890
10511SOL    HW232433   2.715   1.141   1.965
10512SOL     OW32434   4.650   0.467   5.521
10512SOL    HW132435   4.621   0.486   5.614
10512SOL    HW232436   4.750   0.476   5.514
10513SOL     OW32437   6.404   2.597   3.748
10513SOL    HW132438   6.459   2.514   3.744
10513SOL    HW232439   6.328   2.584   3.810
10514SOL     OW32440   0.755   3.257   1.342
10514SOL    HW132441   0.700   3.211   1.412
10514SOL    HW232442   0.694   3.289   1.269
10515SOL     OW32443   0.729   3.279   3.853
10515SOL    HW132444   0.777   3.306   3.936
10515SOL    HW232445   0.760   3.189   3.823
10516SOL     OW32446   3.688   2.002   0.455
10516SOL    HW132447   3.659   2.082   0.507
10516SOL    HW232448   3.771   1.964   0.494
10517SOL     OW32449   0.649   3.010   1.088
10517SOL    HW132450   0.654   3.018   1.188
10517SOL    HW232451   0.570   3.061   1.055
10518SOL     OW32452   6.854   5.682   0.575
10518SOL    HW132453   6.949   5.667   0.549
10518SOL    HW232454   6.843   5.774   0.613
10519SOL     OW32455   3.096   3.434   0.750
10519SOL    HW132456   3.086   3.529   0.780
10519SOL    HW232457   3.013   3.404   0.703
10520SOL     OW32458   0.763   2.390   6.366
10520SOL    HW132459   0.831   2.452   6.328
10520SOL    HW232460   0.798   2.296   6.360
10521SOL     OW32461   6.499   5.558   1.735
10521SOL    HW132462   6.443   5.479   1.758
10521SOL    HW232463   6.541   5.594   1.818
10522SOL     OW32464   0.421   0.837   4.489
10522SOL    HW132465   0.447   0.881   4.576
10522SOL    HW232466   0.447   0.741   4.491
10523SOL     OW32467   0.764   4.397   2.950
10523SOL    HW132468   0.732   4.490   2.966
10523SOL    HW232469   0.863   4.397   2.940
10524SOL     OW32470   0.745   6.450   3.789
10524SOL    HW132471   0.692   6.406   3.862
10524SOL    HW232472   0.774   6.541   3.819
10525SOL     OW32473   4.231   0.451   5.570
10525SOL    HW132474   4.281   0.388   5.511
10525SOL    HW232475   4.251   0.429   5.666
10526SOL     OW32476   1.221   6.369   3.104
10526SOL    HW132477   1.299   6.323   3.061
10526SOL    HW232478   1.171   6.422   3.036
10527SOL     OW32479   1.009   1.017   5.494
10527SOL    HW132480   1.028   0.920   5.513
10527SOL    HW232481   0.911   1.029   5.479
10528SOL     OW32482   1.532   3.471   6.041
10528SOL    HW132483   1.521   3.503   6.135
10528SOL    HW232484   1.442   3.467   5.997
10529SOL     OW32485   2.982   6.449   4.238
10529SOL    HW132486   2.911   6.516   4.258
10529SOL    HW232487   3.019   6.412   4.323
10530SOL     OW32488   1.074   0.424   6.618
10530SOL    HW132489   1.027   0.428   6.530
10530SOL    HW232490   1.010   0.451   6.690
10531SOL     OW32491   1.511   2.532   4.151
10531SOL    HW132492   1.523   2.433   4.162
10531SOL    HW232493   1.491   2.552   4.055
10532SOL     OW32494   1.004   0.076   6.120
10532SOL    HW132495   0.930   0.143   6.129
10532SOL    HW232496   1.024   0.061   6.023
10533SOL     OW32497   2.899   6.706   3.157
10533SOL    HW132498   2.939   6.652   3.083
10533SOL    HW232499   2.897   6.652   3.241
10534SOL     OW32500   6.362   5.525   2.219
10534SOL    HW132501   6.443   5.466   2.231
10534SOL    HW232502   6.313   5.532   2.305
10535SOL     OW32503   1.508   2.065   2.193
10535SOL    HW132504   1.558   1.998   2.137
10535SOL    HW232505   1.509   2.035   2.288
10536SOL     OW32506   4.167   0.796   4.353
10536SOL    HW132507   4.106   0.724   4.320
10536SOL    HW232508   4.198   0.773   4.446
10537SOL     OW32509   4.208   6.193   4.387
10537SOL    HW132510   4.117   6.187   4.346
10537SOL    HW232511   4.201   6.229   4.480
10538SOL     OW32512   6.304   3.451   0.834
10538SOL    HW132513   6.367   3.528   0.841
10538SOL    HW232514   6.356   3.367   0.817
10539SOL     OW32515   0.644   4.728   0.337
10539SOL    HW132516   0.578   4.722   0.262
10539SOL    HW232517   0.624   4.808   0.393
10540SOL     OW32518   1.567   3.277   5.518
10540SOL    HW132519   1.585   3.227   5.434
10540SOL    HW232520   1.619   3.236   5.593
10541SOL     OW32521   3.563   3.864   1.816
10541SOL    HW132522   3.533   3.852   1.911
10541SOL    HW232523   3.578   3.774   1.775
10542SOL     OW32524   0.230   0.988   5.670
10542SOL    HW132525   0.176   0.918   5.716
10542SOL    HW232526   0.256   0.956   5.579
10543SOL     OW32527   0.309   1.569   4.640
10543SOL    HW132528   0.349   1.660   4.634
10543SOL    HW232529   0.317   1.535   4.733
10544SOL     OW32530   2.787   6.936   1.816
10544SOL    HW132531   2.751   6.967   1.904
10544SOL    HW232532   2.739   6.854   1.787
10545SOL     OW32533   0.435   1.877   1.128
10545SOL    HW132534   0.451   1.834   1.217
10545SOL    HW232535   0.336   1.891   1.116
10546SOL     OW32536   1.427   6.966   0.642
10546SOL    HW132537   1.423   7.007   0.733
10546SOL    HW232538   1.522   6.962   0.611
10547SOL     OW32539   5.277   2.728   3.492
10547SOL    HW132540   5.186   2.688   3.504
10547SOL    HW232541   5.289   2.756   3.396
10548SOL     OW32542   5.690   4.524   4.502
10548SOL    HW132543   5.673   4.480   4.413
10548SOL    HW232544   5.782   4.498   4.533
10549SOL     OW32545   0.683   0.456   1.929
10549SOL    HW132546   0.755   0.503   1.878
10549SOL    HW232547   0.697   0.469   2.027
10550SOL     OW32548   5.122   6.854   3.907
10550SOL    HW132549   5.090   6.895   3.822
10550SOL    HW232550   5.044   6.820   3.959
10551SOL     OW32551   1.329   2.597   0.108
10551SOL    HW132552   1.267   2.650   0.166
10551SOL    HW232553   1.423   2.617   0.134
10552SOL     OW32554   2.386   1.151   5.664
10552SOL    HW132555   2.293   1.183   5.677
10552SOL    HW232556   2.448   1.229   5.654
10553SOL     OW32557   0.547   4.514   1.205
10553SOL    HW132558   0.561   4.613   1.209
10553SOL    HW232559   0.601   4.476   1.129
10554SOL     OW32560   4.986   4.665   0.775
10554SOL    HW132561   5.029   4.734   0.718
10554SOL    HW232562   4.888   4.684   0.781
10555SOL     OW32563   2.192   2.103   0.638
10555SOL    HW132564   2.147   2.016   0.616
10555SOL    HW232565   2.281   2.085   0.679
10556SOL     OW32566   1.635   1.516   4.408
10556SOL    HW132567   1.614   1.497   4.504
10556SOL    HW232568   1.620   1.613   4.389
10557SOL     OW32569   1.888   3.012   2.968
10557SOL    HW132570   1.984   3.028   2.991
10557SOL    HW232571   1.833   3.091   2.998
10558SOL     OW32572   4.232   6.752   4.773
10558SOL    HW132573   4.329   6.769   4.787
10558SOL    HW232574   4.209   6.660   4.806
10559SOL     OW32575   4.810   0.832   1.755
10559SOL    HW132576   4.823   0.927   1.726
10559SOL    HW232577   4.898   0.793   1.783
10560SOL     OW32578   5.110   6.217   2.081
10560SOL    HW132579   5.154   6.308   2.076
10560SOL    HW232580   5.014   6.225   2.058
10561SOL     OW32581   3.706   4.359   1.701
10561SOL    HW132582   3.682   4.293   1.772
10561SOL    HW232583   3.673   4.450   1.727
10562SOL     OW32584   3.761   5.287   0.267
10562SOL    HW132585   3.692   5.253   0.204
10562SOL    HW232586   3.729   5.276   0.361
10563SOL     OW32587   0.329   1.085   3.152
10563SOL    HW132588   0.316   1.011   3.218
10563SOL    HW232589   0.426   1.111   3.151
10564SOL     OW32590   5.779   5.591   2.922
10564SOL    HW132591   5.685   5.564   2.940
10564SOL    HW232592   5.799   5.678   2.966
10565SOL     OW32593   0.547   6.908   5.888
10565SOL    HW132594   0.629   6.862   5.855
10565SOL    HW232595   0.537   6.891   5.986
10566SOL     OW32596   3.606   1.788   6.678
10566SOL    HW132597   3.615   1.884   6.650
10566SOL    HW232598   3.697   1.748   6.690
10567SOL     OW32599   2.227   2.122   4.945
10567SOL    HW132600   2.231   2.221   4.942
10567SOL    HW232601   2.294   2.083   4.881
10568SOL     OW32602   6.704   3.014   1.302
10568SOL    HW132603   6.718   2.934   1.360
10568SOL    HW232604   6.617   3.006   1.254
10569SOL     OW32605   5.282   1.152   2.296
10569SOL    HW132606   5.254   1.075   2.353
10569SOL    HW232607   5.330   1.116   2.215
10570SOL     OW32608   1.328   4.310   2.979
10570SOL    HW132609   1.387   4.232   2.958
10570SOL    HW232610   1.379   4.377   3.032
10571SOL     OW32611   0.129   4.351   5.187
10571SOL    HW132612   0.113   4.313   5.096
10571SOL    HW232613   0.063   4.424   5.205
10572SOL     OW32614   6.622   4.387   2.785
10572SOL    HW132615   6.614   4.288   2.799
10572SOL    HW232616   6.716   4.416   2.803
10573SOL     OW32617   5.755   0.380   4.943
10573SOL    HW132618   5.786   0.441   5.016
10573SOL    HW232619   5.666   0.410   4.909
10574SOL     OW32620   0.800   1.512   4.155
10574SOL    HW132621   0.761   1.533   4.244
10574SOL    HW232622   0.895   1.542   4.152
10575SOL     OW32623   0.141   1.118   3.815
10575SOL    HW132624   0.099   1.031   3.840
10575SOL    HW232625   0.078   1.170   3.757
10576SOL     OW32626   0.262   5.588   4.938
10576SOL    HW132627   0.323   5.665   4.957
10576SOL    HW232628   0.177   5.622   4.899
10577SOL     OW32629   2.120   4.456   0.136
10577SOL    HW132630   2.039   4.490   0.089
10577SOL    HW232631   2.148   4.523   0.205
10578SOL     OW32632   4.818   1.412   2.914
10578SOL    HW132633   4.896   1.475   2.915
10578SOL    HW232634   4.742   1.455   2.866
10579SOL     OW32635   4.406   2.988   1.733
10579SOL    HW132636   4.418   2.995   1.634
10579SOL    HW232637   4.489   3.020   1.779
10580SOL     OW32638   6.589   0.734   6.695
10580SOL    HW132639   6.592   0.730   6.795
10580SOL    HW232640   6.532   0.660   6.660
10581SOL     OW32641   5.745   6.831   3.139
10581SOL    HW132642   5.675   6.862   3.204
10581SOL    HW232643   5.793   6.911   3.101
10582SOL     OW32644   4.589   4.279   5.637
10582SOL    HW132645   4.646   4.200   5.615
10582SOL    HW232646   4.589   4.293   5.737
10583SOL     OW32647   3.325   1.214   4.071
10583SOL    HW132648   3.417   1.189   4.041
10583SOL    HW232649   3.331   1.275   4.150
10584SOL     OW32650   6.753   0.607   0.271
10584SOL    HW132651   6.658   0.620   0.244
10584SOL    HW232652   6.794   0.534   0.216
10585SOL     OW32653   2.670   1.814   5.438
10585SOL    HW132654   2.716   1.891   5.392
10585SOL    HW232655   2.739   1.754   5.478
10586SOL     OW32656   5.889   4.798   5.233
10586SOL    HW132657   5.799   4.824   5.269
10586SOL    HW232658   5.915   4.709   5.270
10587SOL     OW32659   6.234   4.813   0.242
10587SOL    HW132660   6.138   4.791   0.230
10587SOL    HW232661   6.242   4.908   0.274
10588SOL     OW32662   1.702   2.942   4.715
10588SOL    HW132663   1.661   2.863   4.670
10588SOL    HW232664   1.800   2.946   4.694
10589SOL     OW32665   6.264   0.957   4.460
10589SOL    HW132666   6.306   1.032   4.512
10589SOL    HW232667   6.175   0.985   4.426
10590SOL     OW32668   0.122   0.803   1.138
10590SOL    HW132669   0.082   0.713   1.153
10590SOL    HW232670   0.098   0.863   1.214
10591SOL     OW32671   1.473   2.184   0.191
10591SOL    HW132672   1.460   2.264   0.133
10591SOL    HW232673   1.457   2.101   0.137
10592SOL     OW32674   6.062   3.606   2.901
10592SOL    HW132675   6.123   3.529   2.882
10592SOL    HW232676   6.058   3.623   2.999
10593SOL     OW32677   2.288   5.797   0.388
10593SOL    HW132678   2.313   5.875   0.446
10593SOL    HW232679   2.346   5.797   0.306
10594SOL     OW32680   5.292   1.055   3.324
10594SOL    HW132681   5.198   1.075   3.351
10594SOL    HW232682   5.328   1.131   3.269
10595SOL     OW32683   5.280   6.683   6.768
10595SOL    HW132684   5.207   6.659   6.832
10595SOL    HW232685   5.243   6.739   6.694
10596SOL     OW32686   4.417   1.361   0.552
10596SOL    HW132687   4.387   1.377   0.646
10596SOL    HW232688   4.427   1.263   0.536
10597SOL     OW32689   3.027   1.614   5.739
10597SOL    HW132690   3.089   1.579   5.810
10597SOL    HW232691   2.968   1.684   5.779
10598SOL     OW32692   3.146   2.731   6.882
10598SOL    HW132693   3.090   2.806   6.917
10598SOL    HW232694   3.164   2.666   6.956
10599SOL     OW32695   5.503   3.552   6.261
10599SOL    HW132696   5.409   3.541   6.230
10599SOL    HW232697   5.504   3.568   6.360
10600SOL     OW32698   3.477   2.550   0.690
10600SOL    HW132699   3.386   2.588   0.672
10600SOL    HW232700   3.541   2.625   0.708
10601SOL     OW32701   1.278   4.822   5.000
10601SOL    HW132702   1.239   4.914   4.998
10601SOL    HW232703   1.374   4.827   4.973
10602SOL     OW32704   2.452   0.749   1.820
10602SOL    HW132705   2.499   0.817   1.876
10602SOL    HW232706   2.405   0.794   1.744
10603SOL     OW32707   3.730   0.209   3.434
10603SOL    HW132708   3.828   0.224   3.440
10603SOL    HW232709   3.710   0.150   3.356
10604SOL     OW32710   6.606   5.827   5.543
10604SOL    HW132711   6.579   5.744   5.494
10604SOL    HW232712   6.533   5.895   5.537
10605SOL     OW32713   1.984   6.707   6.526
10605SOL    HW132714   2.019   6.652   6.450
10605SOL    HW232715   1.886   6.723   6.512
10606SOL     OW32716   0.410   0.350   1.693
10606SOL    HW132717   0.373   0.443   1.692
10606SOL    HW232718   0.343   0.287   1.732
10607SOL     OW32719   3.942   5.207   6.008
10607SOL    HW132720   3.902   5.207   5.917
10607SOL    HW232721   3.996   5.291   6.020
10608SOL     OW32722   6.352   3.309   4.985
10608SOL    HW132723   6.305   3.367   4.918
10608SOL    HW232724   6.294   3.231   5.008
10609SOL     OW32725   2.762   6.461   6.915
10609SOL    HW132726   2.805   6.427   6.999
10609SOL    HW232727   2.711   6.544   6.935
10610SOL     OW32728   0.907   2.126   3.974
10610SOL    HW132729   0.896   2.125   3.875
10610SOL    HW232730   0.980   2.190   3.999
10611SOL     OW32731   2.050   4.131   6.436
10611SOL    HW132732   1.962   4.087   6.455
10611SOL    HW232733   2.040   4.194   6.359
10612SOL     OW32734   3.224   2.126   4.808
10612SOL    HW132735   3.197   2.037   4.846
10612SOL    HW232736   3.204   2.198   4.874
10613SOL     OW32737   5.476   6.119   5.486
10613SOL    HW132738   5.443   6.154   5.398
10613SOL    HW232739   5.512   6.026   5.473
10614SOL     OW32740   5.157   1.818   4.922
10614SOL    HW132741   5.067   1.839   4.960
10614SOL    HW232742   5.216   1.898   4.928
10615SOL     OW32743   4.479   0.635   5.360
10615SOL    HW132744   4.507   0.581   5.440
10615SOL    HW232745   4.406   0.587   5.312
10616SOL     OW32746   1.825   0.109   0.359
10616SOL    HW132747   1.877   0.189   0.387
10616SOL    HW232748   1.861   0.075   0.272
10617SOL     OW32749   2.988   4.139   1.230
10617SOL    HW132750   3.009   4.198   1.308
10617SOL    HW232751   2.925   4.067   1.258
10618SOL     OW32752   1.230   3.753   6.049
10618SOL    HW132753   1.255   3.716   5.959
10618SOL    HW232754   1.208   3.678   6.111
10619SOL     OW32755   0.537   2.851   2.687
10619SOL    HW132756   0.631   2.880   2.670
10619SOL    HW232757   0.502   2.896   2.770
10620SOL     OW32758   1.203   6.584   5.124
10620SOL    HW132759   1.141   6.606   5.049
10620SOL    HW232760   1.225   6.667   5.174
10621SOL     OW32761   0.638   4.985   1.718
10621SOL    HW132762   0.646   4.917   1.792
10621SOL    HW232763   0.555   4.968   1.666
10622SOL     OW32764   5.086   1.938   1.918
10622SOL    HW132765   5.106   2.004   1.990
10622SOL    HW232766   5.011   1.879   1.948
10623SOL     OW32767   0.681   5.118   5.549
10623SOL    HW132768   0.596   5.153   5.587
10623SOL    HW232769   0.758   5.166   5.590
10624SOL     OW32770   1.084   2.394   4.869
10624SOL    HW132771   0.993   2.356   4.889
10624SOL    HW232772   1.073   2.479   4.816
10625SOL     OW32773   0.237   4.828   0.966
10625SOL    HW132774   0.302   4.904   0.970
10625SOL    HW232775   0.157   4.856   0.913
10626SOL     OW32776   2.454   2.919   0.441
10626SOL    HW132777   2.507   2.976   0.503
10626SOL    HW232778   2.505   2.907   0.355
10627SOL     OW32779   4.994   0.277   0.056
10627SOL    HW132780   5.058   0.266   0.131
10627SOL    HW232781   5.043   0.272   6.988
10628SOL     OW32782   4.797   6.126   0.528
10628SOL    HW132783   4.748   6.046   0.559
10628SOL    HW232784   4.783   6.139   0.429
10629SOL     OW32785   2.729   5.147   4.915
10629SOL    HW132786   2.709   5.054   4.948
10629SOL    HW232787   2.777   5.198   4.986
10630SOL     OW32788   6.392   1.191   3.644
10630SOL    HW132789   6.346   1.241   3.571
10630SOL    HW232790   6.325   1.135   3.694
10631SOL     OW32791   3.436   5.142   5.130
10631SOL    HW132792   3.419   5.231   5.171
10631SOL    HW232793   3.354   5.110   5.084
10632SOL     OW32794   5.266   0.209   3.795
10632SOL    HW132795   5.338   0.194   3.863
10632SOL    HW232796   5.177   0.187   3.834
10633SOL     OW32797   2.453   2.672   0.681
10633SOL    HW132798   2.552   2.681   0.665
10633SOL    HW232799   2.419   2.591   0.634
10634SOL     OW32800   3.161   4.260   0.322
10634SOL    HW132801   3.172   4.161   0.315
10634SOL    HW232802   3.236   4.299   0.375
10635SOL     OW32803   1.977   3.414   6.919
10635SOL    HW132804   1.948   3.509   6.931
10635SOL    HW232805   2.075   3.412   6.897
10636SOL     OW32806   0.225   2.058   0.871
10636SOL    HW132807   0.271   2.004   0.942
10636SOL    HW232808   0.139   2.093   0.907
10637SOL     OW32809   1.809   4.566   5.705
10637SOL    HW132810   1.893   4.517   5.683
10637SOL    HW232811   1.809   4.591   5.801
10638SOL     OW32812   5.719   5.345   2.521
10638SOL    HW132813   5.794   5.377   2.579
10638SOL    HW232814   5.752   5.273   2.460
10639SOL     OW32815   1.121   3.705   3.248
10639SOL    HW132816   1.033   3.678   3.286
10639SOL    HW232817   1.122   3.687   3.150
10640SOL     OW32818   4.489   6.879   4.879
10640SOL    HW132819   4.515   6.818   4.804
10640SOL    HW232820   4.450   6.963   4.841
10641SOL     OW32821   2.126   2.002   2.212
10641SOL    HW132822   2.177   2.075   2.258
10641SOL    HW232823   2.137   1.917   2.263
10642SOL     OW32824   6.621   2.564   1.533
10642SOL    HW132825   6.581   2.533   1.620
10642SOL    HW232826   6.563   2.534   1.458
10643SOL     OW32827   1.304   5.478   4.440
10643SOL    HW132828   1.345   5.394   4.405
10643SOL    HW232829   1.206   5.478   4.420
10644SOL     OW32830   5.566   2.877   2.669
10644SOL    HW132831   5.577   2.961   2.721
10644SOL    HW232832   5.509   2.813   2.721
10645SOL     OW32833   1.936   2.749   4.418
10645SOL    HW132834   1.887   2.834   4.402
10645SOL    HW232835   2.021   2.767   4.468
10646SOL     OW32836   0.645   0.315   0.052
10646SOL    HW132837   0.718   0.379   0.026
10646SOL    HW232838   0.562   0.366   0.076
10647SOL     OW32839   3.102   5.395   4.800
10647SOL    HW132840   3.054   5.323   4.749
10647SOL    HW232841   3.123   5.471   4.738
10648SOL     OW32842   5.779   4.007   6.376
10648SOL    HW132843   5.698   3.953   6.400
10648SOL    HW232844   5.861   3.951   6.384
10649SOL     OW32845   0.053   4.606   2.454
10649SOL    HW132846   0.121   4.616   2.381
10649SOL    HW232847   0.093   4.636   2.541
10650SOL     OW32848   0.946   0.561   3.894
10650SOL    HW132849   0.900   0.611   3.967
10650SOL    HW232850   1.018   0.504   3.933
10651SOL     OW32851   5.426   6.643   0.150
10651SOL    HW132852   5.485   6.621   0.072
10651SOL    HW232853   5.378   6.561   0.180
10652SOL     OW32854   3.593   6.809   5.493
10652SOL    HW132855   3.674   6.863   5.516
10652SOL    HW232856   3.573   6.745   5.568
10653SOL     OW32857   3.727   5.555   3.473
10653SOL    HW132858   3.662   5.515   3.537
10653SOL    HW232859   3.767   5.483   3.415
10654SOL     OW32860   5.217   0.912   1.405
10654SOL    HW132861   5.170   0.994   1.373
10654SOL    HW232862   5.193   0.835   1.346
10655SOL     OW32863   2.474   5.650   0.557
10655SOL    HW132864   2.554   5.685   0.507
10655SOL    HW232865   2.391   5.689   0.517
10656SOL     OW32866   6.978   1.913   2.822
10656SOL    HW132867   6.910   1.897   2.893
10656SOL    HW232868   6.938   1.894   2.733
10657SOL     OW32869   5.932   0.895   5.778
10657SOL    HW132870   6.026   0.870   5.802
10657SOL    HW232871   5.868   0.829   5.817
10658SOL     OW32872   6.738   4.931   5.216
10658SOL    HW132873   6.720   4.922   5.314
10658SOL    HW232874   6.653   4.914   5.166
10659SOL     OW32875   0.370   5.433   1.239
10659SOL    HW132876   0.375   5.335   1.222
10659SOL    HW232877   0.455   5.464   1.281
10660SOL     OW32878   5.006   4.132   6.293
10660SOL    HW132879   5.096   4.158   6.258
10660SOL    HW232880   4.946   4.110   6.216
10661SOL     OW32881   1.058   6.662   1.447
10661SOL    HW132882   1.113   6.618   1.519
10661SOL    HW232883   1.102   6.647   1.358
10662SOL     OW32884   5.493   6.522   3.301
10662SOL    HW132885   5.520   6.485   3.212
10662SOL    HW232886   5.449   6.611   3.289
10663SOL     OW32887   0.765   1.979   2.614
10663SOL    HW132888   0.724   1.888   2.621
10663SOL    HW232889   0.737   2.035   2.692
10664SOL     OW32890   6.287   4.395   4.823
10664SOL    HW132891   6.369   4.360   4.868
10664SOL    HW232892   6.253   4.326   4.758
10665SOL     OW32893   1.041   1.977   0.717
10665SOL    HW132894   0.948   1.990   0.684
10665SOL    HW232895   1.070   2.057   0.770
10666SOL     OW32896   3.515   4.126   1.619
10666SOL    HW132897   3.589   4.066   1.649
10666SOL    HW232898   3.493   4.108   1.524
10667SOL     OW32899   4.613   3.123   5.769
10667SOL    HW132900   4.626   3.062   5.691
10667SOL    HW232901   4.547   3.083   5.832
10668SOL     OW32902   2.713   0.412   5.068
10668SOL    HW132903   2.625   0.457   5.060
10668SOL    HW232904   2.720   0.339   5.000
10669SOL     OW32905   5.266   6.813   1.357
10669SOL    HW132906   5.176   6.769   1.354
10669SOL    HW232907   5.310   6.804   1.268
10670SOL     OW32908   5.241   4.242   5.168
10670SOL    HW132909   5.336   4.264   5.188
10670SOL    HW232910   5.212   4.164   5.223
10671SOL     OW32911   2.600   2.434   3.158
10671SOL    HW132912   2.566   2.347   3.193
10671SOL    HW232913   2.639   2.420   3.067
10672SOL     OW32914   6.650   3.096   0.865
10672SOL    HW132915   6.629   3.049   0.951
10672SOL    HW232916   6.747   3.117   0.861
10673SOL     OW32917   1.341   0.913   6.419
10673SOL    HW132918   1.415   0.956   6.471
10673SOL    HW232919   1.285   0.857   6.481
10674SOL     OW32920   3.779   4.064   2.115
10674SOL    HW132921   3.829   3.978   2.123
10674SOL    HW232922   3.732   4.084   2.201
10675SOL     OW32923   1.848   0.266   6.742
10675SOL    HW132924   1.940   0.255   6.705
10675SOL    HW232925   1.808   0.351   6.708
10676SOL     OW32926   6.564   6.218   6.232
10676SOL    HW132927   6.605   6.194   6.144
10676SOL    HW232928   6.477   6.265   6.217
10677SOL     OW32929   1.411   0.335   2.288
10677SOL    HW132930   1.491   0.274   2.291
10677SOL    HW232931   1.363   0.330   2.376
10678SOL     OW32932   4.084   5.773   4.493
10678SOL    HW132933   4.046   5.853   4.541
10678SOL    HW232934   4.179   5.792   4.468
10679SOL     OW32935   4.526   5.595   6.117
10679SOL    HW132936   4.589   5.573   6.191
10679SOL    HW232937   4.564   5.670   6.062
10680SOL     OW32938   3.116   1.801   3.330
10680SOL    HW132939   3.165   1.887   3.313
10680SOL    HW232940   3.050   1.785   3.256
10681SOL     OW32941   0.647   3.619   0.521
10681SOL    HW132942   0.562   3.666   0.500
10681SOL    HW232943   0.675   3.642   0.615
10682SOL     OW32944   1.404   1.197   4.982
10682SOL    HW132945   1.370   1.243   5.064
10682SOL    HW232946   1.327   1.166   4.926
10683SOL     OW32947   3.579   1.896   3.625
10683SOL    HW132948   3.518   1.866   3.699
10683SOL    HW232949   3.538   1.975   3.579
10684SOL     OW32950   5.401   4.191   1.380
10684SOL    HW132951   5.386   4.281   1.420
10684SOL    HW232952   5.358   4.121   1.436
10685SOL     OW32953   0.587   5.521   2.447
10685SOL    HW132954   0.605   5.426   2.472
10685SOL    HW232955   0.545   5.568   2.525
10686SOL     OW32956   0.920   4.858   6.038
10686SOL    HW132957   0.850   4.928   6.055
10686SOL    HW232958   0.976   4.885   5.961
10687SOL     OW32959   6.723   5.173   1.584
10687SOL    HW132960   6.657   5.210   1.518
10687SOL    HW232961   6.764   5.090   1.547
10688SOL     OW32962   6.579   4.101   2.785
10688SOL    HW132963   6.485   4.135   2.785
10688SOL    HW232964   6.582   4.009   2.823
10689SOL     OW32965   0.716   5.705   3.405
10689SOL    HW132966   0.705   5.689   3.503
10689SOL    HW232967   0.716   5.803   3.387
10690SOL     OW32968   0.355   6.163   3.388
10690SOL    HW132969   0.352   6.237   3.455
10690SOL    HW232970   0.262   6.138   3.361
10691SOL     OW32971   0.748   2.539   2.369
10691SOL    HW132972   0.766   2.503   2.461
10691SOL    HW232973   0.816   2.608   2.346
10692SOL     OW32974   2.829   5.981   3.165
10692SOL    HW132975   2.928   5.982   3.183
10692SOL    HW232976   2.813   5.944   3.073
10693SOL     OW32977   2.412   6.988   7.011
10693SOL    HW132978   2.441   0.064   7.018
10693SOL    HW232979   2.385   6.968   6.916
10694SOL     OW32980   5.187   6.167   1.772
10694SOL    HW132981   5.098   6.211   1.758
10694SOL    HW232982   5.225   6.195   1.861
10695SOL     OW32983   5.243   1.891   3.222
10695SOL    HW132984   5.290   1.902   3.310
10695SOL    HW232985   5.268   1.966   3.161
10696SOL     OW32986   0.026   3.588   3.708
10696SOL    HW132987   0.071   3.580   3.619
10696SOL    HW232988   6.946   3.593   3.695
10697SOL     OW32989   0.108   6.269   4.439
10697SOL    HW132990   0.166   6.200   4.482
10697SOL    HW232991   0.012   6.251   4.461
10698SOL     OW32992   4.800   5.631   5.312
10698SOL    HW132993   4.763   5.698   5.247
10698SOL    HW232994   4.816   5.675   5.400
10699SOL     OW32995   4.020   3.258   2.029
10699SOL    HW132996   3.923   3.256   2.001
10699SOL    HW232997   4.047   3.352   2.046
10700SOL     OW32998   6.974   6.989   2.250
10700SOL    HW132999   0.041   7.006   2.297
10700SOL    HW233000   6.967   0.031   2.171
10701SOL     OW33001   3.502   5.936   0.095
10701SOL    HW133002   3.463   6.013   0.045
10701SOL    HW233003   3.573   5.892   0.040
10702SOL     OW33004   5.796   2.916   2.228
10702SOL    HW133005   5.731   2.862   2.176
10702SOL    HW233006   5.749   2.961   2.304
10703SOL     OW33007   3.191   4.008   4.946
10703SOL    HW133008   3.268   4.020   5.009
10703SOL    HW233009   3.216   4.041   4.855
10704SOL     OW33010   6.358   5.316   1.768
10704SOL    HW133011   6.434   5.257   1.796
10704SOL    HW233012   6.301   5.267   1.701
10705SOL     OW33013   6.187   4.890   1.895
10705SOL    HW133014   6.206   4.803   1.850
10705SOL    HW233015   6.249   4.901   1.973
10706SOL     OW33016   5.097   6.782   2.557
10706SOL    HW133017   5.057   6.744   2.640
10706SOL    HW233018   5.093   6.713   2.484
10707SOL     OW33019   0.137   6.292   3.787
10707SOL    HW133020   0.147   6.372   3.846
10707SOL    HW233021   0.075   6.227   3.831
10708SOL     OW33022   4.221   0.776   2.248
10708SOL    HW133023   4.254   0.863   2.210
10708SOL    HW233024   4.211   0.785   2.347
10709SOL     OW33025   6.451   6.524   4.895
10709SOL    HW133026   6.383   6.586   4.856
10709SOL    HW233027   6.518   6.500   4.825
10710SOL     OW33028   0.466   6.625   4.957
10710SOL    HW133029   0.530   6.699   4.936
10710SOL    HW233030   0.454   6.619   5.056
10711SOL     OW33031   1.623   6.106   3.850
10711SOL    HW133032   1.563   6.166   3.797
10711SOL    HW233033   1.567   6.051   3.913
10712SOL     OW33034   2.823   1.197   1.526
10712SOL    HW133035   2.727   1.216   1.504
10712SOL    HW233036   2.878   1.206   1.444
10713SOL     OW33037   1.274   4.149   1.545
10713SOL    HW133038   1.306   4.075   1.604
10713SOL    HW233039   1.320   4.143   1.457
10714SOL     OW33040   6.058   3.977   4.640
10714SOL    HW133041   6.020   3.939   4.724
10714SOL    HW233042   6.122   3.912   4.600
10715SOL     OW33043   4.861   6.875   2.979
10715SOL    HW133044   4.860   6.975   2.989
10715SOL    HW233045   4.953   6.841   3.001
10716SOL     OW33046   5.645   2.516   4.712
10716SOL    HW133047   5.591   2.522   4.629
10716SOL    HW233048   5.720   2.582   4.707
10717SOL     OW33049   1.080   2.617   1.234
10717SOL    HW133050   1.118   2.623   1.143
10717SOL    HW233051   1.041   2.706   1.260
10718SOL     OW33052   1.558   3.008   6.621
10718SOL    HW133053   1.493   3.006   6.545
10718SOL    HW233054   1.646   3.042   6.589
10719SOL     OW33055   5.199   5.672   0.520
10719SOL    HW133056   5.264   5.746   0.503
10719SOL    HW233057   5.116   5.688   0.467
10720SOL     OW33058   6.618   3.312   4.960
10720SOL    HW133059   6.521   3.317   4.981
10720SOL    HW233060   6.640   3.381   4.890
10721SOL     OW33061   6.109   4.215   5.472
10721SOL    HW133062   6.009   4.208   5.471
10721SOL    HW233063   6.140   4.257   5.386
10722SOL     OW33064   0.309   3.611   0.731
10722SOL    HW133065   0.220   3.614   0.686
10722SOL    HW233066   0.360   3.531   0.701
10723SOL     OW33067   0.514   3.903   5.765
10723SOL    HW133068   0.499   3.892   5.863
10723SOL    HW233069   0.568   3.986   5.749
10724SOL     OW33070   4.444   1.116   6.991
10724SOL    HW133071   4.447   1.030   0.023
10724SOL    HW233072   4.474   1.100   6.897
10725SOL     OW33073   0.098   4.637   4.494
10725SOL    HW133074   0.084   4.578   4.415
10725SOL    HW233075   0.150   4.718   4.466
10726SOL     OW33076   5.320   6.932   5.986
10726SOL    HW133077   5.255   6.990   5.938
10726SOL    HW233078   5.294   6.836   5.974
10727SOL     OW33079   0.582   5.108   4.119
10727SOL    HW133080   0.621   5.045   4.186
10727SOL    HW233081   0.514   5.167   4.163
10728SOL     OW33082   6.225   6.104   1.197
10728SOL    HW133083   6.312   6.058   1.212
10728SOL    HW233084   6.209   6.170   1.270
10729SOL     OW33085   5.450   1.110   2.574
10729SOL    HW133086   5.457   1.017   2.537
10729SOL    HW233087   5.536   1.135   2.618
10730SOL     OW33088   2.223   0.363   1.888
10730SOL    HW133089   2.190   0.335   1.798
10730SOL    HW233090   2.145   0.382   1.947
10731SOL     OW33091   2.908   5.868   0.288
10731SOL    HW133092   2.972   5.828   0.223
10731SOL    HW233093   2.918   5.968   0.288
10732SOL     OW33094   4.832   5.240   2.368
10732SOL    HW133095   4.926   5.217   2.345
10732SOL    HW233096   4.820   5.339   2.365
10733SOL     OW33097   5.010   1.830   6.915
10733SOL    HW133098   5.067   1.798   6.839
10733SOL    HW233099   5.019   1.929   6.923
10734SOL     OW33100   1.077   0.268   0.117
10734SOL    HW133101   1.092   0.246   0.214
10734SOL    HW233102   1.149   0.329   0.085
10735SOL     OW33103   1.574   4.773   2.749
10735SOL    HW133104   1.540   4.828   2.673
10735SOL    HW233105   1.511   4.697   2.766
10736SOL     OW33106   0.436   0.742   3.620
10736SOL    HW133107   0.531   0.753   3.647
10736SOL    HW233108   0.430   0.685   3.538
10737SOL     OW33109   1.242   1.687   0.572
10737SOL    HW133110   1.287   1.721   0.490
10737SOL    HW233111   1.270   1.742   0.651
10738SOL     OW33112   2.451   0.892   3.148
10738SOL    HW133113   2.448   0.865   3.052
10738SOL    HW233114   2.383   0.840   3.200
10739SOL     OW33115   0.015   1.595   1.327
10739SOL    HW133116   0.062   1.534   1.263
10739SOL    HW233117   6.990   1.541   1.398
10740SOL     OW33118   1.013   4.750   5.380
10740SOL    HW133119   1.069   4.798   5.447
10740SOL    HW233120   0.936   4.808   5.352
10741SOL     OW33121   0.157   0.603   3.125
10741SOL    HW133122   0.253   0.627   3.136
10741SOL    HW233123   0.113   0.670   3.066
10742SOL     OW33124   5.794   0.126   1.436
10742SOL    HW133125   5.750   0.043   1.469
10742SOL    HW233126   5.760   0.148   1.344
10743SOL     OW33127   2.343   1.572   4.739
10743SOL    HW133128   2.383   1.640   4.678
10743SOL    HW233129   2.357   1.481   4.699
10744SOL     OW33130   2.986   1.108   2.291
10744SOL    HW133131   3.061   1.145   2.346
10744SOL    HW233132   3.010   1.114   2.194
10745SOL     OW33133   1.152   4.733   1.007
10745SOL    HW133134   1.059   4.766   0.991
10745SOL    HW233135   1.199   4.724   0.919
10746SOL     OW33136   1.764   3.777   1.564
10746SOL    HW133137   1.750   3.775   1.663
10746SOL    HW233138   1.784   3.685   1.531
10747SOL     OW33139   4.329   0.732   2.963
10747SOL    HW133140   4.392   0.656   2.946
10747SOL    HW233141   4.257   0.702   3.025
10748SOL     OW33142   3.448   0.580   1.184
10748SOL    HW133143   3.458   0.482   1.203
10748SOL    HW233144   3.456   0.595   1.085
10749SOL     OW33145   0.000   4.908   3.798
10749SOL    HW133146   6.939   4.867   3.841
10749SOL    HW233147   0.029   4.988   3.850
10750SOL     OW33148   3.945   5.954   4.632
10750SOL    HW133149   3.942   6.038   4.686
10750SOL    HW233150   3.874   5.891   4.665
10751SOL     OW33151   0.766   4.085   4.806
10751SOL    HW133152   0.829   4.137   4.864
10751SOL    HW233153   0.793   4.095   4.710
10752SOL     OW33154   6.708   3.908   6.132
10752SOL    HW133155   6.731   3.881   6.226
10752SOL    HW233156   6.660   3.834   6.086
10753SOL     OW33157   5.226   0.610   4.401
10753SOL    HW133158   5.201   0.629   4.306
10753SOL    HW233159   5.290   0.533   4.403
10754SOL     OW33160   1.377   1.811   3.899
10754SOL    HW133161   1.291   1.856   3.876
10754SOL    HW233162   1.390   1.730   3.842
10755SOL     OW33163   0.431   2.407   0.309
10755SOL    HW133164   0.419   2.312   0.337
10755SOL    HW233165   0.524   2.437   0.330
10756SOL     OW33166   6.570   4.564   6.932
10756SOL    HW133167   6.621   4.648   6.916
10756SOL    HW233168   6.472   4.585   6.934
10757SOL     OW33169   1.282   3.167   0.400
10757SOL    HW133170   1.298   3.111   0.482
10757SOL    HW233171   1.323   3.123   0.321
10758SOL     OW33172   0.953   6.795   5.273
10758SOL    HW133173   0.915   6.706   5.249
10758SOL    HW233174   1.013   6.826   5.199
10759SOL     OW33175   1.837   3.211   6.998
10759SOL    HW133176   1.769   3.253   0.038
10759SOL    HW233177   1.914   3.274   6.985
10760SOL     OW33178   6.339   1.132   0.364
10760SOL    HW133179   6.348   1.049   0.419
10760SOL    HW233180   6.389   1.121   0.278
10761SOL     OW33181   1.240   2.117   6.161
10761SOL    HW133182   1.190   2.052   6.103
10761SOL    HW233183   1.227   2.091   6.257
10762SOL     OW33184   3.854   1.703   4.973
10762SOL    HW133185   3.893   1.789   5.006
10762SOL    HW233186   3.757   1.716   4.954
10763SOL     OW33187   4.500   6.304   1.162
10763SOL    HW133188   4.503   6.356   1.077
10763SOL    HW233189   4.584   6.251   1.172
10764SOL     OW33190   5.872   1.868   5.341
10764SOL    HW133191   5.939   1.808   5.298
10764SOL    HW233192   5.833   1.930   5.272
10765SOL     OW33193   5.839   3.033   1.138
10765SOL    HW133194   5.915   2.986   1.184
10765SOL    HW233195   5.772   2.966   1.107
10766SOL     OW33196   3.551   3.056   1.128
10766SOL    HW133197   3.644   3.021   1.119
10766SOL    HW233198   3.529   3.112   1.048
10767SOL     OW33199   1.513   0.463   6.780
10767SOL    HW133200   1.436   0.526   6.784
10767SOL    HW233201   1.495   0.391   6.713
10768SOL     OW33202   4.177   5.431   1.122
10768SOL    HW133203   4.096   5.389   1.081
10768SOL    HW233204   4.160   5.446   1.220
10769SOL     OW33205   1.988   5.233   4.957
10769SOL    HW133206   2.018   5.297   5.027
10769SOL    HW233207   2.028   5.143   4.974
10770SOL     OW33208   5.735   0.272   4.692
10770SOL    HW133209   5.792   0.190   4.682
10770SOL    HW233210   5.752   0.314   4.781
10771SOL     OW33211   5.301   1.155   4.776
10771SOL    HW133212   5.348   1.164   4.864
10771SOL    HW233213   5.234   1.229   4.767
10772SOL     OW33214   6.633   6.496   4.691
10772SOL    HW133215   6.727   6.503   4.658
10772SOL    HW233216   6.594   6.408   4.665
10773SOL     OW33217   6.419   5.494   6.637
10773SOL    HW133218   6.469   5.515   6.553
10773SOL    HW233219   6.405   5.579   6.689
10774SOL     OW33220   1.916   1.466   6.819
10774SOL    HW133221   1.838   1.528   6.826
10774SOL    HW233222   1.886   1.379   6.779
10775SOL     OW33223   0.356   2.796   0.737
10775SOL    HW133224   0.312   2.711   0.768
10775SOL    HW233225   0.316   2.825   0.651
10776SOL     OW33226   1.510   6.445   6.949
10776SOL    HW133227   1.478   6.426   6.856
10776SOL    HW233228   1.563   6.368   6.983
10777SOL     OW33229   3.913   6.268   4.203
10777SOL    HW133230   3.877   6.178   4.227
10777SOL    HW233231   3.882   6.294   4.112
10778SOL     OW33232   5.752   6.090   5.170
10778SOL    HW133233   5.821   6.031   5.129
10778SOL    HW233234   5.666   6.039   5.181
10779SOL     OW33235   6.395   4.830   3.385
10779SOL    HW133236   6.376   4.883   3.468
10779SOL    HW233237   6.475   4.868   3.339
10780SOL     OW33238   1.335   0.093   3.712
10780SOL    HW133239   1.400   0.029   3.751
10780SOL    HW233240   1.265   0.116   3.779
10781SOL     OW33241   3.889   1.604   2.795
10781SOL    HW133242   3.911   1.619   2.891
10781SOL    HW233243   3.794   1.574   2.787
10782SOL     OW33244   0.161   1.519   3.518
10782SOL    HW133245   0.205   1.514   3.608
10782SOL    HW233246   0.104   1.602   3.514
10783SOL     OW33247   1.026   3.510   3.568
10783SOL    HW133248   1.055   3.439   3.632
10783SOL    HW233249   1.011   3.470   3.478
10784SOL     OW33250   3.045   0.249   3.324
10784SOL    HW133251   3.017   0.265   3.229
10784SOL    HW233252   2.976   0.195   3.371
10785SOL     OW33253   0.463   5.007   1.087
10785SOL    HW133254   0.493   4.926   1.137
10785SOL    HW233255   0.542   5.048   1.040
10786SOL     OW33256   5.062   4.719   2.340
10786SOL    HW133257   5.046   4.779   2.261
10786SOL    HW233258   5.109   4.636   2.310
10787SOL     OW33259   3.398   1.407   4.277
10787SOL    HW133260   3.472   1.452   4.326
10787SOL    HW233261   3.335   1.475   4.240
10788SOL     OW33262   2.181   4.882   6.663
10788SOL    HW133263   2.266   4.906   6.710
10788SOL    HW233264   2.191   4.791   6.620
10789SOL     OW33265   5.927   2.880   0.458
10789SOL    HW133266   5.884   2.874   0.367
10789SOL    HW233267   5.990   2.958   0.460
10790SOL     OW33268   1.385   0.631   2.627
10790SOL    HW133269   1.339   0.561   2.682
10790SOL    HW233270   1.317   0.697   2.594
10791SOL     OW33271   0.012   0.329   1.124
10791SOL    HW133272   0.064   0.246   1.144
10791SOL    HW233273   6.984   0.319   1.037
10792SOL     OW33274   3.964   3.860   2.197
10792SOL    HW133275   4.012   3.853   2.284
10792SOL    HW233276   4.029   3.847   2.122
10793SOL     OW33277   5.295   2.425   4.337
10793SOL    HW133278   5.212   2.376   4.362
10793SOL    HW233279   5.302   2.431   4.237
10794SOL     OW33280   2.863   3.683   3.603
10794SOL    HW133281   2.882   3.752   3.532
10794SOL    HW233282   2.949   3.649   3.640
10795SOL     OW33283   6.797   3.403   3.492
10795SOL    HW133284   6.780   3.374   3.586
10795SOL    HW233285   6.715   3.447   3.455
10796SOL     OW33286   5.124   6.543   0.535
10796SOL    HW133287   5.049   6.608   0.523
10796SOL    HW233288   5.119   6.502   0.627
10797SOL     OW33289   3.652   2.001   1.264
10797SOL    HW133290   3.630   2.012   1.168
10797SOL    HW233291   3.615   2.078   1.316
10798SOL     OW33292   2.673   6.407   1.241
10798SOL    HW133293   2.705   6.403   1.146
10798SOL    HW233294   2.747   6.381   1.303
10799SOL     OW33295   3.781   0.785   2.050
10799SOL    HW133296   3.738   0.858   2.103
10799SOL    HW233297   3.710   0.726   2.012
10800SOL     OW33298   0.437   0.198   0.301
10800SOL    HW133299   0.432   0.237   0.393
10800SOL    HW233300   0.533   0.193   0.273
10801SOL     OW33301   1.045   6.787   5.690
10801SOL    HW133302   1.001   6.720   5.631
10801SOL    HW233303   1.104   6.846   5.635
10802SOL     OW33304   1.437   2.850   3.445
10802SOL    HW133305   1.500   2.873   3.371
10802SOL    HW233306   1.384   2.931   3.471
10803SOL     OW33307   3.614   4.191   5.628
10803SOL    HW133308   3.682   4.124   5.598
10803SOL    HW233309   3.633   4.216   5.723
10804SOL     OW33310   5.873   3.224   1.907
10804SOL    HW133311   5.928   3.243   1.988
10804SOL    HW233312   5.933   3.210   1.828
10805SOL     OW33313   3.926   6.877   7.013
10805SOL    HW133314   3.864   6.807   6.977
10805SOL    HW233315   4.011   6.877   6.960
10806SOL     OW33316   4.595   4.316   5.906
10806SOL    HW133317   4.541   4.389   5.948
10806SOL    HW233318   4.692   4.332   5.925
10807SOL     OW33319   1.328   6.551   3.287
10807SOL    HW133320   1.306   6.486   3.215
10807SOL    HW233321   1.244   6.587   3.328
10808SOL     OW33322   6.624   3.683   6.312
10808SOL    HW133323   6.632   3.584   6.316
10808SOL    HW233324   6.712   3.725   6.336
10809SOL     OW33325   3.053   6.001   3.698
10809SOL    HW133326   3.046   5.961   3.789
10809SOL    HW233327   3.066   6.100   3.706
10810SOL     OW33328   2.208   0.321   4.856
10810SOL    HW133329   2.187   0.243   4.915
10810SOL    HW233330   2.124   0.352   4.811
10811SOL     OW33331   4.202   4.789   5.793
10811SOL    HW133332   4.197   4.833   5.883
10811SOL    HW233333   4.183   4.857   5.722
10812SOL     OW33334   1.014   3.431   1.741
10812SOL    HW133335   1.095   3.376   1.764
10812SOL    HW233336   1.035   3.528   1.755
10813SOL     OW33337   2.004   5.497   0.124
10813SOL    HW133338   1.922   5.550   0.145
10813SOL    HW233339   2.062   5.493   0.205
10814SOL     OW33340   1.373   6.573   6.445
10814SOL    HW133341   1.362   6.625   6.530
10814SOL    HW233342   1.402   6.635   6.372
10815SOL     OW33343   4.604   4.396   3.350
10815SOL    HW133344   4.679   4.347   3.305
10815SOL    HW233345   4.600   4.369   3.447
10816SOL     OW33346   1.807   2.360   1.208
10816SOL    HW133347   1.830   2.342   1.303
10816SOL    HW233348   1.875   2.317   1.149
10817SOL     OW33349   5.581   6.526   2.784
10817SOL    HW133350   5.657   6.550   2.845
10817SOL    HW233351   5.571   6.427   2.780
10818SOL     OW33352   4.554   4.452   5.432
10818SOL    HW133353   4.548   4.412   5.340
10818SOL    HW233354   4.582   4.380   5.497
10819SOL     OW33355   6.877   4.429   0.120
10819SOL    HW133356   6.871   4.331   0.102
10819SOL    HW233357   6.884   4.479   0.033
10820SOL     OW33358   5.857   5.630   3.881
10820SOL    HW133359   5.915   5.577   3.819
10820SOL    HW233360   5.907   5.711   3.912
10821SOL     OW33361   5.689   6.389   2.202
10821SOL    HW133362   5.718   6.295   2.187
10821SOL    HW233363   5.602   6.405   2.154
10822SOL     OW33364   1.074   2.987   3.220
10822SOL    HW133365   0.974   2.989   3.230
10822SOL    HW233366   1.098   3.011   3.126
10823SOL     OW33367   1.804   5.470   1.555
10823SOL    HW133368   1.830   5.381   1.517
10823SOL    HW233369   1.859   5.489   1.636
10824SOL     OW33370   5.924   0.931   3.570
10824SOL    HW133371   6.019   0.900   3.580
10824SOL    HW233372   5.922   1.013   3.513
10825SOL     OW33373   3.193   0.282   6.440
10825SOL    HW133374   3.148   0.288   6.351
10825SOL    HW233375   3.258   0.358   6.450
10826SOL     OW33376   0.229   3.566   3.363
10826SOL    HW133377   0.254   3.550   3.458
10826SOL    HW233378   0.312   3.573   3.307
10827SOL     OW33379   6.436   4.322   4.207
10827SOL    HW133380   6.367   4.375   4.256
10827SOL    HW233381   6.391   4.262   4.141
10828SOL     OW33382   0.832   5.172   1.779
10828SOL    HW133383   0.924   5.137   1.757
10828SOL    HW233384   0.764   5.118   1.730
10829SOL     OW33385   3.563   2.407   0.978
10829SOL    HW133386   3.625   2.374   0.906
10829SOL    HW233387   3.469   2.382   0.953
10830SOL     OW33388   5.539   1.712   3.921
10830SOL    HW133389   5.442   1.689   3.910
10830SOL    HW233390   5.552   1.760   4.007
10831SOL     OW33391   3.832   6.099   2.160
10831SOL    HW133392   3.751   6.074   2.107
10831SOL    HW233393   3.812   6.086   2.257
10832SOL     OW33394   1.241   2.513   0.624
10832SOL    HW133395   1.232   2.417   0.599
10832SOL    HW233396   1.333   2.531   0.657
10833SOL     OW33397   1.477   1.347   2.200
10833SOL    HW133398   1.519   1.290   2.129
10833SOL    HW233399   1.382   1.320   2.213
10834SOL     OW33400   1.460   2.346   6.730
10834SOL    HW133401   1.393   2.395   6.675
10834SOL    HW233402   1.466   2.251   6.699
10835SOL     OW33403   6.509   2.310   6.945
10835SOL    HW133404   6.564   2.250   6.887
10835SOL    HW233405   6.566   2.344   0.001
10836SOL     OW33406   0.093   1.962   4.476
10836SOL    HW133407   0.111   2.001   4.566
10836SOL    HW233408   0.080   2.036   4.410
10837SOL     OW33409   0.143   4.925   0.423
10837SOL    HW133410   0.158   4.990   0.349
10837SOL    HW233411   0.074   4.962   0.486
10838SOL     OW33412   5.867   6.465   4.718
10838SOL    HW133413   5.810   6.516   4.783
10838SOL    HW233414   5.811   6.397   4.671
10839SOL     OW33415   3.813   2.998   1.134
10839SOL    HW133416   3.887   3.039   1.080
10839SOL    HW233417   3.838   2.906   1.161
10840SOL     OW33418   3.950   5.463   2.266
10840SOL    HW133419   3.938   5.443   2.169
10840SOL    HW233420   4.045   5.490   2.283
10841SOL     OW33421   4.623   5.831   0.240
10841SOL    HW133422   4.542   5.881   0.270
10841SOL    HW233423   4.597   5.766   0.168
10842SOL     OW33424   4.980   2.640   1.382
10842SOL    HW133425   4.992   2.630   1.283
10842SOL    HW233426   4.958   2.552   1.423
10843SOL     OW33427   0.783   2.355   1.426
10843SOL    HW133428   0.695   2.358   1.377
10843SOL    HW233429   0.803   2.446   1.463
10844SOL     OW33430   0.300   0.001   4.051
10844SOL    HW133431   0.310   0.097   4.075
10844SOL    HW233432   0.331   7.005   3.957
10845SOL     OW33433   3.341   0.246   5.886
10845SOL    HW133434   3.265   0.195   5.926
10845SOL    HW233435   3.329   0.252   5.787
10846SOL     OW33436   4.683   2.639   1.329
10846SOL    HW133437   4.680   2.609   1.234
10846SOL    HW233438   4.774   2.673   1.351
10847SOL     OW33439   3.809   3.818   6.400
10847SOL    HW133440   3.764   3.756   6.335
10847SOL    HW233441   3.904   3.831   6.373
10848SOL     OW33442   2.728   2.669   0.107
10848SOL    HW133443   2.638   2.706   0.131
10848SOL    HW233444   2.727   2.636   0.013
10849SOL     OW33445   2.854   5.073   2.988
10849SOL    HW133446   2.787   5.044   3.056
10849SOL    HW233447   2.807   5.117   2.911
10850SOL     OW33448   4.004   5.667   0.084
10850SOL    HW133449   4.005   5.579   0.133
10850SOL    HW233450   3.926   5.669   0.022
10851SOL     OW33451   2.566   3.198   6.629
10851SOL    HW133452   2.652   3.232   6.589
10851SOL    HW233453   2.514   3.151   6.558
10852SOL     OW33454   0.887   6.903   6.940
10852SOL    HW133455   0.889   6.856   6.853
10852SOL    HW233456   0.831   6.851   7.005
10853SOL     OW33457   3.271   2.303   5.772
10853SOL    HW133458   3.329   2.377   5.737
10853SOL    HW233459   3.254   2.237   5.699
10854SOL     OW33460   5.361   0.295   5.315
10854SOL    HW133461   5.400   0.204   5.308
10854SOL    HW233462   5.386   0.349   5.235
10855SOL     OW33463   2.861   6.581   1.809
10855SOL    HW133464   2.855   6.530   1.894
10855SOL    HW233465   2.945   6.554   1.760
10856SOL     OW33466   5.959   1.918   2.007
10856SOL    HW133467   5.915   1.964   1.930
10856SOL    HW233468   5.895   1.851   2.047
10857SOL     OW33469   5.661   2.545   3.127
10857SOL    HW133470   5.662   2.481   3.204
10857SOL    HW233471   5.578   2.533   3.074
10858SOL     OW33472   0.702   2.243   6.624
10858SOL    HW133473   0.781   2.303   6.628
10858SOL    HW233474   0.642   2.262   6.703
10859SOL     OW33475   2.085   3.289   3.924
10859SOL    HW133476   2.115   3.194   3.915
10859SOL    HW233477   2.119   3.327   4.010
10860SOL     OW33478   6.348   1.228   6.172
10860SOL    HW133479   6.412   1.162   6.133
10860SOL    HW233480   6.346   1.310   6.116
10861SOL     OW33481   4.101   3.268   2.984
10861SOL    HW133482   4.191   3.309   2.982
10861SOL    HW233483   4.060   3.279   3.074
10862SOL     OW33484   2.557   1.781   6.356
10862SOL    HW133485   2.655   1.771   6.336
10862SOL    HW233486   2.511   1.818   6.275
10863SOL     OW33487   3.797   0.621   2.968
10863SOL    HW133488   3.811   0.693   3.037
10863SOL    HW233489   3.803   0.661   2.877
10864SOL     OW33490   3.706   5.237   0.589
10864SOL    HW133491   3.692   5.284   0.676
10864SOL    HW233492   3.623   5.243   0.534
10865SOL     OW33493   6.038   1.270   3.033
10865SOL    HW133494   6.010   1.174   3.039
10865SOL    HW233495   6.073   1.289   2.942
10866SOL     OW33496   4.330   4.597   0.224
10866SOL    HW133497   4.246   4.577   0.174
10866SOL    HW233498   4.309   4.612   0.321
10867SOL     OW33499   3.091   3.968   0.342
10867SOL    HW133500   3.109   3.898   0.410
10867SOL    HW233501   2.996   3.962   0.312
10868SOL     OW33502   2.571   2.195   3.705
10868SOL    HW133503   2.473   2.182   3.690
10868SOL    HW233504   2.619   2.196   3.617
10869NA      NA33505   0.512   2.493   6.270
10870NA      NA33506   4.336   4.594   5.302
10871NA      NA33507   2.155   4.219   2.314
10872NA      NA33508   4.991   4.263   3.666
10873NA      NA33509   4.243   2.186   5.099
10874NA      NA33510   3.193   4.433   1.549
10875NA      NA33511   0.203   4.509   0.486
10876NA      NA33512   3.110   3.501   2.789
10877NA      NA33513   4.861   5.190   1.096
10878NA      NA33514   3.497   6.992   5.363
10879NA      NA33515   5.892   5.804   0.984
10880NA      NA33516   2.352   0.895   4.995
10881NA      NA33517   4.140   4.964   1.838
10882NA      NA33518   4.096   3.242   1.647
   7.01897   7.01897   7.01897
